Membrane in water
40155
    1TCq1    O1    1   1.273   3.631  10.759  0.7138 -0.2884 -0.1023
    1TCq1    C1    2   1.204   3.521  10.793 -0.7676  0.6362  0.4150
    1TCq1    O2    3   1.147   3.446  10.712 -0.3423 -0.3165  0.3186
    1TCq1    C2    4   1.173   3.531  10.933  0.0131  0.2154  0.0805
    1TCq1    C3    5   1.200   3.651  10.992  1.0312 -0.5786 -0.3325
    1TCq1    C4    6   1.109   3.696  11.084  0.3250 -0.6639  0.2192
    1TCq1    C5    7   0.997   3.624  11.120 -0.4064  0.3561  0.1406
    1TCq1    C6    8   0.980   3.503  11.066  0.3489 -0.2188  0.0376
    1TCq1    C7    9   1.064   3.456  10.972  1.2377  0.0716  0.3254
    1TCq1    C8   10   0.873   3.420  11.126  0.4384 -0.3578 -0.4892
    1TCq1    O4   11   0.812   3.472  11.220  0.3775  0.1213  0.6484
    1TCq1    C9   12   1.128   3.820  11.159  0.0074  0.3405  0.3599
    1TCq1    O5   13   1.247   3.846  11.193 -0.0573 -0.1597  0.6651
    1TCq1    O6   14   1.024   3.866  11.217  0.4088 -0.1921  0.4066
    1TCq1    H1   15   1.303   3.684  10.835  0.5825  1.5915 -1.3621
    1TCq1    H2   16   1.293   3.705  10.977  0.4811  0.3680 -0.3255
    1TCq1    H3   17   0.928   3.666  11.192  0.5552  0.3701  1.0570
    1TCq1    H4   18   1.053   3.365  10.915 -2.7585  1.9577 -1.8852
    2MPD2     C   19   0.675   2.957  11.197 -1.0163  0.3803  0.2419
    2MPD2    C1   20   0.645   3.076  11.269 -0.0530 -0.3729 -0.5446
    2MPD2    C2   21   0.718   3.187  11.233  0.3550 -0.1824 -0.5221
    2MPD2    C3   22   0.814   3.180  11.131  0.2761 -0.7739 -0.2474
    2MPD2    C4   23   0.835   3.067  11.063 -0.2971 -0.3800 -0.2250
    2MPD2    C5   24   0.764   2.954  11.092 -0.2889  0.1714 -0.0501
    2MPD2     H   25   0.708   3.283  11.282  2.5359 -0.5366  0.6334
    2MPD2    H1   26   0.899   3.050  10.977  0.8458  0.1220  0.5428
    2MPD2    H2   27   0.613   2.870  11.217 -0.9122  1.1124  3.5666
    2MPD2    H3   28   0.783   2.871  11.026 -0.1837  1.8198 -2.1061
    2MPD2     N   29   0.888   3.292  11.084  0.8519  0.0823  0.7173
    2MPD2    H5   30   0.950   3.279  11.005 -0.0388 -1.0996  0.2161
    2MPD2    N1   31   0.548   3.090  11.371 -0.5100  0.4557 -0.1402
    2MPD2    H7   32   0.532   3.187  11.397 -2.5675 -0.3504  1.5879
    3TCq1    O1   33   0.190   3.864  10.548  0.5309 -0.0795 -0.2660
    3TCq1    C1   34   0.193   3.914  10.671  0.4987  0.5798  0.1691
    3TCq1    O2   35   0.275   3.878  10.761 -0.1491  0.0033 -0.1327
    3TCq1    C2   36   0.161   4.051  10.654 -0.0382 -0.2906 -0.2805
    3TCq1    C3   37   0.202   4.125  10.544  0.2731 -0.2533  0.1133
    3TCq1    C4   38   0.180   4.261  10.546  0.2263 -0.0114  0.4672
    3TCq1    C5   39   0.098   4.316  10.641  0.2155 -0.2779 -0.0238
    3TCq1    C6   40   0.058   4.235  10.744  0.6666 -0.2743 -0.6660
    3TCq1    C7   41   0.107   4.106  10.764  0.2815 -0.7605  0.2714
    3TCq1    C8   42   4.695   4.283  10.847  0.8788  0.0525 -0.1112
    3TCq1    O4   43   4.699   4.214  10.945  0.4340  0.0690  0.4374
    3TCq1    C9   44   0.224   4.339  10.432 -0.5653 -0.1197 -0.5539
    3TCq1    O5   45   0.299   4.290  10.345  0.3337 -0.2278 -0.6445
    3TCq1    O6   46   0.179   4.454  10.436 -0.4060  0.5201 -0.6277
    3TCq1    H1   47   0.122   3.909  10.492  0.4637  1.4865  1.0803
    3TCq1    H2   48   0.258   4.090  10.458  0.7583  0.4984  0.1199
    3TCq1    H3   49   0.087   4.423  10.655 -2.3212 -0.8875  2.7727
    3TCq1    H4   50   0.077   4.042  10.846 -0.1966 -1.0958 -0.1666
    4MPD2     C   51   4.343   4.592  11.065 -0.1277 -0.2518  0.0865
    4MPD2    C1   52   4.361   4.623  10.933  1.0125 -0.3047 -0.3177
    4MPD2    C2   53   4.449   4.556  10.850  0.4101  0.0631  0.0054
    4MPD2    C3   54   4.528   4.457  10.904  0.2892  0.5351  0.4001
    4MPD2    C4   55   4.510   4.419  11.041  0.6307 -0.6248  0.1557
    4MPD2    C5   56   4.420   4.490  11.118 -0.4837 -0.9519  0.1000
    4MPD2     H   57   4.458   4.596  10.750  0.1564 -0.9852 -0.4414
    4MPD2    H1   58   4.570   4.346  11.094 -0.0932 -0.2546  1.5057
    4MPD2    H2   59   4.273   4.642  11.132 -0.8162 -1.2412  0.1007
    4MPD2    H3   60   4.407   4.465  11.223 -1.2158 -3.4083 -0.5738
    4MPD2     N   61   4.614   4.385  10.813 -0.5605 -0.3170 -0.3567
    4MPD2    H5   62   4.639   4.425  10.723  3.4333  0.7290  1.1814
    4MPD2    N1   63   4.296   0.004  10.864  0.3931  0.0796 -0.1257
    4MPD2    H7   64   4.296   0.004  10.762  0.0889  4.1016 -0.1105
    5TCq1    O1   65   4.615   1.443  11.447  0.4511 -0.0360 -0.3122
    5TCq1    C1   66   4.719   1.436  11.365 -0.6092  0.4927 -0.1983
    5TCq1    O2   67   0.045   1.535  11.313 -0.4553 -0.3784 -0.4751
    5TCq1    C2   68   0.003   1.300  11.310  0.0381  0.4210  0.1154
    5TCq1    C3   69   4.695   1.191  11.379 -0.3034  0.0537  0.1876
    5TCq1    C4   70   4.707   1.068  11.323  0.0666  0.8052 -0.2566
    5TCq1    C5   71   0.037   1.055  11.201 -0.3569  0.4909  0.7538
    5TCq1    C6   72   0.077   1.168  11.131 -0.3068  0.1160  0.2033
    5TCq1    C7   73   0.060   1.293  11.184  0.0725  0.6530  0.3040
    5TCq1    C8   74   0.147   1.158  11.000  0.3481 -0.0048 -0.0256
    5TCq1    O4   75   0.163   1.048  10.958  0.0328  0.4386  0.2743
    5TCq1    C9   76   4.681   0.950  11.397 -0.3751 -0.1662 -0.2890
    5TCq1    O5   77   4.694   0.834  11.343 -0.1963 -0.5269  0.2053
    5TCq1    O6   78   4.655   0.973  11.517  0.1048 -0.1143  0.5415
    5TCq1    H1   79   4.584   1.357  11.482 -1.8587 -0.0253 -2.3953
    5TCq1    H2   80   4.668   1.200  11.484  1.8443  0.0526  0.7425
    5TCq1    H3   81   0.055   0.961  11.150  4.4058  2.2478 -0.7758
    5TCq1    H4   82   0.081   1.387  11.135  2.5408 -1.0742 -1.9131
    6MPD2     C   83   0.332   1.421  10.812 -0.2680  0.7800 -0.6649
    6MPD2    C1   84   0.296   1.297  10.856  0.3618  0.5926 -0.1308
    6MPD2    C2   85   0.366   1.186  10.808  0.9648  0.9183  0.3203
    6MPD2    C3   86   0.475   1.200  10.730  0.2011  0.4090  0.8975
    6MPD2    C4   87   0.502   1.322  10.677 -0.6390 -0.6799 -0.1399
    6MPD2    C5   88   0.429   1.436  10.712 -0.2066  0.2974 -0.2855
    6MPD2     H   89   0.351   1.087  10.849 -0.5270 -0.2650 -3.0377
    6MPD2    H1   90   0.586   1.343  10.612 -0.0527 -0.5822  0.6553
    6MPD2    H2   91   0.289   1.514  10.847  1.7944  1.3239  0.4307
    6MPD2    H3   92   0.459   1.536  10.683  0.2091  0.4129  0.5505
    6MPD2     N   93   0.552   1.081  10.708  0.1131 -0.7515 -0.3135
    6MPD2    H5   94   0.513   0.998  10.750 -1.4078 -0.1258 -0.4484
    6MPD2    N1   95   0.193   1.279  10.953 -0.1358  0.4672 -0.1906
    6MPD2    H7   96   0.144   1.364  10.979 -0.4664  0.8865 -2.1688
    7TCq1    O1   97   1.659   1.136  13.638 -0.2599 -0.1847  0.3724
    7TCq1    C1   98   1.692   1.039  13.729 -0.3222 -0.4148  0.4998
    7TCq1    O2   99   1.688   1.070  13.849 -0.5367  0.2312 -0.3915
    7TCq1    C2  100   1.785   0.939  13.679  0.2733  0.4029  0.7863
    7TCq1    C3  101   1.769   0.911  13.551  0.2595  0.4771 -0.3890
    7TCq1    C4  102   1.868   0.860  13.480 -0.0712 -0.3038 -0.7135
    7TCq1    C5  103   1.989   0.825  13.540 -0.2391 -0.0909  0.8577
    7TCq1    C6  104   2.001   0.844  13.678  0.5922 -0.2763 -0.2923
    7TCq1    C7  105   1.900   0.907  13.752  0.3835 -0.1873  0.0487
    7TCq1    C8  106   2.124   0.823  13.745 -0.6044  0.4460 -0.2726
    7TCq1    O4  107   2.143   0.869  13.857  0.0712 -0.2911  0.4297
    7TCq1    C9  108   1.843   0.831  13.338 -0.1923 -0.2399 -0.4510
    7TCq1    O5  109   1.935   0.768  13.282  0.1725 -0.1089 -0.2839
    7TCq1    O6  110   1.745   0.886  13.278 -0.2398 -0.3870  0.1694
    7TCq1    H1  111   1.663   1.109  13.544 -1.4765  4.1438 -0.9122
    7TCq1    H2  112   1.670   0.925  13.508  0.2242 -0.0158 -0.4618
    7TCq1    H3  113   2.072   0.792  13.479 -0.6409  1.5062 -0.5812
    7TCq1    H4  114   1.913   0.949  13.851  1.4602 -0.0452 -0.1441
    8MPD2     C  115   2.572   0.576  13.800  0.6644 -0.7573 -0.3836
    8MPD2    C1  116   2.506   0.520  13.693  0.8732 -0.4650 -0.1396
    8MPD2    C2  117   2.384   0.573  13.652  0.2218  0.4401 -0.0522
    8MPD2    C3  118   2.333   0.682  13.722 -0.1490 -0.7090 -0.0564
    8MPD2    C4  119   2.400   0.737  13.828 -0.3874  0.8931 -0.0847
    8MPD2    C5  120   2.525   0.686  13.864  0.2100  0.7133  0.3974
    8MPD2     H  121   2.328   0.522  13.574 -0.1713  0.4908  0.1975
    8MPD2    H1  122   2.353   0.818  13.882 -1.5843 -1.0150  1.7146
    8MPD2    H2  123   2.665   0.537  13.841 -0.1978 -2.2665  0.1403
    8MPD2    H3  124   2.583   0.724  13.947 -1.7090  4.3871  0.0566
    8MPD2     N  125   2.206   0.728  13.681  0.2952 -0.5540 -0.1960
    8MPD2    H5  126   2.158   0.676  13.608  0.1078  0.8351 -1.0510
    8MPD2    N1  127   2.567   0.415  13.617  0.1713 -0.3281 -0.1917
    8MPD2    H7  128   2.646   0.371  13.664  0.8879 -2.3181 -3.3127
    9TCq1    O1  129   0.770   3.947  10.542  0.8146 -0.4060  0.5140
    9TCq1    C1  130   0.857   3.895  10.629 -0.6356 -0.4934 -0.2770
    9TCq1    O2  131   0.906   3.790  10.605 -0.5430 -0.2658  0.3801
    9TCq1    C2  132   0.928   4.001  10.693 -0.1583 -0.1873 -0.6775
    9TCq1    C3  133   1.069   4.002  10.686 -0.4026  0.3403 -0.4671
    9TCq1    C4  134   1.134   4.108  10.735  0.2128  0.3920  0.8574
    9TCq1    C5  135   1.067   4.211  10.791  0.0835  0.2427  0.1584
    9TCq1    C6  136   0.927   4.205  10.801 -0.5366  0.1041 -0.6452
    9TCq1    C7  137   0.851   4.101  10.752  0.9453 -0.7403  0.5846
    9TCq1    C8  138   0.862   4.314  10.881  0.6667 -0.0073 -0.2207
    9TCq1    O4  139   0.890   4.433  10.852 -0.2944 -0.4225  0.0086
    9TCq1    C9  140   1.279   4.114  10.731 -0.4731 -0.5976  0.8409
    9TCq1    O5  141   1.346   4.219  10.759 -0.5563 -0.1343  0.3755
    9TCq1    O6  142   1.337   4.019  10.672 -0.3905  0.2337 -0.1345
    9TCq1    H1  143   0.739   4.037  10.566 -1.4733 -1.3150  0.9711
    9TCq1    H2  144   1.112   3.914  10.639 -0.2599  0.1422  0.0377
    9TCq1    H3  145   1.130   4.296  10.814  0.6940 -0.3839  0.8328
    9TCq1    H4  146   0.744   4.096  10.739  1.0020  0.1080 -0.1627
   10MPD2     C  147   0.725   4.469  11.085 -0.2178 -0.4684  0.1108
   10MPD2    C1  148   0.721   4.331  11.085  0.1209 -0.1537  0.6325
   10MPD2    C2  149   0.665   4.265  11.197 -0.7216  0.0953  0.1117
   10MPD2    C3  150   0.616   4.336  11.300 -0.0731  0.1208  0.1401
   10MPD2    C4  151   0.620   4.471  11.298 -0.1924  0.4541  0.0202
   10MPD2    C5  152   0.679   4.536  11.195  0.2360 -0.7579 -0.6922
   10MPD2     H  153   0.681   4.158  11.204 -1.6331 -0.0058  0.6577
   10MPD2    H1  154   0.577   4.527  11.380 -0.7526 -1.2073  0.8545
   10MPD2    H2  155   0.774   4.528  11.009 -2.0665  2.8724  1.5097
   10MPD2    H3  156   0.702   4.642  11.190 -0.7376 -0.5084  0.1566
   10MPD2     N  157   0.561   4.269  11.413  0.1411 -0.2031 -0.6086
   10MPD2    H5  158   0.541   4.328  11.493  1.0262 -1.0978  0.2652
   10MPD2    N1  159   0.787   4.257  10.982  0.2885  0.4756 -0.8168
   10MPD2    H7  160   0.793   4.158  11.002 -1.3033  0.4921 -0.1854
   11TCq1    O1  161   0.655   4.478  13.657 -0.2307 -0.6822 -0.4645
   11TCq1    C1  162   0.634   4.407  13.766 -0.1836  0.0293 -0.4789
   11TCq1    O2  163   0.552   4.316  13.781 -0.5935  0.9027 -0.5257
   11TCq1    C2  164   0.771   4.367  13.811 -0.0655  0.6959 -0.1849
   11TCq1    C3  165   0.847   4.464  13.851 -0.2295  0.0170  0.1365
   11TCq1    C4  166   0.977   4.430  13.862 -0.1637  0.0506 -0.5991
   11TCq1    C5  167   1.025   4.304  13.849  0.5446  0.3668 -0.6730
   11TCq1    C6  168   0.947   4.205  13.825  0.3891  0.2860  0.1697
   11TCq1    C7  169   0.811   4.236  13.798 -0.8510 -0.1827 -0.4020
   11TCq1    C8  170   1.009   4.094  13.743 -0.1759  0.2902  0.7441
   11TCq1    O4  171   1.125   4.117  13.711 -0.1019  0.2621 -0.1571
   11TCq1    C9  172   1.061   4.540  13.898  0.1927  0.3361 -0.6593
   11TCq1    O5  173   1.001   4.646  13.930  0.8514  0.5456  0.5019
   11TCq1    O6  174   1.184   4.521  13.894  0.0599 -0.3373 -0.5767
   11TCq1    H1  175   0.735   4.535  13.664 -0.9135 -0.0251  2.0790
   11TCq1    H2  176   0.812   4.564  13.871  1.4808  0.5371  0.5396
   11TCq1    H3  177   1.131   4.287  13.862  0.1866 -0.8658  0.6366
   11TCq1    H4  178   0.736   4.169  13.759 -2.2348  2.2641 -1.9085
   12MPD2     C  179   1.116   3.837  13.647  0.6195 -0.0455 -0.6616
   12MPD2    C1  180   0.983   3.862  13.670  0.4516  0.0603  0.2774
   12MPD2    C2  181   0.890   3.759  13.621  0.2527  0.1520  0.3571
   12MPD2    C3  182   0.940   3.643  13.557 -0.6009  0.6774 -0.0891
   12MPD2    C4  183   1.082   3.625  13.548  0.2809  0.5747 -0.2235
   12MPD2    C5  184   1.170   3.719  13.602  0.4658  0.6109  0.2455
   12MPD2     H  185   0.784   3.779  13.631 -0.1049 -1.6143  0.0015
   12MPD2    H1  186   1.123   3.529  13.520 -0.7965 -0.3582  1.3895
   12MPD2    H2  187   1.186   3.911  13.685 -0.5347  0.6352  0.1502
   12MPD2    H3  188   1.277   3.707  13.609  0.2504 -2.1229 -1.3402
   12MPD2     N  189   0.854   3.548  13.498  0.1052  0.7533  0.2467
   12MPD2    H5  190   0.899   3.471  13.448 -1.8290  0.4450 -1.0151
   12MPD2    N1  191   0.934   3.983  13.729 -0.2214 -0.2321  0.1993
   12MPD2    H7  192   0.835   3.988  13.749 -0.2880  0.3018 -0.2607
   13TCq1    O1  193   4.593   2.507  10.828 -0.6327 -0.1466 -0.7003
   13TCq1    C1  194   4.560   2.550  10.704  0.4841  0.8825 -0.0482
   13TCq1    O2  195   4.491   2.487  10.627 -0.3074  0.1927  0.2474
   13TCq1    C2  196   4.633   2.673  10.669 -0.0998  0.2706  0.1627
   13TCq1    C3  197   4.631   2.697  10.531 -0.6222 -1.3533 -0.3323
   13TCq1    C4  198   4.646   2.825  10.489  0.1003  0.5333 -0.2660
   13TCq1    C5  199   4.683   2.921  10.581  0.3711 -0.1775  0.3880
   13TCq1    C6  200   4.693   2.892  10.714  0.4810  0.6973 -0.4406
   13TCq1    C7  201   4.650   2.774  10.760 -0.6793 -0.7155 -0.3755
   13TCq1    C8  202   0.016   2.995  10.804  0.0659  0.7413 -0.0066
   13TCq1    O4  203   4.710   2.987  10.922  0.1455 -0.0198  0.6690
   13TCq1    C9  204   4.637   2.854  10.350  0.6794 -0.3744 -0.1256
   13TCq1    O5  205   4.639   2.976  10.318  0.1461  0.2567 -0.0700
   13TCq1    O6  206   4.586   2.754  10.288  0.0015  0.1363  0.3965
   13TCq1    H1  207   4.643   2.569  10.885 -1.5307 -1.1446  1.2148
   13TCq1    H2  208   4.617   2.612  10.465  0.5569  1.0022 -3.6418
   13TCq1    H3  209   4.703   3.019  10.539  0.0862 -1.0191 -1.6704
   13TCq1    H4  210   4.634   2.766  10.867  2.1607 -1.1786  0.0239
   14MPD2     C  211   0.235   3.266  10.692  0.0832  0.0514 -0.2534
   14MPD2    C1  212   0.142   3.201  10.775 -1.0147  0.1939 -0.2199
   14MPD2    C2  213   0.120   3.256  10.899  0.0439 -0.2829 -0.3784
   14MPD2    C3  214   0.179   3.371  10.941 -0.3056 -0.0599  0.1517
   14MPD2    C4  215   0.269   3.431  10.859  0.4972 -0.4706 -0.3265
   14MPD2    C5  216   0.293   3.384  10.732  0.2681  0.4874  0.0819
   14MPD2     H  217   0.064   3.198  10.973 -2.0620  2.8362  0.4978
   14MPD2    H1  218   0.312   3.530  10.876 -1.9772  0.4636  0.5289
   14MPD2    H2  219   0.251   3.233  10.590  0.2601  1.4906 -0.6958
   14MPD2    H3  220   0.353   3.437  10.659 -1.7345  1.0846 -1.1301
   14MPD2     N  221   0.158   3.416  11.073  0.3743  0.3729 -0.9522
   14MPD2    H5  222   0.077   3.379  11.121  0.6890  0.2795 -0.4922
   14MPD2    N1  223   0.091   3.082  10.736 -0.2086 -0.0080  0.2836
   14MPD2    H7  224   0.127   3.047  10.648  0.7333 -0.3903  0.8207
   15TCq1    O1  225   2.744   3.012   1.610  0.6770 -0.2474 -0.1251
   15TCq1    C1  226   2.758   2.958   1.488 -0.3212  0.1733  0.3120
   15TCq1    O2  227   2.847   2.971   1.407  0.3065 -0.3739 -0.5373
   15TCq1    C2  228   2.654   2.859   1.480  0.8931  0.5337 -0.3406
   15TCq1    C3  229   2.523   2.893   1.475 -0.4587  0.4000  0.2758
   15TCq1    C4  230   2.430   2.799   1.461 -0.4839 -0.2865 -0.3178
   15TCq1    C5  231   2.468   2.667   1.430 -0.1912  0.0684  1.0091
   15TCq1    C6  232   2.600   2.636   1.434  0.1819  0.1996 -0.1125
   15TCq1    C7  233   2.694   2.735   1.449  0.0749 -0.5033  0.1817
   15TCq1    C8  234   2.655   2.501   1.386 -0.4848  0.5556  0.1283
   15TCq1    O4  235   2.761   2.467   1.430 -0.3017  0.0893  0.6835
   15TCq1    C9  236   2.295   2.835   1.477  0.3601  0.1045  0.0225
   15TCq1    O5  237   2.280   2.954   1.508 -0.2823 -0.0557  0.5948
   15TCq1    O6  238   2.216   2.734   1.472  1.3533  0.6509  0.2673
   15TCq1    H1  239   2.677   2.971   1.669 -1.9079  1.1471 -2.1032
   15TCq1    H2  240   2.495   2.995   1.497  0.9027  0.7263  0.4760
   15TCq1    H3  241   2.397   2.587   1.417  1.2975 -1.2187  0.8231
   15TCq1    H4  242   2.798   2.712   1.430 -0.2719 -1.9998  0.0194
   16MPD2     C  243   2.479   2.251   1.174  0.8115  0.1001 -0.2223
   16MPD2    C1  244   2.584   2.302   1.250  0.4038 -0.2475  0.2052
   16MPD2    C2  245   2.697   2.230   1.266  0.1880 -0.2294  0.6162
   16MPD2    C3  246   2.702   2.100   1.224 -0.6016  0.4060  1.0638
   16MPD2    C4  247   2.595   2.042   1.157  0.5656 -1.1539 -0.1017
   16MPD2    C5  248   2.485   2.118   1.139  0.0471  0.9341 -0.3872
   16MPD2     H  249   2.778   2.268   1.327 -0.7486  2.4934  0.1575
   16MPD2    H1  250   2.597   1.941   1.118  1.6595 -1.7596  1.5202
   16MPD2    H2  251   2.384   2.302   1.162  0.8715  0.8168  2.4362
   16MPD2    H3  252   2.392   2.070   1.109  0.8960 -0.8540 -0.1128
   16MPD2     N  253   2.824   2.038   1.245  0.5587 -0.4924  0.8428
   16MPD2    H5  254   2.893   2.095   1.293 -0.1621 -0.1176  1.4429
   16MPD2    N1  255   2.568   2.435   1.307  0.2608 -0.3901 -0.0952
   16MPD2    H7  256   2.490   2.485   1.266 -1.1769 -0.8477  2.0416
   17TCq1    O1  257   3.886   3.603  11.570  0.3055  0.3010  0.3268
   17TCq1    C1  258   3.954   3.507  11.630 -0.3805  0.2168  0.1022
   17TCq1    O2  259   3.908   3.428  11.712 -0.4932 -0.3157  0.0593
   17TCq1    C2  260   4.079   3.470  11.554 -0.5084  0.9037 -0.0318
   17TCq1    C3  261   4.137   3.549  11.458 -0.1743  0.8466 -0.0879
   17TCq1    C4  262   4.249   3.514  11.392  0.1024  0.8225 -0.2586
   17TCq1    C5  263   4.313   3.396  11.418 -0.3243  0.8386  0.5984
   17TCq1    C6  264   4.248   3.306  11.503 -0.6145 -0.3101  0.7938
   17TCq1    C7  265   4.136   3.350  11.574  0.5540  0.8649  0.7210
   17TCq1    C8  266   4.315   3.192  11.561  0.4546 -0.8227  0.1689
   17TCq1    O4  267   4.244   3.131  11.639 -0.5175 -0.1603  0.4483
   17TCq1    C9  268   4.305   3.600  11.304 -0.7397  0.2894  0.6375
   17TCq1    O5  269   4.293   3.725  11.317  0.5409 -0.7084  0.0064
   17TCq1    O6  270   4.370   3.544  11.208 -0.0971 -0.4933 -0.2500
   17TCq1    H1  271   3.927   3.617  11.482 -1.0090 -0.7266 -0.4463
   17TCq1    H2  272   4.109   3.653  11.447  0.1295  0.9242 -0.1164
   17TCq1    H3  273   4.398   3.364  11.358 -1.0093 -0.1492  0.1439
   17TCq1    H4  274   4.091   3.289  11.652  1.1021 -0.3139  0.1175
   18MPD2     C  275   4.494   2.960  11.645 -0.0119 -0.6339 -0.1941
   18MPD2    C1  276   4.523   3.055  11.551 -0.3160  0.2921  0.6383
   18MPD2    C2  277   4.640   3.050  11.475  0.6842  0.7281  0.4941
   18MPD2    C3  278   4.719   2.936  11.468  0.0387  0.7281 -0.4045
   18MPD2    C4  279   4.679   2.841  11.558  0.3968  0.5223  0.0777
   18MPD2    C5  280   4.581   2.856  11.648 -0.1294 -0.1784  0.2387
   18MPD2     H  281   4.649   3.134  11.407  0.2571  0.8008  0.5268
   18MPD2    H1  282   0.015   2.752  11.573  1.7130  1.3926 -0.0603
   18MPD2    H2  283   4.411   2.974  11.713  0.7749 -1.4231  0.9288
   18MPD2    H3  284   4.565   2.771  11.714 -0.1633 -0.7569 -0.5143
   18MPD2     N  285   0.104   2.926  11.380 -0.1793 -0.0249  0.0663
   18MPD2    H5  286   0.159   2.841  11.392  0.5008  0.1630 -1.7307
   18MPD2    N1  287   4.443   3.171  11.525  0.1849  0.1399 -0.7280
   18MPD2    H7  288   4.495   3.236  11.467  2.1505 -0.6427  0.1580
   19TMC2    C1  289   2.070   3.107  14.025 -0.4823  0.2919  0.3250
   19TMC2    C2  290   2.055   3.221  14.099  0.3219 -0.8049 -0.0642
   19TMC2    C3  291   1.941   3.293  14.078  0.1948 -0.4793 -0.2524
   19TMC2    C4  292   1.981   3.067  13.932 -0.3390 -0.4825 -0.0910
   19TMC2    C5  293   1.870   3.141  13.922  0.6018 -0.1473 -0.2594
   19TMC2    C6  294   1.843   3.261  13.991 -0.2822  0.2997  1.1067
   19TMC2     C  295   2.172   3.009  14.061  0.4844 -0.8407  0.3773
   19TMC2     O  296   2.180   2.910  13.984 -0.2537  0.0648  0.3544
   19TMC2     H  297   2.134   3.258  14.162  0.4208  1.0034 -1.2435
   19TMC2    H1  298   2.005   2.984  13.866 -0.8687 -1.3562  0.8243
   19TMC2    H2  299   1.750   3.316  13.984 -0.3136  0.1399  0.2357
   19TMC2    C7  300   1.774   3.088  13.831  0.2834  0.0311 -0.0456
   19TMC2    C8  301   1.908   3.399  14.172 -0.5719 -0.0783  0.4138
   19TMC2    O1  302   1.780   2.970  13.807  0.2673  0.0231 -0.0533
   19TMC2    O2  303   1.810   3.472  14.150  0.0132 -0.8992  0.0968
   19TMC2    O5  304   2.008   3.431  14.255 -0.1044 -0.1173  0.2782
   19TMC2    H5  305   2.072   3.358  14.273 -1.7740 -1.3586  1.2032
   20MPD2     C  306   2.344   2.823  14.205 -1.0597  0.1902 -0.4637
   20MPD2    C1  307   2.332   2.956  14.242 -0.2617  0.8832  0.4684
   20MPD2    C2  308   2.383   2.995  14.363 -0.3740  0.3623 -0.4235
   20MPD2    C3  309   2.454   2.912  14.449  0.1591  0.9847 -0.1833
   20MPD2    C4  310   2.473   2.782  14.410  0.2544  0.8033  0.4655
   20MPD2    C5  311   2.416   2.738  14.292 -0.6553  0.2836  0.6517
   20MPD2     H  312   2.380   3.103  14.373  2.6598  0.5860 -1.7575
   20MPD2    H1  313   2.537   2.722  14.474  2.4470  0.8753 -1.6496
   20MPD2    H2  314   2.307   2.774  14.116 -1.3176 -0.4335 -0.0145
   20MPD2    H3  315   2.427   2.636  14.258 -1.4580  0.5828 -0.4860
   20MPD2     N  316   2.510   2.952  14.576 -0.7858  0.4932  0.5988
   20MPD2    H5  317   2.546   2.881  14.638 -0.8498 -0.0560  0.0077
   20MPD2    N1  318   2.250   3.046  14.171 -0.0298 -0.3810  0.6706
   20MPD2    H7  319   2.230   3.135  14.216  0.9699  0.5603 -0.7619
   21MPD2     C  320   4.661   4.133  14.090 -0.6045  0.3723 -0.4370
   21MPD2    C1  321   0.000   4.010  14.070  0.6788 -0.2998  0.1534
   21MPD2    C2  322   4.673   3.898  14.138  0.4499 -0.1372  0.0798
   21MPD2    C3  323   4.568   3.911  14.229  0.2772 -0.1712  0.6089
   21MPD2    C4  324   4.520   4.042  14.266  0.2674  0.0256  0.2553
   21MPD2    C5  325   4.568   4.148  14.195  0.3014  0.2758 -0.3197
   21MPD2     H  326   4.718   3.800  14.127 -2.2554 -1.4268  0.2764
   21MPD2    H1  327   4.434   4.060  14.330 -0.1505  1.5796 -0.7651
   21MPD2    H2  328   4.688   4.214  14.023  1.1935  0.7571  0.7420
   21MPD2    H3  329   4.514   4.241  14.207  2.2351  1.3218  0.2153
   21MPD2     N  330   4.505   3.806  14.298  0.2992  0.2285 -0.2671
   21MPD2    H5  331   4.433   3.836  14.363 -0.4089  2.8941 -2.2864
   21MPD2    N1  332   0.100   3.983  13.976  0.5507 -0.4668  0.4509
   21MPD2    H7  333   0.142   3.890  13.977 -0.9674 -1.1954 -2.6829
   22TCq2    C1  334   4.548   3.675  14.312 -0.0200 -1.1153  0.1374
   22TCq2    O2  335   4.651   3.619  14.271 -0.1468  0.2025  0.2714
   22TCq2    C2  336   4.471   3.601  14.404  0.0599  0.2214  0.1453
   22TCq2    C3  337   4.536   3.502  14.463 -0.0388  0.4398 -0.1926
   22TCq2    C4  338   4.493   3.458  14.589  0.1697 -0.3682 -0.2938
   22TCq2    C5  339   4.383   3.508  14.648  0.4084 -0.1101 -0.0832
   22TCq2    C6  340   4.324   3.608  14.578  0.1178  0.3190  0.2773
   22TCq2    C7  341   4.371   3.666  14.464 -0.3138 -0.2592 -0.4544
   22TCq2    C8  342   4.252   3.700  14.664 -1.0690 -0.7057  0.0442
   22TCq2    O4  343   4.266   3.691  14.785  0.0768  0.5265  0.4212
   22TCq2    C9  344   4.554   3.340  14.651 -0.0250 -0.2193  0.0396
   22TCq2    O5  345   4.608   3.257  14.573 -0.0330  0.4416 -0.2096
   22TCq2    O6  346   4.522   3.323  14.774  0.0413 -0.1289 -0.5088
   22TCq2    H2  347   4.615   3.452  14.408 -0.6607 -3.1304  2.1542
   22TCq2    H3  348   4.333   3.465  14.734  0.9761  1.6739  1.1233
   22TCq2    H4  349   4.308   3.738  14.413  1.7119  0.6569 -1.7011
   23MPD2     C  350   1.292   4.586  14.704  0.3905 -0.5230  0.0617
   23MPD2    C1  351   1.176   4.563  14.774 -0.4659 -0.1561 -0.0097
   23MPD2    C2  352   1.057   4.609  14.722  0.0072 -0.0582 -0.1367
   23MPD2    C3  353   1.056   4.671  14.599  0.7054 -0.0441 -0.2869
   23MPD2    C4  354   1.176   4.703  14.541 -0.7430 -0.5130  0.1056
   23MPD2    C5  355   1.294   4.662  14.590  0.0968  0.0877  0.5752
   23MPD2     H  356   0.970   4.592  14.785  0.8952  0.9774  1.3796
   23MPD2    H1  357   1.187   0.020  14.442  2.1840  0.8635  1.0043
   23MPD2    H2  358   1.387   4.552  14.744  1.9580  4.1361  0.2990
   23MPD2    H3  359   1.380   4.665  14.524 -0.3665 -2.0469 -0.1069
   23MPD2     N  360   0.937   4.700  14.535  0.2580 -0.0226 -0.2458
   23MPD2    H5  361   0.938   0.042  14.458  2.9800 -0.5421 -0.6576
   23MPD2    N1  362   1.172   4.502  14.899  0.1715  0.0130 -0.1989
   23MPD2    H7  363   1.085   4.488  14.949  0.7550  1.0981  1.1018
   24TCq2    C1  364   0.816   4.630  14.564  0.0271  0.4266  0.5428
   24TCq2    O2  365   0.790   4.537  14.639  0.2149  0.0641  0.5818
   24TCq2    C2  366   0.703   4.682  14.490 -0.3132  0.1454 -0.0433
   24TCq2    C3  367   0.713   0.035  14.379  0.0327 -0.7287 -0.1328
   24TCq2    C4  368   0.603   0.072  14.309  0.5743 -0.6361  0.7267
   24TCq2    C5  369   0.482   0.028  14.356 -0.5648  0.4605 -0.1774
   24TCq2    C6  370   0.476   4.657  14.454 -0.1294 -0.4006  0.1406
   24TCq2    C7  371   0.583   4.626  14.532  0.0924 -0.1775  0.6672
   24TCq2    C8  372   0.353   4.577  14.457  0.4673  0.4251 -0.4633
   24TCq2    O4  373   0.353   4.507  14.557 -0.1326  0.4300 -0.2815
   24TCq2    C9  374   0.614   0.130  14.174 -0.5520 -0.3064  0.0006
   24TCq2    O5  375   0.733   0.151  14.139  0.0278 -0.0035 -0.1707
   24TCq2    O6  376   0.508   0.170  14.117 -0.2176 -0.0229 -0.1927
   24TCq2    H2  377   0.808   0.080  14.352  0.3027 -1.8512 -1.0446
   24TCq2    H3  378   0.395   0.056  14.298 -0.6518 -1.2895 -0.8797
   24TCq2    H4  379   0.571   4.547  14.607  1.0368 -0.5734  0.4002
   25TMC2    C1  380   0.255   2.128  11.207  0.8115  0.2809 -0.7328
   25TMC2    C2  381   0.362   2.204  11.250  0.0491  0.5193 -0.6382
   25TMC2    C3  382   0.362   2.253  11.376  0.6096 -0.1084 -0.5670
   25TMC2    C4  383   0.155   2.083  11.284  0.7435 -0.0278  0.9175
   25TMC2    C5  384   0.155   2.143  11.404  0.0438  0.7690  0.1598
   25TMC2    C6  385   0.255   2.223  11.454  0.3996 -0.7540 -0.1366
   25TMC2     C  386   0.244   2.096  11.061  0.4743 -0.4552  0.7376
   25TMC2     O  387   0.339   2.141  10.992  0.3289  0.7263  0.1965
   25TMC2     H  388   0.440   2.239  11.184  0.5429 -1.3716 -1.0774
   25TMC2    H1  389   0.063   2.039  11.248  1.2628 -0.0278 -0.4014
   25TMC2    H2  390   0.257   2.267  11.552 -1.4470  0.0976 -0.4791
   25TMC2    C7  391   0.058   2.097  11.502 -0.3655 -0.5921  0.0912
   25TMC2    C8  392   0.446   2.378  11.405 -0.3120  0.0543 -0.7220
   25TMC2    O1  393   0.052   2.168  11.602  0.3307 -0.0506 -0.2749
   25TMC2    O2  394   0.405   2.462  11.488  0.3706 -0.0548 -0.1634
   25TMC2    O5  395   0.571   2.351  11.385  0.8646 -0.3564  0.2480
   25TMC2    H5  396   0.577   2.274  11.325 -1.1476 -1.2605  1.2160
   26MPD2     C  397   0.156   1.849  10.630 -0.0011  0.2915  0.3968
   26MPD2    C1  398   0.109   1.768  10.734  0.7362  0.4052 -0.3703
   26MPD2    C2  399   0.118   1.807  10.864 -0.3232 -0.2105  0.4772
   26MPD2    C3  400   0.167   1.937  10.896 -0.5614  0.3871 -0.1038
   26MPD2    C4  401   0.199   2.015  10.788 -0.9873 -0.0130 -0.0887
   26MPD2    C5  402   0.198   1.977  10.658  0.3461 -0.2889  0.3094
   26MPD2     H  403   0.072   1.740  10.936  0.2513 -0.8083  0.2822
   26MPD2    H1  404   0.236   2.116  10.797 -0.1893 -0.3415  0.3534
   26MPD2    H2  405   0.158   1.813  10.528 -0.8923 -2.1662  1.2540
   26MPD2    H3  406   0.239   2.042  10.582 -0.5735  2.1045  1.8576
   26MPD2     N  407   0.170   1.987  11.028 -0.2601  0.8018  0.7697
   26MPD2    H5  408   0.122   1.931  11.098  0.1440  0.4588  0.7764
   26MPD2    N1  409   0.045   1.640  10.697  0.0834  0.1080  0.6133
   26MPD2    H7  410   0.018   1.636  10.599 -3.5434  0.1969  1.5841
   27TMC2    C1  411   3.688   4.658  11.859  0.0710 -0.1495 -0.8854
   27TMC2    C2  412   3.767   0.020  11.795  1.0415  0.2229  0.2186
   27TMC2    C3  413   3.897   0.035  11.842 -0.1225 -0.2345  0.2236
   27TMC2    C4  414   3.728   4.595  11.973 -0.6288 -0.4011 -0.4636
   27TMC2    C5  415   3.859   4.610  12.014 -0.0341 -0.0095  0.9408
   27TMC2    C6  416   3.947   4.687  11.945  0.4355 -0.5727  0.3439
   27TMC2     C  417   3.554   4.631  11.800 -0.4241  0.2021 -0.4795
   27TMC2     O  418   3.533   4.665  11.691 -0.4445 -0.0651  0.3484
   27TMC2     H  419   3.742   0.089  11.715 -3.1026 -2.3867 -0.7371
   27TMC2    H1  420   3.679   4.505  12.009  0.8459 -1.5871 -1.3862
   27TMC2    H2  421   4.047   4.697  11.985  0.9865  0.6980 -1.3706
   27TMC2    C7  422   3.921   4.514  12.110 -0.4059 -0.0428  0.0913
   27TMC2    C8  423   3.975   0.149  11.779  0.0965  0.1543  0.5708
   27TMC2    O1  424   4.045   4.507  12.111  0.5841 -0.0056  0.3487
   27TMC2    O2  425   3.929   0.248  11.721 -0.1820 -0.0569 -0.2667
   27TMC2    O5  426   4.108   0.154  11.829  0.1637 -0.0740 -0.1159
   27TMC2    H5  427   4.141   0.064  11.847 -0.4300 -0.2451  0.0976
   28MPD2     C  428   3.057   4.526  11.806 -0.5467 -0.1166 -0.3308
   28MPD2    C1  429   3.099   4.519  11.934  0.2969 -1.0663 -0.7404
   28MPD2    C2  430   3.235   4.537  11.960 -0.4758  0.0609 -1.2117
   28MPD2    C3  431   3.328   4.544  11.858  0.1018 -0.7476  0.2956
   28MPD2    C4  432   3.282   4.558  11.727 -0.3172  1.3371 -0.2642
   28MPD2    C5  433   3.145   4.545  11.703 -0.1989 -0.1402  1.0339
   28MPD2     H  434   3.273   4.535  12.061 -0.0807 -0.3562 -1.3735
   28MPD2    H1  435   3.344   4.563  11.638 -0.3539 -3.0734 -0.5298
   28MPD2    H2  436   2.956   4.501  11.775 -1.6364  1.0894  2.2440
   28MPD2    H3  437   3.102   4.565  11.606  1.5472 -1.5383 -0.0172
   28MPD2     N  438   3.464   4.573  11.889  0.0301  0.4046 -0.1806
   28MPD2    H5  439   3.482   4.566  11.989 -2.6541 -1.2672  0.1585
   28MPD2    N1  440   3.010   4.505  12.041 -0.0256 -0.2186 -0.6038
   28MPD2    H7  441   3.048   4.500  12.135 -0.6462 -0.4764 -0.3663
   29MPD2     C  442   2.666   1.763  13.990  0.0337 -0.1233 -0.2195
   29MPD2    C1  443   2.785   1.729  14.045 -0.4195 -0.0098 -0.1880
   29MPD2    C2  444   2.858   1.831  14.103  0.6707 -0.1578  0.3427
   29MPD2    C3  445   2.818   1.963  14.103  0.3991 -0.8455 -0.2664
   29MPD2    C4  446   2.696   1.993  14.055  1.1377 -0.0523  0.2834
   29MPD2    C5  447   2.626   1.891  14.001  0.3848 -0.0867  0.2882
   29MPD2     H  448   2.950   1.809  14.156  0.0219 -0.8758  1.1849
   29MPD2    H1  449   2.652   2.091  14.063  0.9204 -0.1987  0.8870
   29MPD2    H2  450   2.601   1.688  13.946  0.3481 -1.9422  2.4166
   29MPD2    H3  451   2.529   1.900  13.952  0.8251  2.1459 -0.1769
   29MPD2     N  452   2.897   2.068  14.156 -0.0164  0.1441 -0.0865
   29MPD2    H5  453   2.840   2.152  14.163 -1.3007 -0.7110 -0.3219
   29MPD2    N1  454   2.838   1.599  14.053  0.2765  0.3295  0.2725
   29MPD2    H7  455   2.909   1.581  14.124  0.5273 -0.9123 -0.2926
   30TCq2    C1  456   3.028   2.057  14.190  0.1657  0.4404 -0.0278
   30TCq2    O2  457   3.113   1.971  14.168  0.4777  0.4508  0.0727
   30TCq2    C2  458   3.074   2.180  14.243 -0.0393 -0.6416  0.7639
   30TCq2    C3  459   3.019   2.233  14.357  0.5638 -0.1326  0.5518
   30TCq2    C4  460   3.078   2.337  14.423  0.3551  0.7633 -0.4688
   30TCq2    C5  461   3.195   2.381  14.377 -0.2485 -0.6522 -0.1087
   30TCq2    C6  462   3.253   2.323  14.270  0.0365  0.4521 -0.0579
   30TCq2    C7  463   3.198   2.222  14.203  0.1316 -0.6748  0.1658
   30TCq2    C8  464   3.360   2.400  14.203 -0.0965  0.7620  0.3842
   30TCq2    O4  465   3.381   2.385  14.084  0.0587  0.1878  0.4612
   30TCq2    C9  466   3.020   2.389  14.546 -0.2169 -0.0900 -1.0895
   30TCq2    O5  467   3.079   2.491  14.599 -0.3466 -0.1568  0.0699
   30TCq2    O6  468   2.917   2.331  14.588 -0.1178 -0.0094  0.1382
   30TCq2    H2  469   2.921   2.203  14.393 -1.1682  3.6362 -1.0200
   30TCq2    H3  470   3.231   2.471  14.427 -1.0258 -0.6173  0.3880
   30TCq2    H4  471   3.250   2.177  14.118 -0.2915 -0.2439 -0.3225
   31MPD2     C  472   1.179   0.636  14.911  0.0954  0.4826 -0.2894
   31MPD2    C1  473   1.082   0.731  14.939  0.7161 -0.3860 -0.0080
   31MPD2    C2  474   1.007   0.712  15.060 -0.2437  0.1366  0.0294
   31MPD2    C3  475   1.037   0.609  15.148  0.0986  0.0414  0.0053
   31MPD2    C4  476   1.141   0.517  15.115 -0.2551  0.4823 -0.0483
   31MPD2    C5  477   1.205   0.532  14.995 -0.3299 -0.1843  0.7481
   31MPD2     H  478   0.932   0.785  15.087  1.2431  0.5161  3.0751
   31MPD2    H1  479   1.154   0.421  15.162 -1.1092  0.3676 -0.0408
   31MPD2    H2  480   1.238   0.640  14.820  0.8688  2.0746  0.2810
   31MPD2    H3  481   1.287   0.464  14.975  0.3292  2.0647 -4.1372
   31MPD2     N  482   0.974   0.588  15.271  0.2809 -0.5068  0.6176
   31MPD2    H5  483   1.014   0.521  15.336 -0.7697 -1.7380  0.0086
   31MPD2    N1  484   1.055   0.841  14.854  0.0410 -0.7567 -0.4403
   31MPD2    H7  485   1.113   0.855  14.772 -1.2894  0.1206 -1.2413
   32TCq2    C1  486   0.853   0.652  15.309 -0.1062  0.4273  0.0927
   32TCq2    O2  487   0.763   0.699  15.237  0.2332  0.3442  0.5621
   32TCq2    C2  488   0.811   0.616  15.447  0.2941 -0.8389  0.8843
   32TCq2    C3  489   0.677   0.632  15.480 -1.1264  0.0640  0.6671
   32TCq2    C4  490   0.625   0.574  15.589 -0.2015  0.5257  0.1007
   32TCq2    C5  491   0.709   0.498  15.670 -0.5144  0.2003 -0.3229
   32TCq2    C6  492   0.841   0.474  15.628 -0.9236  0.6110 -0.1080
   32TCq2    C7  493   0.894   0.540  15.519  0.4455 -0.2865 -0.3056
   32TCq2    C8  494   0.936   0.405  15.703 -0.1138 -0.4730 -0.3878
   32TCq2    O4  495   1.029   0.359  15.641 -0.0958  0.1958 -0.0537
   32TCq2    C9  496   0.485   0.586  15.620 -0.0526  0.2496  0.2996
   32TCq2    O5  497   0.415   0.631  15.531  0.7695  0.0979 -0.3721
   32TCq2    O6  498   0.465   0.592  15.743 -0.4435  0.2368 -0.4383
   32TCq2    H2  499   0.611   0.686  15.412 -1.3494  0.7369  1.4137
   32TCq2    H3  500   0.668   0.447  15.756  1.5141 -1.6836 -0.4809
   32TCq2    H4  501   1.000   0.525  15.500  0.2861 -0.6546 -0.9097
   33MPD2     C  502   0.627   3.356  10.902 -0.5650 -0.2002 -0.5490
   33MPD2    C1  503   0.563   3.247  10.849 -0.2743 -0.2018 -0.0331
   33MPD2    C2  504   0.575   3.222  10.711 -0.3516 -0.0759 -0.0906
   33MPD2    C3  505   0.649   3.307  10.625  0.0178 -0.6553 -0.0396
   33MPD2    C4  506   0.725   3.402  10.686 -0.6075 -0.2760  0.1696
   33MPD2    C5  507   0.710   3.432  10.821 -0.3217  0.7069 -0.1450
   33MPD2     H  508   0.508   3.150  10.666  0.3609 -1.9701  1.8949
   33MPD2    H1  509   0.791   3.467  10.629 -1.5407  0.9987  0.5359
   33MPD2    H2  510   0.623   3.377  11.008 -2.6786  0.8776 -0.8232
   33MPD2    H3  511   0.762   3.514  10.868  0.7821  0.0429 -0.2070
   33MPD2     N  512   0.663   3.290  10.486  0.6026  0.4589  0.2111
   33MPD2    H5  513   0.721   3.359  10.440  0.1134  1.4247  1.0393
   33MPD2    N1  514   0.482   3.168  10.928 -0.0192  0.4918  0.7093
   33MPD2    H7  515   0.453   3.205  11.018 -0.9727 -1.9340  1.4059
   34TCq2    C1  516   0.587   3.210  10.407 -0.0864 -0.2528  0.6996
   34TCq2    O2  517   0.504   3.124  10.433  0.1620  0.3172  0.1883
   34TCq2    C2  518   0.614   3.236  10.264 -0.6659 -0.8152  0.1144
   34TCq2    C3  519   0.536   3.164  10.179  0.7786 -0.7792 -0.6627
   34TCq2    C4  520   0.528   3.212  10.050 -0.1663  0.4397  0.8651
   34TCq2    C5  521   0.596   3.327  10.007 -0.2695  0.2415 -0.5629
   34TCq2    C6  522   0.664   3.395  10.107 -0.0603  0.0674 -0.2513
   34TCq2    C7  523   0.680   3.350  10.236 -0.1714 -0.2844  0.5455
   34TCq2    C8  524   0.759   3.493  10.062 -0.1562  0.1192  0.7101
   34TCq2    O4  525   0.863   3.501  10.130  0.0352  0.8640 -0.3607
   34TCq2    C9  526   0.446   3.142   9.949  0.2100 -0.3092  0.7446
   34TCq2    O5  527   0.440   3.186   9.835  0.2193  0.3162  0.3798
   34TCq2    O6  528   0.381   3.038   9.986  0.3852 -0.2917 -0.4487
   34TCq2    H2  529   0.496   3.069  10.213 -0.2642  0.3281  1.2257
   34TCq2    H3  530   0.576   3.370   9.909 -0.5436  0.7193 -0.2990
   34TCq2    H4  531   0.742   3.407  10.304  1.4656 -1.8445  0.3319
   35MPD2     C  532   2.347   4.634  11.216  0.4646 -0.0581 -0.0219
   35MPD2    C1  533   2.341   4.510  11.286  0.2083  0.1941  0.1979
   35MPD2    C2  534   2.259   4.407  11.242 -0.3680  0.1587 -0.2321
   35MPD2    C3  535   2.173   4.432  11.134  0.3721  0.2173 -0.1556
   35MPD2    C4  536   2.187   4.548  11.062 -0.3541  0.2104  0.0071
   35MPD2    C5  537   2.272   4.650  11.104 -0.4960  0.4161 -0.4671
   35MPD2     H  538   2.250   4.325  11.312  4.0994  0.0710  0.2423
   35MPD2    H1  539   2.129   4.564  10.971 -0.1002  2.0368  0.1627
   35MPD2    H2  540   2.405   4.723  11.240  1.4749 -1.0652  1.2774
   35MPD2    H3  541   2.275   0.018  11.047 -1.4499  1.0473  0.4997
   35MPD2     N  542   2.095   4.321  11.089 -0.1295  0.5592  0.2344
   35MPD2    H5  543   2.071   4.255  11.162 -0.7907  0.0312 -0.4691
   35MPD2    N1  544   2.420   4.508  11.400  0.2634 -0.5428  0.1092
   35MPD2    H7  545   2.461   4.600  11.418 -1.4495  0.0480  0.9522
   36TCq2    C1  546   2.044   4.317  10.963 -0.2534 -0.1544 -0.6119
   36TCq2    O2  547   2.090   4.361  10.862  0.6367 -0.2249 -0.5960
   36TCq2    C2  548   1.947   4.205  10.942 -0.5595 -0.6805  0.2304
   36TCq2    C3  549   1.868   4.206  10.830  0.0550  0.4160 -0.2408
   36TCq2    C4  550   1.771   4.107  10.818  0.3275 -0.0925  0.0760
   36TCq2    C5  551   1.730   4.044  10.927  0.4376  0.8186  0.0217
   36TCq2    C6  552   1.795   4.063  11.039  0.3340  0.0193 -0.1317
   36TCq2    C7  553   1.905   4.136  11.059  0.2023  0.8206 -0.7256
   36TCq2    C8  554   1.748   3.977  11.155 -0.5373 -0.3812 -0.0621
   36TCq2    O4  555   1.656   3.900  11.130 -0.0559 -0.5284 -0.4056
   36TCq2    C9  556   1.683   4.103  10.705 -0.2746 -0.1770  0.0159
   36TCq2    O5  557   1.607   4.006  10.689  0.1151 -0.4242  0.8805
   36TCq2    O6  558   1.667   4.208  10.643  0.0283  0.0211  0.3276
   36TCq2    H2  559   1.885   4.279  10.751 -3.9743 -0.6211 -2.0875
   36TCq2    H3  560   1.641   3.984  10.910 -0.5005  2.8720 -2.3913
   36TCq2    H4  561   1.968   4.134  11.148  2.3783  1.0246 -2.2636
   37TMC2    C1  562   4.706   4.624  11.703 -0.3347  0.4382 -0.2899
   37TMC2    C2  563   4.673   4.580  11.581 -0.7990  1.1790  0.6824
   37TMC2    C3  564   0.037   4.596  11.480  0.9927 -0.7598 -0.5458
   37TMC2    C4  565   0.107   4.672  11.730  0.7577 -0.7787 -0.3066
   37TMC2    C5  566   0.188   4.697  11.622 -0.0556  0.2414 -0.1323
   37TMC2    C6  567   0.158   4.658  11.496 -0.4369  0.0206 -0.5146
   37TMC2     C  568   4.608   4.613  11.812  0.2367  0.1390 -0.3333
   37TMC2     O  569   4.497   4.569  11.779  0.2176 -0.1499 -0.2327
   37TMC2     H  570   4.573   4.542  11.563 -0.9822  2.2928 -0.6720
   37TMC2    H1  571   0.128   0.008  11.818  0.9730  1.3032 -1.7958
   37TMC2    H2  572   0.224   4.673  11.412 -0.2789  1.3131 -0.1578
   37TMC2    C7  573   0.321   0.032  11.652 -0.1701  0.3862 -0.4479
   37TMC2    C8  574   4.720   4.577  11.342 -0.0250  0.3644  0.0444
   37TMC2    O1  575   0.332   0.075  11.767  0.2476  0.0778 -0.1017
   37TMC2    O2  576   0.039   4.659  11.257  0.2764  0.1866 -0.7021
   37TMC2    O5  577   4.655   4.464  11.323  0.2577  0.0997  0.3203
   37TMC2    H5  578   4.632   4.419  11.407  0.8498 -2.0647 -0.6876
   38MPD2     C  579   4.460   4.667  12.296 -0.1621 -0.0558 -0.3454
   38MPD2    C1  580   4.596   4.667  12.294  0.4023 -0.0467  0.0524
   38MPD2    C2  581   4.657   4.657  12.174 -0.0929 -0.0324 -0.3140
   38MPD2    C3  582   4.591   4.632  12.058  0.2992  0.2719  0.2026
   38MPD2    C4  583   4.457   4.615  12.066  0.5673  0.5398  0.3548
   38MPD2    C5  584   4.396   4.621  12.184 -0.4381 -1.4415  0.2906
   38MPD2     H  585   0.039   4.673  12.186  0.3953 -4.7671  1.6866
   38MPD2    H1  586   4.392   4.589  11.983 -0.0214  0.2775  0.9041
   38MPD2    H2  587   4.404   4.680  12.388  0.1213  3.2550 -0.6230
   38MPD2    H3  588   4.289   4.602  12.186 -0.6065 -0.4342  0.7264
   38MPD2     N  589   4.664   4.631  11.942 -0.0754  0.0823 -0.3654
   38MPD2    H5  590   0.040   4.628  11.956 -0.1192  1.9504  0.3326
   38MPD2    N1  591   4.673   4.676  12.419  0.6391  0.2516  0.1693
   38MPD2    H7  592   0.049   4.665  12.407  0.8341  1.4857  0.6776
   39MPD2     C  593   2.992   2.138   1.829 -0.1237  0.0694  0.3467
   39MPD2    C1  594   3.011   2.017   1.774  0.1268 -0.0289  0.3066
   39MPD2    C2  595   2.913   1.965   1.685  0.3490  0.7311 -0.5261
   39MPD2    C3  596   2.802   2.039   1.653  0.2620  0.5633  0.1685
   39MPD2    C4  597   2.788   2.166   1.702 -0.5400  0.2465 -0.0486
   39MPD2    C5  598   2.886   2.215   1.790  0.5926 -0.0559 -0.8514
   39MPD2     H  599   2.927   1.861   1.659 -1.2585  0.5820 -0.7902
   39MPD2    H1  600   2.700   2.223   1.676 -0.0917  0.5763 -0.8400
   39MPD2    H2  601   3.057   2.179   1.905  2.2575 -0.2647 -1.5095
   39MPD2    H3  602   2.872   2.313   1.835  2.7164  0.8581 -2.1445
   39MPD2     N  603   2.692   1.987   1.575 -0.0801 -0.7173  0.8638
   39MPD2    H5  604   2.610   2.046   1.565 -0.9415 -1.8831  1.1407
   39MPD2    N1  605   3.128   1.946   1.805  0.2462  0.0410  0.0658
   39MPD2    H7  606   3.190   1.988   1.874 -1.7621 -1.0166  2.5117
   40TCq2    C1  607   3.162   1.823   1.757 -0.4573 -0.0291 -0.1985
   40TCq2    O2  608   3.113   1.756   1.670  0.0863 -0.4007  0.3783
   40TCq2    C2  609   3.285   1.767   1.821 -0.9003 -0.0825  0.6774
   40TCq2    C3  610   3.317   1.825   1.944  0.0526 -0.1618 -0.4997
   40TCq2    C4  611   3.443   1.804   1.992  0.3758  0.0433  0.2408
   40TCq2    C5  612   3.533   1.724   1.930  0.0234 -0.9296 -0.0807
   40TCq2    C6  613   3.494   1.657   1.811 -0.0307 -0.0049  0.0594
   40TCq2    C7  614   3.370   1.680   1.754 -0.6301  0.9960 -0.0483
   40TCq2    C8  615   3.572   1.544   1.763  0.3714  0.7304 -0.0321
   40TCq2    O4  616   3.522   1.471   1.679  0.6808 -0.1254 -0.3237
   40TCq2    C9  617   3.472   1.858   2.123 -0.1213  0.2134 -0.7468
   40TCq2    O5  618   3.565   1.796   2.177  0.2618  0.6439 -0.0125
   40TCq2    O6  619   3.407   1.963   2.160 -0.0071  0.4589 -0.5260
   40TCq2    H2  620   3.251   1.884   2.007 -1.4216 -1.9715 -0.3527
   40TCq2    H3  621   3.623   1.693   1.982 -0.4370  1.1073  1.9057
   40TCq2    H4  622   3.340   1.631   1.662 -1.8836  0.2987  0.7365
   41TMC2    C1  623   1.751   4.595  13.783 -0.1916  0.1805 -0.2799
   41TMC2    C2  624   1.870   4.661  13.809 -0.1215 -0.7059 -0.1931
   41TMC2    C3  625   1.902   0.048  13.731 -0.8978 -0.2503 -0.0119
   41TMC2    C4  626   1.676   4.631  13.674 -0.3412 -0.5361 -0.4766
   41TMC2    C5  627   1.716   0.004  13.595  0.3519  0.3954  1.0967
   41TMC2    C6  628   1.825   0.077  13.626 -0.3128  0.1466 -0.4442
   41TMC2     C  629   1.678   4.524  13.882 -0.7724  0.7207 -0.2045
   41TMC2     O  630   1.582   4.461  13.851  0.4439  0.1638 -0.3962
   41TMC2     H  631   1.942   4.623  13.880 -0.2896 -1.1464 -0.2603
   41TMC2    H1  632   1.591   4.568  13.648 -0.0433  0.6961 -4.4252
   41TMC2    H2  633   1.855   0.160  13.563  2.2746 -0.0497  0.5416
   41TMC2    C7  634   1.653   0.012  13.460 -0.5634  0.4183 -0.2309
   41TMC2    C8  635   2.018   0.130  13.772  0.0966  0.1550  0.2220
   41TMC2    O1  636   1.598   4.637  13.419 -0.8458 -0.2324  0.0007
   41TMC2    O2  637   2.056   0.151  13.887 -0.1869 -0.8183  0.0536
   41TMC2    O5  638   2.070   0.193  13.667  0.3475  0.2438  0.6830
   41TMC2    H5  639   2.056   0.138  13.586 -3.4940  0.4348  1.2216
   42MPD2     C  640   1.663   4.340  14.105 -0.8353  0.3234  0.8345
   42MPD2    C1  641   1.712   4.464  14.120 -0.1242  0.2915  1.0236
   42MPD2    C2  642   1.749   4.521  14.241  0.3373 -0.1131 -0.0880
   42MPD2    C3  643   1.718   4.451  14.357  0.0847  0.0950  0.2051
   42MPD2    C4  644   1.662   4.323  14.344  0.5221  0.6362 -0.1362
   42MPD2    C5  645   1.633   4.267  14.220  0.0878 -0.4935 -0.4456
   42MPD2     H  646   1.808   4.612  14.244 -2.6545  1.8923 -1.3179
   42MPD2    H1  647   1.633   4.266  14.431  0.9714 -2.2532 -1.8788
   42MPD2    H2  648   1.645   4.292  14.010  1.1607  1.1258  0.0575
   42MPD2    H3  649   1.594   4.166  14.218 -1.2757 -0.0090  1.4735
   42MPD2     N  650   1.733   4.503  14.488  0.1749 -0.0716 -0.3577
   42MPD2    H5  651   1.708   4.444  14.566  0.4529  1.7579  1.1258
   42MPD2    N1  652   1.736   4.543  14.006 -0.1252  0.2248 -0.3471
   42MPD2    H7  653   1.810   4.612  14.010  0.2006 -0.2338  1.6155
   43MPD2     C  654   3.941   3.009   1.123 -0.6597 -0.3873  0.6123
   43MPD2    C1  655   4.034   3.091   1.065 -0.1801  0.4186  0.1422
   43MPD2    C2  656   4.020   3.229   1.064 -0.4733  0.8105 -0.6308
   43MPD2    C3  657   3.896   3.288   1.101 -0.6690  0.3335  0.5739
   43MPD2    C4  658   3.790   3.205   1.135  0.2005 -0.0927  0.2412
   43MPD2    C5  659   3.817   3.071   1.154  0.9534  0.0205  0.1097
   43MPD2     H  660   4.105   3.291   1.036 -0.0617  0.6678  0.2820
   43MPD2    H1  661   3.697   3.248   1.168 -0.0101 -0.2369 -0.1713
   43MPD2    H2  662   3.948   2.901   1.124 -2.5181 -0.5374 -0.8611
   43MPD2    H3  663   3.745   3.004   1.200  1.3252 -0.2705  0.2708
   43MPD2     N  664   3.882   3.429   1.109 -0.5398 -0.2754  0.2840
   43MPD2    H5  665   3.801   3.466   1.157 -1.5910  0.1168 -1.8093
   43MPD2    N1  666   4.158   3.033   1.021  0.2099  0.4204  0.1976
   43MPD2    H7  667   4.224   3.100   0.983 -1.0682  0.5152 -1.8472
   44TCq2    C1  668   3.870   3.811   1.406  0.4331  0.7857  0.1978
   44TCq2    O2  669   3.896   3.914   1.464  0.3519 -0.4934  0.1623
   44TCq2    C2  670   3.912   3.793   1.268  0.0428  0.0386  0.2480
   44TCq2    C3  671   3.977   3.893   1.198 -0.7783 -0.3645 -0.0081
   44TCq2    C4  672   4.021   3.868   1.071  0.1375 -0.0895 -0.5531
   44TCq2    C5  673   4.012   3.750   1.016  0.2266 -0.3370  0.2417
   44TCq2    C6  674   3.954   3.652   1.088  0.9685 -0.3743  0.0167
   44TCq2    C7  675   3.904   3.671   1.215 -0.3055  0.5587 -0.1918
   44TCq2    C8  676   3.968   3.516   1.045  0.7350 -0.8604  0.3344
   44TCq2    O4  677   4.024   3.500   0.937 -0.3692 -0.3864  0.2247
   44TCq2    C9  678   4.087   3.979   1.001 -0.6561 -0.2466 -0.7008
   44TCq2    O5  679   4.108   4.087   1.060 -0.0242 -0.0298 -0.1357
   44TCq2    O6  680   4.130   3.957   0.887  0.3564 -0.3830 -0.0043
   44TCq2    H2  681   3.994   3.990   1.243 -0.5649 -0.8483  0.9648
   44TCq2    H3  682   4.057   3.735   0.919  2.7133  0.9009  1.1962
   44TCq2    H4  683   3.874   3.587   1.277 -0.0620  0.9367  0.4353
   45TMC2    C1  684   3.760   4.654   9.159  0.6203  0.1379 -0.6723
   45TMC2    C2  685   3.716   0.060   9.164 -0.7231  0.1010  0.1310
   45TMC2    C3  686   3.794   0.146   9.233  0.0183  0.3240  0.5638
   45TMC2    C4  687   3.872   4.613   9.212 -0.0639  0.5502 -0.2293
   45TMC2    C5  688   3.944   4.702   9.281  0.0525  0.2727  0.2559
   45TMC2    C6  689   3.915   0.110   9.287 -0.5204 -0.1658  1.3177
   45TMC2     C  690   3.663   4.551   9.110 -0.5600 -0.5787  0.0040
   45TMC2     O  691   3.705   4.436   9.093  0.6781  0.6254 -0.3703
   45TMC2     H  692   3.613   0.087   9.143 -0.5560  0.8709  0.3015
   45TMC2    H1  693   3.903   4.509   9.216  1.3193  1.0219  1.3535
   45TMC2    H2  694   3.974   0.186   9.336  1.1420  0.1559 -1.1593
   45TMC2    C7  695   4.051   4.646   9.365  0.2556  0.1234  0.5659
   45TMC2    C8  696   3.763   0.284   9.268 -0.1778  0.2941 -0.6958
   45TMC2    O1  697   4.087   4.531   9.346 -0.0559  0.1657 -0.5310
   45TMC2    O2  698   3.831   0.350   9.344  0.0774 -0.0357  0.1563
   45TMC2    O5  699   3.693   0.337   9.161  0.2058 -0.2947  0.2175
   45TMC2    H5  700   3.663   0.271   9.094 -0.7341 -0.3878  0.7310
   46MPD2     C  701   3.442   4.395   9.013 -0.2699 -0.7683 -0.1004
   46MPD2    C1  702   3.422   4.508   9.085 -0.2619 -0.0313  0.2869
   46MPD2    C2  703   3.296   4.542   9.125  0.0873  0.5136 -0.6682
   46MPD2    C3  704   3.183   4.466   9.084  0.0936 -0.0800  0.6113
   46MPD2    C4  705   3.214   4.352   8.998 -0.0263  0.6522  0.4814
   46MPD2    C5  706   3.340   4.321   8.964 -0.6750 -0.7922  0.0305
   46MPD2     H  707   3.279   4.627   9.191  1.1239 -0.0206  0.3101
   46MPD2    H1  708   3.132   4.285   8.975 -1.4368  1.3275  3.5409
   46MPD2    H2  709   3.540   4.366   8.976 -0.0791  0.3386 -0.4622
   46MPD2    H3  710   3.365   4.240   8.896  0.0365 -1.9745  1.6866
   46MPD2     N  711   3.055   4.511   9.131 -0.6470 -0.1844  0.1841
   46MPD2    H5  712   3.056   4.597   9.185 -1.8035  0.9107 -1.5331
   46MPD2    N1  713   3.532   4.590   9.127 -0.3255  0.0179 -0.2865
   46MPD2    H7  714   3.508   4.671   9.182  1.6115 -0.0953  0.7526
   47TMC2    C1  715   1.394   0.876   9.402 -0.0320 -0.0341 -0.1018
   47TMC2    C2  716   1.425   0.772   9.323 -0.2979  0.3209 -0.1460
   47TMC2    C3  717   1.338   0.666   9.316 -0.2954  1.0250  0.9711
   47TMC2    C4  718   1.280   0.882   9.479  0.1516  0.1882 -0.7351
   47TMC2    C5  719   1.196   0.780   9.462  0.1414  0.4921  0.2126
   47TMC2    C6  720   1.215   0.669   9.383 -0.9354  0.5602  0.3803
   47TMC2     C  721   1.509   0.933   9.485 -1.2000 -0.4121 -0.7749
   47TMC2     O  722   1.485   1.027   9.554 -0.2436  0.0286  0.0189
   47TMC2     H  723   1.515   0.786   9.265 -1.2483  1.2535 -1.3930
   47TMC2    H1  724   1.277   0.961   9.553 -0.4447  0.1152 -0.6827
   47TMC2    H2  725   1.143   0.588   9.376 -0.6399  0.3043  0.3248
   47TMC2    C7  726   1.056   0.797   9.520  0.0216 -0.4640  0.2013
   47TMC2    C8  727   1.351   0.565   9.210 -0.5905 -0.0950 -0.2091
   47TMC2    O1  728   0.982   0.702   9.521  0.2662  0.0400  0.5087
   47TMC2    O2  729   1.260   0.498   9.170  0.3529 -0.4004  0.2598
   47TMC2    O5  730   1.481   0.538   9.188  0.0474  0.5515  0.3601
   47TMC2    H5  731   1.536   0.598   9.242 -1.5166  0.5816  1.9352
   48MPD2     C  732   1.765   0.986   9.652  0.1615 -0.5800  0.0579
   48MPD2    C1  733   1.732   0.870   9.582  0.3903  0.2517 -0.5124
   48MPD2    C2  734   1.805   0.759   9.619  0.6977  0.6633  0.4495
   48MPD2    C3  735   1.897   0.752   9.722 -0.7955 -0.5375  0.1831
   48MPD2    C4  736   1.917   0.862   9.800  0.0070  0.0461 -0.2661
   48MPD2    C5  737   1.845   0.979   9.770  0.0315  0.3626  0.8285
   48MPD2     H  738   1.785   0.665   9.568 -0.7274  0.6577  1.0249
   48MPD2    H1  739   1.993   0.871   9.877  0.2084 -0.2130 -0.4328
   48MPD2    H2  740   1.719   1.079   9.619 -1.5763 -1.3634  0.2788
   48MPD2    H3  741   1.882   1.072   9.812  1.7053 -0.1047  0.4227
   48MPD2     N  742   1.958   0.626   9.743  0.5743 -0.2740 -0.2932
   48MPD2    H5  743   1.945   0.563   9.665 -1.8522  1.2876 -1.1413
   48MPD2    N1  744   1.623   0.859   9.487 -0.2153 -0.3654 -0.2095
   48MPD2    H7  745   1.630   0.776   9.429 -0.7020  0.2466 -1.1427
   49MPD2     C  746   0.410   3.633  10.172 -0.0263  0.1738  0.0067
   49MPD2    C1  747   0.308   3.546  10.148  0.0841 -0.8472 -0.0826
   49MPD2    C2  748   0.221   3.508  10.251 -0.1757  0.2425 -0.0409
   49MPD2    C3  749   0.243   3.558  10.378  0.2105 -0.1208  0.4895
   49MPD2    C4  750   0.350   3.642  10.403  0.4700 -0.9873  0.3768
   49MPD2    C5  751   0.432   3.679  10.302  0.7317 -0.3865  0.1750
   49MPD2     H  752   0.146   3.432  10.232 -1.9367  2.1142 -0.5546
   49MPD2    H1  753   0.368   3.688  10.499 -1.3215 -2.0786  1.2445
   49MPD2    H2  754   0.480   3.663  10.095 -0.0881 -2.2912 -1.0180
   49MPD2    H3  755   0.517   3.740  10.330 -0.0794  0.8287 -0.0026
   49MPD2     N  756   0.153   3.532  10.481 -0.1492  0.4423  0.1599
   49MPD2    H5  757   0.158   3.596  10.560 -0.8582 -1.1384  1.4790
   49MPD2    N1  758   0.273   3.494  10.022 -0.6426  0.0594  0.3935
   49MPD2    H7  759   0.188   3.439  10.016  0.8815 -2.3310  1.1314
   50TCq2    C1  760   0.334   3.528   9.903  0.2443 -0.5968  0.0937
   50TCq2    O2  761   0.422   3.606   9.875  0.2379  0.0989  0.6091
   50TCq2    C2  762   0.260   3.479   9.787  0.1011  0.4523 -0.5396
   50TCq2    C3  763   0.263   3.557   9.677 -0.1208 -0.2556 -0.0492
   50TCq2    C4  764   0.186   3.514   9.572  0.6386  0.3993  0.0707
   50TCq2    C5  765   0.097   3.409   9.578  0.5116  0.6740  0.5732
   50TCq2    C6  766   0.095   3.332   9.696 -0.0058  0.3703  0.1592
   50TCq2    C7  767   0.172   3.374   9.800  0.4703  0.1952  0.4436
   50TCq2    C8  768   0.004   3.225   9.726  0.1299  0.3768 -0.2289
   50TCq2    O4  769   0.026   3.159   9.828  0.4350 -0.0905  0.0632
   50TCq2    C9  770   0.193   3.591   9.453 -0.2435  0.4147 -0.2482
   50TCq2    O5  771   0.290   3.668   9.443 -0.1182 -0.2973  0.0899
   50TCq2    O6  772   0.102   3.589   9.371  0.6554  0.0962  0.7206
   50TCq2    H2  773   0.316   3.650   9.659 -0.0182 -0.6510 -1.8633
   50TCq2    H3  774   0.036   3.386   9.490  1.6255  1.2263 -0.3445
   50TCq2    H4  775   0.182   3.307   9.884 -1.8991 -0.1718  0.4172
   51MPD2     C  776   0.878   1.238   1.109  0.0878  0.5764  0.2972
   51MPD2    C1  777   0.791   1.137   1.123  0.3712 -0.2814  0.4783
   51MPD2    C2  778   0.731   1.121   1.250  0.4157  0.1180 -0.5622
   51MPD2    C3  779   0.744   1.212   1.345  0.5626  0.0679 -0.8237
   51MPD2    C4  780   0.830   1.319   1.321  0.4261  0.5247 -0.4156
   51MPD2    C5  781   0.912   1.327   1.206 -0.6608 -0.4393  0.0464
   51MPD2     H  782   0.656   1.043   1.263 -0.5735  1.7892  3.6851
   51MPD2    H1  783   0.836   1.399   1.394 -1.8851 -0.0281  0.3737
   51MPD2    H2  784   0.948   1.225   1.027  1.0849 -0.4635  1.3268
   51MPD2    H3  785   0.984   1.408   1.194  0.7439 -1.6238  0.5846
   51MPD2     N  786   0.679   1.226   1.471 -0.1136 -0.2606 -0.5687
   51MPD2    H5  787   0.684   1.311   1.527  0.0228 -0.8955  0.3683
   51MPD2    N1  788   0.780   1.039   1.022  0.4851  0.0729  0.2079
   51MPD2    H7  789   0.717   0.962   1.042  2.4119 -0.8783  2.4995
   52TCq2    C1  790   0.601   1.123   1.518 -0.0769 -0.2888 -0.2893
   52TCq2    O2  791   0.581   1.014   1.469 -0.3505 -0.7072  0.7280
   52TCq2    C2  792   0.525   1.156   1.639 -0.1249  0.4810 -0.4037
   52TCq2    C3  793   0.404   1.086   1.651 -0.1812  0.3755  0.0936
   52TCq2    C4  794   0.329   1.108   1.757 -0.4116  0.3549 -0.3735
   52TCq2    C5  795   0.369   1.202   1.847  0.3109 -0.2911  0.3838
   52TCq2    C6  796   0.485   1.276   1.828 -0.5491  0.1776  0.0045
   52TCq2    C7  797   0.560   1.256   1.721  0.1944  0.0680  0.1993
   52TCq2    C8  798   0.505   1.405   1.889 -0.0011 -0.3013  0.7833
   52TCq2    O4  799   0.611   1.467   1.877  0.2422  0.3017 -0.7700
   52TCq2    C9  800   0.198   1.041   1.765 -0.7015 -0.5122  0.1825
   52TCq2    O5  801   0.108   1.098   1.828 -0.2676 -0.7785 -0.0518
   52TCq2    O6  802   0.187   0.926   1.719 -0.2882 -0.1161  0.1232
   52TCq2    H2  803   0.371   1.024   1.568  0.3350  0.3485 -0.0940
   52TCq2    H3  804   0.297   1.216   1.927 -1.3743 -2.8407 -0.6671
   52TCq2    H4  805   0.661   1.295   1.714 -0.3672  1.3034 -0.8900
   53TMC2    C1  806   0.895   0.315  11.961 -0.5770 -0.3556  0.0532
   53TMC2    C2  807   0.998   0.268  12.032 -0.2099  0.3581 -0.1824
   53TMC2    C3  808   0.982   0.253  12.165 -0.6450 -0.5226 -0.2470
   53TMC2    C4  809   0.775   0.340  12.023  0.2075 -0.3227  0.1148
   53TMC2    C5  810   0.767   0.324  12.159  0.1511 -0.0800  0.1284
   53TMC2    C6  811   0.865   0.273  12.233 -0.4882  0.3984  0.2497
   53TMC2     C  812   0.896   0.283  11.825 -0.2479  0.0496  0.2368
   53TMC2     O  813   1.001   0.266  11.762  0.0401  0.0465 -0.0340
   53TMC2     H  814   1.088   0.244  11.976 -2.0398 -2.5465 -1.8655
   53TMC2    H1  815   0.694   0.392  11.972  0.2117 -2.9880 -2.6594
   53TMC2    H2  816   0.864   0.253  12.340 -0.8660 -1.2600 -0.0592
   53TMC2    C7  817   0.631   0.295  12.197 -0.3305  0.6553 -0.1678
   53TMC2    C8  818   1.088   0.192  12.245 -0.9569  0.4309  0.3168
   53TMC2    O1  819   0.557   0.286  12.097 -0.1548 -0.4271  0.0037
   53TMC2    O2  820   1.108   0.209  12.362  0.1618  0.1916 -0.4971
   53TMC2    O5  821   1.148   0.106  12.165 -0.7773  0.4031 -0.8150
   53TMC2    H5  822   1.108   0.068  12.085  0.6871 -0.2818 -1.2268
   54MPD2     C  823   0.790   0.229  11.540 -0.5634 -0.7758  0.1683
   54MPD2    C1  824   0.720   0.206  11.659 -0.7568  0.3791  0.3256
   54MPD2    C2  825   0.596   0.158  11.666 -0.5584 -0.1799  0.3892
   54MPD2    C3  826   0.536   0.116  11.555  0.6944 -0.3825 -0.0143
   54MPD2    C4  827   0.598   0.135  11.435  0.3421 -0.8808  0.6272
   54MPD2    C5  828   0.726   0.185  11.425  0.3360  0.9055 -0.1506
   54MPD2     H  829   0.541   0.151  11.759 -0.2849  1.1974  0.6531
   54MPD2    H1  830   0.566   0.111  11.334 -0.5806  0.1023  0.6863
   54MPD2    H2  831   0.886   0.280  11.541 -0.4056 -1.0915  1.1119
   54MPD2    H3  832   0.776   0.198  11.329  1.2352  0.4153  0.2523
   54MPD2     N  833   0.409   0.048  11.549 -0.2645  0.4606  0.1368
   54MPD2    H5  834   0.372   0.029  11.457 -0.5284 -2.7171  0.8773
   54MPD2    N1  835   0.772   0.246  11.785  0.2702  0.2042 -0.5356
   54MPD2    H7  836   0.705   0.251  11.861  0.8338  0.0471 -0.0285
   55MPD2     C  837   1.482   2.930   0.434 -0.1498  0.1882  0.1554
   55MPD2    C1  838   1.436   2.814   0.487  0.7745 -0.3248 -0.9228
   55MPD2    C2  839   1.303   2.784   0.504  0.5834  0.6231 -0.0240
   55MPD2    C3  840   1.209   2.871   0.460  0.5665  0.2880 -0.2876
   55MPD2    C4  841   1.256   2.994   0.406  0.3171 -0.1119  0.3208
   55MPD2    C5  842   1.387   3.015   0.388  0.7698 -0.2807  0.3302
   55MPD2     H  843   1.276   2.688   0.546  3.1729 -0.1974 -0.2191
   55MPD2    H1  844   1.186   3.070   0.373  2.5987  1.8380 -0.0325
   55MPD2    H2  845   1.588   2.949   0.426 -0.4993  1.5217 -1.3132
   55MPD2    H3  846   1.422   3.107   0.341  2.4475 -0.1768  1.7923
   55MPD2     N  847   1.072   2.825   0.460  0.1492 -0.0411  0.3206
   55MPD2    H5  848   1.057   2.733   0.498 -0.9876  1.1305  2.6838
   55MPD2    N1  849   1.541   2.723   0.518  0.1845 -0.6188 -0.1951
   55MPD2    H7  850   1.635   2.760   0.526 -0.6713  1.6068 -0.2082
   56TCq2    C1  851   1.520   2.587   0.545 -0.2351  0.5137  0.3600
   56TCq2    O2  852   1.418   2.518   0.540 -0.1274  0.0365  0.0673
   56TCq2    C2  853   1.640   2.508   0.548 -0.6165  0.1857 -0.4396
   56TCq2    C3  854   1.750   2.554   0.490 -0.2209 -0.1748 -0.0340
   56TCq2    C4  855   1.869   2.497   0.523  0.0705  0.0456 -0.3212
   56TCq2    C5  856   1.877   2.384   0.603 -0.2120 -0.2390 -0.3141
   56TCq2    C6  857   1.757   2.324   0.634  0.8144  0.7605 -0.4957
   56TCq2    C7  858   1.643   2.386   0.618  0.0711 -0.2863 -0.4277
   56TCq2    C8  859   1.763   2.200   0.716 -0.4883 -0.0542 -0.8707
   56TCq2    O4  860   1.852   2.190   0.799  0.1965  0.2380  0.7014
   56TCq2    C9  861   1.991   2.555   0.478 -0.0878 -0.2248 -0.1509
   56TCq2    O5  862   2.097   2.487   0.463 -0.1834  0.0560 -0.5066
   56TCq2    O6  863   1.998   2.679   0.458  0.5206 -0.0330 -0.2656
   56TCq2    H2  864   1.739   2.622   0.406  1.8094  2.3712  1.7701
   56TCq2    H3  865   1.972   2.342   0.633  0.4248 -0.4283 -2.5737
   56TCq2    H4  866   1.554   2.366   0.678  1.4586 -4.5196  0.1865
   57TMC2    C1  867   0.330   3.934  12.913 -0.4433 -0.0516  0.2729
   57TMC2    C2  868   0.298   3.944  12.779 -0.1517 -0.5705  0.0053
   57TMC2    C3  869   0.378   4.029  12.714 -0.8474  0.0569 -0.9140
   57TMC2    C4  870   0.421   4.016  12.970  0.9482  0.1890 -0.5056
   57TMC2    C5  871   0.501   4.102  12.896  0.1311  0.0563 -0.1767
   57TMC2    C6  872   0.475   4.107  12.764  0.6818  0.1711 -0.2407
   57TMC2     C  873   0.252   3.862  13.009  0.3644  0.6222  0.3541
   57TMC2     O  874   0.269   3.893  13.125  0.4491  0.1319 -0.1893
   57TMC2     H  875   0.225   3.887  12.721  0.2025  0.5591 -1.5572
   57TMC2    H1  876   0.451   4.004  13.074  1.1399  1.1875 -0.4411
   57TMC2    H2  877   0.545   4.162  12.702  0.8620  0.2958  0.0747
   57TMC2    C7  878   0.636   4.082  12.933 -0.4644  0.2606  0.0204
   57TMC2    C8  879   0.371   4.020  12.573  0.2431 -0.2070  0.0910
   57TMC2    O1  880   0.667   3.979  12.997 -0.1669  0.2324 -0.5517
   57TMC2    O2  881   0.277   4.018  12.500 -0.3587 -0.2063  0.5682
   57TMC2    O5  882   0.494   4.002  12.524  0.4739 -0.1062  0.5095
   57TMC2    H5  883   0.571   3.995  12.585 -1.2103 -1.2041  2.5479
   58MPD2     C  884   4.582   3.566  13.171 -0.1871 -0.2227 -0.0885
   58MPD2    C1  885   4.669   3.646  13.244 -0.2886  0.0398 -0.1601
   58MPD2    C2  886   0.053   3.704  13.174 -0.5817  0.8108 -0.1282
   58MPD2    C3  887   0.069   3.691  13.035  0.3731  0.1071  0.7969
   58MPD2    C4  888   4.713   3.601  12.968 -0.2723  0.3014 -0.7222
   58MPD2    C5  889   4.609   3.535  13.040 -0.3816  0.7302 -0.0184
   58MPD2     H  890   0.115   3.771  13.232  0.9292 -0.7659  0.0669
   58MPD2    H1  891   0.002   3.580  12.862 -0.0752  0.8756 -0.8089
   58MPD2    H2  892   4.503   3.511  13.221  0.2422 -3.0890 -2.6112
   58MPD2    H3  893   4.543   3.468  12.987 -0.4454  0.8182 -0.0494
   58MPD2     N  894   0.163   3.767  12.960 -0.0051 -0.0273  0.3902
   58MPD2    H5  895   0.168   3.736  12.863 -1.1627  0.2785  0.2298
   58MPD2    N1  896   4.649   3.685  13.376  0.5707  0.1714  0.2058
   58MPD2    H7  897   0.005   3.732  13.416  0.3772  1.4066 -0.8422
   59MPD2     C  898   3.059   3.990  12.782 -0.0367 -0.3361 -0.3766
   59MPD2    C1  899   3.165   3.896  12.765  0.1424  0.0775 -0.2640
   59MPD2    C2  900   3.247   3.883  12.873  0.0019  0.5786  0.6197
   59MPD2    C3  901   3.225   3.946  12.992  0.1399  0.4552 -0.3084
   59MPD2    C4  902   3.121   4.034  13.008  0.3636  0.2251 -0.1732
   59MPD2    C5  903   3.038   4.050  12.902  0.9843 -0.5050  0.0403
   59MPD2     H  904   3.340   3.829  12.859 -1.4185 -1.1238 -2.2145
   59MPD2    H1  905   3.104   4.089  13.099 -0.3805 -0.4239  0.0767
   59MPD2    H2  906   3.005   4.021  12.693  1.0222  0.6460 -0.6748
   59MPD2    H3  907   2.968   4.133  12.906 -0.6457 -1.8218 -1.1932
   59MPD2     N  908   3.307   3.938  13.107 -0.1720  0.5707 -0.4464
   59MPD2    H5  909   3.287   3.999  13.185 -0.3345 -0.2523  0.1573
   59MPD2    N1  910   3.198   3.831  12.647 -0.3587  0.3847 -0.0346
   59MPD2    H7  911   3.286   3.782  12.637 -0.0452  1.1633 -1.1548
   60TCq2    C1  912   3.119   3.837  12.535  0.1498  0.4887 -0.3219
   60TCq2    O2  913   3.014   3.901  12.517 -0.0406 -0.9437 -0.9335
   60TCq2    C2  914   3.191   3.783  12.421 -0.0400  0.3467 -0.3219
   60TCq2    C3  915   3.306   3.710  12.444 -0.1671  0.0629  0.1217
   60TCq2    C4  916   3.392   3.695  12.338 -0.5061  0.1619 -0.5686
   60TCq2    C5  917   3.363   3.741  12.212  0.0835  0.8915 -0.4800
   60TCq2    C6  918   3.243   3.812  12.193  0.1598  0.6852  1.2827
   60TCq2    C7  919   3.167   3.846  12.298  0.3542  0.4977 -0.3227
   60TCq2    C8  920   3.240   3.893  12.062  0.2531  0.3724 -0.4860
   60TCq2    O4  921   3.336   3.881  11.989  0.3805  0.3489  0.6000
   60TCq2    C9  922   3.517   3.637  12.357  0.3319 -0.0364 -0.9734
   60TCq2    O5  923   3.616   3.667  12.285  0.3217  0.5600 -0.0515
   60TCq2    O6  924   3.534   3.583  12.474  0.3272  0.2972  0.5107
   60TCq2    H2  925   3.336   3.674  12.542 -0.5539 -0.3567  0.0868
   60TCq2    H3  926   3.438   3.743  12.135  1.1140  0.8575  0.5198
   60TCq2    H4  927   3.092   3.923  12.291 -0.4876 -0.2063  1.0314
   61MPD2     C  928   2.555   0.417  15.545 -0.5332  0.0666 -0.2915
   61MPD2    C1  929   2.485   0.536  15.554 -0.0967  0.2372  0.3245
   61MPD2    C2  930   2.468   0.603  15.435 -0.5993 -0.3535  0.4488
   61MPD2    C3  931   2.529   0.557  15.322  0.0226 -0.1310  0.0563
   61MPD2    C4  932   2.607   0.442  15.316 -0.9134 -0.2241  1.0832
   61MPD2    C5  933   2.618   0.371  15.429  0.7804 -0.1719 -0.1124
   61MPD2     H  934   2.428   0.704  15.437  1.5509  0.4789  0.9034
   61MPD2    H1  935   2.655   0.413  15.223 -3.3888  0.5651 -0.4586
   61MPD2    H2  936   2.571   0.362  15.637 -0.2545  0.2055 -0.2565
   61MPD2    H3  937   2.662   0.272  15.430  0.9952 -0.0435  2.3352
   61MPD2     N  938   2.516   0.628  15.197  0.1412  0.1280 -0.0944
   61MPD2    H5  939   2.571   0.597  15.118  0.2958 -1.6096  0.6795
   61MPD2    N1  940   2.440   0.603  15.673  0.5797 -0.1100 -0.2999
   61MPD2    H7  941   2.388   0.689  15.661  2.5052  1.2627  1.4137
   62TCq2    C1  942   2.457   0.554  15.801 -0.3538  0.0528  0.4025
   62TCq2    O2  943   2.516   0.451  15.832 -0.8798 -0.0888 -0.4171
   62TCq2    C2  944   2.394   0.640  15.900  0.4686  0.6101  0.6093
   62TCq2    C3  945   2.365   0.585  16.025 -0.2184  0.0930 -0.0241
   62TCq2    C4  946   2.326   0.664  16.126  0.1321  0.0285  0.1236
   62TCq2    C5  947   2.310   0.797  16.105 -0.3696 -0.4639 -0.4916
   62TCq2    C6  948   2.337   0.851  15.980  0.0682 -0.0485 -0.1887
   62TCq2    C7  949   2.381   0.773  15.878 -0.4364  0.2754 -0.1314
   62TCq2    C8  950   2.333   0.993  15.955  0.0242  0.1993  0.1824
   62TCq2    O4  951   2.352   1.030  15.839  0.3859  0.2092 -0.4418
   62TCq2    C9  952   2.310   0.601  16.254 -0.4759 -0.7106 -0.5888
   62TCq2    O5  953   2.251   0.667  16.343 -0.3559  0.2063  0.4521
   62TCq2    O6  954   2.313   0.476  16.253  0.2890 -0.1717  0.0731
   62TCq2    H2  955   2.373   0.478  16.041  0.7603  0.2714  0.6803
   62TCq2    H3  956   2.280   0.859  16.188  1.4154  1.3735 -1.2171
   62TCq2    H4  957   2.394   0.815  15.779  0.8240  1.5177  0.5614
   63TMC2    C1  958   1.851   0.859  10.891 -0.4047  0.1089 -0.9378
   63TMC2    C2  959   1.921   0.939  10.970 -0.2258 -0.0966 -0.0273
   63TMC2    C3  960   1.993   1.032  10.908  0.6351  0.8755 -0.2697
   63TMC2    C4  961   1.838   0.873  10.755  0.3111  0.2738 -0.0311
   63TMC2    C5  962   1.907   0.979  10.700 -0.7224 -0.4406 -0.0848
   63TMC2    C6  963   1.994   1.063  10.775  0.2630  0.1307 -0.0953
   63TMC2     C  964   1.769   0.764  10.958 -0.2242  0.4377 -0.9511
   63TMC2     O  965   1.728   0.803  11.067  0.0704  0.0521 -0.2052
   63TMC2     H  966   1.933   0.930  11.078 -1.4746 -4.3780 -0.2666
   63TMC2    H1  967   1.779   0.808  10.691  0.6934  0.4090 -0.5206
   63TMC2    H2  968   2.036   1.159  10.747  0.3965 -0.2681 -1.2622
   63TMC2    C7  969   1.881   1.013  10.562  1.0638 -0.5862 -0.2711
   63TMC2    C8  970   2.074   1.106  11.000 -0.1760  0.1798 -0.6148
   63TMC2    O1  971   1.813   0.934  10.495  0.0318 -0.8485 -0.4002
   63TMC2    O2  972   2.066   1.229  11.001  0.4912  0.1827  0.3639
   63TMC2    O5  973   2.190   1.038  10.991 -0.4564 -0.2556  0.1101
   63TMC2    H5  974   2.162   0.947  10.967 -3.6733  0.7337  0.1818
   64MPD2     C  975   1.433   0.382  10.932  0.1820 -0.2886 -0.1449
   64MPD2    C1  976   1.535   0.349  10.842  1.0348  0.4881  0.6620
   64MPD2    C2  977   1.630   0.444  10.835 -0.5405 -0.3754 -0.6325
   64MPD2    C3  978   1.633   0.559  10.911 -0.2993 -0.2251 -0.3642
   64MPD2    C4  979   1.528   0.584  11.003  0.0890  0.0546 -0.2278
   64MPD2    C5  980   1.426   0.491  11.011  0.3242 -0.3572  0.0819
   64MPD2     H  981   1.711   0.427  10.764  0.5132 -0.2250  0.5261
   64MPD2    H1  982   1.530   0.672  11.066 -1.5673 -0.8732  1.1098
   64MPD2    H2  983   1.356   0.310  10.958  0.8034 -0.6648  0.6877
   64MPD2    H3  984   1.350   0.503  11.087  0.1160 -0.9950 -0.0245
   64MPD2     N  985   1.740   0.648  10.881 -0.2226  0.1379  0.0882
   64MPD2    H5  986   1.810   0.635  10.809  1.3805 -0.1795  1.6910
   64MPD2    N1  987   1.552   0.225  10.772  0.1596 -0.0459  0.4234
   64MPD2    H7  988   1.641   0.217  10.725 -0.7474 -0.5490 -1.2081
   65MPD2     C  989   3.002   4.570  15.740 -0.2499  0.7039 -0.5453
   65MPD2    C1  990   2.921   4.586  15.630  0.1094 -0.5473  0.6314
   65MPD2    C2  991   2.851   4.484  15.575 -0.0646 -0.2864 -0.0879
   65MPD2    C3  992   2.867   4.357  15.624 -0.5062  0.0827 -0.6509
   65MPD2    C4  993   2.942   4.330  15.737  0.3117  0.6628  0.2427
   65MPD2    C5  994   3.003   4.441  15.794  0.2431  0.6162  0.5590
   65MPD2     H  995   2.793   4.495  15.484 -0.4475  1.0294  0.3250
   65MPD2    H1  996   2.951   4.229  15.774 -1.7935  0.1675 -0.5944
   65MPD2    H2  997   3.062   4.648  15.786 -0.6371  0.9393 -0.4363
   65MPD2    H3  998   3.075   4.419  15.872 -0.9772  3.1805  2.4424
   65MPD2     N  999   2.806   4.247  15.567  0.2774 -0.1311 -0.3378
   65MPD2    H5 1000   2.794   4.161  15.619 -0.1572  0.2649  0.2180
   65MPD2    N1 1001   2.915   4.712  15.562  0.7962  0.7990  0.5453
   65MPD2    H7 1002   2.862   4.720  15.476 -1.3148 -1.3291  1.6489
   66TCq2    C1 1003   2.980   0.106  15.599 -0.1210 -0.0191 -0.3239
   66TCq2    O2 1004   3.016   0.134  15.715  0.2713  0.4058  0.2962
   66TCq2    C2 1005   2.972   0.211  15.505  0.6298 -0.6864  0.2245
   66TCq2    C3 1006   2.942   0.183  15.372  0.0489 -0.3067  0.3072
   66TCq2    C4 1007   2.916   0.282  15.285  0.5798 -0.8499  0.4990
   66TCq2    C5 1008   2.935   0.410  15.313 -0.4272  0.5957 -0.1309
   66TCq2    C6 1009   2.960   0.433  15.450 -0.8809 -0.3485 -0.0087
   66TCq2    C7 1010   2.979   0.338  15.547  0.0085  0.2351 -0.0327
   66TCq2    C8 1011   2.963   0.572  15.487  0.2928 -0.0870 -0.0928
   66TCq2    O4 1012   2.984   0.655  15.398  0.0758  0.0087  0.0519
   66TCq2    C9 1013   2.890   0.245  15.154 -0.1467 -0.0790  0.3541
   66TCq2    O5 1014   2.912   0.325  15.062  0.7262 -0.1002 -0.6330
   66TCq2    O6 1015   2.817   0.137  15.142 -0.3162 -0.3608 -0.7012
   66TCq2    H2 1016   2.941   0.081  15.337 -0.2944 -0.5171  0.9291
   66TCq2    H3 1017   2.926   0.491  15.242 -1.5527  1.3669  0.8860
   66TCq2    H4 1018   3.019   0.366  15.643  1.6861  0.7914 -0.8946
   67MPD2     C 1019   3.073   3.478  13.901  0.7232  0.7340 -0.6582
   67MPD2    C1 1020   3.077   3.559  14.014 -0.7234  0.3686 -1.1215
   67MPD2    C2 1021   3.048   3.696  14.006  0.2274 -0.3225  0.3353
   67MPD2    C3 1022   2.992   3.751  13.889  0.4398 -0.0589  0.2554
   67MPD2    C4 1023   2.979   3.659  13.782 -0.7240  0.2590  0.2830
   67MPD2    C5 1024   3.029   3.534  13.782  0.4524  0.4743  0.4225
   67MPD2     H 1025   3.058   3.757  14.095  0.8709 -0.8185  0.6085
   67MPD2    H1 1026   2.938   3.706  13.693 -0.4412  0.6554  0.3613
   67MPD2    H2 1027   3.089   3.370  13.903 -3.2170  0.1185 -1.9482
   67MPD2    H3 1028   3.020   3.472  13.694 -2.3399  0.3336  0.8093
   67MPD2     N 1029   2.944   3.879  13.877 -0.6652 -0.4357  0.3036
   67MPD2    H5 1030   2.877   3.893  13.803 -0.1411 -0.4379 -0.1726
   67MPD2    N1 1031   3.108   3.509  14.142  0.4274 -0.1628 -0.5773
   67MPD2    H7 1032   3.128   3.581  14.210 -0.9945 -2.0851  1.8829
   68TCq2    C1 1033   3.105   3.373  14.170  1.2890  0.4597 -0.7831
   68TCq2    O2 1034   3.043   3.284  14.111 -0.3327  0.4328 -0.2735
   68TCq2    C2 1035   3.140   3.348  14.312  0.7575 -0.4721  0.4190
   68TCq2    C3 1036   3.071   3.247  14.376  0.1048  0.0201  0.3447
   68TCq2    C4 1037   3.078   3.236  14.509  0.2865  0.0169 -0.8367
   68TCq2    C5 1038   3.158   3.321  14.580 -0.9317 -0.2832 -0.4300
   68TCq2    C6 1039   3.229   3.416  14.517  0.1899 -0.0792 -0.7536
   68TCq2    C7 1040   3.224   3.427  14.379  0.5229 -1.1192  0.1034
   68TCq2    C8 1041   3.335   3.495  14.587  0.1673 -0.4510  0.4092
   68TCq2    O4 1042   3.422   3.543  14.517 -0.2602 -0.5317 -0.0772
   68TCq2    C9 1043   3.018   3.126  14.576  0.4910 -1.0433 -0.6751
   68TCq2    O5 1044   2.919   3.078  14.520  0.2036 -0.1984  0.0920
   68TCq2    O6 1045   3.082   3.074  14.671 -0.1575  0.5015 -0.0661
   68TCq2    H2 1046   3.002   3.189  14.315  0.2837 -0.1327  0.2857
   68TCq2    H3 1047   3.156   3.302  14.687  1.2953 -0.5569 -0.4462
   68TCq2    H4 1048   3.270   3.510  14.327  2.4940 -2.0199  0.4146
   69TMC2    C1 1049   4.598   0.681  11.780  0.1480 -0.3881  0.4908
   69TMC2    C2 1050   4.508   0.621  11.700 -0.3982  0.0129 -0.0877
   69TMC2    C3 1051   4.534   0.610  11.566 -0.2295  0.5145  0.1036
   69TMC2    C4 1052   4.721   0.712  11.737  0.3815 -0.5501 -0.2120
   69TMC2    C5 1053   0.037   0.671  11.613 -1.0767 -0.4969  0.0874
   69TMC2    C6 1054   4.668   0.622  11.525  0.1663  0.6288  0.1682
   69TMC2     C 1055   4.558   0.698  11.918  0.1749  0.0712  0.0870
   69TMC2     O 1056   4.457   0.639  11.953 -0.0272 -0.4144 -0.1177
   69TMC2     H 1057   4.407   0.604  11.738 -0.7663 -0.7995 -1.4542
   69TMC2    H1 1058   0.070   0.741  11.812 -0.9010  4.1983 -0.8166
   69TMC2    H2 1059   4.695   0.595  11.423 -0.6174  0.9128 -0.1167
   69TMC2    C7 1060   0.179   0.692  11.582  0.5592  0.5110  0.8847
   69TMC2    C8 1061   4.429   0.661  11.481  0.2582 -0.1027 -0.3171
   69TMC2    O1 1062   0.271   0.669  11.655  0.1825  0.5173 -0.1693
   69TMC2    O2 1063   4.311   0.638  11.501  0.6474 -0.1008  0.5981
   69TMC2    O5 1064   4.483   0.694  11.368 -0.1836  0.3802 -0.9556
   69TMC2    H5 1065   4.574   0.729  11.373 -0.2308  0.2832  0.6382
   70MPD2     C 1066   4.657   0.988  12.118 -0.3966 -0.2151 -0.1020
   70MPD2    C1 1067   4.608   0.859  12.098  0.0859  0.2905 -0.5975
   70MPD2    C2 1068   4.558   0.784  12.206  0.3534  0.5688  0.3052
   70MPD2    C3 1069   4.577   0.836  12.336  0.3701 -0.1849 -0.0234
   70MPD2    C4 1070   4.613   0.967  12.354  0.1887 -0.1248 -0.1136
   70MPD2    C5 1071   4.642   1.048  12.247 -0.5923  0.3733  0.0221
   70MPD2     H 1072   4.527   0.682  12.188 -0.5912  0.8096  0.6200
   70MPD2    H1 1073   4.622   1.012  12.453 -0.1371  1.0818 -0.6277
   70MPD2    H2 1074   4.676   1.045  12.027  2.2406  0.3351  0.7696
   70MPD2    H3 1075   4.654   1.155  12.263 -0.6537  0.4553 -0.4997
   70MPD2     N 1076   4.557   0.759  12.450 -0.9145 -0.0766 -0.3644
   70MPD2    H5 1077   4.588   0.797  12.539 -1.3644 -3.1183  1.0967
   70MPD2    N1 1078   4.625   0.811  11.968  0.0065 -0.1917  0.0165
   70MPD2    H7 1079   4.682   0.869  11.906  3.4793 -1.6159  1.8694
   71TMC2    C1 1080   2.555   1.164   2.133 -0.2854  0.0711 -0.0088
   71TMC2    C2 1081   2.591   1.252   2.228  0.0464 -0.7194  0.6839
   71TMC2    C3 1082   2.511   1.267   2.338  0.3726 -0.4756  0.4853
   71TMC2    C4 1083   2.439   1.097   2.136  0.0992  0.4424  0.1827
   71TMC2    C5 1084   2.356   1.118   2.246 -0.2192  0.3472 -0.6883
   71TMC2    C6 1085   2.391   1.207   2.347  0.2470 -0.0908 -0.0498
   71TMC2     C 1086   2.654   1.109   2.043  0.0777  0.1607 -1.2973
   71TMC2     O 1087   2.737   1.195   2.004 -0.6911 -0.0473  0.4757
   71TMC2     H 1088   2.687   1.302   2.233 -0.4836  0.5819 -1.7696
   71TMC2    H1 1089   2.415   1.018   2.066  2.3102  0.2415 -0.3457
   71TMC2    H2 1090   2.319   1.240   2.421 -1.8743 -2.3043 -1.1160
   71TMC2    C7 1091   2.221   1.070   2.250 -0.2636 -0.5078  0.5474
   71TMC2    C8 1092   2.552   1.370   2.436 -0.5456  0.3041  0.3107
   71TMC2    O1 1093   2.163   1.102   2.352 -0.1935  0.2809 -0.4001
   71TMC2    O2 1094   2.471   1.418   2.517  0.2136 -0.2714  0.1036
   71TMC2    O5 1095   2.676   1.336   2.477  0.3577 -0.1093  0.4790
   71TMC2    H5 1096   2.722   1.274   2.417 -0.2188 -0.5272  0.4727
   72MPD2     C 1097   2.956   0.714   1.917 -0.2407 -0.6097  0.4737
   72MPD2    C1 1098   2.975   0.848   1.912  1.3783 -0.1966 -0.5128
   72MPD2    C2 1099   2.874   0.937   1.952  0.1543  0.8411 -0.2523
   72MPD2    C3 1100   2.751   0.888   1.990 -0.1279 -0.5455  0.4084
   72MPD2    C4 1101   2.731   0.756   1.995 -0.4669  0.1074  0.3992
   72MPD2    C5 1102   2.833   0.668   1.963  0.5397 -0.5814  0.1056
   72MPD2     H 1103   2.897   1.043   1.943  1.2250  0.6379  0.0747
   72MPD2    H1 1104   2.642   0.707   2.035 -0.0235 -0.7292  0.3612
   72MPD2    H2 1105   3.023   0.636   1.886  0.6880 -0.4054  1.9186
   72MPD2    H3 1106   2.813   0.562   1.966  0.7639 -0.5413  2.7509
   72MPD2     N 1107   2.655   0.975   2.049 -0.2168  0.4723  0.0827
   72MPD2    H5 1108   2.591   0.925   2.109 -0.0147  0.6001  0.4027
   72MPD2    N1 1109   3.095   0.904   1.862  1.0683  0.2680 -0.2978
   72MPD2    H7 1110   3.104   1.004   1.875  1.6637  0.4321 -2.1343
   73TMC2    C1 1111   2.367   3.790  13.468 -0.0698 -0.4142  0.0136
   73TMC2    C2 1112   2.313   3.913  13.486 -0.1807 -0.1581  0.1366
   73TMC2    C3 1113   2.382   3.991  13.575  0.1812 -0.2686  0.1667
   73TMC2    C4 1114   2.480   3.746  13.531 -0.3583  0.0631  0.2542
   73TMC2    C5 1115   2.558   3.833  13.603  0.5731 -0.0587 -0.4535
   73TMC2    C6 1116   2.504   3.961  13.619 -0.7147 -0.1902 -0.0735
   73TMC2     C 1117   2.384   3.764  13.325 -0.5948 -0.1103  0.3744
   73TMC2     O 1118   2.502   3.770  13.292 -0.0587 -0.5838 -0.4302
   73TMC2     H 1119   2.259   3.961  13.405 -0.3429 -1.7500 -0.7090
   73TMC2    H1 1120   2.525   3.652  13.502 -0.4412  0.3178 -0.7310
   73TMC2    H2 1121   2.569   4.039  13.656 -0.2339 -1.3721  1.5791
   73TMC2    C7 1122   2.696   3.824  13.574  0.0376  0.2603  0.4402
   73TMC2    C8 1123   2.310   4.116  13.604  0.4265 -0.3587 -0.8439
   73TMC2    O1 1124   2.776   3.877  13.652 -0.0531  0.4015  0.6899
   73TMC2    O2 1125   2.207   4.153  13.546 -0.1333  0.1665 -0.3906
   73TMC2    O5 1126   2.356   4.173  13.711 -0.0391 -0.4097 -0.0134
   73TMC2    H5 1127   2.430   4.119  13.747  0.1931  0.5237  0.8929
   74MPD2     C 1128   2.244   3.557  12.889  0.0122 -0.0923  0.6029
   74MPD2    C1 1129   2.362   3.620  12.915 -0.1259  0.8046 -0.5445
   74MPD2    C2 1130   2.368   3.690  13.036  0.3907 -0.0125 -0.5885
   74MPD2    C3 1131   2.262   3.711  13.119  0.0400  0.1983 -0.0889
   74MPD2    C4 1132   2.134   3.661  13.076  0.3902 -0.2799 -0.0250
   74MPD2    C5 1133   2.130   3.577  12.968  0.3522 -0.7083  0.8757
   74MPD2     H 1134   2.452   3.746  13.073 -1.6399  2.7361 -0.1276
   74MPD2    H1 1135   2.040   3.668  13.130  1.0137  2.2504  0.7739
   74MPD2    H2 1136   2.229   3.492  12.803 -0.9276  1.2445 -0.2532
   74MPD2    H3 1137   2.040   3.523  12.939  0.1817  1.3556 -2.4144
   74MPD2     N 1138   2.269   3.757  13.249  0.2567  0.0560 -0.6402
   74MPD2    H5 1139   2.181   3.739  13.297  0.8284 -1.8878 -0.3205
   74MPD2    N1 1140   2.471   3.598  12.830  0.5688 -0.3369  0.3760
   74MPD2    H7 1141   2.462   3.542  12.746 -1.3993  1.3439 -0.5283
   75TCq2    C1 1142   2.979   3.986  13.961 -0.0428  0.1656 -0.4600
   75TCq2    O2 1143   3.046   3.984  14.065 -0.3019  0.3066 -0.1213
   75TCq2    C2 1144   2.913   4.112  13.938  0.0453 -0.0213  0.2075
   75TCq2    C3 1145   2.916   4.197  14.039  1.0307 -0.3659 -0.1090
   75TCq2    C4 1146   2.830   4.306  14.034  0.1880  0.2431 -0.5955
   75TCq2    C5 1147   2.758   4.339  13.925  0.7077  0.9185  0.1764
   75TCq2    C6 1148   2.779   4.255  13.818  0.4499  0.1722  0.4069
   75TCq2    C7 1149   2.869   4.148  13.814  0.1355 -0.5601  0.1920
   75TCq2    C8 1150   2.704   4.284  13.702 -0.8816  0.3525 -0.7032
   75TCq2    O4 1151   2.703   4.210  13.610 -0.5401 -0.5482 -0.2595
   75TCq2    C9 1152   2.824   4.385  14.149 -0.2148 -0.3310 -0.3279
   75TCq2    O5 1153   2.735   4.474  14.145 -0.3943  0.6270  0.0190
   75TCq2    O6 1154   2.895   4.348  14.245 -0.6012  0.8312 -0.1037
   75TCq2    H2 1155   2.975   4.185  14.130  1.6237 -0.0688 -0.4545
   75TCq2    H3 1156   2.686   4.420  13.925  0.9253  1.1161 -0.2394
   75TCq2    H4 1157   2.879   4.086  13.725 -1.4926  0.6257 -0.8260
   76MPD2     C 1158   1.274   0.537  12.064 -0.1131 -0.2645 -0.6270
   76MPD2    C1 1159   1.278   0.463  11.950  0.2626 -0.1712 -0.8087
   76MPD2    C2 1160   1.355   0.348  11.951  0.7389  0.2417  0.2855
   76MPD2    C3 1161   1.415   0.304  12.064  0.9174  0.6232 -0.5294
   76MPD2    C4 1162   1.404   0.384  12.179 -1.3014  0.1157  0.5128
   76MPD2    C5 1163   1.334   0.500  12.183  0.2679  0.1118  0.5811
   76MPD2     H 1164   1.386   0.297  11.860  1.1681 -0.1017  0.6298
   76MPD2    H1 1165   1.469   0.354  12.259  0.2201  2.4349  0.1576
   76MPD2    H2 1166   1.218   0.630  12.059  1.3015  0.6440  0.3775
   76MPD2    H3 1167   1.342   0.557  12.275 -0.0343  2.6264 -0.9531
   76MPD2     N 1168   1.502   0.198  12.080  0.7068  0.0238 -0.7263
   76MPD2    H5 1169   1.545   0.198  12.172  0.4069 -0.0407 -0.5864
   76MPD2    N1 1170   1.217   0.499  11.831  0.2775 -1.1991  0.1588
   76MPD2    H7 1171   1.232   0.441  11.749 -1.4670 -1.3224 -0.0724
   77TCq2    C1 1172   1.545   0.117  11.972  0.4457  0.1754 -0.4244
   77TCq2    O2 1173   1.493   0.104  11.861  0.6147 -0.1128 -0.0870
   77TCq2    C2 1174   1.650   0.019  12.000 -0.7503 -0.3519  0.5911
   77TCq2    C3 1175   1.662   4.632  11.916  0.3392  1.2472 -0.4159
   77TCq2    C4 1176   1.757   4.543  11.937  0.1660  0.1451 -0.0617
   77TCq2    C5 1177   1.850   4.558  12.030 -0.2730 -0.0996  0.6491
   77TCq2    C6 1178   1.834   4.662  12.113 -0.2392 -0.1236 -0.0209
   77TCq2    C7 1179   1.735   0.033  12.108 -0.7866  0.0646 -0.0383
   77TCq2    C8 1180   1.960   4.702  12.168 -0.2356 -0.0176  0.3806
   77TCq2    O4 1181   2.057   4.665  12.106 -0.1903 -0.0410  0.6028
   77TCq2    C9 1182   1.771   4.423  11.853 -0.1271 -0.3733 -1.3786
   77TCq2    O5 1183   1.715   4.424  11.743 -0.7762 -0.1905 -0.6772
   77TCq2    O6 1184   1.858   4.336  11.881  0.1020  0.4433  0.1488
   77TCq2    H2 1185   1.588   4.624  11.838 -1.1534 -1.7904  1.3134
   77TCq2    H3 1186   1.928   4.483  12.036  0.8427  1.1891  2.1916
   77TCq2    H4 1187   1.727   0.125  12.165  2.8821  0.0835  0.4444
   78MPD1     C 1188   2.562   0.253   2.193  0.2001  0.0929  0.0008
   78MPD1    C1 1189   2.697   0.230   2.207  0.2359 -0.9319 -0.0415
   78MPD1    C2 1190   2.785   0.340   2.227  0.0815 -0.1215  0.6287
   78MPD1    C3 1191   2.735   0.470   2.234 -0.2636  0.0609  0.1229
   78MPD1    C4 1192   2.600   0.487   2.230 -0.2021  0.1383  0.0128
   78MPD1    C5 1193   2.518   0.380   2.214 -0.1274  0.1498  1.0310
   78MPD1     H 1194   2.892   0.327   2.244 -0.1618  1.2483  3.2536
   78MPD1    H1 1195   2.556   0.585   2.221 -2.8379 -1.1517 -0.9278
   78MPD1    H2 1196   2.486   0.182   2.162  1.5233 -0.5513 -1.7766
   78MPD1    H3 1197   2.413   0.405   2.211 -0.0728  0.5062  2.1632
   78MPD1     N 1198   2.816   0.583   2.264 -0.1837  0.5574  0.4216
   78MPD1    H5 1199   2.759   0.667   2.274  0.8173  1.3599 -0.5654
   78MPD1    N1 1200   2.750   0.103   2.179 -0.5200  0.4486 -0.7760
   78MPD1    H6 1201   2.686   0.027   2.202 -0.2761 -0.1141 -1.9025
   78MPD1    H7 1202   2.836   0.085   2.230 -0.6643  1.7691 -0.0965
   79TCq2    C1 1203   2.951   0.593   2.267  0.1427 -0.1118 -0.3848
   79TCq2    O2 1204   3.041   0.510   2.258 -0.6584 -0.3201  0.2185
   79TCq2    C2 1205   2.978   0.735   2.290  0.0358  0.6505 -0.1238
   79TCq2    C3 1206   2.882   0.824   2.340 -0.5284  0.1197  0.2294
   79TCq2    C4 1207   2.908   0.956   2.348  0.3146 -0.1129 -0.7515
   79TCq2    C5 1208   3.035   1.000   2.314 -0.6718 -0.4973  0.1272
   79TCq2    C6 1209   3.122   0.906   2.273  0.3809  0.1950 -0.2478
   79TCq2    C7 1210   3.099   0.776   2.251 -0.0630  0.5731  0.1714
   79TCq2    C8 1211   3.253   0.947   2.225 -0.0485  0.5089 -0.1125
   79TCq2    O4 1212   3.348   0.868   2.230 -0.5949 -0.3026 -0.7705
   79TCq2    C9 1213   2.813   1.053   2.387 -0.8026 -0.7506  0.7141
   79TCq2    O5 1214   2.691   1.013   2.385 -0.3908  0.2282  0.0698
   79TCq2    O6 1215   2.848   1.171   2.380 -0.2440  0.0665  0.0070
   79TCq2    H2 1216   2.787   0.794   2.382 -0.0376  0.0573  1.3107
   79TCq2    H3 1217   3.064   1.104   2.327  0.7793 -0.7509 -1.0928
   79TCq2    H4 1218   3.177   0.709   2.215 -0.4878  0.3923 -0.4245
   80MPD2     C 1219   0.819   4.712  12.351  0.0459  0.2918  0.1513
   80MPD2    C1 1220   0.699   4.707  12.282 -0.3310  0.5346  0.8235
   80MPD2    C2 1221   0.580   4.708  12.357 -0.4048  0.7913  0.4572
   80MPD2    C3 1222   0.578   4.715  12.494  0.0489  0.3385  0.1300
   80MPD2    C4 1223   0.696   0.022  12.556 -0.2364  0.1898 -0.3690
   80MPD2    C5 1224   0.811   0.012  12.485 -0.5125 -0.2536 -0.0444
   80MPD2     H 1225   0.493   4.688  12.297  0.4791  2.9524 -1.5298
   80MPD2    H1 1226   0.709   0.042  12.662  1.0001 -1.1111 -0.2607
   80MPD2    H2 1227   0.917   4.706  12.305 -0.4543  0.5968 -0.9387
   80MPD2    H3 1228   0.905   0.024  12.538 -0.2494  0.3040 -0.6383
   80MPD2     N 1229   0.461   4.690  12.574 -0.3547  0.6756 -0.5888
   80MPD2    H5 1230   0.455   4.721  12.670  1.5694  0.4674 -0.4166
   80MPD2    N1 1231   0.689   4.685  12.146  0.1584  0.0741 -0.0625
   80MPD2    H7 1232   0.596   4.669  12.108  1.1068 -0.0360 -2.3283
   81TCq2    C1 1233   0.797   4.673  12.058  0.1020  0.7065 -0.0099
   81TCq2    O2 1234   0.917   4.694  12.076  0.1045  0.4529 -0.2704
   81TCq2    C2 1235   0.761   4.623  11.931 -0.1255  0.6401 -0.0856
   81TCq2    C3 1236   0.858   4.624  11.834  0.1844 -0.6343 -0.0160
   81TCq2    C4 1237   0.826   4.596  11.701  0.0035  0.1125 -1.0755
   81TCq2    C5 1238   0.706   4.546  11.672  0.0036 -0.0051 -0.1781
   81TCq2    C6 1239   0.612   4.540  11.771  0.4502  0.0524  0.2549
   81TCq2    C7 1240   0.633   4.575  11.901 -0.8613  0.0566 -0.5059
   81TCq2    C8 1241   0.497   4.464  11.741  0.0316  0.3656 -0.7483
   81TCq2    O4 1242   0.474   4.426  11.629  0.2639 -0.4888 -0.1777
   81TCq2    C9 1243   0.928   4.620  11.597 -0.4353 -0.0360  0.5988
   81TCq2    O5 1244   1.042   4.668  11.632  0.6805 -0.6008 -0.4132
   81TCq2    O6 1245   0.906   4.578  11.482  0.2051  0.2991 -0.4625
   81TCq2    H2 1246   0.960   4.651  11.859  0.4788 -1.8693  0.1539
   81TCq2    H3 1247   0.675   4.521  11.571  1.8269  0.5988 -0.8969
   81TCq2    H4 1248   0.550   4.578  11.970 -0.9979 -3.0451 -0.5376
   82MPD2     C 1249   3.614   4.351  10.546  0.2475  0.9734 -0.1156
   82MPD2    C1 1250   3.545   4.229  10.539 -0.1510 -0.3179  0.1645
   82MPD2    C2 1251   3.552   4.136  10.644  0.6943 -0.2131 -0.1611
   82MPD2    C3 1252   3.608   4.180  10.763 -0.2249  0.8035  0.4152
   82MPD2    C4 1253   3.662   4.309  10.772 -0.4298 -0.3633  0.0807
   82MPD2    C5 1254   3.665   4.392  10.667  0.3091 -0.4991 -0.1476
   82MPD2     H 1255   3.522   4.033  10.628  1.3365 -0.3302 -0.6459
   82MPD2    H1 1256   3.702   4.354  10.862 -1.1878  1.0649 -0.3059
   82MPD2    H2 1257   3.610   4.419  10.461 -1.1514  0.0084 -0.8348
   82MPD2    H3 1258   3.718   4.486  10.677  1.8342 -1.6918  3.2525
   82MPD2     N 1259   3.624   4.100  10.880  0.2064 -0.3752  0.6982
   82MPD2    H5 1260   3.667   4.143  10.961  0.4923  0.4756  0.0981
   82MPD2    N1 1261   3.472   4.210  10.420 -0.6055 -1.0170  0.5364
   82MPD2    H7 1262   3.470   4.289  10.356  0.5629  0.0667  1.8520
   83TCq2    C1 1263   3.605   3.964  10.892 -0.4815 -0.7833 -0.9168
   83TCq2    O2 1264   3.569   3.894  10.800 -0.7266 -0.3161  0.1385
   83TCq2    C2 1265   3.634   3.915  11.026 -0.2916  0.4311 -0.2072
   83TCq2    C3 1266   3.680   4.005  11.120 -0.2897 -0.0773 -0.2532
   83TCq2    C4 1267   3.707   3.942  11.237 -0.3097  0.2615 -0.8606
   83TCq2    C5 1268   3.698   3.806  11.258 -0.1315 -0.8450 -0.6229
   83TCq2    C6 1269   3.657   3.721  11.163  0.0938  0.1126  0.1543
   83TCq2    C7 1270   3.614   3.780  11.044 -0.4969 -0.6646  0.9210
   83TCq2    C8 1271   3.601   3.593  11.204  0.0661 -0.1252 -0.2951
   83TCq2    O4 1272   3.585   3.587  11.323 -1.2401  0.0018 -0.6141
   83TCq2    C9 1273   3.731   4.016  11.357  0.2175 -0.5402  0.0877
   83TCq2    O5 1274   3.714   4.139  11.347  0.6826  0.1835 -0.1375
   83TCq2    O6 1275   3.742   3.945  11.464  0.1850  0.0901 -0.5221
   83TCq2    H2 1276   3.684   4.113  11.110  0.3040  0.1407  2.2965
   83TCq2    H3 1277   3.735   3.760  11.349  1.3844  0.1584 -0.7322
   83TCq2    H4 1278   3.585   3.728  10.954 -0.5797  1.8786 -0.5329
   84TCq2    C1 1279   0.063   3.432  10.484 -0.2665  0.2131  0.1003
   84TCq2    O2 1280   0.051   3.338  10.414 -0.3844  0.2960  0.1213
   84TCq2    C2 1281   4.692   3.446  10.591  0.7514  0.5384 -0.6821
   84TCq2    C3 1282   4.695   3.560  10.670  0.7119 -0.2911 -0.3401
   84TCq2    C4 1283   4.613   3.570  10.778  0.0809 -0.2022 -0.1861
   84TCq2    C5 1284   4.523   3.474  10.811 -0.1089 -0.3728 -0.9775
   84TCq2    C6 1285   4.527   3.363  10.737 -0.6297  0.4912  0.2605
   84TCq2    C7 1286   4.601   3.345  10.622  0.2207 -0.3248 -0.1539
   84TCq2    C8 1287   4.444   3.256  10.793 -0.3906 -0.6390  0.4065
   84TCq2    O4 1288   4.413   3.255  10.911 -0.2390  0.4582 -0.3653
   84TCq2    C9 1289   4.652   3.661  10.886  0.2748  0.3828 -0.2984
   84TCq2    O5 1290   4.718   3.764  10.859  0.0274 -0.0240  0.5366
   84TCq2    O6 1291   4.582   3.642  10.994 -0.1131  0.5675 -0.1736
   84TCq2    H2 1292   0.047   3.636  10.663  1.6271 -1.3187 -1.3718
   84TCq2    H3 1293   4.470   3.486  10.905  0.2661 -0.7765 -0.7107
   84TCq2    H4 1294   4.596   3.255  10.562 -0.1277 -1.0493  0.9733
   85MPD2     C 1295   0.103   0.816  16.308  0.0577 -0.7288  0.0455
   85MPD2    C1 1296   0.080   0.774  16.182  0.6399  0.3284 -0.1873
   85MPD2    C2 1297   0.137   0.844  16.073  0.8640  1.0649 -0.1781
   85MPD2    C3 1298   0.211   0.960  16.087 -0.0795  0.0806  0.5744
   85MPD2    C4 1299   0.230   1.004  16.213  0.0786  1.0521  0.5153
   85MPD2    C5 1300   0.183   0.927  16.322 -0.0515  0.2822  0.7597
   85MPD2     H 1301   0.121   0.801  15.975  1.1837 -0.3394  0.3874
   85MPD2    H1 1302   0.298   1.083  16.242  0.8725  0.1632  1.0652
   85MPD2    H2 1303   0.070   0.759  16.394 -0.1702 -0.4950  0.1153
   85MPD2    H3 1304   0.209   0.953  16.424  1.6882 -1.6152  0.8043
   85MPD2     N 1305   0.268   1.016  15.970  0.1910 -0.3112 -0.0841
   85MPD2    H5 1306   0.246   0.978  15.879  1.2612 -0.7693 -0.1520
   85MPD2    N1 1307   0.003   0.656  16.149  0.2413  0.3093 -0.3268
   85MPD2    H7 1308   0.009   0.627  16.052  2.9713  2.6665 -0.8486
   86TCq2    C1 1309   0.342   1.131  15.953  0.4597 -0.7928 -0.0618
   86TCq2    O2 1310   0.408   1.181  16.040 -0.9540  0.3086  0.6484
   86TCq2    C2 1311   0.347   1.170  15.814 -0.2039  0.5460 -0.7484
   86TCq2    C3 1312   0.243   1.130  15.726  0.5791  0.1681  0.4078
   86TCq2    C4 1313   0.255   1.176  15.596  0.0784 -0.1829  0.3836
   86TCq2    C5 1314   0.364   1.233  15.546  0.1161  0.3021 -0.3305
   86TCq2    C6 1315   0.460   1.262  15.636  0.0771  0.4421  0.1137
   86TCq2    C7 1316   0.454   1.238  15.773  0.3877  0.5364  0.6804
   86TCq2    C8 1317   0.586   1.310  15.578 -0.1274  0.0392  0.4104
   86TCq2    O4 1318   0.696   1.301  15.639 -0.1532  0.5001  0.0408
   86TCq2    C9 1319   0.143   1.149  15.510 -0.0883 -0.2921  0.5084
   86TCq2    O5 1320   0.131   1.216  15.404 -0.9771  0.4895  0.2416
   86TCq2    O6 1321   0.066   1.053  15.542 -0.0593 -0.0026  0.2225
   86TCq2    H2 1322   0.145   1.103  15.765  0.0041  2.0847  0.3446
   86TCq2    H3 1323   0.370   1.231  15.438 -1.5379 -1.1172 -0.4011
   86TCq2    H4 1324   0.528   1.266  15.847 -0.9433 -0.2982  2.3487
   87MPD2     C 1325   1.899   0.023   0.798 -0.9977 -0.0858 -0.4302
   87MPD2    C1 1326   2.030   4.709   0.786  0.5379  0.6825  0.4674
   87MPD2    C2 1327   2.119   0.063   0.709 -0.0363  0.1902  0.1224
   87MPD2    C3 1328   2.059   0.167   0.640  0.3084  0.5452 -0.5624
   87MPD2    C4 1329   1.931   0.211   0.670 -0.0389  0.2532 -0.1030
   87MPD2    C5 1330   1.852   0.137   0.746 -0.3953 -0.1294 -0.0087
   87MPD2     H 1331   2.226   0.047   0.701 -0.2303 -0.9576 -0.1168
   87MPD2    H1 1332   1.889   0.299   0.623  0.6386 -0.5162 -2.1384
   87MPD2    H2 1333   1.833   4.684   0.856 -0.1807 -2.2291 -1.8597
   87MPD2    H3 1334   1.753   0.176   0.767 -1.0378 -2.0019  0.3755
   87MPD2     N 1335   2.127   0.235   0.530  0.3593  0.3066 -0.7323
   87MPD2    H5 1336   2.082   0.318   0.495  1.1764  1.7356  1.6386
   87MPD2    N1 1337   2.079   4.588   0.851  0.8588  0.4850 -0.3855
   87MPD2    H7 1338   2.015   4.532   0.908 -0.3811  1.4913 -0.7849
   88TCq2    C1 1339   2.208   4.538   0.854  0.1491 -0.3579 -0.2845
   88TCq2    O2 1340   2.293   4.567   0.772  0.6586  0.4164  0.2178
   88TCq2    C2 1341   2.232   4.444   0.961  0.7773 -0.0266 -0.1994
   88TCq2    C3 1342   2.151   4.436   1.064  0.4403  0.2536 -0.2786
   88TCq2    C4 1343   2.191   4.361   1.170 -0.4269  0.1003  0.1972
   88TCq2    C5 1344   2.309   4.293   1.173 -0.0827 -0.1757  0.0028
   88TCq2    C6 1345   2.398   4.314   1.070 -0.0984 -0.2028 -0.1586
   88TCq2    C7 1346   2.354   4.380   0.955 -0.3803  0.0271 -1.0348
   88TCq2    C8 1347   2.532   4.254   1.068  0.0042  0.5026  0.9524
   88TCq2    O4 1348   2.614   4.289   0.982 -0.6294 -0.2274  0.5666
   88TCq2    C9 1349   2.104   4.325   1.278 -0.7224  0.1946 -0.4574
   88TCq2    O5 1350   2.164   4.267   1.372 -0.1740 -0.5092  0.3845
   88TCq2    O6 1351   1.985   4.364   1.284  0.2201  1.0492 -0.1137
   88TCq2    H2 1352   2.052   4.479   1.071  1.5330  2.8408 -0.7104
   88TCq2    H3 1353   2.330   4.218   1.249 -2.2389  1.0080  1.7863
   88TCq2    H4 1354   2.430   4.394   0.878 -0.5388 -0.4805 -1.2827
   89MPD2     C 1355   3.770   1.322   1.716 -0.0832  0.2239 -0.2606
   89MPD2    C1 1356   3.793   1.448   1.771 -0.5132 -0.3688  0.5214
   89MPD2    C2 1357   3.926   1.471   1.792  0.5235  0.2695  0.5314
   89MPD2    C3 1358   4.037   1.382   1.764  0.7261  0.9039 -0.4427
   89MPD2    C4 1359   4.009   1.257   1.719  0.0686  0.6402  0.0361
   89MPD2    C5 1360   3.874   1.230   1.695 -0.2872 -0.2786  0.2655
   89MPD2     H 1361   3.957   1.569   1.826  2.5214 -0.0038 -0.5249
   89MPD2    H1 1362   4.086   1.182   1.705 -1.0186 -0.2822 -1.0176
   89MPD2    H2 1363   3.673   1.300   1.674  0.4663  2.8780 -2.9769
   89MPD2    H3 1364   3.857   1.127   1.663 -0.0257  0.8743 -3.6097
   89MPD2     N 1365   4.165   1.438   1.760 -0.0869 -0.1156 -0.4967
   89MPD2    H5 1366   4.175   1.536   1.783 -1.5026 -0.6642  2.5553
   89MPD2    N1 1367   3.701   1.548   1.804 -0.3198  0.1704  0.0640
   89MPD2    H7 1368   3.732   1.631   1.854  0.6850  0.5382 -1.1689
   90TCq2    C1 1369   4.274   1.377   1.694  0.3131 -0.8535 -1.3938
   90TCq2    O2 1370   4.274   1.269   1.628  0.3725  0.0400  0.0773
   90TCq2    C2 1371   4.391   1.468   1.679  0.1690  0.1423 -0.0063
   90TCq2    C3 1372   4.476   1.435   1.576 -0.3234 -0.2907  0.4961
   90TCq2    C4 1373   4.553   1.537   1.533  0.4208 -0.9420  0.1002
   90TCq2    C5 1374   4.564   1.651   1.602 -0.0642  0.7914  0.0193
   90TCq2    C6 1375   4.483   1.677   1.708  0.2174 -0.0290 -0.5440
   90TCq2    C7 1376   4.395   1.588   1.753  0.0640 -0.3236 -0.4139
   90TCq2    C8 1377   4.474   1.810   1.762  0.2506  0.4632  0.1570
   90TCq2    O4 1378   4.377   1.829   1.839  0.3366 -0.1808 -0.1179
   90TCq2    C9 1379   4.623   1.534   1.414 -0.1266 -0.0934  1.0114
   90TCq2    O5 1380   4.696   1.627   1.378  0.0870  0.3147  0.2029
   90TCq2    O6 1381   4.594   1.436   1.339 -0.1267  0.1203 -0.0570
   90TCq2    H2 1382   4.468   1.343   1.519  2.0413 -0.5611  0.6119
   90TCq2    H3 1383   4.632   1.730   1.571  1.1015  0.3832  1.5490
   90TCq2    H4 1384   4.337   1.612   1.841 -1.5429  2.2587 -2.1982
   91TMC2    C1 1385   0.952   1.932  16.371 -0.1365  0.3044 -0.5344
   91TMC2    C2 1386   0.958   2.039  16.286 -0.0426  0.4058 -0.0517
   91TMC2    C3 1387   0.852   2.076  16.216  0.1386  0.2923 -0.3672
   91TMC2    C4 1388   0.837   1.861  16.382  0.2373  0.5781 -0.7504
   91TMC2    C5 1389   0.734   1.903  16.314  0.9909 -0.9171 -0.4340
   91TMC2    C6 1390   0.731   2.015  16.237  0.0847 -0.0329 -0.2434
   91TMC2     C 1391   1.074   1.874  16.417  0.0096  1.0853  0.0827
   91TMC2     O 1392   1.077   1.751  16.405 -0.0999 -1.0220  0.5158
   91TMC2     H 1393   1.054   2.075  16.249  0.1379  1.6235  1.5501
   91TMC2    H1 1394   0.826   1.767  16.434  0.7880 -0.2557 -2.1527
   91TMC2    H2 1395   0.641   2.052  16.190 -0.2295 -2.3596 -1.4880
   91TMC2    C7 1396   0.599   1.865  16.367 -0.4563 -0.2725  0.0446
   91TMC2    C8 1397   0.855   2.214  16.171  0.4630 -0.5244 -0.5039
   91TMC2    O1 1398   0.582   1.812  16.476 -0.2812  0.0219  0.5193
   91TMC2    O2 1399   0.960   2.274  16.158 -0.6156  0.0242 -0.3492
   91TMC2    O5 1400   0.743   2.278  16.202  0.1001  0.1219  0.7469
   91TMC2    H5 1401   0.668   2.222  16.232 -2.1375  1.1870 -2.7564
   92MPD2     C 1402   1.351   1.807  16.498  0.5089 -0.2859 -0.0074
   92MPD2    C1 1403   1.307   1.933  16.476 -0.3758  0.0474  0.4640
   92MPD2    C2 1404   1.386   2.046  16.500  0.2506 -0.0950 -0.1461
   92MPD2    C3 1405   1.514   2.019  16.555  0.4778  1.1213 -0.0691
   92MPD2    C4 1406   1.550   1.893  16.586 -0.6968  0.2508  0.0130
   92MPD2    C5 1407   1.469   1.785  16.561  0.2589  0.9634 -0.1072
   92MPD2     H 1408   1.347   2.147  16.492  0.8531  0.2319  1.0100
   92MPD2    H1 1409   1.648   1.878  16.629 -0.8450  0.8297  0.5466
   92MPD2    H2 1410   1.288   1.720  16.482 -0.0496 -0.5167  3.3801
   92MPD2    H3 1411   1.499   1.684  16.587  0.9751  1.1538 -0.1775
   92MPD2     N 1412   1.588   2.138  16.590 -0.6854 -0.0935  0.2589
   92MPD2    H5 1413   1.542   2.229  16.587 -0.3124  0.2122  3.4731
   92MPD2    N1 1414   1.178   1.960  16.429  0.1401  0.3252  0.1110
   92MPD2    H7 1415   1.148   2.057  16.428 -1.3065 -0.1026  0.9392
   93MPD2     C 1416   1.681   1.841  13.456  0.3385  0.3993  0.2213
   93MPD2    C1 1417   1.706   1.940  13.369  0.4701 -0.0874 -0.1334
   93MPD2    C2 1418   1.622   1.964  13.266  0.4595 -0.0145 -0.6125
   93MPD2    C3 1419   1.502   1.887  13.248 -0.2567  0.2788 -0.2118
   93MPD2    C4 1420   1.471   1.792  13.349 -0.6643  0.2976  0.7504
   93MPD2    C5 1421   1.562   1.775  13.450  0.0574  0.9851 -0.0745
   93MPD2     H 1422   1.638   2.044  13.194 -1.0755  0.2155 -0.7052
   93MPD2    H1 1423   1.385   1.727  13.344  0.2184 -0.8405  0.3710
   93MPD2    H2 1424   1.753   1.813  13.532 -0.6628 -1.3157  0.5267
   93MPD2    H3 1425   1.544   1.704  13.530  0.2969 -0.2316 -1.1084
   93MPD2     N 1426   1.405   1.906  13.145 -0.8194 -0.3928  0.0097
   93MPD2    H5 1427   1.317   1.857  13.158 -0.2351 -1.5032 -0.2055
   93MPD2    N1 1428   1.812   2.028  13.396  0.5181  0.5911  0.0314
   93MPD2    H7 1429   1.824   2.104  13.330  0.3941  0.4745 -0.1247
   94TCq2    C1 1430   1.922   2.016  13.483  0.6552 -0.2217 -0.2833
   94TCq2    O2 1431   1.962   1.938  13.568 -0.2042 -0.4404  0.1973
   94TCq2    C2 1432   1.986   2.144  13.482  0.7897  0.2691  0.9565
   94TCq2    C3 1433   1.909   2.254  13.459  0.0915  0.5933 -0.7188
   94TCq2    C4 1434   1.978   2.366  13.416  0.3358 -0.0005  0.2089
   94TCq2    C5 1435   2.112   2.372  13.413  0.4590 -0.1570 -0.1405
   94TCq2    C6 1436   2.184   2.258  13.437 -0.1917  0.0122 -0.5384
   94TCq2    C7 1437   2.120   2.141  13.472  0.3904  0.6712  0.3158
   94TCq2    C8 1438   2.318   2.270  13.485  0.7820  0.7487  0.0082
   94TCq2    O4 1439   2.382   2.166  13.505  0.0286 -0.3329 -0.3184
   94TCq2    C9 1440   1.899   2.485  13.399  0.2258 -0.1050 -0.4323
   94TCq2    O5 1441   1.779   2.478  13.437  0.0853 -0.5537  0.5526
   94TCq2    O6 1442   1.965   2.591  13.388 -0.9172 -0.4065 -0.2522
   94TCq2    H2 1443   1.803   2.261  13.484  0.2779 -0.9925  0.5175
   94TCq2    H3 1444   2.153   2.469  13.386  1.4469  0.2174  2.6531
   94TCq2    H4 1445   2.164   2.048  13.506 -3.3765 -1.6444 -1.0346
   95TMC2    C1 1446   1.966   3.857  16.094  1.1466  0.5576  0.4990
   95TMC2    C2 1447   2.053   3.836  16.197 -0.4066 -0.7018 -0.2238
   95TMC2    C3 1448   2.004   3.854  16.319 -0.6980  0.3363 -0.1299
   95TMC2    C4 1449   1.848   3.928  16.110  0.4767  0.1262  0.0594
   95TMC2    C5 1450   1.808   3.959  16.241 -0.5940 -0.5045 -0.2268
   95TMC2    C6 1451   1.887   3.916  16.346 -0.5658 -0.2294 -0.0663
   95TMC2     C 1452   2.029   3.833  15.967 -0.0650  1.1735 -0.7806
   95TMC2     O 1453   2.141   3.787  15.966  0.5629  0.4345  0.1512
   95TMC2     H 1454   2.155   3.800  16.189  0.3444  1.0502  1.5771
   95TMC2    H1 1455   1.783   3.959  16.029  0.5542 -1.3080 -0.5527
   95TMC2    H2 1456   1.861   3.941  16.448 -2.5831 -1.0252 -0.4018
   95TMC2    C7 1457   1.713   4.067  16.266  0.1236 -0.0653  0.1080
   95TMC2    C8 1458   2.094   3.835  16.428 -0.1675 -0.1472  0.4935
   95TMC2    O1 1459   1.714   4.107  16.382  0.0461  0.2578 -0.2980
   95TMC2    O2 1460   2.058   3.794  16.536  0.0988 -0.3301 -0.0431
   95TMC2    O5 1461   2.165   3.951  16.419  0.2959  0.7625 -0.2249
   95TMC2    H5 1462   2.186   3.966  16.324  0.5606  3.7484  0.3263
   96MPD2     C 1463   2.061   3.871  15.464  0.3014 -0.4930 -0.0394
   96MPD2    C1 1464   2.161   3.895  15.555 -0.0376 -0.2728  0.1826
   96MPD2    C2 1465   2.121   3.885  15.687  0.1770 -0.6893  0.0002
   96MPD2    C3 1466   1.983   3.867  15.728  0.6854  0.2813  0.3377
   96MPD2    C4 1467   1.885   3.865  15.633  0.3423  0.3344 -0.1851
   96MPD2    C5 1468   1.929   3.856  15.498 -0.5508 -0.3030 -0.4969
   96MPD2     H 1469   2.195   3.893  15.766 -0.8779  0.9740  0.8401
   96MPD2    H1 1470   1.779   3.859  15.658  0.1975 -0.1845 -0.8926
   96MPD2    H2 1471   2.095   3.865  15.361 -2.8768  0.1727 -1.1286
   96MPD2    H3 1472   1.854   3.841  15.421  1.3800  0.6893 -2.5501
   96MPD2     N 1473   1.944   3.869  15.863 -0.0660 -0.4144 -0.1403
   96MPD2    H5 1474   1.852   3.896  15.896  0.0352  0.2073 -0.3700
   96MPD2    N1 1475   2.289   3.912  15.501  0.6427 -0.3536 -0.2666
   96MPD2    H7 1476   2.300   3.903  15.401  0.3364  2.2482 -0.5281
   97MPD2     C 1477   0.051   0.698   0.750 -0.3735  0.3516  0.3029
   97MPD2    C1 1478   0.002   0.826   0.751 -0.1216  0.3382 -0.3042
   97MPD2    C2 1479   4.704   0.891   0.626 -0.1921  0.1927  0.2680
   97MPD2    C3 1480   4.719   0.818   0.509  0.1130  0.0044 -0.3946
   97MPD2    C4 1481   0.042   0.691   0.510 -1.0295 -0.6046 -0.0198
   97MPD2    C5 1482   0.067   0.634   0.630  0.1044  0.0845  0.3645
   97MPD2     H 1483   4.660   0.990   0.627 -1.3805 -0.3406 -0.1594
   97MPD2    H1 1484   0.036   0.621   0.428  0.1926  1.7636 -2.0999
   97MPD2    H2 1485   0.062   0.651   0.848  1.9619 -0.5845 -0.4114
   97MPD2    H3 1486   0.095   0.530   0.632  1.0438  0.3754  1.6722
   97MPD2     N 1487   4.679   0.860   0.379 -0.0902  0.1272  0.0629
   97MPD2    H5 1488   4.697   0.798   0.300 -0.8621 -1.6494  1.3082
   97MPD2    N1 1489   4.695   0.905   0.866 -0.2122 -0.4224 -0.1957
   97MPD2    H7 1490   4.654   0.998   0.858 -0.6147 -0.6214 -0.4628
   98TCq2    C1 1491   4.657   0.992   0.340  0.8353  0.3801 -0.2572
   98TCq2    O2 1492   4.664   1.086   0.422  0.4724  0.0139 -0.0994
   98TCq2    C2 1493   4.637   1.017   0.199  0.3651 -0.2468 -0.3133
   98TCq2    C3 1494   4.555   0.930   0.134 -0.7175  0.3995  0.6568
   98TCq2    C4 1495   4.533   0.960   0.009  0.3737  0.1418 -0.1674
   98TCq2    C5 1496   4.568   1.081  17.658 -0.1817  0.0134 -0.0058
   98TCq2    C6 1497   4.640   1.175   0.029 -0.3661  0.3002  1.0018
   98TCq2    C7 1498   4.678   1.139   0.157  0.2986 -0.1571  0.2543
   98TCq2    C8 1499   4.710   1.287  17.663 -0.7699 -0.3672 -0.0380
   98TCq2    O4 1500   0.050   1.361   0.040 -0.1969  0.1784  0.2848
   98TCq2    C9 1501   4.473   0.857  17.621  0.2893 -0.5827  0.0594
   98TCq2    O5 1502   4.496   0.737  17.661 -0.6871 -0.0544  0.6207
   98TCq2    O6 1503   4.429   0.900  17.508  0.4175  0.6861 -0.0066
   98TCq2    H2 1504   4.518   0.840   0.183  0.3431 -1.3086 -1.7152
   98TCq2    H3 1505   4.547   1.085  17.551  0.6982 -1.9126 -0.2473
   98TCq2    H4 1506   0.025   1.198   0.213 -1.0160  0.4983  1.2323
   99MPD2     C 1507   3.572   3.676   1.799  0.1803  0.0605  0.1351
   99MPD2    C1 1508   3.536   3.610   1.683  0.5264  0.0280  0.5775
   99MPD2    C2 1509   3.620   3.621   1.577  0.0281  0.2092 -0.1565
   99MPD2    C3 1510   3.711   3.717   1.573 -0.0596 -0.2974  0.2712
   99MPD2    C4 1511   3.734   3.799   1.680  0.0870 -0.0072 -0.7493
   99MPD2    C5 1512   3.669   3.773   1.797 -0.9957  0.7168  0.1171
   99MPD2     H 1513   3.601   3.564   1.486  1.3514 -0.8409  0.2216
   99MPD2    H1 1514   3.810   3.876   1.676  2.4929 -2.4091 -1.2037
   99MPD2    H2 1515   3.529   3.658   1.897 -1.1309 -0.0650 -0.4725
   99MPD2    H3 1516   3.695   3.835   1.883 -2.1183  1.6267 -0.1983
   99MPD2     N 1517   3.779   3.714   1.450  0.2698  0.5929 -0.5131
   99MPD2    H5 1518   3.763   3.632   1.392  3.6665  1.0531 -2.1077
   99MPD2    N1 1519   3.428   3.527   1.669 -0.3682 -0.2373 -0.1412
   99MPD2    H7 1520   3.410   3.488   1.577 -0.8801  1.5073 -0.7911
  100TCq2    C1 1521   3.351   3.483   1.769  0.7938 -0.1627  0.3605
  100TCq2    O2 1522   3.325   3.539   1.877 -0.0716 -0.0212  0.2369
  100TCq2    C2 1523   3.242   3.400   1.718  0.1291 -0.0663 -0.4967
  100TCq2    C3 1524   3.269   3.337   1.601  0.1537  0.2451  1.0467
  100TCq2    C4 1525   3.170   3.273   1.523  0.7148 -0.0350 -0.7101
  100TCq2    C5 1526   3.043   3.288   1.572 -0.1900 -0.4125 -0.4049
  100TCq2    C6 1527   3.016   3.363   1.683  0.1525 -0.4004  0.0750
  100TCq2    C7 1528   3.114   3.419   1.758 -0.1726 -0.5844 -0.3002
  100TCq2    C8 1529   2.881   3.415   1.719 -0.2050  0.6753 -0.2960
  100TCq2    O4 1530   2.865   3.490   1.817  0.2499  0.0543 -0.0787
  100TCq2    C9 1531   3.199   3.206   1.397  0.4216  0.4362  0.8002
  100TCq2    O5 1532   3.097   3.176   1.332 -0.0510 -0.5774  0.1403
  100TCq2    O6 1533   3.315   3.202   1.347  0.2465 -0.0960  0.4438
  100TCq2    H2 1534   3.371   3.315   1.570  0.0013 -0.0733  0.7660
  100TCq2    H3 1535   2.964   3.243   1.511  0.2198  2.2180 -2.8627
  100TCq2    H4 1536   3.091   3.494   1.832 -0.2351 -0.9477  0.0482
  101MPD2     C 1537   4.052   4.323  12.937 -0.1825  0.5667  0.6550
  101MPD2    C1 1538   3.920   4.348  12.939 -0.0992  0.6661 -0.3460
  101MPD2    C2 1539   3.842   4.284  13.029  0.1537  0.8664 -0.0348
  101MPD2    C3 1540   3.895   4.193  13.119 -0.1314 -0.8637 -0.0212
  101MPD2    C4 1541   4.033   4.178  13.129 -0.2036 -0.8171 -0.3473
  101MPD2    C5 1542   4.107   4.248  13.038 -0.1182 -0.0342  0.5510
  101MPD2     H 1543   3.734   4.294  13.027  0.0349  0.2358  2.4304
  101MPD2    H1 1544   4.079   4.111  13.200  0.4473 -0.0114 -0.0110
  101MPD2    H2 1545   4.119   4.369  12.866  1.0502 -1.2589  0.6309
  101MPD2    H3 1546   4.214   4.240  13.028 -0.2574  1.8768 -2.5143
  101MPD2     N 1547   3.804   4.122  13.199 -0.5823  0.2572  0.5710
  101MPD2    H5 1548   3.707   4.148  13.185 -0.6074 -0.0334  0.1950
  101MPD2    N1 1549   3.862   4.424  12.834 -0.2218  0.1103  0.3920
  101MPD2    H7 1550   3.926   4.448  12.759 -0.1061 -2.2829 -0.2866
  102TCq2    C1 1551   3.830   4.713  12.411  0.6299 -0.0117 -0.0576
  102TCq2    O2 1552   3.945   4.682  12.426  0.0230 -0.3733 -0.0850
  102TCq2    C2 1553   3.736   4.649  12.501  0.0123  0.0594 -0.4507
  102TCq2    C3 1554   3.603   4.650  12.466 -0.1666 -0.2897  0.6709
  102TCq2    C4 1555   3.525   4.568  12.548 -0.7270  0.2931 -0.3473
  102TCq2    C5 1556   3.566   4.518  12.663 -0.4558 -0.4679 -0.3039
  102TCq2    C6 1557   3.697   4.541  12.707 -0.1925 -0.4891  0.4742
  102TCq2    C7 1558   3.788   4.591  12.616 -0.1234  0.4435  0.2102
  102TCq2    C8 1559   3.730   4.474  12.832  0.3001  0.4290  1.1461
  102TCq2    O4 1560   3.631   4.450  12.898  0.6958 -0.3011  0.0658
  102TCq2    C9 1561   3.388   4.531  12.501 -0.4684  0.4339  1.1169
  102TCq2    O5 1562   3.366   4.541  12.377 -0.2704 -0.1974  0.0100
  102TCq2    O6 1563   3.320   4.477  12.591 -0.0073 -0.2807 -0.1017
  102TCq2    H2 1564   3.571   4.689  12.370  0.3152 -0.0034  0.6241
  102TCq2    H3 1565   3.502   4.459  12.728 -1.5465  1.8058  0.6578
  102TCq2    H4 1566   3.886   4.624  12.651  0.5310 -1.8672  0.5052
  103TMC2    C1 1567   2.108   0.549  12.757  0.9882 -0.0739 -0.2977
  103TMC2    C2 1568   2.149   0.669  12.790 -0.0845 -0.7510  0.4226
  103TMC2    C3 1569   2.098   0.717  12.907 -0.3170 -0.3530 -0.3136
  103TMC2    C4 1570   2.017   0.470  12.825 -0.2491 -0.3505  0.4997
  103TMC2    C5 1571   1.945   0.536  12.921  0.2550  0.9104 -0.1187
  103TMC2    C6 1572   1.988   0.654  12.975 -0.5879  0.0766  0.6212
  103TMC2     C 1573   2.172   0.497  12.642  0.5571  0.1724  0.0314
  103TMC2     O 1574   2.267   0.552  12.589 -0.2927 -0.4450  0.1763
  103TMC2     H 1575   2.235   0.721  12.749  0.2970 -0.8051  1.1656
  103TMC2    H1 1576   2.008   0.362  12.816 -0.1801 -0.2638 -0.5586
  103TMC2    H2 1577   1.945   0.688  13.068 -0.6432  1.7363 -0.0164
  103TMC2    C7 1578   1.894   0.449  13.020  0.0266  0.2559  0.1509
  103TMC2    C8 1579   2.139   0.851  12.942  0.5930  0.0684 -0.2148
  103TMC2    O1 1580   1.917   0.465  13.138 -0.7521 -0.0192 -0.5999
  103TMC2    O2 1581   2.200   0.919  12.856  0.0241 -0.1316  0.4977
  103TMC2    O5 1582   2.058   0.904  13.044 -0.1466  0.4784 -0.0402
  103TMC2    H5 1583   2.027   0.836  13.107 -0.8717  1.0277  0.2013
  104MPD2     C 1584   2.247   0.310  12.438  0.3516  0.4231 -0.2855
  104MPD2    C1 1585   2.111   0.330  12.474 -0.5137  0.2914  0.0627
  104MPD2    C2 1586   2.017   0.247  12.415  0.1242  0.1687 -0.1856
  104MPD2    C3 1587   2.057   0.147  12.327  0.2925 -0.8712 -0.5019
  104MPD2    C4 1588   2.190   0.134  12.287  0.3724  0.4578 -0.0709
  104MPD2    C5 1589   2.284   0.215  12.344  0.5635 -0.0423  0.4989
  104MPD2     H 1590   1.912   0.249  12.443 -0.2077 -0.1855 -1.3695
  104MPD2    H1 1591   2.217   0.053  12.219 -0.3423  1.2689 -1.3134
  104MPD2    H2 1592   2.331   0.374  12.463 -0.7246  0.1389  4.1175
  104MPD2    H3 1593   2.387   0.216  12.309  0.4288  1.0103  0.1342
  104MPD2     N 1594   1.950   0.073  12.269  0.3146 -0.0549 -0.7122
  104MPD2    H5 1595   1.861   0.079  12.316  1.6211 -0.2682  1.8222
  104MPD2    N1 1596   2.083   0.409  12.583 -0.5504 -0.0542  0.7427
  104MPD2    H7 1597   1.998   0.379  12.629  0.6358 -2.2523  1.4780
  105MPD2     C 1598   3.567   3.408   0.376 -0.0595 -0.0136  0.2831
  105MPD2    C1 1599   3.563   3.536   0.335 -0.3084 -0.1907 -0.6879
  105MPD2    C2 1600   3.519   3.630   0.428 -0.7207  0.6031 -0.0608
  105MPD2    C3 1601   3.484   3.602   0.561 -1.0224  0.4755  0.1630
  105MPD2    C4 1602   3.489   3.469   0.598 -0.1984 -0.2153  0.3452
  105MPD2    C5 1603   3.539   3.382   0.505 -0.2587  0.1035 -0.3215
  105MPD2     H 1604   3.521   3.730   0.386  0.9834  0.8654  0.6336
  105MPD2    H1 1605   3.447   3.419   0.685  1.9550 -3.8334 -0.6791
  105MPD2    H2 1606   3.579   3.330   0.301 -0.1678 -0.3964  0.6665
  105MPD2    H3 1607   3.529   3.276   0.526  2.9341  0.0533  0.9673
  105MPD2     N 1608   3.428   3.711   0.633 -0.1823  0.4136 -0.2848
  105MPD2    H5 1609   3.424   3.797   0.579 -3.1974 -0.0174 -0.7047
  105MPD2    N1 1610   3.595   3.583   0.207  0.0984 -0.2006  0.4541
  105MPD2    H7 1611   3.588   3.683   0.195  0.3468 -0.0615  1.4318
  106TCq2    C1 1612   3.372   3.705   0.756  0.0254  0.3590  0.2890
  106TCq2    O2 1613   3.363   3.604   0.820  0.0281 -0.5430 -0.2691
  106TCq2    C2 1614   3.323   3.834   0.807  0.5622 -0.0459  0.2150
  106TCq2    C3 1615   3.304   3.943   0.727  0.1190  0.3837  1.0484
  106TCq2    C4 1616   3.223   4.047   0.764 -0.6066  0.1649 -0.0882
  106TCq2    C5 1617   3.173   4.050   0.895 -0.3048 -0.4976 -0.0592
  106TCq2    C6 1618   3.187   3.940   0.973  0.6483 -0.5651  0.3145
  106TCq2    C7 1619   3.267   3.830   0.936 -0.7880 -0.1256  0.0152
  106TCq2    C8 1620   3.103   3.930   1.089 -0.2340  0.3968 -0.4941
  106TCq2    O4 1621   3.119   3.842   1.170  0.4694 -0.5544 -0.4648
  106TCq2    C9 1622   3.196   4.149   0.670 -0.3183  0.1836  0.2289
  106TCq2    O5 1623   3.262   4.156   0.562  0.3345 -0.0668 -0.1677
  106TCq2    O6 1624   3.096   4.218   0.698  0.0242  0.3637  0.1758
  106TCq2    H2 1625   3.351   3.947   0.630  1.2858 -3.2664  1.4771
  106TCq2    H3 1626   3.114   4.139   0.916 -0.4739 -0.9443  1.3496
  106TCq2    H4 1627   3.291   3.748   1.003 -0.7355 -2.0032 -2.2911
  107TMC2    C1 1628   4.358   2.650  11.388 -0.0770  0.7548  1.4012
  107TMC2    C2 1629   4.412   2.522  11.408  0.6586  0.2810 -0.2919
  107TMC2    C3 1630   4.439   2.445  11.298 -0.2352 -0.0578  0.3323
  107TMC2    C4 1631   4.346   2.695  11.259  0.0794 -0.7027 -0.4165
  107TMC2    C5 1632   4.384   2.620  11.147 -0.1686  0.1320 -0.0218
  107TMC2    C6 1633   4.417   2.488  11.166 -0.0050  0.1073 -0.3783
  107TMC2     C 1634   4.285   2.710  11.497 -0.2129 -0.1187 -0.3067
  107TMC2     O 1635   4.314   2.671  11.609  0.1179  0.8774  0.5575
  107TMC2     H 1636   4.417   2.484  11.510  2.9236  0.3853 -0.3600
  107TMC2    H1 1637   4.326   2.800  11.243  0.9203 -0.8530 -2.4329
  107TMC2    H2 1638   4.438   2.415  11.089  0.9018  0.7105 -0.6950
  107TMC2    C7 1639   4.324   2.648  11.015  0.8354  0.2066  0.5641
  107TMC2    C8 1640   4.498   2.311  11.311  0.1621 -0.5950  0.2748
  107TMC2    O1 1641   4.256   2.554  10.972  0.0475  0.3086 -0.0852
  107TMC2    O2 1642   4.558   2.253  11.222 -0.1176 -0.4310  0.4145
  107TMC2    O5 1643   4.465   2.258  11.426 -0.2520 -0.3230  0.6054
  107TMC2    H5 1644   4.395   2.302  11.478  0.1228  1.0582 -0.0625
  108MPD2     C 1645   4.003   2.955  11.456  0.2138 -0.5252 -0.0091
  108MPD2    C1 1646   4.086   2.866  11.523 -0.3572  0.1359  0.1158
  108MPD2    C2 1647   4.081   2.857  11.665 -0.1881  0.1737 -0.5994
  108MPD2    C3 1648   4.004   2.952  11.734  0.1652  0.3907  0.3372
  108MPD2    C4 1649   3.933   3.041  11.661  0.0936 -0.5638 -0.6957
  108MPD2    C5 1650   3.925   3.040  11.526  0.1500 -0.0855 -0.5557
  108MPD2     H 1651   4.147   2.788  11.717 -0.9800  0.7902  1.2258
  108MPD2    H1 1652   3.879   3.124  11.704 -0.3028 -1.3534  0.3266
  108MPD2    H2 1653   4.012   2.958  11.348 -0.3203 -0.7506 -0.0602
  108MPD2    H3 1654   3.864   3.116  11.478  0.6593  0.0238 -1.0375
  108MPD2     N 1655   4.003   2.961  11.871  0.2682  0.2637  0.2336
  108MPD2    H5 1656   3.962   3.045  11.908  0.9582 -0.6789  3.1135
  108MPD2    N1 1657   4.180   2.787  11.451 -0.1414  0.4262 -0.0092
  108MPD2    H7 1658   4.190   2.802  11.351  1.4445 -0.7590 -0.0364
  109MPD2     C 1659   4.170   1.498   2.257 -0.1594 -0.0738 -0.3848
  109MPD2    C1 1660   4.230   1.423   2.159  0.1605  1.0472 -0.3627
  109MPD2    C2 1661   4.349   1.477   2.101  0.5355 -0.5570  0.0235
  109MPD2    C3 1662   4.402   1.593   2.145 -0.4670  0.4809 -0.6432
  109MPD2    C4 1663   4.338   1.666   2.239  0.5708 -0.1947  0.6014
  109MPD2    C5 1664   4.227   1.616   2.296 -0.4472  0.7764  0.2754
  109MPD2     H 1665   4.394   1.433   2.013 -1.4919 -2.7766  0.0725
  109MPD2    H1 1666   4.368   1.769   2.259 -1.8931  0.8417 -0.9874
  109MPD2    H2 1667   4.082   1.460   2.309  0.5698 -1.4371 -0.1420
  109MPD2    H3 1668   4.191   1.674   2.380  2.1916  0.5438  1.5849
  109MPD2     N 1669   4.519   1.626   2.077  0.0145  0.2538  0.2289
  109MPD2    H5 1670   4.552   1.561   2.006 -2.1070 -1.7792  1.1289
  109MPD2    N1 1671   4.172   1.305   2.110 -0.6482  0.9066 -0.0649
  109MPD2    H7 1672   4.089   1.275   2.161 -1.1841 -1.2622 -2.2347
  110TCq2    C1 1673   4.590   1.741   2.095 -0.1544  0.2515  0.1639
  110TCq2    O2 1674   4.574   1.828   2.181  0.1789  0.4515  0.0211
  110TCq2    C2 1675   4.699   1.742   2.005 -0.2377  0.2165 -0.0028
  110TCq2    C3 1676   0.052   1.856   2.012 -0.8470 -0.4376 -0.0569
  110TCq2    C4 1677   0.160   1.865   1.928  0.8160  0.5605  0.0573
  110TCq2    C5 1678   0.189   1.765   1.834  0.0319 -0.1854 -0.1683
  110TCq2    C6 1679   0.121   1.650   1.830 -0.0988  0.3575  0.2002
  110TCq2    C7 1680   0.013   1.636   1.917 -0.0497 -0.0069 -0.9867
  110TCq2    C8 1681   0.159   1.533   1.750  0.0749 -0.1172 -0.0211
  110TCq2    O4 1682   0.074   1.447   1.742  0.5928 -0.7016 -0.1603
  110TCq2    C9 1683   0.251   1.979   1.942  0.2037 -0.2683  0.7155
  110TCq2    O5 1684   0.201   2.074   2.008 -0.0149 -0.1066  0.9381
  110TCq2    O6 1685   0.352   1.983   1.871 -0.6458 -0.2236 -0.1343
  110TCq2    H2 1686   0.035   1.941   2.077  0.8557  0.6088 -0.9906
  110TCq2    H3 1687   0.258   1.794   1.756  1.1547  0.8283  1.1974
  110TCq2    H4 1688   4.695   1.537   1.922  1.6704 -0.8161 -2.2027
  111TMC2    C1 1689   4.430   0.452  11.037  0.2636 -0.0166 -0.1064
  111TMC2    C2 1690   4.478   0.369  10.941  0.4295  0.1948 -0.0112
  111TMC2    C3 1691   4.552   0.262  10.992  0.2865  0.2069 -0.8753
  111TMC2    C4 1692   4.438   0.425  11.172 -0.2856  0.4689  0.5950
  111TMC2    C5 1693   4.498   0.311  11.215  0.4582 -1.0760 -0.1744
  111TMC2    C6 1694   4.565   0.233  11.125  0.2538 -0.1122 -0.3131
  111TMC2     C 1695   4.329   0.557  11.002 -0.2855 -0.1116  0.7555
  111TMC2     O 1696   4.286   0.562  10.886  0.2374  0.9839  0.1154
  111TMC2     H 1697   4.447   0.387  10.839  0.7006  1.9438  0.2086
  111TMC2    H1 1698   4.389   0.487  11.245 -0.7018  0.4275  0.3514
  111TMC2    H2 1699   4.618   0.146  11.161  0.6824  0.7922  1.2167
  111TMC2    C7 1700   4.555   0.300  11.349 -0.4534  0.6975  0.2551
  111TMC2    C8 1701   4.619   0.190  10.888  0.6542  0.1575  0.1875
  111TMC2    O1 1702   4.485   0.341  11.439  0.5052  0.5135  0.1330
  111TMC2    O2 1703   4.564   0.158  10.785 -0.1385  0.1814  0.5043
  111TMC2    O5 1704   0.010   0.139  10.938 -0.2654  0.0189 -0.2405
  111TMC2    H5 1705   0.044   0.182  11.019  1.8055 -0.3056 -0.9452
  112MPD2     C 1706   4.042   0.970  11.107 -0.2382  0.2946 -0.2608
  112MPD2    C1 1707   4.025   0.883  11.004  0.2147  0.2451 -0.0485
  112MPD2    C2 1708   4.117   0.779  10.998  0.3322 -0.3798  0.2743
  112MPD2    C3 1709   4.226   0.765  11.089  0.6970  0.4345  0.0510
  112MPD2    C4 1710   4.244   0.869  11.183 -0.2148 -0.4939 -0.6647
  112MPD2    C5 1711   4.157   0.973  11.183 -0.4832 -0.3319  0.4717
  112MPD2     H 1712   4.111   0.707  10.917 -0.2987 -0.0477  0.0340
  112MPD2    H1 1713   4.318   0.872  11.263 -0.3292  0.8516 -0.6054
  112MPD2    H2 1714   3.967   1.046  11.128  1.2258  2.0081 -1.2868
  112MPD2    H3 1715   4.169   1.041  11.267  1.4126  0.1867 -0.2201
  112MPD2     N 1716   4.318   0.663  11.087  0.4671  0.7921  0.0584
  112MPD2    H5 1717   4.394   0.670  11.154 -0.6335  1.0273  1.2882
  112MPD2    N1 1718   3.919   0.885  10.910  1.0713  0.5696  0.4141
  112MPD2    H7 1719   3.920   0.803  10.850 -0.9621 -0.6354  2.0097
  113MPD2     C 1720   2.512   3.214   0.852  0.0759 -0.7404 -0.2976
  113MPD2    C1 1721   2.419   3.313   0.870  0.5981 -0.2557 -0.6795
  113MPD2    C2 1722   2.290   3.291   0.819  0.1796 -0.3173  0.3340
  113MPD2    C3 1723   2.248   3.160   0.780 -0.1632 -0.6250 -0.9308
  113MPD2    C4 1724   2.342   3.060   0.775  0.5365  1.1979 -0.0975
  113MPD2    C5 1725   2.474   3.091   0.812  0.0783  0.2633 -0.0635
  113MPD2     H 1726   2.220   3.374   0.808  1.9445  0.7771 -2.7013
  113MPD2    H1 1727   2.306   2.960   0.752 -1.5832  2.0711 -0.6237
  113MPD2    H2 1728   2.616   3.238   0.872  0.0291 -0.2185 -0.6534
  113MPD2    H3 1729   2.549   3.012   0.817  0.2705  0.4894  0.6590
  113MPD2     N 1730   2.109   3.132   0.744 -0.1945 -0.2762 -0.0676
  113MPD2    H5 1731   2.081   3.035   0.735  0.5123 -0.2957 -2.2034
  113MPD2    N1 1732   2.455   3.441   0.926  0.0915 -0.8346  0.1752
  113MPD2    H7 1733   2.382   3.512   0.926  0.2040 -0.7255 -0.4571
  114TCq2    C1 1734   2.015   3.225   0.721  0.2060 -0.4634 -0.1011
  114TCq2    O2 1735   2.023   3.343   0.692  0.8771 -0.1434  0.3043
  114TCq2    C2 1736   1.886   3.160   0.720 -0.5059  0.4837 -0.2198
  114TCq2    C3 1737   1.782   3.223   0.654  0.0441 -0.0056 -0.0824
  114TCq2    C4 1738   1.653   3.170   0.668 -0.0391  0.0244 -0.0636
  114TCq2    C5 1739   1.629   3.060   0.741  0.4106 -0.1567 -0.4759
  114TCq2    C6 1740   1.739   2.985   0.783  0.0270 -0.0923 -0.5302
  114TCq2    C7 1741   1.868   3.042   0.780 -0.8124 -0.3242 -0.2648
  114TCq2    C8 1742   1.719   2.859   0.845 -0.3466 -0.0076  0.7619
  114TCq2    O4 1743   1.607   2.840   0.886  0.0562  0.0449  0.7988
  114TCq2    C9 1744   1.549   3.251   0.621  0.2661 -0.0532 -0.4154
  114TCq2    O5 1745   1.433   3.241   0.669  0.6370  0.6001 -0.2528
  114TCq2    O6 1746   1.577   3.348   0.543 -0.2861  0.2545 -0.2861
  114TCq2    H2 1747   1.794   3.322   0.612 -3.9293  1.4640  2.2168
  114TCq2    H3 1748   1.524   3.033   0.748  0.0807  1.4389  0.6035
  114TCq2    H4 1749   1.945   2.988   0.834 -3.3513 -1.6139  2.0419
  115TMC2    C1 1750   3.907   1.821   0.338 -0.2884 -0.0465  0.1220
  115TMC2    C2 1751   3.955   1.787   0.213  0.4415  0.3823 -0.0591
  115TMC2    C3 1752   4.012   1.894   0.142  0.3723  0.0855  0.3380
  115TMC2    C4 1753   3.896   1.946   0.381 -0.3169 -0.0892 -0.4971
  115TMC2    C5 1754   3.940   2.048   0.304 -0.2032 -0.2303  0.5623
  115TMC2    C6 1755   3.999   2.023   0.181 -0.5490  0.1387  0.4662
  115TMC2     C 1756   3.836   1.716   0.407  0.9680  0.1227  0.4013
  115TMC2     O 1757   3.786   1.633   0.338  0.5627  0.0919  0.5580
  115TMC2     H 1758   3.954   1.683   0.180  3.0602  0.1410  0.6314
  115TMC2    H1 1759   3.837   1.969   0.469 -2.1466 -4.1302 -0.6573
  115TMC2    H2 1760   4.047   2.102   0.124 -0.6592 -0.2845 -0.2234
  115TMC2    C7 1761   3.835   2.151   0.293 -0.2480 -0.4704  0.3923
  115TMC2    C8 1762   4.065   1.868   0.016  0.1177  0.4349 -0.3060
  115TMC2    O1 1763   3.725   2.113   0.332 -0.2449  0.2396  0.3542
  115TMC2    O2 1764   4.167   1.929  17.688  0.3342 -0.2026 -0.0673
  115TMC2    O5 1765   4.039   1.746  17.656 -0.3708  0.4017 -0.2191
  115TMC2    H5 1766   3.946   1.725  17.679 -0.2673 -0.7363 -0.8366
  116MPD2     C 1767   3.712   1.435   0.810  0.6139 -0.7799 -0.5369
  116MPD2    C1 1768   3.715   1.403   0.678 -0.2228  0.4444 -0.0847
  116MPD2    C2 1769   3.768   1.491   0.586  0.1342  0.1810  0.1342
  116MPD2    C3 1770   3.808   1.619   0.628 -0.7424  0.9286  0.1079
  116MPD2    C4 1771   3.808   1.648   0.762  0.0251 -0.4928  0.0942
  116MPD2    C5 1772   3.762   1.557   0.844  0.0345 -1.0250 -0.2642
  116MPD2     H 1773   3.788   1.459   0.485 -0.0816  2.1219 -0.5223
  116MPD2    H1 1774   3.836   1.745   0.802  1.2092 -0.6792 -0.2874
  116MPD2    H2 1775   3.676   1.373   0.891  2.6186  0.3097  1.1698
  116MPD2    H3 1776   3.761   1.595   0.946  2.8070 -1.1667 -0.1924
  116MPD2     N 1777   3.850   1.720   0.540  0.0240  0.1265 -0.0146
  116MPD2    H5 1778   3.904   1.795   0.583 -1.2458  1.1327 -0.1727
  116MPD2    N1 1779   3.685   1.266   0.646  0.0351  0.2361 -0.6054
  116MPD2    H7 1780   3.652   1.211   0.725  1.9991  1.8083  1.2904
  117TMC2    C1 1781   1.206   2.552  13.413  0.3374 -0.1222  0.3238
  117TMC2    C2 1782   1.277   2.438  13.376  0.2865 -0.4755 -0.8339
  117TMC2    C3 1783   1.410   2.463  13.349  0.0039 -0.1241 -0.8056
  117TMC2    C4 1784   1.268   2.663  13.459  0.2370  0.3049 -0.5836
  117TMC2    C5 1785   1.406   2.674  13.456  0.4667  0.1496 -0.2594
  117TMC2    C6 1786   1.480   2.575  13.399 -0.6372  1.2185 -0.0749
  117TMC2     C 1787   1.065   2.537  13.423  0.1404 -0.2870 -0.7274
  117TMC2     O 1788   1.016   2.426  13.421  0.4171 -0.1900  0.8549
  117TMC2     H 1789   1.233   2.345  13.340 -1.7249  0.0089  0.3510
  117TMC2    H1 1790   1.215   2.739  13.515  0.2426  1.0525 -1.6000
  117TMC2    H2 1791   1.584   2.592  13.372 -0.5275 -1.1395 -1.1822
  117TMC2    C7 1792   1.475   2.797  13.489 -0.3057 -0.6327  1.0080
  117TMC2    C8 1793   1.484   2.345  13.293  0.2306  0.2280 -0.1143
  117TMC2    O1 1794   1.593   2.783  13.523 -0.3672 -0.1235  0.0394
  117TMC2    O2 1795   1.423   2.245  13.263 -0.1227 -0.4813  0.1199
  117TMC2    O5 1796   1.576   2.329  13.381  0.2111 -1.2783 -0.6111
  117TMC2    H5 1797   1.645   2.398  13.388 -1.7895  0.5748  1.0210
  118MPD2     C 1798   1.307   3.113  13.593  0.2219  0.1019 -0.4595
  118MPD2    C1 1799   1.411   3.016  13.588 -0.3843  0.5170 -0.8075
  118MPD2    C2 1800   1.532   3.037  13.650  0.2405 -0.4939  0.8408
  118MPD2    C3 1801   1.554   3.148  13.730 -1.1178  0.4629  0.2006
  118MPD2    C4 1802   1.457   3.249  13.723  0.0727 -0.4217  0.1197
  118MPD2    C5 1803   1.336   3.231  13.661  0.1139 -0.3909  0.9205
  118MPD2     H 1804   1.611   2.965  13.637 -0.1587 -0.7250 -0.2382
  118MPD2    H1 1805   1.475   3.337  13.784  0.2070 -0.7168  0.5089
  118MPD2    H2 1806   1.208   3.092  13.555  0.5107 -1.4849 -0.3355
  118MPD2    H3 1807   1.261   3.309  13.674  0.5923 -0.3416  3.3587
  118MPD2     N 1808   1.670   3.176  13.808 -0.0625 -0.2167 -0.4942
  118MPD2    H5 1809   1.680   3.273  13.837  0.9745 -0.7936  1.0733
  118MPD2    N1 1810   1.388   2.901  13.510  0.1743 -0.2063  0.4129
  118MPD2    H7 1811   1.299   2.906  13.461  0.4548  0.6868 -0.0095
  119MPD2     C 1812   0.023   4.184  13.256 -0.2950 -0.0201 -0.2726
  119MPD2    C1 1813   4.651   4.139  13.344 -0.7145  0.2496  0.1980
  119MPD2    C2 1814   4.557   4.051  13.294  0.4186  0.0768  0.0840
  119MPD2    C3 1815   4.560   4.006  13.166 -0.5936 -0.1614  0.4680
  119MPD2    C4 1816   4.658   4.057  13.081 -0.1538  0.1894 -0.1731
  119MPD2    C5 1817   0.027   4.141  13.128 -0.1167  0.2480 -0.4634
  119MPD2     H 1818   4.470   4.044  13.358 -0.0012  1.3444 -0.3359
  119MPD2    H1 1819   4.662   4.040  12.974 -1.1465  0.6420 -0.2885
  119MPD2    H2 1820   0.092   4.256  13.299 -1.2747 -0.0888  1.4139
  119MPD2    H3 1821   0.106   4.174  13.063 -2.0766  2.1503 -1.8935
  119MPD2     N 1822   4.468   3.911  13.119 -0.1058 -0.3841 -0.6351
  119MPD2    H5 1823   4.464   3.893  13.019 -0.1525  0.2362 -0.7455
  119MPD2    N1 1824   4.661   4.188  13.475 -0.0778  0.0131  0.1730
  119MPD2    H7 1825   4.722   4.267  13.492 -0.7980  0.8445 -1.0748
  120TCq2    C1 1826   4.368   3.852  13.193 -0.0527  0.4873  0.0085
  120TCq2    O2 1827   4.329   3.880  13.303 -0.1748  0.2793 -0.9674
  120TCq2    C2 1828   4.290   3.755  13.121  0.4580 -0.4860 -0.4511
  120TCq2    C3 1829   4.282   3.759  12.982 -0.3763  0.1846 -0.0617
  120TCq2    C4 1830   4.183   3.692  12.923  0.4048 -0.7813 -0.8274
  120TCq2    C5 1831   4.080   3.638  12.996 -0.1236  0.4834  0.2848
  120TCq2    C6 1832   4.090   3.646  13.134  0.4487 -0.3358 -0.7717
  120TCq2    C7 1833   4.189   3.698  13.201  0.3509  0.1834 -0.0081
  120TCq2    C8 1834   3.963   3.626  13.198 -0.2554 -0.2664 -0.1684
  120TCq2    O4 1835   3.853   3.632  13.146 -0.0979 -0.4837  0.2618
  120TCq2    C9 1836   4.179   3.692  12.779  0.7232 -0.1599 -0.4122
  120TCq2    O5 1837   4.088   3.635  12.718 -0.1051 -0.3013  0.6607
  120TCq2    O6 1838   4.276   3.752  12.719 -0.4003 -0.2054  0.1807
  120TCq2    H2 1839   4.356   3.820  12.931 -0.5437  0.0401 -0.4829
  120TCq2    H3 1840   3.989   3.599  12.951  0.7285 -1.1397 -0.0542
  120TCq2    H4 1841   4.195   3.693  13.309  0.1688  0.9865  0.0340
  121TMC2    C1 1842   1.361   1.564  14.053  0.8102 -0.4988  0.0688
  121TMC2    C2 1843   1.379   1.436  14.099  0.7518 -0.1888  0.3553
  121TMC2    C3 1844   1.284   1.346  14.068  0.2861 -0.2758 -0.2589
  121TMC2    C4 1845   1.242   1.610  14.004  0.0316  0.1465  1.1906
  121TMC2    C5 1846   1.144   1.515  13.986 -0.5863 -0.6523 -0.6601
  121TMC2    C6 1847   1.159   1.388  14.028 -0.0069  0.3331  0.1539
  121TMC2     C 1848   1.481   1.644  14.046  0.2528 -0.0719 -0.1223
  121TMC2     O 1849   1.468   1.758  14.084  0.1654 -0.6568 -0.0887
  121TMC2     H 1850   1.473   1.410  14.146  0.9119  1.1980  0.8127
  121TMC2    H1 1851   1.234   1.714  13.976  0.5968  0.3510  1.7780
  121TMC2    H2 1852   1.081   1.316  14.007  2.1885 -1.5899 -1.3652
  121TMC2    C7 1853   1.061   1.547  13.879  0.5213 -0.5136 -0.2422
  121TMC2    C8 1854   1.298   1.215  14.127 -0.4652 -0.7297 -0.1993
  121TMC2    O1 1855   1.091   1.650  13.819  0.2364 -0.0800 -0.6863
  121TMC2    O2 1856   1.219   1.159  14.196 -0.2034  0.4265 -0.4294
  121TMC2    O5 1857   1.425   1.174  14.113 -0.0328 -0.2854  0.3046
  121TMC2    H5 1858   1.482   1.212  14.043  1.7442  0.0669  1.9458
  122MPD2     C 1859   1.756   1.746  14.010  0.3024  0.4908  0.0605
  122MPD2    C1 1860   1.693   1.641  13.940  0.7908  0.5830  0.0492
  122MPD2    C2 1861   1.751   1.600  13.822 -0.3299  0.2634 -0.8834
  122MPD2    C3 1862   1.863   1.665  13.774  0.3263  0.2645 -0.0555
  122MPD2    C4 1863   1.931   1.752  13.850  0.0644  0.2140 -0.3104
  122MPD2    C5 1864   1.868   1.801  13.962  0.4974 -0.6702  0.0415
  122MPD2     H 1865   1.710   1.513  13.773 -0.8128 -1.1724  2.0744
  122MPD2    H1 1866   2.020   1.804  13.816 -0.1124 -1.0278 -2.6220
  122MPD2    H2 1867   1.720   1.777  14.107  1.2582  0.5791  0.3941
  122MPD2    H3 1868   1.914   1.889  14.004 -1.9480  0.1464  1.0020
  122MPD2     N 1869   1.931   1.632  13.646 -0.2719 -0.2179 -0.4396
  122MPD2    H5 1870   2.026   1.668  13.638  0.0915 -0.9411  0.6190
  122MPD2    N1 1871   1.571   1.573  13.973  0.3737  0.4201 -0.4988
  122MPD2    H7 1872   1.561   1.478  13.939 -1.1068  0.9885 -1.6807
  123MPD2     C 1873   3.950   3.139  10.535  0.2926 -0.3398  0.0024
  123MPD2    C1 1874   3.991   3.159  10.403 -0.0193 -0.5433 -0.1927
  123MPD2    C2 1875   4.083   3.256  10.373  0.9847  0.6709  0.0412
  123MPD2    C3 1876   4.135   3.333  10.474 -0.0675 -0.3243  0.1966
  123MPD2    C4 1877   4.097   3.317  10.605  0.2910 -0.3422  0.1830
  123MPD2    C5 1878   3.998   3.224  10.629 -0.8376  0.1118  0.8142
  123MPD2     H 1879   4.108   3.287  10.273  0.9173  0.3504 -0.0748
  123MPD2    H1 1880   4.124   3.383  10.686 -1.9690  1.0322 -0.1914
  123MPD2    H2 1881   3.877   3.063  10.562  1.0033 -1.0305 -0.0472
  123MPD2    H3 1882   3.953   3.221  10.728 -1.6455  0.5666  0.4597
  123MPD2     N 1883   4.228   3.435  10.434  0.2901 -0.2014 -0.7608
  123MPD2    H5 1884   4.246   3.444  10.334 -0.3075  1.4209 -0.7213
  123MPD2    N1 1885   3.921   3.088  10.303  0.0697  0.4457 -0.1315
  123MPD2    H7 1886   3.838   3.042  10.339 -0.0307 -0.5532 -1.6318
  124TCq2    C1 1887   4.298   3.518  10.517 -1.2058  0.6111 -0.0175
  124TCq2    O2 1888   4.265   3.556  10.626  0.6220  0.2195  0.2527
  124TCq2    C2 1889   4.417   3.581  10.456 -0.2989 -0.4196  0.1703
  124TCq2    C3 1890   4.452   3.700  10.506  0.6303  0.0410  0.3918
  124TCq2    C4 1891   4.534   3.780  10.427  0.5809 -0.2380  0.0882
  124TCq2    C5 1892   4.587   3.737  10.310 -0.0208 -0.2968  0.2804
  124TCq2    C6 1893   4.546   3.614  10.264 -0.7926 -0.6074 -0.3799
  124TCq2    C7 1894   4.463   3.535  10.335  0.9449 -0.0190 -0.0674
  124TCq2    C8 1895   4.542   3.587  10.125 -0.4226 -1.1190 -0.4179
  124TCq2    O4 1896   4.478   3.487  10.097  0.3223 -0.2809  0.3638
  124TCq2    C9 1897   4.576   3.911  10.475 -0.4779 -0.0058 -0.2666
  124TCq2    O5 1898   4.511   3.971  10.564  0.2415  0.0406  0.2639
  124TCq2    O6 1899   4.685   3.956  10.433 -0.2874  0.8511 -0.3032
  124TCq2    H2 1900   4.422   3.733  10.605  0.1332 -0.9974  0.5793
  124TCq2    H3 1901   4.632   3.807  10.241  2.3976 -1.0638  1.0611
  124TCq2    H4 1902   4.438   3.433  10.308  1.7886  0.4219 -2.5642
  125TMC2    C1 1903   0.243   0.678   9.395 -1.0415  0.2398 -0.2304
  125TMC2    C2 1904   0.148   0.761   9.342 -1.0017  0.8211  0.8623
  125TMC2    C3 1905   0.131   0.877   9.403  0.2466  0.0298  0.0797
  125TMC2    C4 1906   0.316   0.707   9.512  0.3332 -0.1441 -0.0144
  125TMC2    C5 1907   0.300   0.838   9.556  0.5550 -0.5403  0.2822
  125TMC2    C6 1908   0.209   0.925   9.500  0.3745 -0.5529 -0.2664
  125TMC2     C 1909   0.251   0.551   9.329 -0.0414  0.2536  0.1176
  125TMC2     O 1910   0.153   0.528   9.254 -0.1070 -0.1511 -0.1096
  125TMC2     H 1911   0.084   0.742   9.256 -0.6226 -1.9808  1.1829
  125TMC2    H1 1912   0.390   0.644   9.561  1.4528  1.0059 -0.2412
  125TMC2    H2 1913   0.203   1.032   9.516 -1.8925 -0.9031  1.1492
  125TMC2    C7 1914   0.406   0.906   9.628  0.5900  0.2450 -0.6616
  125TMC2    C8 1915   0.046   0.975   9.344  0.1279  0.4300  0.1772
  125TMC2    O1 1916   0.369   1.010   9.686  0.5542 -0.0082  0.3172
  125TMC2    O2 1917   0.034   0.988   9.226  0.1620  0.6576 -0.7631
  125TMC2    O5 1918   4.675   1.010   9.438  0.1194 -0.2812  0.4589
  125TMC2    H5 1919   4.688   0.969   9.526  1.0847  0.3704  0.6127
  126MPD1     C 1920   0.480   0.144   9.134  0.5206  0.1731 -0.0273
  126MPD1    C1 1921   0.568   0.205   9.220  0.0309  0.1799  0.3170
  126MPD1    C2 1922   0.523   0.310   9.286 -0.4614  1.0163 -0.0638
  126MPD1    C3 1923   0.399   0.367   9.268 -0.4503  0.5178 -0.4531
  126MPD1    C4 1924   0.316   0.308   9.177  0.1103 -0.9448 -0.3041
  126MPD1    C5 1925   0.353   0.194   9.112  0.1100  0.3625  0.1625
  126MPD1     H 1926   0.586   0.358   9.360  1.1140 -0.4446 -0.4589
  126MPD1    H1 1927   0.211   0.333   9.164  1.0047  2.9482 -0.0052
  126MPD1    H2 1928   0.511   0.062   9.071 -0.0029  0.2014 -0.3256
  126MPD1    H3 1929   0.292   0.149   9.034 -2.3118  1.2399  1.5390
  126MPD1     N 1930   0.368   0.488   9.341 -0.6904 -0.6704 -0.6871
  126MPD1    H5 1931   0.447   0.526   9.393 -0.5626 -1.1711 -0.5122
  126MPD1    N1 1932   0.688   0.143   9.255  0.6263 -0.7255  0.7373
  126MPD1    H6 1933   0.738   0.088   9.186  0.5724  0.9489 -0.6317
  126MPD1    H7 1934   0.750   0.205   9.307 -1.1428  0.2131  1.7239
  127MPD2     C 1935   1.443   4.553   9.724  0.3220  0.2754 -0.7855
  127MPD2    C1 1936   1.524   4.497   9.821 -0.4978  0.2709 -0.0554
  127MPD2    C2 1937   1.638   4.563   9.859 -1.3455  0.0635  0.2896
  127MPD2    C3 1938   1.682   4.685   9.796 -0.3101 -0.2041  0.2573
  127MPD2    C4 1939   1.595   0.013   9.708 -0.8934 -1.0275 -0.5687
  127MPD2    C5 1940   1.482   4.674   9.668 -0.5646  0.2352 -0.4738
  127MPD2     H 1941   1.703   4.515   9.931  1.2131  2.4474 -0.4045
  127MPD2    H1 1942   1.603   0.105   9.651  1.4695 -1.1174 -0.3833
  127MPD2    H2 1943   1.349   4.507   9.693 -0.1452  0.2618  0.6695
  127MPD2    H3 1944   1.420   4.710   9.587  1.5994 -0.3629 -2.3828
  127MPD2     N 1945   1.802   0.037   9.826  0.3790 -0.0456 -0.3227
  127MPD2    H5 1946   1.864   0.007   9.901  1.7505  0.9843 -1.0431
  127MPD2    N1 1947   1.477   4.378   9.881 -0.5219  0.5753 -0.0745
  127MPD2    H7 1948   1.398   4.340   9.830 -0.8373  0.2061  0.6908
  128TCq2    C1 1949   1.535   4.304   9.980 -0.2594  0.8778 -0.3578
  128TCq2    O2 1950   1.633   4.334  10.050  0.5862 -0.4500 -0.8064
  128TCq2    C2 1951   1.460   4.184  10.012  1.3712  0.6316 -0.2365
  128TCq2    C3 1952   1.465   4.152  10.148  0.2761 -0.0923 -0.0611
  128TCq2    C4 1953   1.386   4.046  10.190  0.8092  0.5953  0.0278
  128TCq2    C5 1954   1.285   4.003  10.109  0.0888  0.4062  0.3316
  128TCq2    C6 1955   1.284   4.033   9.978 -0.6956 -0.6394  0.5782
  128TCq2    C7 1956   1.371   4.123   9.924  0.1910  0.2156 -0.2458
  128TCq2    C8 1957   1.172   3.982   9.894  0.5341 -0.0523 -0.4384
  128TCq2    O4 1958   1.167   4.027   9.775 -0.2912 -0.3326 -0.0972
  128TCq2    C9 1959   1.415   3.989  10.320 -0.3008  0.6229  0.9102
  128TCq2    O5 1960   1.487   4.059  10.398  0.0107  0.3224 -0.0482
  128TCq2    O6 1961   1.356   3.883  10.359  0.2022 -0.1733 -0.4721
  128TCq2    H2 1962   1.542   4.202  10.206  0.7130 -0.8734  0.0391
  128TCq2    H3 1963   1.221   3.933  10.162  2.0029 -0.7305  1.1303
  128TCq2    H4 1964   1.370   4.159   9.821  0.2635  2.4015  0.5133
  129MPD2     C 1965   0.508   0.238   1.161  0.2066  0.4409  0.1763
  129MPD2    C1 1966   0.489   0.360   1.214  0.1626 -0.8575  0.2110
  129MPD2    C2 1967   0.542   0.465   1.144 -0.0109  0.3242 -0.4204
  129MPD2    C3 1968   0.619   0.446   1.024  0.1243 -0.1885 -0.3608
  129MPD2    C4 1969   0.639   0.317   0.981 -0.3455  0.1567 -0.2071
  129MPD2    C5 1970   0.585   0.214   1.051 -0.1780 -0.2828 -0.4324
  129MPD2     H 1971   0.521   0.560   1.190 -0.9189 -0.3088  0.4578
  129MPD2    H1 1972   0.703   0.289   0.898 -1.6157 -2.2745 -0.3300
  129MPD2    H2 1973   0.470   0.148   1.207 -0.5913  1.1861  0.9999
  129MPD2    H3 1974   0.590   0.110   1.020 -0.6127 -0.4599  0.0981
  129MPD2     N 1975   0.682   0.563   0.965 -0.3973 -0.4910  0.7758
  129MPD2    H5 1976   0.652   0.652   1.002 -0.1907  0.3704 -1.1032
  129MPD2    N1 1977   0.411   0.383   1.335 -0.8437 -0.2343 -0.1018
  129MPD2    H7 1978   0.392   0.480   1.359  0.2620 -0.1963  0.6453
  130TCq2    C1 1979   0.381   0.288   1.426 -0.0490  0.1245  0.3850
  130TCq2    O2 1980   0.436   0.179   1.426 -0.0700  0.4686  0.0299
  130TCq2    C2 1981   0.280   0.324   1.520 -0.0120  0.5867 -0.6539
  130TCq2    C3 1982   0.240   0.460   1.519 -0.4904 -0.3471  0.2456
  130TCq2    C4 1983   0.143   0.485   1.615  0.0103  0.1257  0.7767
  130TCq2    C5 1984   0.108   0.396   1.710 -1.0836  0.2446  0.1887
  130TCq2    C6 1985   0.151   0.270   1.709 -0.1848  0.3479 -0.9618
  130TCq2    C7 1986   0.241   0.231   1.615 -0.0038 -0.0432 -0.4411
  130TCq2    C8 1987   0.059   0.164   1.751 -0.6455 -0.4433 -0.4205
  130TCq2    O4 1988   4.668   0.185   1.727  0.0606 -0.0365 -0.3139
  130TCq2    C9 1989   0.085   0.617   1.621  0.2667  0.5875 -0.4103
  130TCq2    O5 1990   0.059   0.663   1.735  0.4861  0.0906  0.3571
  130TCq2    O6 1991   0.067   0.682   1.512  0.5339  0.0540  0.2399
  130TCq2    H2 1992   0.270   0.532   1.444 -0.4040  0.3384  0.9366
  130TCq2    H3 1993   0.045   0.429   1.792 -2.6316  0.9576 -1.2760
  130TCq2    H4 1994   0.263   0.127   1.596 -1.0923  0.0221 -2.0172
  131MPD2     C 1995   3.864   3.774   9.664 -1.0903 -0.0204  0.1788
  131MPD2    C1 1996   3.957   3.716   9.747  0.1719 -0.4990 -0.0198
  131MPD2    C2 1997   3.937   3.591   9.802  0.2118  0.0364 -0.5685
  131MPD2    C3 1998   3.826   3.516   9.768 -0.6982 -0.4688 -0.2991
  131MPD2    C4 1999   3.726   3.583   9.700 -0.3505 -0.7401 -0.5140
  131MPD2    C5 2000   3.746   3.707   9.644  0.7925 -0.3913  0.4982
  131MPD2     H 2001   4.020   3.538   9.848 -0.6376  0.5644  1.5832
  131MPD2    H1 2002   3.630   3.540   9.675 -0.9445  1.3825 -1.8375
  131MPD2    H2 2003   3.870   3.868   9.612 -1.8053  1.0878  2.1093
  131MPD2    H3 2004   3.668   3.748   9.580  1.5125  0.2936  0.0675
  131MPD2     N 2005   3.814   3.391   9.819 -0.3948  0.1093  0.5678
  131MPD2    H5 2006   3.895   3.347   9.863 -1.3448 -1.2923  0.9148
  131MPD2    N1 2007   4.079   3.784   9.768 -0.2358 -0.1219  0.1199
  131MPD2    H7 2008   4.077   3.872   9.719 -0.7039  0.5734  1.3917
  132TCq2    C1 2009   4.391   4.062   9.564  0.3013 -0.5573  0.1661
  132TCq2    O2 2010   4.318   4.027   9.473 -0.6909  0.4600  0.1555
  132TCq2    C2 2011   4.406   3.980   9.683  0.3472  0.1597 -0.1965
  132TCq2    C3 2012   4.487   4.030   9.782  0.7517  0.0735  0.4641
  132TCq2    C4 2013   4.469   3.983   9.910  0.3216  0.2564 -0.3088
  132TCq2    C5 2014   4.366   3.891   9.934  0.7528 -0.1883 -0.1181
  132TCq2    C6 2015   4.284   3.849   9.830  0.3608 -0.1097  0.3251
  132TCq2    C7 2016   4.301   3.899   9.704  0.3923  0.0035 -0.3636
  132TCq2    C8 2017   4.178   3.750   9.857  0.1596 -0.4316 -0.0764
  132TCq2    O4 2018   4.184   3.673   9.951  0.4497 -0.1569  0.3235
  132TCq2    C9 2019   4.556   4.030  10.012 -0.2808  0.3019 -0.3948
  132TCq2    O5 2020   4.522   3.992  10.129 -0.3512  0.2777  0.5098
  132TCq2    O6 2021   4.654   4.095   9.983  0.3999  0.3898 -0.5730
  132TCq2    H2 2022   4.567   4.096   9.752 -0.2646  1.0941 -0.0325
  132TCq2    H3 2023   4.356   3.854  10.035  1.0844 -0.5645 -0.2249
  132TCq2    H4 2024   4.261   3.843   9.620  2.6654  0.7599 -1.9375
  133MPD2     C 2025   1.966   4.364   8.967  0.6388 -0.4770 -0.0654
  133MPD2    C1 2026   2.064   4.268   8.998  0.2526  0.7133 -0.2111
  133MPD2    C2 2027   2.187   4.311   9.042  0.1986 -0.3588  0.5027
  133MPD2    C3 2028   2.215   4.449   9.065 -0.2143 -0.3900 -0.4454
  133MPD2    C4 2029   2.119   4.539   9.051 -0.5338  0.1607 -0.0210
  133MPD2    C5 2030   1.998   4.494   9.008 -0.0062 -0.1752 -0.3046
  133MPD2     H 2031   2.265   4.236   9.036  0.0463 -0.4142 -0.9747
  133MPD2    H1 2032   2.141   4.640   9.083 -1.2511  0.0380  0.8651
  133MPD2    H2 2033   1.866   4.336   8.937  0.6362  1.8802 -2.2387
  133MPD2    H3 2034   1.927   4.574   9.023  2.0450  1.2138  1.9627
  133MPD2     N 2035   2.345   4.497   9.089  1.1511  0.0227  0.3339
  133MPD2    H5 2036   2.347   4.598   9.098 -0.1740 -0.0659  1.6582
  133MPD2    N1 2037   2.033   4.130   8.979  0.3057  0.0325  1.0394
  133MPD2    H7 2038   1.955   4.112   8.916  0.0834  1.6710  0.8386
  134TCq2    C1 2039   2.091   4.030   9.061  0.9543  0.1524  0.6655
  134TCq2    O2 2040   2.159   4.041   9.163 -0.0131 -0.5074  0.5614
  134TCq2    C2 2041   2.008   3.913   9.055  0.4667  0.4483  0.0664
  134TCq2    C3 2042   1.930   3.883   8.942 -0.0299 -0.0143  0.7944
  134TCq2    C4 2043   1.864   3.768   8.943 -0.0312 -0.0268 -0.1248
  134TCq2    C5 2044   1.875   3.678   9.043 -0.1369 -0.1556 -0.4772
  134TCq2    C6 2045   1.940   3.716   9.155 -0.3225  0.8738  0.0878
  134TCq2    C7 2046   2.013   3.826   9.160 -1.1086  0.2199 -1.0067
  134TCq2    C8 2047   1.959   3.618   9.261  0.7242  0.5455 -0.6386
  134TCq2    O4 2048   2.021   3.664   9.356  0.4419  0.0674 -0.2166
  134TCq2    C9 2049   1.771   3.746   8.833  0.1218 -0.2060  0.2136
  134TCq2    O5 2050   1.710   3.638   8.826 -0.5477  0.0162  0.6303
  134TCq2    O6 2051   1.759   3.835   8.744  0.1749 -0.7006  0.3727
  134TCq2    H2 2052   1.928   3.947   8.854 -2.2509  0.6751  1.3310
  134TCq2    H3 2053   1.816   3.587   9.035  1.9903 -1.7132  1.4034
  134TCq2    H4 2054   2.064   3.857   9.251 -1.6104  1.5705 -1.1917
  135MPD2     C 2055   0.261   1.395   9.009  0.4307 -1.1964 -0.8592
  135MPD2    C1 2056   0.248   1.318   9.129 -0.2673  0.4228  0.0360
  135MPD2    C2 2057   0.346   1.225   9.158  0.5393 -0.2267 -0.0557
  135MPD2    C3 2058   0.460   1.207   9.088  0.2444 -0.4079  0.5430
  135MPD2    C4 2059   0.475   1.290   8.979  0.6913 -0.3156  0.1668
  135MPD2    C5 2060   0.375   1.371   8.936  0.2187  0.0215  0.3177
  135MPD2     H 2061   0.332   1.174   9.252 -1.3614  0.2150 -0.0933
  135MPD2    H1 2062   0.567   1.292   8.922  0.0783  2.2863 -0.7253
  135MPD2    H2 2063   0.191   1.473   8.979  1.8571  0.8627  1.1289
  135MPD2    H3 2064   0.397   1.434   8.850  0.6044 -0.6262 -0.0622
  135MPD2     N 2065   0.557   1.117   9.127  0.0231  0.1622  0.2243
  135MPD2    H5 2066   0.646   1.125   9.079 -1.0492 -0.2688 -1.8770
  135MPD2    N1 2067   0.138   1.333   9.210  0.8264  0.6062  0.0681
  135MPD2    H7 2068   0.149   1.281   9.296  4.6743  1.6900  0.2525
  136TCq2    C1 2069   0.020   1.398   9.173 -0.0767  0.2659  0.7526
  136TCq2    O2 2070   4.712   1.443   9.064  0.0566  0.0820 -0.2882
  136TCq2    C2 2071   4.650   1.399   9.276  0.0342 -0.1800 -0.0480
  136TCq2    C3 2072   4.522   1.423   9.239 -0.5655  0.0664  0.5238
  136TCq2    C4 2073   4.430   1.460   9.328  0.4284 -0.5177  0.7277
  136TCq2    C5 2074   4.468   1.464   9.458  0.5207 -0.2964 -0.3161
  136TCq2    C6 2075   4.594   1.440   9.494  0.0621 -0.5087  0.3986
  136TCq2    C7 2076   4.691   1.408   9.402 -0.4273  0.2940 -0.2162
  136TCq2    C8 2077   4.628   1.457   9.628  0.1473 -0.2613  0.1007
  136TCq2    O4 2078   4.548   1.516   9.704 -0.3269  0.2450 -0.3909
  136TCq2    C9 2079   4.299   1.490   9.287  0.2919  0.3963  0.1273
  136TCq2    O5 2080   4.262   1.443   9.171  0.0913  0.8593  0.0471
  136TCq2    O6 2081   4.217   1.521   9.374  0.9220 -1.0585  0.3572
  136TCq2    H2 2082   4.499   1.429   9.133 -0.6992  0.9038  0.5997
  136TCq2    H3 2083   4.385   1.465   9.527 -0.9493  0.5032 -2.1039
  136TCq2    H4 2084   0.070   1.414   9.433 -0.9782 -1.5743  1.9839
  137MPD2     C 2085   1.486   4.634  10.192 -0.0692 -0.3999  0.1512
  137MPD2    C1 2086   1.354   4.649  10.209  0.3563  0.3664 -0.3734
  137MPD2    C2 2087   1.317   0.035  10.281 -0.1630 -0.2085 -0.2882
  137MPD2    C3 2088   1.399   0.130  10.330 -0.3691  0.3113 -0.4079
  137MPD2    C4 2089   1.530   0.121  10.293 -0.1854 -0.4262  0.2958
  137MPD2    C5 2090   1.573   0.009  10.230 -0.0106  0.3135  0.3129
  137MPD2     H 2091   1.214   0.055  10.308 -0.1583  2.5608 -2.3170
  137MPD2    H1 2092   1.613   0.185  10.320  1.4384 -1.9555 -1.0667
  137MPD2    H2 2093   1.530   4.546  10.147  1.6950 -1.1554  3.4208
  137MPD2    H3 2094   1.676   0.018  10.200 -0.1811 -0.0670 -0.3687
  137MPD2     N 2095   1.340   0.228  10.409 -0.4296 -0.0369 -0.5784
  137MPD2    H5 2096   1.238   0.230  10.408 -0.4583 -2.5747 -1.8934
  137MPD2    N1 2097   1.263   4.557  10.153 -0.2055 -0.2672  0.2005
  137MPD2    H7 2098   1.305   4.472  10.115 -2.5911 -1.3783 -0.0011
  138TCq2    C1 2099   1.122   4.569  10.154  0.2215 -1.0275 -1.1649
  138TCq2    O2 2100   1.061   4.658  10.208 -0.5171  0.1841 -0.4973
  138TCq2    C2 2101   1.051   4.452  10.105  0.0876  0.8146  0.0575
  138TCq2    C3 2102   0.916   4.450  10.122  0.5219  0.8504  0.0664
  138TCq2    C4 2103   0.849   4.370  10.028 -0.3192  0.3474  0.0564
  138TCq2    C5 2104   0.911   4.283   9.941  0.5726 -0.1554  0.2735
  138TCq2    C6 2105   1.047   4.284   9.934  0.2666 -0.1098  0.2985
  138TCq2    C7 2106   1.120   4.363  10.021 -0.1778  0.1616 -0.1564
  138TCq2    C8 2107   1.086   4.326   9.801 -0.1106  0.0164  0.0867
  138TCq2    O4 2108   1.201   4.318   9.763 -0.1808 -0.1660  0.1735
  138TCq2    C9 2109   0.712   4.371  10.025 -0.3271 -0.0502  0.2034
  138TCq2    O5 2110   0.649   4.415  10.122 -0.0610 -0.8688 -0.1100
  138TCq2    O6 2111   0.663   4.325   9.921  0.6300 -0.2882  0.2949
  138TCq2    H2 2112   0.865   4.522  10.185 -1.5173 -1.4276  1.0114
  138TCq2    H3 2113   0.853   4.217   9.878  0.2293  0.6070 -0.2116
  138TCq2    H4 2114   1.225   4.381  10.001 -0.2839  0.2764 -0.5915
  139TMC2    C1 2115   1.047   3.922  13.240 -0.1094 -0.0181 -1.1025
  139TMC2    C2 2116   1.146   4.012  13.217  0.4145 -0.0898 -0.3130
  139TMC2    C3 2117   1.120   4.146  13.245 -0.1520  0.0349  0.9645
  139TMC2    C4 2118   0.930   3.951  13.299  0.8547  0.4680 -0.4176
  139TMC2    C5 2119   0.904   4.085  13.327  0.3817 -0.6668  1.5607
  139TMC2    C6 2120   1.000   4.182  13.292 -0.3112  0.1481 -0.1911
  139TMC2     C 2121   1.087   3.783  13.231  0.6690 -0.0968  0.7737
  139TMC2     O 2122   1.201   3.761  13.193  0.3942 -0.6667 -0.2678
  139TMC2     H 2123   1.236   3.985  13.162  1.2560  2.1999 -0.0438
  139TMC2    H1 2124   0.883   3.871  13.355  0.3176 -0.3327 -2.0336
  139TMC2    H2 2125   0.978   4.285  13.317  0.8805  0.7888 -1.7566
  139TMC2    C7 2126   0.790   4.116  13.404  0.0178  0.9126  0.8312
  139TMC2    C8 2127   1.231   4.243  13.241  0.5134 -0.6312 -0.7399
  139TMC2    O1 2128   0.812   4.209  13.477  0.1545  0.0768  0.7299
  139TMC2    O2 2129   1.338   4.216  13.188  0.2349 -0.5322  0.9074
  139TMC2    O5 2130   1.215   4.338  13.331  0.4042  0.1249 -0.2299
  139TMC2    H5 2131   1.141   4.313  13.390 -0.1290 -0.8536 -1.3261
  140MPD2     C 2132   0.881   3.490  13.175  0.1747 -0.5467  0.4235
  140MPD2    C1 2133   0.996   3.560  13.200  0.4164 -0.4660 -0.2244
  140MPD2    C2 2134   1.110   3.491  13.234 -0.4069 -0.3901  0.5036
  140MPD2    C3 2135   1.114   3.356  13.219 -0.3800 -0.0789 -0.1830
  140MPD2    C4 2136   1.001   3.287  13.170  0.7371 -0.2156  0.5490
  140MPD2    C5 2137   0.887   3.359  13.158 -0.2923 -0.3348 -0.4944
  140MPD2     H 2138   1.202   3.540  13.265 -0.7580  0.5894  0.0203
  140MPD2    H1 2139   1.000   3.183  13.139 -0.5422  0.1515 -0.6536
  140MPD2    H2 2140   0.787   3.541  13.157 -1.3182 -3.1742  0.7803
  140MPD2    H3 2141   0.792   3.312  13.134 -0.7652 -0.0986  0.9374
  140MPD2     N 2142   1.241   3.293  13.253 -0.0030 -0.0378  0.3981
  140MPD2    H5 2143   1.314   3.353  13.291  0.6176 -0.8254  0.4422
  140MPD2    N1 2144   0.983   3.698  13.216 -0.1728  0.2563 -0.3789
  140MPD2    H7 2145   0.889   3.738  13.211 -1.8793 -3.3301  2.9148
  141TCq2    C1 2146   1.747   4.641  14.512 -0.2251 -0.2518 -0.6203
  141TCq2    O2 2147   1.779   0.004  14.434 -0.4945  0.5422  0.3566
  141TCq2    C2 2148   1.717   4.682  14.646  0.2615 -0.0766 -0.7564
  141TCq2    C3 2149   1.696   4.597  14.759 -0.1373  0.0360 -0.1970
  141TCq2    C4 2150   1.632   4.643  14.864 -0.8302  0.5412 -0.5340
  141TCq2    C5 2151   1.602   0.051  14.874  0.8158  0.9094 -0.2772
  141TCq2    C6 2152   1.643   0.137  14.778  0.6076  0.0054 -0.7064
  141TCq2    C7 2153   1.708   0.096  14.670 -0.5148 -0.2017 -0.4695
  141TCq2    C8 2154   1.621   0.277  14.787 -0.0670 -0.6372 -0.1858
  141TCq2    O4 2155   1.510   0.327  14.807 -0.4812  0.3561 -0.4664
  141TCq2    C9 2156   1.617   4.561  14.975 -0.0138 -0.0211 -0.3730
  141TCq2    O5 2157   1.569   4.618  15.076 -0.2534  0.8323 -0.0241
  141TCq2    O6 2158   1.687   4.454  14.976 -0.1568 -0.3575 -0.2775
  141TCq2    H2 2159   1.713   4.491  14.748  0.3969  0.1578 -0.4907
  141TCq2    H3 2160   1.549   0.093  14.959 -0.4704 -0.3479 -0.4668
  141TCq2    H4 2161   1.737   0.165  14.591 -0.7176  1.2939  0.7718
  142MPD2     C 2162   3.554   2.955   9.628 -0.0331 -1.1976  0.2825
  142MPD2    C1 2163   3.676   2.893   9.650  0.0392  0.3101  0.4218
  142MPD2    C2 2164   3.792   2.973   9.616 -0.3938  0.2222  0.3108
  142MPD2    C3 2165   3.782   3.103   9.562  0.3709  0.1243  0.3718
  142MPD2    C4 2166   3.657   3.152   9.545 -0.2941  0.1608  0.5624
  142MPD2    C5 2167   3.551   3.083   9.582 -0.4145 -0.0503  0.3736
  142MPD2     H 2168   3.891   2.928   9.614 -1.2652 -1.6648 -0.1798
  142MPD2    H1 2169   3.647   3.250   9.500 -2.4933 -0.2575  0.1440
  142MPD2    H2 2170   3.461   2.903   9.642 -0.5630 -0.4910 -0.6229
  142MPD2    H3 2171   3.454   3.131   9.579  0.7400  2.2232 -0.4420
  142MPD2     N 2172   3.892   3.181   9.522  0.0866 -0.0550  0.1761
  142MPD2    H5 2173   3.868   3.274   9.490  0.3261  0.2802  0.9569
  142MPD2    N1 2174   3.677   2.756   9.681  0.0285 -0.2523 -1.2663
  142MPD2    H7 2175   3.588   2.711   9.699  0.4074 -0.5911 -0.2220
  143TCq2    C1 2176   4.025   3.157   9.535 -0.3338 -0.3931 -0.4480
  143TCq2    O2 2177   4.094   3.060   9.566 -0.1208  0.0511 -0.4980
  143TCq2    C2 2178   4.106   3.282   9.505 -0.7304  0.6356  0.3180
  143TCq2    C3 2179   4.072   3.370   9.408  0.2025 -0.1291  0.6847
  143TCq2    C4 2180   4.140   3.489   9.390  0.2025  0.3567  0.2569
  143TCq2    C5 2181   4.257   3.506   9.451  0.4959  0.4211  0.0529
  143TCq2    C6 2182   4.305   3.404   9.532 -0.7924  0.7166  0.5595
  143TCq2    C7 2183   4.228   3.294   9.567  0.1307  0.2285  0.3355
  143TCq2    C8 2184   4.386   3.449   9.641 -0.8052 -0.1013  0.2753
  143TCq2    O4 2185   4.363   3.390   9.746 -0.2283 -0.3082  0.1404
  143TCq2    C9 2186   4.081   3.598   9.315  0.1719 -0.0548 -0.3827
  143TCq2    O5 2187   4.157   3.693   9.277  0.2309  0.2993  0.3130
  143TCq2    O6 2188   3.968   3.567   9.266  0.4299  0.1949  0.0278
  143TCq2    H2 2189   3.987   3.348   9.343  1.4203  0.1329 -0.9808
  143TCq2    H3 2190   4.302   3.605   9.451 -0.4769  0.8547 -1.5501
  143TCq2    H4 2191   4.261   3.221   9.640  1.3413  0.9952  0.5561
  144MPD2     C 2192   1.880   1.954   0.537 -0.2618  0.1340  0.1082
  144MPD2    C1 2193   1.958   2.036   0.450 -0.1902 -0.1648  0.2860
  144MPD2    C2 2194   2.092   2.048   0.472 -0.0676 -0.4908 -0.1992
  144MPD2    C3 2195   2.152   1.975   0.572  0.4412 -0.1616 -0.1968
  144MPD2    C4 2196   2.081   1.884   0.647  0.4507 -0.2147  0.2699
  144MPD2    C5 2197   1.946   1.883   0.630 -0.0715  0.5471 -0.1478
  144MPD2     H 2198   2.155   2.114   0.414  1.3373 -0.9568  0.8032
  144MPD2    H1 2199   2.138   1.828   0.720 -0.2740 -1.3539 -0.0432
  144MPD2    H2 2200   1.774   1.940   0.519 -0.0375  1.7448 -2.5996
  144MPD2    H3 2201   1.885   1.819   0.693  0.5401  0.9786  0.8790
  144MPD2     N 2202   2.284   2.010   0.588  0.2920  0.1109 -0.0215
  144MPD2    H5 2203   2.326   2.070   0.518  0.8508  0.7937  0.8993
  144MPD2    N1 2204   1.909   2.108   0.335 -0.1973 -0.2076 -0.5437
  144MPD2    H7 2205   1.969   2.180   0.297 -2.0220  1.8004  0.3749
  145TCq2    C1 2206   2.353   1.992   0.703  0.3871  0.0540 -0.1789
  145TCq2    O2 2207   2.309   1.957   0.812 -0.1004  0.1500  0.1181
  145TCq2    C2 2208   2.488   2.043   0.691  0.3487  0.0751 -0.2400
  145TCq2    C3 2209   2.563   1.985   0.596 -0.4362  0.0442  0.1536
  145TCq2    C4 2210   2.694   2.002   0.598 -0.0734 -0.6727 -0.7540
  145TCq2    C5 2211   2.760   2.077   0.692  0.2491  0.1287 -0.7172
  145TCq2    C6 2212   2.678   2.136   0.786  0.2890  0.0172  0.7557
  145TCq2    C7 2213   2.546   2.110   0.794 -0.0454 -0.0880 -0.8787
  145TCq2    C8 2214   2.734   2.234   0.872  0.4167 -0.5940 -0.1653
  145TCq2    O4 2215   2.851   2.220   0.874 -0.5790 -0.5115 -0.1410
  145TCq2    C9 2216   2.762   1.920   0.497  0.1875 -0.4468 -0.0934
  145TCq2    O5 2217   2.703   1.814   0.455  0.0470  0.2961 -0.2278
  145TCq2    O6 2218   2.889   1.932   0.495 -0.4658 -0.2239 -0.3863
  145TCq2    H2 2219   2.508   1.933   0.518 -0.6089 -0.9516  0.9329
  145TCq2    H3 2220   2.868   2.076   0.697  0.3938  0.4275 -4.0907
  145TCq2    H4 2221   2.481   2.158   0.867 -0.1879 -0.6829 -0.6152
  146TMC2    C1 2222   3.128   1.085  12.440 -0.1912 -0.5216  0.5159
  146TMC2    C2 2223   3.019   1.129  12.363 -0.0868 -0.1714  0.6691
  146TMC2    C3 2224   3.016   1.073  12.242 -0.1771 -0.9124 -0.0634
  146TMC2    C4 2225   3.229   1.008  12.387 -0.0763  0.2103 -0.3276
  146TMC2    C5 2226   3.208   0.951  12.265 -0.1532 -0.2420  0.1974
  146TMC2    C6 2227   3.110   0.994  12.187 -0.0916  0.1373 -0.3233
  146TMC2     C 2228   3.167   1.154  12.562  0.5012 -0.3669 -0.2682
  146TMC2     O 2229   3.274   1.123  12.614 -0.0215 -0.1755  0.1178
  146TMC2     H 2230   2.951   1.203  12.404 -2.8046 -2.1246 -0.3145
  146TMC2    H1 2231   3.316   0.987  12.448 -1.0495 -0.2682  0.9125
  146TMC2    H2 2232   3.097   0.965  12.084  0.6376  1.2894 -0.7399
  146TMC2    C7 2233   3.312   0.866  12.212 -0.3110 -0.0532  0.0631
  146TMC2    C8 2234   2.901   1.106  12.159 -0.4121  0.2865 -0.0499
  146TMC2    O1 2235   3.310   0.845  12.091 -0.0591 -0.2627  0.1401
  146TMC2    O2 2236   2.903   1.093  12.041  0.1983 -0.1789  0.0803
  146TMC2    O5 2237   2.792   1.069  12.229  0.1880 -0.4068  0.6072
  146TMC2    H5 2238   2.804   1.086  12.325  3.6075  0.1758  0.0851
  147MPD2     C 2239   3.737   0.580  12.246  0.1618  0.6074  0.2067
  147MPD2    C1 2240   3.688   0.585  12.372  0.4651 -0.2386 -1.0143
  147MPD2    C2 2241   3.575   0.666  12.392 -0.1288  0.1228 -0.1457
  147MPD2    C3 2242   3.505   0.720  12.281  0.6201  0.3391 -0.2363
  147MPD2    C4 2243   3.559   0.704  12.155  0.6125  0.0112 -0.5337
  147MPD2    C5 2244   3.675   0.637  12.142  0.2104 -0.3257 -0.3168
  147MPD2     H 2245   3.547   0.702  12.491  1.2801  1.3052 -0.1839
  147MPD2    H1 2246   3.509   0.741  12.067  0.2332 -1.5001 -0.9583
  147MPD2    H2 2247   3.831   0.531  12.223 -0.9669 -2.3264  1.8305
  147MPD2    H3 2248   3.719   0.623  12.044  0.8147 -0.1889 -0.0678
  147MPD2     N 2249   3.393   0.806  12.307  0.6905 -0.2124  0.4485
  147MPD2    H5 2250   3.368   0.822  12.405  1.8126  2.5858  0.2951
  147MPD2    N1 2251   3.766   0.540  12.489  0.0340  0.5446  0.2602
  147MPD2    H7 2252   3.862   0.518  12.466 -0.4574 -1.5126  0.2544
  148MPD2     C 2253   4.045   3.996  11.132  0.0492 -0.1637  0.1237
  148MPD2    C1 2254   4.031   4.090  11.032  0.2878 -0.2577  0.4725
  148MPD2    C2 2255   3.988   4.046  10.909  0.2075  0.8096  0.4655
  148MPD2    C3 2256   3.956   3.915  10.881 -0.0875  0.5040 -0.1864
  148MPD2    C4 2257   3.979   3.816  10.985  0.7911 -0.5109 -0.6104
  148MPD2    C5 2258   4.030   3.863  11.109 -0.4932 -0.4019 -0.5790
  148MPD2     H 2259   3.969   4.121  10.834  1.7527  0.1001 -0.6226
  148MPD2    H1 2260   3.941   3.715  10.977  1.8544 -1.1435  2.0977
  148MPD2    H2 2261   4.064   4.021  11.236 -1.6631 -2.7896  1.0826
  148MPD2    H3 2262   4.031   3.792  11.191  0.1481  0.4460  0.1507
  148MPD2     N 2263   3.896   3.878  10.756 -0.1684  0.0756 -0.5253
  148MPD2    H5 2264   3.863   3.783  10.742  0.1123  0.1957 -2.0092
  148MPD2    N1 2265   4.033   4.231  11.053  0.0765  0.1673  0.9266
  148MPD2    H7 2266   4.024   4.289  10.970 -0.8415 -0.9185  0.2607
  149TCq2    C1 2267   4.044   4.292  11.173 -0.5062 -0.3734  0.1719
  149TCq2    O2 2268   4.056   4.251  11.285  0.2366 -0.4477  0.4697
  149TCq2    C2 2269   4.007   4.431  11.146 -0.2951  0.3426  0.0397
  149TCq2    C3 2270   3.893   4.468  11.201  0.5280  0.0796 -0.4726
  149TCq2    C4 2271   3.811   4.558  11.129  0.1132 -0.2893 -0.2565
  149TCq2    C5 2272   3.833   4.581  10.995 -0.4160 -0.0856 -0.3892
  149TCq2    C6 2273   3.960   4.545  10.949  0.8212  0.1020  0.2816
  149TCq2    C7 2274   4.049   4.477  11.024 -0.1336 -0.0433  0.2815
  149TCq2    C8 2275   3.993   4.567  10.809 -0.0977  0.0938 -0.4434
  149TCq2    O4 2276   4.075   4.494  10.761  0.5866  0.1816  0.5040
  149TCq2    C9 2277   3.679   4.550  11.174  0.2684 -0.3698  0.7574
  149TCq2    O5 2278   3.659   4.504  11.290 -0.2258  0.6165 -0.7171
  149TCq2    O6 2279   3.593   4.559  11.083  0.1419  0.1283 -0.2013
  149TCq2    H2 2280   3.863   4.417  11.292 -2.6588  0.9392 -1.0468
  149TCq2    H3 2281   3.755   4.617  10.929 -1.2571  1.0669  1.2282
  149TCq2    H4 2282   4.144   4.450  10.980 -0.1548 -3.2691  2.2811
  150MPD2     C 2283   0.653   4.144  12.266  0.4663  0.4240  0.5256
  150MPD2    C1 2284   0.696   4.191  12.149  0.0715 -0.2977 -0.1336
  150MPD2    C2 2285   0.811   4.265  12.146  0.1027 -0.0266  0.5905
  150MPD2    C3 2286   0.873   4.320  12.254 -0.5906 -0.4300  0.5491
  150MPD2    C4 2287   0.825   4.281  12.378 -0.1360  0.4552 -0.4945
  150MPD2    C5 2288   0.714   4.195  12.382 -0.5457 -0.3018 -0.2027
  150MPD2     H 2289   0.866   4.279  12.054 -1.0944 -0.9219 -0.2480
  150MPD2    H1 2290   0.870   4.318  12.469 -1.7880  0.0883  0.4648
  150MPD2    H2 2291   0.561   4.087  12.272 -0.7758  2.5124  1.1562
  150MPD2    H3 2292   0.676   4.158  12.477 -0.0158 -1.1091 -0.3103
  150MPD2     N 2293   0.988   4.391  12.223  0.5934  0.0032  0.1165
  150MPD2    H5 2294   1.024   4.375  12.129  0.6641  1.2390 -0.0616
  150MPD2    N1 2295   0.628   4.137  12.030  0.7491 -0.2842 -0.0699
  150MPD2    H7 2296   0.547   4.077  12.040 -0.6886  1.5281 -0.8782
  151TCq2    C1 2297   1.064   4.469  12.308 -0.8879 -0.4115  0.0265
  151TCq2    O2 2298   1.041   4.487  12.428 -0.7025 -0.1622  0.0237
  151TCq2    C2 2299   1.194   4.497  12.244  0.1473 -0.3152 -0.5432
  151TCq2    C3 2300   1.206   4.479  12.112 -0.5791 -0.6241 -1.1121
  151TCq2    C4 2301   1.321   4.430  12.069  1.5053  0.5282  0.2881
  151TCq2    C5 2302   1.427   4.403  12.148 -0.8331  0.5467  0.3735
  151TCq2    C6 2303   1.413   4.435  12.282  0.4489 -0.3396 -0.5986
  151TCq2    C7 2304   1.298   4.488  12.330 -0.1657  0.5295  0.0083
  151TCq2    C8 2305   1.533   4.458  12.368 -0.0403  0.3695  0.3031
  151TCq2    O4 2306   1.532   4.553  12.443 -0.4799 -0.3072  0.2392
  151TCq2    C9 2307   1.339   4.423  11.921 -0.3668 -0.3885 -0.2368
  151TCq2    O5 2308   1.440   4.363  11.876 -0.0175  0.4090  0.0270
  151TCq2    O6 2309   1.257   4.486  11.847 -0.2838  0.4714  0.6716
  151TCq2    H2 2310   1.137   4.528  12.044 -0.2739  1.1343 -0.1542
  151TCq2    H3 2311   1.522   4.375  12.105  0.0469  2.4405  1.0885
  151TCq2    H4 2312   1.283   4.494  12.437  0.3083 -0.9213  0.1667
  152MPD2     C 2313   0.904   3.521  12.488  0.3671  0.2071 -0.0779
  152MPD2    C1 2314   0.886   3.648  12.454  0.4410 -0.1130  0.2268
  152MPD2    C2 2315   0.763   3.701  12.437  0.0290 -0.9862  0.0914
  152MPD2    C3 2316   0.647   3.625  12.448 -0.9281  0.6662  0.9914
  152MPD2    C4 2317   0.668   3.488  12.486  0.5168 -0.0840  0.3369
  152MPD2    C5 2318   0.791   3.444  12.501 -0.2123 -0.1590 -0.6878
  152MPD2     H 2319   0.750   3.802  12.399 -1.7584 -0.8558  1.0578
  152MPD2    H1 2320   0.585   3.418  12.488  0.6923 -0.3135 -0.1614
  152MPD2    H2 2321   1.005   3.484  12.504  0.3739  0.1061 -0.3438
  152MPD2    H3 2322   0.800   3.336  12.492 -0.0596  0.1666 -4.6539
  152MPD2     N 2323   0.526   3.687  12.409  0.2685  0.2128  0.6893
  152MPD2    H5 2324   0.533   3.782  12.375  2.3321  0.0632  0.7001
  152MPD2    N1 2325   1.003   3.731  12.443 -0.0796  0.7209 -0.5807
  152MPD2    H7 2326   1.094   3.689  12.426  1.1594  2.3117  2.1708
  153TCq2    C1 2327   1.003   3.872  12.450 -0.1699 -0.4030  0.2841
  153TCq2    O2 2328   0.919   3.937  12.509  0.1646 -0.1660 -0.0061
  153TCq2    C2 2329   1.140   3.931  12.435  0.7474 -0.3295 -0.2859
  153TCq2    C3 2330   1.223   3.870  12.350  0.0919  0.6807  0.5123
  153TCq2    C4 2331   1.356   3.906  12.346  0.3091  0.0586  0.6672
  153TCq2    C5 2332   1.396   4.012  12.425 -0.2483 -0.6602 -0.2737
  153TCq2    C6 2333   1.305   4.074  12.514 -0.1056  0.1889  0.7764
  153TCq2    C7 2334   1.178   4.038  12.512  0.5214  0.1671  0.6045
  153TCq2    C8 2335   1.350   4.193  12.594 -0.2945  0.0649  0.3541
  153TCq2    O4 2336   1.291   4.302  12.588  0.1074  0.5901 -0.4636
  153TCq2    C9 2337   1.445   3.853  12.241  0.3337  0.2479 -0.1564
  153TCq2    O5 2338   1.559   3.900  12.238 -0.1626  0.5255  0.0044
  153TCq2    O6 2339   1.395   3.780  12.157 -0.1752 -0.4779  0.4384
  153TCq2    H2 2340   1.186   3.797  12.280  1.5583  1.5259 -1.1413
  153TCq2    H3 2341   1.493   4.062  12.423 -1.3554  1.5234  0.2285
  153TCq2    H4 2342   1.109   4.098  12.570  0.8665 -0.8488  2.0590
  154MPD2     C 2343   3.294   3.502   0.136 -0.3646 -0.5666  0.0334
  154MPD2    C1 2344   3.215   3.527   0.251  0.6458  1.0041 -0.3966
  154MPD2    C2 2345   3.120   3.631   0.244  0.6630 -0.6926 -0.3540
  154MPD2    C3 2346   3.127   3.714   0.137 -0.2482 -0.5597  1.2823
  154MPD2    C4 2347   3.198   3.685   0.022  0.3726 -0.1672  0.2680
  154MPD2    C5 2348   3.293   3.585   0.033 -0.3083 -0.3159 -0.6654
  154MPD2     H 2349   3.044   3.645   0.321  0.5744  2.2396 -0.9871
  154MPD2    H1 2350   3.187   3.740  17.628  0.6941  0.7299  0.7535
  154MPD2    H2 2351   3.365   3.419   0.130 -0.8371 -0.9658 -0.0036
  154MPD2    H3 2352   3.364   3.577  17.650 -0.3926 -0.2060 -0.7493
  154MPD2     N 2353   3.037   3.821   0.136  0.0159  0.5789  0.5590
  154MPD2    H5 2354   2.978   3.831   0.218 -2.3769  1.7514 -1.2885
  154MPD2    N1 2355   3.220   3.434   0.360 -0.1685  0.1967  0.2538
  154MPD2    H7 2356   3.285   3.356   0.354  0.0663  0.4850 -1.0225
  155TCq2    C1 2357   3.140   3.445   0.470  0.3039 -1.0474  0.0992
  155TCq2    O2 2358   3.055   3.535   0.502  0.2846  0.5915  0.8173
  155TCq2    C2 2359   3.145   3.332   0.561  0.1197  0.2088 -0.2227
  155TCq2    C3 2360   3.130   3.360   0.694 -0.0041 -0.9764  0.9051
  155TCq2    C4 2361   3.120   3.252   0.783  0.5675 -0.4680 -0.0678
  155TCq2    C5 2362   3.118   3.124   0.734  0.9395 -0.4574 -0.6085
  155TCq2    C6 2363   3.127   3.109   0.598 -0.6851  0.7464 -0.3553
  155TCq2    C7 2364   3.149   3.209   0.510  0.5494 -0.0777  0.5922
  155TCq2    C8 2365   3.097   2.977   0.550  0.9735 -0.2110 -0.3627
  155TCq2    O4 2366   3.121   2.888   0.626  0.0042  0.4178 -0.3635
  155TCq2    C9 2367   3.115   3.277   0.915 -0.5312  0.1842  0.3793
  155TCq2    O5 2368   3.079   3.393   0.946 -0.1722 -0.1336 -0.2795
  155TCq2    O6 2369   3.109   3.179   0.997  0.1161 -0.0861 -0.7047
  155TCq2    H2 2370   3.139   3.463   0.728  2.1041 -1.8877  3.0559
  155TCq2    H3 2371   3.101   3.043   0.805  0.2212  0.2634  0.0509
  155TCq2    H4 2372   3.139   3.193   0.403  2.5224  1.6371  0.1567
  156MPD2     C 2373   0.152   1.245  12.532  0.6922 -0.2774  0.1025
  156MPD2    C1 2374   0.171   1.330  12.423  0.1334  0.1116 -0.6047
  156MPD2    C2 2375   0.202   1.459  12.454  0.2547 -0.0507 -0.3060
  156MPD2    C3 2376   0.205   1.507  12.581  0.7541  0.0702  0.3434
  156MPD2    C4 2377   0.171   1.431  12.684 -0.2101  0.4425 -0.4167
  156MPD2    C5 2378   0.137   1.296  12.660 -0.5147  0.3567  0.7642
  156MPD2     H 2379   0.209   1.525  12.368 -1.1096  1.5858  0.8207
  156MPD2    H1 2380   0.170   1.477  12.783 -1.2712 -0.1045 -0.1700
  156MPD2    H2 2381   0.135   1.139  12.514  1.0803 -0.6349  1.8303
  156MPD2    H3 2382   0.132   1.226  12.742  0.7179  0.5425  0.9957
  156MPD2     N 2383   0.266   1.629  12.595 -0.0949 -0.6024 -0.2558
  156MPD2    H5 2384   0.312   1.669  12.513  1.7156 -0.0806  1.0264
  156MPD2    N1 2385   0.182   1.269  12.295  0.7213 -0.3399 -0.1609
  156MPD2    H7 2386   0.183   1.168  12.280  0.9506 -0.1840 -1.2143
  157TCq2    C1 2387   0.233   1.335  12.183  0.4040 -0.0206  0.8351
  157TCq2    O2 2388   0.258   1.452  12.158  0.1947 -0.1162  0.5209
  157TCq2    C2 2389   0.257   1.238  12.073  0.0689  0.4107 -0.6466
  157TCq2    C3 2390   0.271   1.106  12.100 -0.3161  0.5135  0.0101
  157TCq2    C4 2391   0.289   1.020  11.993 -0.1504 -0.1894 -0.6972
  157TCq2    C5 2392   0.271   1.062  11.860  0.5044  0.1023 -0.6127
  157TCq2    C6 2393   0.251   1.197  11.844 -0.1922 -0.2430 -0.8830
  157TCq2    C7 2394   0.241   1.290  11.940  0.0047 -0.2565  0.1777
  157TCq2    C8 2395   0.263   1.254  11.711 -0.6196 -0.1487 -1.0757
  157TCq2    O4 2396   0.240   1.374  11.702 -0.3536  0.0745 -1.0201
  157TCq2    C9 2397   0.316   0.885  12.038 -0.3548 -0.3217  0.2264
  157TCq2    O5 2398   0.352   0.804  11.947 -0.6012 -0.2660  0.0974
  157TCq2    O6 2399   0.311   0.852  12.160  0.4634  0.2422  0.1682
  157TCq2    H2 2400   0.296   1.071  12.200 -0.6263 -1.3921 -0.5907
  157TCq2    H3 2401   0.278   0.989  11.780  1.5083 -1.9189  1.3395
  157TCq2    H4 2402   0.249   1.397  11.928  1.6684 -0.5014 -0.8919
  158TMC2    C1 2403   1.325   0.290  13.425 -0.0835  0.0131 -0.1167
  158TMC2    C2 2404   1.400   0.319  13.311  0.2461 -0.7801 -0.2282
  158TMC2    C3 2405   1.337   0.368  13.199 -0.2997 -0.4963 -0.6834
  158TMC2    C4 2406   1.189   0.273  13.417  0.4513  0.3419 -0.3383
  158TMC2    C5 2407   1.124   0.322  13.300  0.0521  0.3804  0.0870
  158TMC2    C6 2408   1.203   0.368  13.194 -0.0829  0.0565 -0.3228
  158TMC2     C 2409   1.404   0.282  13.551 -0.0028 -0.1040 -0.3921
  158TMC2     O 2410   1.484   0.377  13.564  0.4841 -0.2855  0.8494
  158TMC2     H 2411   1.508   0.326  13.314  0.1292  0.1532  1.7023
  158TMC2    H1 2412   1.130   0.245  13.504  1.1320  0.5025  0.1751
  158TMC2    H2 2413   1.158   0.384  13.097  0.2319 -1.9956 -0.7911
  158TMC2    C7 2414   0.978   0.339  13.278  0.1090  0.3372 -0.2055
  158TMC2    C8 2415   1.411   0.431  13.093 -0.0809 -0.5680 -0.7195
  158TMC2    O1 2416   0.948   0.400  13.177 -0.0493  0.3098 -0.3011
  158TMC2    O2 2417   1.354   0.442  12.986 -0.5695  0.1968 -0.3380
  158TMC2    O5 2418   1.527   0.490  13.126 -0.2602  0.0628 -0.4040
  158TMC2    H5 2419   1.554   0.492  13.220  0.0788  0.2646 -0.5080
  159MPD2     C 2420   1.499   0.131  14.032  0.0596  0.5301  0.3071
  159MPD2    C1 2421   1.388   0.056  13.992  0.4229  0.2540 -0.1122
  159MPD2    C2 2422   1.344   0.081  13.865 -0.4110 -0.2062  0.4705
  159MPD2    C3 2423   1.399   0.178  13.777 -0.2231  0.3750  0.1211
  159MPD2    C4 2424   1.513   0.239  13.818 -0.8588 -0.3963 -0.0632
  159MPD2    C5 2425   1.555   0.224  13.948  0.2016 -1.4933 -0.0529
  159MPD2     H 2426   1.257   0.020  13.841 -0.5913  0.6833 -1.1089
  159MPD2    H1 2427   1.578   0.304  13.761 -0.6056 -3.4204 -3.2499
  159MPD2    H2 2428   1.544   0.113  14.129  2.8443  1.6039 -0.7625
  159MPD2    H3 2429   1.649   0.270  13.973 -0.1540 -0.0232 -1.4139
  159MPD2     N 2430   1.341   0.203  13.647  0.2741  0.4635  0.7620
  159MPD2    H5 2431   1.266   0.140  13.619  1.4875 -0.1401 -1.1660
  159MPD2    N1 2432   1.324   4.688  14.077 -0.0510 -0.9573 -0.2571
  159MPD2    H7 2433   1.252   4.635  14.028 -0.6173  1.0982 -1.6429
  160TMC2    C1 2434   0.649   2.281   1.734 -0.5085 -0.6637  0.5875
  160TMC2    C2 2435   0.607   2.150   1.769 -0.5304 -0.8320  0.3609
  160TMC2    C3 2436   0.655   2.047   1.688  0.1155 -0.1769  0.0595
  160TMC2    C4 2437   0.725   2.305   1.619  0.1456  0.0363 -0.2401
  160TMC2    C5 2438   0.765   2.199   1.535  0.1972  0.2685  0.3163
  160TMC2    C6 2439   0.726   2.071   1.569 -0.5969 -0.4313  0.3727
  160TMC2     C 2440   0.573   2.383   1.806 -0.1796  0.5969 -0.0955
  160TMC2     O 2441   0.520   2.356   1.915  0.1413  0.3241  0.2227
  160TMC2     H 2442   0.554   2.137   1.863  0.1926 -0.5674  0.8096
  160TMC2    H1 2443   0.768   2.405   1.612  0.5042 -0.3225 -3.1435
  160TMC2    H2 2444   0.760   1.981   1.519  1.3870  0.8699 -0.6011
  160TMC2    C7 2445   0.847   2.225   1.422  0.2935  0.5379  0.1217
  160TMC2    C8 2446   0.671   1.920   1.758 -0.6580 -0.2802  0.2285
  160TMC2    O1 2447   0.875   2.137   1.340 -0.1323  0.2689 -0.4788
  160TMC2    O2 2448   0.768   1.850   1.738  0.4559 -0.4978 -0.1297
  160TMC2    O5 2449   0.602   1.917   1.869  0.0259  0.0172  0.5879
  160TMC2    H5 2450   0.513   1.958   1.859 -1.4196 -3.2349  0.1915
  161MPD2     C 2451   0.400   2.603   1.893 -0.2367 -0.4277 -0.4873
  161MPD2    C1 2452   0.470   2.605   1.777  0.4772  0.3269 -0.0467
  161MPD2    C2 2453   0.445   2.704   1.682  0.2271  0.2786  0.3185
  161MPD2    C3 2454   0.368   2.820   1.712 -0.1860 -0.0531  0.0022
  161MPD2    C4 2455   0.316   2.823   1.838  0.2222 -0.2196 -0.0323
  161MPD2    C5 2456   0.330   2.715   1.926 -0.0536 -0.2756 -0.1441
  161MPD2     H 2457   0.493   2.688   1.587 -3.1277  2.3887 -1.7054
  161MPD2    H1 2458   0.261   2.901   1.889  0.6494 -0.5033  0.8490
  161MPD2    H2 2459   0.411   2.534   1.976 -0.6424  2.1333  1.7073
  161MPD2    H3 2460   0.281   2.729   2.022 -1.7331 -0.7526 -0.9171
  161MPD2     N 2461   0.358   2.931   1.630  0.0683  0.0478 -0.5232
  161MPD2    H5 2462   0.287   3.001   1.646 -0.8811 -1.4983  2.0975
  161MPD2    N1 2463   0.565   2.503   1.738  0.5829 -0.8808  0.4369
  161MPD2    H7 2464   0.631   2.511   1.662  1.1215  1.5477  1.1554
  162TMC2    C1 2465   3.834   0.549   1.365 -0.3858 -0.3422  0.9340
  162TMC2    C2 2466   3.764   0.655   1.312  0.7997  0.3467 -0.2743
  162TMC2    C3 2467   3.645   0.688   1.363  0.0183  0.7173 -0.1069
  162TMC2    C4 2468   3.775   0.473   1.465  0.2998  0.7292 -0.0123
  162TMC2    C5 2469   3.655   0.519   1.523  0.2800  0.0964 -0.0280
  162TMC2    C6 2470   3.586   0.625   1.475 -0.1087  0.3544 -0.2072
  162TMC2     C 2471   3.916   0.480   1.268  0.5177 -0.5162  0.4078
  162TMC2     O 2472   3.898   0.491   1.143 -0.2829  0.2800 -0.3301
  162TMC2     H 2473   3.809   0.732   1.250  1.5697 -0.6852 -1.0059
  162TMC2    H1 2474   3.810   0.374   1.491  2.5033  1.6987  0.7709
  162TMC2    H2 2475   3.511   0.675   1.534 -0.5725 -1.5393  0.7983
  162TMC2    C7 2476   3.588   0.442   1.633 -0.1649 -0.5064  0.3583
  162TMC2    C8 2477   3.612   0.828   1.351 -0.0198  0.3835 -0.1896
  162TMC2    O1 2478   3.466   0.460   1.662 -0.8323 -0.0704  0.1241
  162TMC2    O2 2479   3.699   0.918   1.344  0.0846  0.3265  0.4792
  162TMC2    O5 2480   3.483   0.830   1.368 -0.3647  0.1892  0.3508
  162TMC2    H5 2481   3.446   0.742   1.349  0.7356 -0.5196  1.4828
  163MPD2     C 2482   4.283   0.122   1.194  0.0865 -0.9592  0.2974
  163MPD2    C1 2483   4.193   0.170   1.099  0.6383 -0.5210 -0.0827
  163MPD2    C2 2484   4.094   0.261   1.148  0.0229  0.1187 -1.0164
  163MPD2    C3 2485   4.086   0.299   1.287  0.8165 -0.1968  0.3147
  163MPD2    C4 2486   4.165   0.237   1.374  0.2723 -0.4257 -0.0280
  163MPD2    C5 2487   4.268   0.148   1.332  0.0729 -0.1257 -0.0549
  163MPD2     H 2488   4.027   0.314   1.082  0.0643 -0.2302 -1.3421
  163MPD2    H1 2489   4.158   0.258   1.480 -2.2027  0.8041 -0.4219
  163MPD2    H2 2490   4.369   0.061   1.169 -0.5503 -1.2347 -1.1843
  163MPD2    H3 2491   4.340   0.111   1.404  0.4813 -0.7113 -0.7639
  163MPD2     N 2492   3.998   0.393   1.334  0.9451  0.7354  0.1198
  163MPD2    H5 2493   4.008   0.395   1.435 -1.4192 -0.0024  0.3692
  163MPD2    N1 2494   4.204   0.130   0.965  0.1022  0.0656 -0.2555
  163MPD2    H7 2495   4.287   0.075   0.947  0.1589 -0.3616  1.3081
  164TCq2    C1 2496   4.236   0.106  10.927 -0.6163 -0.0241 -0.0559
  164TCq2    O2 2497   4.210   0.141  11.041  0.3531  0.1290  0.4546
  164TCq2    C2 2498   4.201   0.212  10.836 -0.2830  0.7406 -0.1986
  164TCq2    C3 2499   4.251   0.216  10.711 -0.2038 -0.5756 -0.2655
  164TCq2    C4 2500   4.200   0.298  10.620 -0.1197  0.4563  0.0457
  164TCq2    C5 2501   4.105   0.384  10.649  0.3078  1.0573  0.2886
  164TCq2    C6 2502   4.045   0.375  10.772  0.2720  1.3122 -0.5283
  164TCq2    C7 2503   4.092   0.289  10.872 -0.1365  0.1071 -0.2924
  164TCq2    C8 2504   3.947   0.476  10.812 -1.0080  0.2168  0.2678
  164TCq2    O4 2505   3.884   0.534  10.726 -0.5974  0.1795  0.4755
  164TCq2    C9 2506   4.249   0.288  10.484  0.2473 -0.5297 -0.1578
  164TCq2    O5 2507   4.327   0.187  10.462  0.0047 -0.5532 -0.5544
  164TCq2    O6 2508   4.207   0.372  10.404 -0.3450 -0.2853  0.4899
  164TCq2    H2 2509   4.327   0.145  10.679 -1.6297 -1.6885 -1.1904
  164TCq2    H3 2510   4.067   0.451  10.572  1.1522  1.8115  0.5349
  164TCq2    H4 2511   4.032   0.266  10.959 -0.3158 -0.8020 -0.6489
  165MPD2     C 2512   0.244   1.536   2.122 -0.0526  0.4526  0.8044
  165MPD2    C1 2513   0.368   1.543   2.052  0.8261 -0.0219 -0.2636
  165MPD2    C2 2514   0.461   1.644   2.068 -0.5084  0.0687 -0.4427
  165MPD2    C3 2515   0.432   1.747   2.155  0.5441  0.4092 -0.2647
  165MPD2    C4 2516   0.312   1.745   2.220  0.9484  0.0983  0.5793
  165MPD2    C5 2517   0.221   1.641   2.208  0.1991 -0.6390  0.0632
  165MPD2     H 2518   0.557   1.643   2.018 -0.1724 -0.5509  0.2105
  165MPD2    H1 2519   0.291   1.819   2.297 -0.4986  1.1724 -0.8481
  165MPD2    H2 2520   0.192   1.441   2.119 -0.1895  0.5317  0.6593
  165MPD2    H3 2521   0.129   1.635   2.266 -1.3885  0.1987 -2.3538
  165MPD2     N 2522   0.528   1.851   2.173 -0.1653  0.4662  0.4401
  165MPD2    H5 2523   0.619   1.850   2.129 -0.9300  1.6510 -1.1573
  165MPD2    N1 2524   0.395   1.431   1.969  0.0626  0.0081  0.0705
  165MPD2    H7 2525   0.326   1.356   1.971 -1.1344  1.0986 -0.1395
  166TCq2    C1 2526   0.514   1.961   2.258  0.3627 -0.3091 -0.2369
  166TCq2    O2 2527   0.430   1.974   2.346  0.0281 -0.1961  0.7692
  166TCq2    C2 2528   0.626   2.062   2.253 -0.1486 -0.5220  0.2689
  166TCq2    C3 2529   0.641   2.147   2.360 -0.3849 -0.6322  0.5788
  166TCq2    C4 2530   0.746   2.234   2.365  0.3901  0.5370 -0.6378
  166TCq2    C5 2531   0.832   2.237   2.263  0.0370  0.2506 -0.1152
  166TCq2    C6 2532   0.820   2.154   2.156  0.4879 -1.0504  0.4009
  166TCq2    C7 2533   0.707   2.068   2.143 -0.2992  0.4220  0.0959
  166TCq2    C8 2534   0.899   2.189   2.033 -0.2571 -0.1952  0.2801
  166TCq2    O4 2535   0.920   2.110   1.945 -0.2312  0.1831 -0.2551
  166TCq2    C9 2536   0.748   2.340   2.465  0.3182  1.0129  0.3870
  166TCq2    O5 2537   0.689   2.317   2.577  0.3052 -0.3248 -0.0523
  166TCq2    O6 2538   0.833   2.436   2.451  0.5556 -0.0491 -0.3184
  166TCq2    H2 2539   0.574   2.144   2.445  1.4453 -0.0177  2.0395
  166TCq2    H3 2540   0.895   2.326   2.262 -0.2617  0.4651  1.0721
  166TCq2    H4 2541   0.697   1.998   2.060  2.0951  0.4697 -0.2295
  167TMC2    C1 2542   3.556   4.082  12.730 -0.1745  0.2138 -0.6524
  167TMC2    C2 2543   3.494   4.176  12.806 -0.1104  0.0338  0.2612
  167TMC2    C3 2544   3.375   4.233  12.766  0.5410  0.4071  0.4020
  167TMC2    C4 2545   3.489   4.039  12.621 -1.1835 -0.4242 -0.4921
  167TMC2    C5 2546   3.372   4.093  12.588  0.2772  0.8739  0.6004
  167TMC2    C6 2547   3.312   4.195  12.653  0.1301  0.2916  0.3074
  167TMC2     C 2548   3.689   4.143  12.695 -0.6674  0.4812  0.5174
  167TMC2     O 2549   3.777   4.105  12.767 -0.1746  0.5004 -0.0872
  167TMC2     H 2550   3.544   4.213  12.894 -1.5092  0.5620  0.8290
  167TMC2    H1 2551   3.526   3.956  12.562  1.9270  0.4784  0.1683
  167TMC2    H2 2552   3.212   4.229  12.629  1.8486  2.1706 -4.2819
  167TMC2    C7 2553   3.343   4.114  12.449  1.1683  0.4351 -0.4369
  167TMC2    C8 2554   3.307   4.303  12.862 -0.6014 -0.1217 -0.4706
  167TMC2    O1 2555   3.244   4.176  12.416  0.2455  0.1960  0.3522
  167TMC2    O2 2556   3.313   4.274  12.984  0.2514  0.0214 -0.6516
  167TMC2    O5 2557   3.222   4.384  12.795  0.2478  0.1228 -0.5400
  167TMC2    H5 2558   3.263   4.418  12.712  1.5135  2.0259  0.8624
  168MPD2     C 2559   3.924   4.235  12.537 -0.2328 -0.2070 -0.2382
  168MPD2    C1 2560   3.791   4.262  12.501  0.3913  0.7728  0.3003
  168MPD2    C2 2561   3.763   4.335  12.387  0.3291 -0.1896 -0.3124
  168MPD2    C3 2562   3.869   4.372  12.312  0.8573 -0.1193 -0.7268
  168MPD2    C4 2563   4.000   4.344  12.342 -0.0192 -0.0831 -0.3073
  168MPD2    C5 2564   4.027   4.287  12.462 -0.2831 -0.0994 -0.0420
  168MPD2     H 2565   3.663   4.361  12.355  0.1200  0.2762  0.7276
  168MPD2    H1 2566   4.084   4.396  12.298  0.0492 -1.6222 -1.9676
  168MPD2    H2 2567   3.954   4.173  12.620  0.4516 -0.4385 -0.6585
  168MPD2    H3 2568   4.132   4.269  12.482 -0.0197  2.1968  0.6291
  168MPD2     N 2569   3.830   4.453  12.203  0.8917 -0.1875  0.7871
  168MPD2    H5 2570   3.733   4.477  12.185  0.6147  0.5860  3.3197
  168MPD2    N1 2571   3.683   4.217  12.581  0.0308  0.2127 -0.6217
  168MPD2    H7 2572   3.589   4.233  12.546 -0.2326  1.8079  0.8303
  169MPD1     C 2573   1.019   4.019   8.696 -0.2884  0.1196  0.7421
  169MPD1    C1 2574   0.967   4.019   8.824 -0.2175 -0.3491  0.4663
  169MPD1    C2 2575   1.043   4.083   8.925  0.6277 -0.2499 -0.7496
  169MPD1    C3 2576   1.171   4.125   8.900  0.6922 -0.0711 -0.6052
  169MPD1    C4 2577   1.220   4.115   8.773  0.0777 -0.2168 -0.0086
  169MPD1    C5 2578   1.137   4.074   8.669  0.8781 -0.0677 -0.3564
  169MPD1     H 2579   0.998   4.096   9.023  0.4312 -1.2859 -0.6964
  169MPD1    H1 2580   1.322   4.135   8.744  0.1727 -0.3985  0.1968
  169MPD1    H2 2581   0.949   3.980   8.623  2.1482  0.7290 -1.9026
  169MPD1    H3 2582   1.175   4.054   8.570 -1.5194  0.2403 -1.3440
  169MPD1     N 2583   1.235   4.182   9.012 -1.0462 -0.2377  0.4904
  169MPD1    H5 2584   1.186   4.183   9.101  1.0616 -1.8216  1.6736
  169MPD1    N1 2585   0.834   3.978   8.847  0.1860  0.0387  0.1630
  169MPD1    H6 2586   0.803   3.965   8.943  1.1933  2.3987  0.7827
  169MPD1    H7 2587   0.805   3.899   8.789  0.7108  0.3593 -0.5317
  170MPD1     C 2588   4.462   1.570  12.696  0.0311 -0.0401 -0.1018
  170MPD1    C1 2589   4.350   1.613  12.764  0.1367  0.2997 -0.5577
  170MPD1    C2 2590   4.366   1.707  12.866  0.3009 -0.1430 -0.2111
  170MPD1    C3 2591   4.485   1.760  12.892 -0.3630  0.4336 -0.9331
  170MPD1    C4 2592   4.592   1.720  12.818  0.1133  0.2648  0.2143
  170MPD1    C5 2593   4.587   1.622  12.728 -0.1449 -0.1828  0.4298
  170MPD1     H 2594   4.279   1.754  12.910 -0.7223 -1.7177 -0.5534
  170MPD1    H1 2595   4.691   1.759  12.839  0.5758 -0.3920 -0.7880
  170MPD1    H2 2596   4.450   1.497  12.616  0.8731 -0.0515 -0.2116
  170MPD1    H3 2597   4.677   1.593  12.675 -1.1222 -2.3416 -0.0435
  170MPD1     N 2598   4.488   1.853  13.001  0.9005  0.2787  0.5534
  170MPD1    H5 2599   4.400   1.872  13.048 -1.0300 -2.1440 -2.0941
  170MPD1    N1 2600   4.232   1.539  12.750  0.1085  0.0105  0.7409
  170MPD1    H6 2601   4.146   1.584  12.781 -1.2015  0.0956 -3.0704
  170MPD1    H7 2602   4.213   1.500  12.658  1.6360  1.2152 -0.0708
  171MPD1     C 2603   3.198   3.205  15.607  0.0708 -0.1461 -0.0098
  171MPD1    C1 2604   3.249   3.129  15.509  0.3704  0.5113  0.0255
  171MPD1    C2 2605   3.299   3.004  15.544  0.1748  0.3341 -0.7266
  171MPD1    C3 2606   3.300   2.960  15.677 -0.1818  0.6401 -0.9274
  171MPD1    C4 2607   3.266   3.052  15.770  0.1422 -0.0627 -0.0597
  171MPD1    C5 2608   3.212   3.169  15.735  1.1408  0.5070  1.2469
  171MPD1     H 2609   3.340   2.936  15.471 -1.3510  0.0115 -1.2719
  171MPD1    H1 2610   3.274   3.022  15.875  4.2789 -0.5517 -0.4950
  171MPD1    H2 2611   3.141   3.294  15.582 -0.2988 -0.2733  0.3937
  171MPD1    H3 2612   3.174   3.228  15.817  1.4822 -1.9120  3.1311
  171MPD1     N 2613   3.346   2.839  15.722 -0.0272 -0.0426  0.3050
  171MPD1    H5 2614   3.338   2.818  15.821  0.5921 -0.4674  0.2656
  171MPD1    N1 2615   3.210   3.150  15.377 -0.7542 -0.0263  0.0368
  171MPD1    H6 2616   3.185   3.247  15.355  0.3277  0.7680  2.2641
  171MPD1    H7 2617   3.274   3.110  15.310  0.2205 -0.1771  1.0688
  172MPD1     C 2618   3.367   2.483   1.004 -0.7901  0.0748  0.2938
  172MPD1    C1 2619   3.357   2.403   0.896 -0.1952 -0.1476  0.0184
  172MPD1    C2 2620   3.250   2.428   0.807 -0.0697  0.0469 -0.2393
  172MPD1    C3 2621   3.150   2.518   0.847 -0.3167 -0.5502 -0.1564
  172MPD1    C4 2622   3.170   2.600   0.955  0.4154 -0.4268 -0.2869
  172MPD1    C5 2623   3.280   2.584   1.037 -0.3175  1.0927 -0.2384
  172MPD1     H 2624   3.246   2.352   0.730  0.9033 -1.1962  0.9416
  172MPD1    H1 2625   3.104   2.684   0.970  0.9012 -0.2224  0.7352
  172MPD1    H2 2626   3.463   2.479   1.055 -0.0006  1.7850 -1.0587
  172MPD1    H3 2627   3.300   2.654   1.117  0.3253  1.9549 -1.1554
  172MPD1     N 2628   3.026   2.533   0.782 -0.2268  0.1993 -0.5382
  172MPD1    H5 2629   2.955   2.595   0.820  1.3534  0.8695  1.3122
  172MPD1    N1 2630   3.477   2.330   0.864  0.5240  0.1582 -0.3629
  172MPD1    H6 2631   3.463   2.251   0.801  3.3724  0.6953 -1.6600
  172MPD1    H7 2632   3.539   2.305   0.941  0.5723 -0.5132 -0.6185
  173MPD1     C 2633   4.022   2.598  13.545  0.1715  0.0113  0.3840
  173MPD1    C1 2634   4.101   2.585  13.654  0.1581  0.1131  0.2218
  173MPD1    C2 2635   4.068   2.503  13.758  0.0332  0.0493  0.6692
  173MPD1    C3 2636   3.946   2.439  13.761  0.5270 -0.4015  0.0716
  173MPD1    C4 2637   3.854   2.465  13.667 -0.2923  0.1916  0.9908
  173MPD1    C5 2638   3.895   2.539  13.555 -0.4158  0.0061  0.5178
  173MPD1     H 2639   4.134   2.502  13.844  1.1252 -0.5774 -0.1892
  173MPD1    H1 2640   3.751   2.434  13.677 -0.1331  0.1412  2.4713
  173MPD1    H2 2641   4.045   2.663  13.462  0.7211 -0.6739 -0.0038
  173MPD1    H3 2642   3.825   2.560  13.476 -0.3629  2.6167  1.1670
  173MPD1     N 2643   3.928   2.353  13.876 -0.0679  0.7392  0.0669
  173MPD1    H5 2644   4.017   2.329  13.919  0.1720 -0.2420 -0.9476
  173MPD1    N1 2645   4.233   2.628  13.654 -0.4252 -0.1561  0.1409
  173MPD1    H6 2646   4.272   2.666  13.740  0.4872 -0.2720 -0.2207
  173MPD1    H7 2647   4.252   2.709  13.595  0.0883  1.9439  3.1819
  174MPD1     C 2648   4.568   1.908  14.220  0.2656 -0.3304  0.1599
  174MPD1    C1 2649   4.495   1.931  14.334 -0.1325 -0.4569 -0.2138
  174MPD1    C2 2650   4.363   1.976  14.307 -0.3619  0.4053 -0.2259
  174MPD1    C3 2651   4.318   2.020  14.187  0.3709 -0.3810  0.0278
  174MPD1    C4 2652   4.403   2.017  14.076 -0.0132 -0.7924 -0.2138
  174MPD1    C5 2653   4.523   1.953  14.099 -0.1585  0.5091  0.3013
  174MPD1     H 2654   4.301   1.979  14.396 -0.4751  1.0081 -0.3272
  174MPD1    H1 2655   4.375   2.055  13.979  2.1758 -1.5771 -1.1615
  174MPD1    H2 2656   4.659   1.851  14.236 -1.0691 -2.0931  1.4729
  174MPD1    H3 2657   4.589   1.945  14.013 -0.6502  1.4924 -0.1713
  174MPD1     N 2658   4.186   2.077  14.175  0.6307  0.0896  0.2231
  174MPD1    H5 2659   4.172   2.112  14.080  0.0544 -1.1657 -0.1604
  174MPD1    N1 2660   4.533   1.882  14.462 -0.9716  0.0816 -0.6063
  174MPD1    H6 2661   4.633   1.884  14.476 -1.2565 -0.5324  1.5025
  174MPD1    H7 2662   4.486   1.906  14.549 -0.4264  1.5309 -0.7147
  175MPD1     C 2663   2.501   3.284  15.469 -0.0081 -1.0377  0.4611
  175MPD1    C1 2664   2.366   3.272  15.486  0.9199  0.2511 -0.4017
  175MPD1    C2 2665   2.326   3.225  15.612 -0.3823  0.6369 -0.7549
  175MPD1    C3 2666   2.416   3.167  15.704 -0.1646 -0.7199 -0.1896
  175MPD1    C4 2667   2.549   3.181  15.678 -0.3037 -0.4713 -0.5456
  175MPD1    C5 2668   2.589   3.226  15.559  0.0446 -0.4402  0.4039
  175MPD1     H 2669   2.223   3.233  15.646 -0.5765 -0.8236 -0.9862
  175MPD1    H1 2670   2.627   3.150  15.747 -0.0151  0.4910 -0.4397
  175MPD1    H2 2671   2.547   3.323  15.379 -0.7028 -0.3448  0.4012
  175MPD1    H3 2672   2.697   3.224  15.551  0.1835 -0.4465  2.2975
  175MPD1     N 2673   2.383   3.100  15.822  1.0222  0.0208  0.4895
  175MPD1    H5 2674   2.454   3.093  15.894 -0.6433 -1.9785  1.9416
  175MPD1    N1 2675   2.281   3.335  15.387 -0.2001  1.0304 -0.0971
  175MPD1    H6 2676   2.319   3.323  15.293 -4.2007 -0.4296 -1.5478
  175MPD1    H7 2677   2.191   3.287  15.380  1.0044 -1.4768  1.4044
  176MPD1     C 2678   3.835   0.030  17.297 -0.3205  0.2174  0.1786
  176MPD1    C1 2679   3.852   0.114  17.407 -0.8678 -0.6204  0.1061
  176MPD1    C2 2680   3.844   0.245  17.388 -0.0314  0.0350 -0.2878
  176MPD1    C3 2681   3.817   0.298  17.262  0.0319  0.1262  0.4103
  176MPD1    C4 2682   3.786   0.215  17.156  0.5323 -0.4324  0.1326
  176MPD1    C5 2683   3.811   0.081  17.172 -0.2770  0.5820 -0.2999
  176MPD1     H 2684   3.857   0.321  17.463  0.0252 -0.4979  0.2432
  176MPD1    H1 2685   3.746   0.245  17.060  0.2626  0.7511  0.6231
  176MPD1    H2 2686   3.830   4.647  17.310  1.1487  0.3899  2.1793
  176MPD1    H3 2687   3.796   0.007  17.094 -0.0368  0.1806  0.0351
  176MPD1     N 2688   3.781   0.435  17.258  0.0556 -0.6794  0.0217
  176MPD1    H5 2689   3.800   0.489  17.341  0.6249  0.2857 -0.7423
  176MPD1    N1 2690   3.866   0.057  17.533  0.0832  0.2515 -0.1529
  176MPD1    H6 2691   3.899   4.685  17.524  0.5932  0.1457  2.7037
  176MPD1    H7 2692   3.934   0.104  17.593  1.8389  0.0552 -1.9716
  177MPD1     C 2693   2.654   4.647  10.118  0.1633  0.5365 -0.5540
  177MPD1    C1 2694   2.613   4.630   9.990  0.3884 -0.4375  0.1163
  177MPD1    C2 2695   2.484   4.671   9.954  0.3972  0.5784  0.4305
  177MPD1    C3 2696   2.413   0.028  10.044  0.5180  0.3899  0.1707
  177MPD1    C4 2697   2.463   0.057  10.165 -0.4933  0.2621 -0.3920
  177MPD1    C5 2698   2.584   4.721  10.208 -0.3520  0.1107 -0.0145
  177MPD1     H 2699   2.442   4.664   9.854  0.7584 -1.4348  0.4119
  177MPD1    H1 2700   2.406   0.118  10.234 -0.0575  2.0203 -1.5822
  177MPD1    H2 2701   2.749   4.599  10.141  1.3091  1.8707 -2.5944
  177MPD1    H3 2702   2.622   0.014  10.308 -0.2743  0.3172 -0.0800
  177MPD1     N 2703   2.293   0.089   9.997 -0.5035 -0.2362  0.0365
  177MPD1    H5 2704   2.238   0.045   9.924  1.1185 -3.4889  0.7782
  177MPD1    N1 2705   2.696   4.561   9.905  0.1574  0.2645 -0.6005
  177MPD1    H6 2706   2.664   4.553   9.808 -0.5775 -0.8495 -0.2710
  177MPD1    H7 2707   2.796   4.578   9.916  0.2570 -0.8182  0.1817
  178MPD1     C 2708   0.378   1.093   0.256 -0.5121 -0.4874 -0.3936
  178MPD1    C1 2709   0.297   0.988   0.219 -0.2326 -0.2837  0.6494
  178MPD1    C2 2710   0.241   0.996   0.087  1.1472  0.0649 -0.5245
  178MPD1    C3 2711   0.290   1.095   0.001 -0.2218  0.2720  0.2415
  178MPD1    C4 2712   0.378   1.193   0.042 -0.8588 -0.0958  0.0348
  178MPD1    C5 2713   0.410   1.202   0.175  0.1420  0.4150  0.4274
  178MPD1     H 2714   0.168   0.922   0.058  2.2095 -0.9706 -0.5703
  178MPD1    H1 2715   0.414   1.267  17.671 -0.3857 -0.1271  0.2472
  178MPD1    H2 2716   0.422   1.094   0.355 -1.5466 -2.7623  0.0825
  178MPD1    H3 2717   0.483   1.273   0.214  0.3479  0.3620  0.1314
  178MPD1     N 2718   0.266   1.096  17.552  0.5414 -0.5025 -0.7357
  178MPD1    H5 2719   0.315   1.173  17.509  0.6205  0.2415  0.6781
  178MPD1    N1 2720   0.248   0.903   0.319 -0.0922 -0.4527 -0.0007
  178MPD1    H6 2721   0.315   0.880   0.392  0.0600 -1.3335 -0.4161
  178MPD1    H7 2722   0.205   0.816   0.286 -0.5479 -0.0962 -0.3388
  179MPD1     C 2723   4.190   4.349  15.526  1.1307  0.0840 -0.3001
  179MPD1    C1 2724   4.232   4.324  15.660  0.1842  0.4279  0.4582
  179MPD1    C2 2725   4.204   4.197  15.715 -0.5767 -0.1449 -0.1394
  179MPD1    C3 2726   4.154   4.093  15.642 -0.0809  0.1184  0.7138
  179MPD1    C4 2727   4.119   4.116  15.512  0.4506 -0.5793  0.0715
  179MPD1    C5 2728   4.141   4.237  15.457  0.2613 -0.4422 -0.2668
  179MPD1     H 2729   4.242   4.189  15.816 -2.4278  1.8983  0.7249
  179MPD1    H1 2730   4.097   4.036  15.443 -0.6694 -0.2900  0.1034
  179MPD1    H2 2731   4.202   4.440  15.470 -1.0875  3.0395  3.9982
  179MPD1    H3 2732   4.114   4.248  15.353  1.1692 -0.0625 -0.4584
  179MPD1     N 2733   4.114   3.972  15.704 -0.2014 -0.2192 -0.4261
  179MPD1    H5 2734   4.088   3.894  15.644  0.8182 -2.5093  2.0907
  179MPD1    N1 2735   4.275   4.426  15.745  0.4740 -0.1458  0.3537
  179MPD1    H6 2736   4.321   4.507  15.705  0.2368  0.0193  0.4167
  179MPD1    H7 2737   4.343   4.387  15.811 -0.7843 -0.1000  1.6738
  180MPD1     C 2738   3.917   0.880  14.993 -0.1730 -0.3105 -0.3102
  180MPD1    C1 2739   3.994   0.903  14.881 -0.4481 -0.1552 -0.5059
  180MPD1    C2 2740   3.938   0.889  14.753  0.3747 -0.2527 -0.0968
  180MPD1    C3 2741   3.802   0.873  14.748  0.2073  0.2429  0.3638
  180MPD1    C4 2742   3.729   0.860  14.858  0.0065  0.3267 -0.1654
  180MPD1    C5 2743   3.782   0.867  14.981 -0.1227 -0.2115 -0.4291
  180MPD1     H 2744   3.996   0.895  14.662 -0.7674  1.4998 -0.6982
  180MPD1    H1 2745   3.622   0.841  14.856  0.2300 -0.8551 -1.2194
  180MPD1    H2 2746   3.967   0.860  15.087 -1.3452  0.4937  0.4896
  180MPD1    H3 2747   3.718   0.842  15.065  1.7516  0.5642  1.2488
  180MPD1     N 2748   3.749   0.874  14.616  0.3629  0.2274 -0.0558
  180MPD1    H5 2749   3.817   0.886  14.542 -1.3273  1.7072 -1.3575
  180MPD1    N1 2750   4.131   0.905  14.889 -0.2458 -0.2223  0.3291
  180MPD1    H6 2751   4.158   0.962  14.969 -0.6320 -0.2493  0.4780
  180MPD1    H7 2752   4.164   0.949  14.803  0.4715 -2.0006 -0.3035
  181MPD1     C 2753   0.317   3.112   9.029  0.1177 -0.2774 -0.1232
  181MPD1    C1 2754   0.250   3.024   9.109  0.1339  1.0671 -0.9219
  181MPD1    C2 2755   0.327   2.957   9.202  0.7771  0.5647  0.0677
  181MPD1    C3 2756   0.459   2.997   9.233  0.5610 -0.0532  0.1627
  181MPD1    C4 2757   0.512   3.096   9.156 -0.3714 -0.3807  0.0837
  181MPD1    C5 2758   0.442   3.151   9.051 -0.2117 -0.4026 -0.0036
  181MPD1     H 2759   0.288   2.873   9.258  1.3915  0.6907  0.6888
  181MPD1    H1 2760   0.615   3.126   9.167  0.2138 -2.8507  1.3296
  181MPD1    H2 2761   0.265   3.159   8.946 -0.0542  0.1279  0.2104
  181MPD1    H3 2762   0.490   3.222   8.984 -1.3402  0.6335  0.3033
  181MPD1     N 2763   0.536   2.941   9.338  0.4202 -0.0271 -0.3148
  181MPD1    H5 2764   0.628   2.984   9.341  0.4721 -0.2852  1.6778
  181MPD1    N1 2765   0.115   2.983   9.085 -0.2674  0.5004 -0.5779
  181MPD1    H6 2766   0.060   2.950   9.164  0.1409  3.1653  0.8058
  181MPD1    H7 2767   0.065   3.057   9.036 -0.9104  0.7455  0.4377
  182MPD1     C 2768   1.711   1.323   1.987 -0.0833 -0.1438 -0.3301
  182MPD1    C1 2769   1.839   1.353   1.951 -0.3307  0.0095 -0.5990
  182MPD1    C2 2770   1.864   1.436   1.847  0.9905 -0.2957  0.4865
  182MPD1    C3 2771   1.759   1.472   1.759 -0.8019 -0.1119  0.3443
  182MPD1    C4 2772   1.630   1.440   1.794 -0.4390  0.5420 -0.1521
  182MPD1    C5 2773   1.611   1.365   1.909 -0.3768 -0.1072 -0.1815
  182MPD1     H 2774   1.966   1.467   1.825  0.5519 -0.1834 -1.3841
  182MPD1    H1 2775   1.548   1.468   1.729 -0.1292  2.5433  0.3208
  182MPD1    H2 2776   1.695   1.261   2.075 -3.3269  1.9252  0.5115
  182MPD1    H3 2777   1.508   1.339   1.928 -0.5953 -0.4267 -1.8184
  182MPD1     N 2778   1.779   1.538   1.632 -0.8939  0.0252  0.1784
  182MPD1    H5 2779   1.701   1.575   1.579  0.6678 -0.3141 -2.3458
  182MPD1    N1 2780   1.936   1.307   2.039  0.6083  0.0678  0.0794
  182MPD1    H6 2781   1.910   1.229   2.099 -2.4832  1.2870  0.3585
  182MPD1    H7 2782   2.029   1.300   1.999  0.7496 -0.9191  0.5786
  183MPD1     C 2783   1.029   2.083   9.004 -0.8681 -0.2633  0.3928
  183MPD1    C1 2784   0.975   2.157   9.100 -0.2286  0.0363  0.6790
  183MPD1    C2 2785   1.071   2.197   9.197  0.1458 -0.7554 -0.5057
  183MPD1    C3 2786   1.207   2.165   9.200  0.0868  0.4096  0.1989
  183MPD1    C4 2787   1.254   2.074   9.112 -0.2380 -0.1491 -0.3940
  183MPD1    C5 2788   1.161   2.051   9.005 -0.5217  0.0889 -0.1728
  183MPD1     H 2789   1.031   2.258   9.277  0.9001 -0.9700  0.0314
  183MPD1    H1 2790   1.356   2.037   9.105  0.3136  2.1094 -4.2287
  183MPD1    H2 2791   0.969   2.059   8.917 -0.6602  0.2031  0.1235
  183MPD1    H3 2792   1.198   1.984   8.928  1.4865  0.5786  0.3746
  183MPD1     N 2793   1.274   2.226   9.307 -0.2242  0.2629 -0.6548
  183MPD1    H5 2794   1.230   2.294   9.369 -1.0767 -1.8492  1.0407
  183MPD1    N1 2795   0.861   2.229   9.079  0.6340 -0.0821  0.0069
  183MPD1    H6 2796   0.819   2.255   9.168  0.7363  0.4624 -0.1088
  183MPD1    H7 2797   0.794   2.178   9.020 -0.0572 -0.2680  0.9509
  184MPD1     C 2798   1.136   4.517   8.855  0.7384 -0.0045  0.0484
  184MPD1    C1 2799   1.123   4.516   8.992 -0.3179  0.1024  0.9233
  184MPD1    C2 2800   1.185   4.616   9.061 -0.0549  0.6136  0.8786
  184MPD1    C3 2801   1.276   4.705   9.010  0.6129  0.9441  0.0818
  184MPD1    C4 2802   1.283   4.708   8.874  0.5416  0.3667 -0.3928
  184MPD1    C5 2803   1.217   4.610   8.801  0.9267  0.4964 -0.0783
  184MPD1     H 2804   1.166   4.620   9.168 -0.7717  0.2148  0.7654
  184MPD1    H1 2805   1.352   0.044   8.816  0.5604  0.2107 -0.5331
  184MPD1    H2 2806   1.086   4.449   8.787  0.3790 -0.0157  0.3237
  184MPD1    H3 2807   1.221   4.614   8.693 -1.0401 -1.7383 -0.2423
  184MPD1     N 2808   1.361   0.066   9.081  0.4945 -0.5263  0.1101
  184MPD1    H5 2809   1.432   0.109   9.022 -0.1546  0.8260  0.2949
  184MPD1    N1 2810   1.023   4.445   9.056 -0.0980  0.1971  0.0727
  184MPD1    H6 2811   1.000   4.362   9.003 -2.9405  0.8365  0.2896
  184MPD1    H7 2812   1.045   4.406   9.148 -1.7818  0.6110  0.6452
  185MPD1     C 2813   2.187   0.187   8.891  0.2157 -0.1650  0.0682
  185MPD1    C1 2814   2.187   0.263   9.010  0.0035  0.0896 -0.6207
  185MPD1    C2 2815   2.067   0.274   9.079  0.3667 -0.3928 -0.1554
  185MPD1    C3 2816   1.956   0.198   9.050  0.6829  0.1481 -0.4295
  185MPD1    C4 2817   1.956   0.127   8.929 -0.5498 -0.2197  0.3332
  185MPD1    C5 2818   2.075   0.120   8.854 -0.3232  0.0780 -0.0008
  185MPD1     H 2819   2.055   0.344   9.161  0.9602  3.5307 -3.4275
  185MPD1    H1 2820   1.872   0.067   8.895 -0.3713 -0.3979  0.2007
  185MPD1    H2 2821   2.265   0.191   8.816 -1.4246  0.9958 -1.5577
  185MPD1    H3 2822   2.070   0.075   8.756  0.2018 -0.9655  0.4426
  185MPD1     N 2823   1.833   0.205   9.128  0.0428  0.6788 -0.3647
  185MPD1    H5 2824   1.762   0.138   9.098 -0.2324  1.6146 -1.7871
  185MPD1    N1 2825   2.301   0.338   9.043 -0.0517 -0.0231  0.0954
  185MPD1    H6 2826   2.304   0.343   9.144 -0.4033 -1.6058  0.1766
  185MPD1    H7 2827   2.388   0.299   9.007 -0.4102 -0.1007 -0.6921
  186MPD1     C 2828   0.169   3.761  16.018 -0.3951  0.1166  0.8295
  186MPD1    C1 2829   0.095   3.730  16.134  0.9208 -0.2822  0.6770
  186MPD1    C2 2830   0.047   3.839  16.207 -0.6874 -0.2435  0.4502
  186MPD1    C3 2831   0.068   3.964  16.163 -0.0844 -0.0120 -0.1496
  186MPD1    C4 2832   0.141   3.996  16.052 -0.4034  0.2458 -0.0189
  186MPD1    C5 2833   0.187   3.890  15.978 -0.5446  0.8946  0.2497
  186MPD1     H 2834   0.001   3.822  16.304 -2.4564 -0.4712 -0.4351
  186MPD1    H1 2835   0.158   4.096  16.013  2.6487 -0.3540 -0.2484
  186MPD1    H2 2836   0.217   3.684  15.960 -0.9629  0.7484 -0.4743
  186MPD1    H3 2837   0.252   3.909  15.893 -1.2271 -1.5160 -0.8008
  186MPD1     N 2838   0.010   4.083  16.218  0.1248  0.0626  0.2086
  186MPD1    H5 2839   0.025   4.174  16.178  2.1872 -0.0958  0.6397
  186MPD1    N1 2840   0.088   3.598  16.184  0.3349  0.0424  0.5375
  186MPD1    H6 2841   0.096   3.522  16.116  0.0904 -2.7651  3.6264
  186MPD1    H7 2842   4.724   3.584  16.233 -0.1200 -1.8809 -0.8269
  187MPD1     C 2843   4.122   0.947   0.010  0.2018 -0.0591 -0.2407
  187MPD1    C1 2844   4.010   0.919  17.634  0.4522 -0.4246 -0.2761
  187MPD1    C2 2845   3.983   1.001  17.523 -0.5643 -0.2145  0.3829
  187MPD1    C3 2846   4.052   1.131  17.517  0.1903 -0.0177 -0.7382
  187MPD1    C4 2847   4.154   1.165  17.608  0.0967 -0.1142 -0.2986
  187MPD1    C5 2848   4.196   1.066  17.693  0.6864  0.5557  0.5136
  187MPD1     H 2849   3.900   0.971  17.459 -1.0009  1.6418  0.0892
  187MPD1    H1 2850   4.198   1.265  17.609 -0.1896 -0.0043  1.8251
  187MPD1    H2 2851   4.155   0.881   0.089 -0.1417 -1.3993 -1.2228
  187MPD1    H3 2852   4.276   1.081   0.066  1.8869  1.1380 -0.9530
  187MPD1     N 2853   4.008   1.226  17.426 -0.8038 -0.3844  0.3247
  187MPD1    H5 2854   4.033   1.320  17.452 -0.5489  0.1236 -1.7147
  187MPD1    N1 2855   3.956   0.786  17.638  0.2664 -0.1189 -0.0631
  187MPD1    H6 2856   3.960   0.751   0.034  3.1107  1.0234  0.2205
  187MPD1    H7 2857   3.860   0.787  17.604 -0.0774  1.4780  0.9590
  188MPD1     C 2858   2.741   1.905   9.903  0.2548  0.0378 -0.2945
  188MPD1    C1 2859   2.686   1.881   9.780 -0.1070  0.1384 -0.7447
  188MPD1    C2 2860   2.698   1.748   9.732  0.6344 -0.5102 -0.0324
  188MPD1    C3 2861   2.769   1.648   9.793  0.0744 -0.3160 -0.1317
  188MPD1    C4 2862   2.817   1.672   9.919  0.0617 -0.3571 -1.1139
  188MPD1    C5 2863   2.816   1.804   9.961  0.1867 -0.3879  0.1241
  188MPD1     H 2864   2.644   1.724   9.641  1.9236  1.3285 -1.2955
  188MPD1    H1 2865   2.885   1.611   9.977  0.8822 -0.1191 -1.8308
  188MPD1    H2 2866   2.749   2.009   9.930 -0.7393 -0.8322  3.2502
  188MPD1    H3 2867   2.881   1.826  10.045  1.4704  2.4818 -1.6073
  188MPD1     N 2868   2.777   1.515   9.746  0.8835  0.6192 -0.2939
  188MPD1    H5 2869   2.819   1.449   9.811 -0.5598 -1.0724 -1.0810
  188MPD1    N1 2870   2.607   1.977   9.712 -0.4233 -0.1237  0.8127
  188MPD1    H6 2871   2.609   1.955   9.613  1.5326 -0.4570  0.9211
  188MPD1    H7 2872   2.627   2.073   9.737 -1.4172  0.3746 -0.3145
  189MPD1     C 2873   1.118   1.538   0.184 -0.6855 -0.5695 -0.2973
  189MPD1    C1 2874   1.035   1.447   0.122  0.0855 -0.2731 -0.0913
  189MPD1    C2 2875   0.936   1.500   0.039  0.1064  0.4066  0.4509
  189MPD1    C3 2876   0.923   1.634   0.026 -0.6950  0.5120  0.5315
  189MPD1    C4 2877   1.012   1.724   0.087  0.9492  0.0199 -0.0343
  189MPD1    C5 2878   1.106   1.673   0.168  0.5433  0.5562 -0.0307
  189MPD1     H 2879   0.873   1.430  17.685  0.5386  1.6269 -1.6827
  189MPD1    H1 2880   0.993   1.830   0.074 -0.2751 -0.3033 -0.8820
  189MPD1    H2 2881   1.197   1.507   0.252 -1.6145 -0.3625  0.8736
  189MPD1    H3 2882   1.173   1.739   0.223  1.8305 -0.5098 -0.3277
  189MPD1     N 2883   0.808   1.677  17.657  0.4830 -0.2165 -0.0678
  189MPD1    H5 2884   0.746   1.601  17.630  0.3889 -0.6043  1.2575
  189MPD1    N1 2885   1.074   1.312   0.110 -0.3326  0.6114 -0.3565
  189MPD1    H6 2886   0.994   1.251   0.098  0.4026 -0.0701 -1.7620
  189MPD1    H7 2887   1.121   1.274   0.192 -0.2594 -0.3390 -0.8407
  190MPD1     C 2888   3.946   1.106  15.440  0.3036 -0.3168 -0.3486
  190MPD1    C1 2889   3.957   1.082  15.573 -0.5274 -0.6679 -0.5499
  190MPD1    C2 2890   4.014   0.966  15.617 -0.0301 -0.1509  0.1223
  190MPD1    C3 2891   4.047   0.858  15.537 -0.1436 -0.1847  0.8392
  190MPD1    C4 2892   4.022   0.886  15.402  0.0993  0.6560  0.1218
  190MPD1    C5 2893   3.977   1.005  15.352  0.3744 -0.4043  0.9764
  190MPD1     H 2894   4.030   0.949  15.723  1.0682  2.0981  0.3096
  190MPD1    H1 2895   4.051   0.803  15.337  0.2590 -1.0557  2.3744
  190MPD1    H2 2896   3.924   1.207  15.407 -1.4385 -0.0986  1.4629
  190MPD1    H3 2897   3.972   1.024  15.245  0.2590  1.2100  1.2657
  190MPD1     N 2898   4.104   0.739  15.579 -0.7519  0.1238 -0.2109
  190MPD1    H5 2899   4.136   0.736  15.675 -0.9576  1.3139 -0.1113
  190MPD1    N1 2900   3.953   1.191  15.661 -0.1965 -0.0801  0.0007
  190MPD1    H6 2901   3.945   1.164  15.759  0.6078 -0.1371  0.0568
  190MPD1    H7 2902   3.890   1.266  15.635  0.0691 -0.4263 -1.6549
  191MPD1     C 2903   3.786   2.463  10.851  0.6581 -0.3302 -0.1486
  191MPD1    C1 2904   3.858   2.347  10.890 -0.0662  0.4606  0.6449
  191MPD1    C2 2905   3.904   2.345  11.019  0.0001 -0.8046 -0.3517
  191MPD1    C3 2906   3.873   2.450  11.112 -0.5356  0.1070  0.2171
  191MPD1    C4 2907   3.810   2.563  11.067 -0.1236  0.5576  0.4668
  191MPD1    C5 2908   3.774   2.569  10.933 -0.7978  0.3973 -0.2609
  191MPD1     H 2909   3.957   2.258  11.055 -1.3034 -1.7417 -0.6860
  191MPD1    H1 2910   3.775   2.649  11.123 -0.0783  0.3266  0.8503
  191MPD1    H2 2911   3.765   2.476  10.746  0.4491  1.1219  0.0795
  191MPD1    H3 2912   3.723   2.656  10.893 -0.8590  1.3638  1.9184
  191MPD1     N 2913   3.926   2.436  11.247 -0.1065  0.3538  0.2618
  191MPD1    H5 2914   3.946   2.341  11.274  1.4703  0.1662 -1.5214
  191MPD1    N1 2915   3.908   2.256  10.794  0.1854  0.6445 -0.2212
  191MPD1    H6 2916   3.827   2.245  10.733  0.7385  1.9882 -1.1954
  191MPD1    H7 2917   3.917   2.165  10.839  2.3828  1.5412  1.1530
  192MPD1     C 2918   3.624   2.616  12.261  0.4957 -0.2840  0.8444
  192MPD1    C1 2919   3.648   2.726  12.180  0.5669 -0.3108 -0.0885
  192MPD1    C2 2920   3.710   2.693  12.057  0.0747 -0.5254 -0.0574
  192MPD1    C3 2921   3.740   2.563  12.021  1.1660 -0.5690 -0.4153
  192MPD1    C4 2922   3.721   2.459  12.107 -0.2447 -0.0419  0.0328
  192MPD1    C5 2923   3.665   2.490  12.226 -0.6641  0.1707 -0.8956
  192MPD1     H 2924   3.731   2.769  11.983 -0.3884  0.7194  1.0891
  192MPD1    H1 2925   3.757   2.358  12.094  1.5555  0.6084  0.0814
  192MPD1    H2 2926   3.571   2.626  12.355  0.7937  0.4608  0.9310
  192MPD1    H3 2927   3.652   2.414  12.302  0.7622 -0.1026 -0.9274
  192MPD1     N 2928   3.806   2.543  11.901 -0.7632 -0.3542 -0.6891
  192MPD1    H5 2929   3.851   2.453  11.890  0.1438 -0.0295  0.3534
  192MPD1    N1 2930   3.601   2.857  12.207  0.2707  0.5679  0.6793
  192MPD1    H6 2931   3.644   2.936  12.158  1.1594 -0.1186  0.3490
  192MPD1    H7 2932   3.602   2.884  12.305 -2.2355 -2.3885  1.5237
  193MPD1     C 2933   3.213   2.476  16.100 -0.1690 -0.0458 -0.1076
  193MPD1    C1 2934   3.158   2.597  16.115 -0.2216 -0.5078 -0.6899
  193MPD1    C2 2935   3.189   2.664  16.233 -0.8992 -0.3751 -0.1617
  193MPD1    C3 2936   3.259   2.602  16.336  0.2092  0.0303  0.8446
  193MPD1    C4 2937   3.302   2.476  16.323  0.5117 -0.1424 -0.4587
  193MPD1    C5 2938   3.280   2.407  16.206 -0.0841 -0.2039 -0.3226
  193MPD1     H 2939   3.158   2.768  16.243 -1.3310 -0.2822 -2.4951
  193MPD1    H1 2940   3.366   2.439  16.403 -0.4606 -1.4245 -0.2688
  193MPD1    H2 2941   3.217   2.425  16.004  0.0276 -2.1985  1.0569
  193MPD1    H3 2942   3.315   2.308  16.181 -0.6655 -0.2829 -0.8285
  193MPD1     N 2943   3.308   2.673  16.449 -0.3287 -0.2227  0.4732
  193MPD1    H5 2944   3.383   2.634  16.506 -0.2943 -0.0061  0.5774
  193MPD1    N1 2945   3.109   2.664  15.996  0.4291  0.1328 -0.0471
  193MPD1    H6 2946   3.040   2.733  16.023  1.0400 -0.1523  2.1863
  193MPD1    H7 2947   3.083   2.597  15.924 -0.0800  1.0596 -0.7290
  194MPD1     C 2948   0.356   4.315   0.187  0.5095  0.1048 -0.2688
  194MPD1    C1 2949   0.321   4.177   0.170  0.3083  0.2117 -0.0305
  194MPD1    C2 2950   0.341   4.118   0.046  0.2066 -1.1149  0.9071
  194MPD1    C3 2951   0.408   4.177  17.640  0.1476  0.2915 -0.3101
  194MPD1    C4 2952   0.435   4.315  17.654 -0.6028  0.8443  0.0297
  194MPD1    C5 2953   0.403   4.377   0.074 -0.0885  0.7111  0.1106
  194MPD1     H 2954   0.324   4.011   0.039 -1.3032 -0.9895  2.5648
  194MPD1    H1 2955   0.498   4.379  17.593  1.5545  1.0969  2.5124
  194MPD1    H2 2956   0.354   4.382   0.272 -1.8837  0.4303 -0.6023
  194MPD1    H3 2957   0.427   4.482   0.073  0.1203  0.6595 -0.2436
  194MPD1     N 2958   0.434   4.104  17.520 -0.2623  0.2703  0.6578
  194MPD1    H5 2959   0.427   4.005  17.538 -0.8540  0.3397  0.8193
  194MPD1    N1 2960   0.287   4.101   0.286  0.3044  0.5552  0.2493
  194MPD1    H6 2961   0.236   4.152   0.358 -2.3228 -0.5992 -0.7852
  194MPD1    H7 2962   0.230   4.025   0.250  2.0527 -1.2947  1.4016
  195MPD1     C 2963   4.313   1.950   0.529  0.4493 -0.1949  0.2215
  195MPD1    C1 2964   4.298   1.861   0.632 -0.2213 -0.0402  0.2779
  195MPD1    C2 2965   4.245   1.735   0.602 -0.4847 -0.0061  0.3291
  195MPD1    C3 2966   4.233   1.696   0.475 -0.3044 -0.2179  0.4576
  195MPD1    C4 2967   4.275   1.780   0.373 -0.7345  0.0527  0.1170
  195MPD1    C5 2968   4.308   1.913   0.396  0.7530  0.2981 -0.3648
  195MPD1     H 2969   4.205   1.670   0.679 -2.9637  1.6713  0.4501
  195MPD1    H1 2970   4.275   1.754   0.268 -0.4296 -1.1199  0.4129
  195MPD1    H2 2971   4.332   2.054   0.552 -1.6088  0.0174  0.9243
  195MPD1    H3 2972   4.326   1.988   0.319  0.0226  0.5692 -0.2790
  195MPD1     N 2973   4.170   1.574   0.439 -0.9103 -0.3686  0.2278
  195MPD1    H5 2974   4.173   1.557   0.339  2.5928  2.7099 -0.1826
  195MPD1    N1 2975   4.295   1.909   0.766 -0.4038 -0.2599  0.4824
  195MPD1    H6 2976   4.361   1.852   0.818  1.5875  0.9934 -0.6768
  195MPD1    H7 2977   4.341   2.000   0.764  1.9753 -1.4536  0.9785
  196MPD1     C 2978   3.995   0.468   1.866  0.4720  0.0222 -0.5470
  196MPD1    C1 2979   3.987   0.539   1.749  0.1813 -1.1825 -0.1478
  196MPD1    C2 2980   3.886   0.637   1.733  0.1228  0.3479 -0.2301
  196MPD1    C3 2981   3.795   0.661   1.835  0.1694 -0.2484  0.3603
  196MPD1    C4 2982   3.809   0.587   1.950  0.0294 -1.0731  0.1713
  196MPD1    C5 2983   3.903   0.492   1.969  0.4194 -1.1409 -0.2751
  196MPD1     H 2984   3.889   0.686   1.636  0.9039 -1.1457 -0.9672
  196MPD1    H1 2985   3.731   0.601   2.024 -1.2911  0.6653 -1.5351
  196MPD1    H2 2986   4.067   0.388   1.876  1.0549  0.8341  1.6770
  196MPD1    H3 2987   3.920   0.428   2.055  1.4748 -0.9862 -0.3611
  196MPD1     N 2988   3.687   0.750   1.831 -0.2347 -0.3663  0.6059
  196MPD1    H5 2989   3.629   0.764   1.913  0.0676 -0.3399  0.8163
  196MPD1    N1 2990   4.067   0.487   1.641 -0.1160 -0.2262  0.4059
  196MPD1    H6 2991   4.149   0.442   1.681 -1.5503 -1.3721  2.0279
  196MPD1    H7 2992   4.090   0.559   1.573  2.5044 -2.0430 -0.6311
  197MPD1     C 2993   2.303   3.615   0.158  0.1509 -0.2660 -0.4930
  197MPD1    C1 2994   2.210   3.655   0.069 -1.0095 -0.1801  0.1945
  197MPD1    C2 2995   2.252   3.734  17.665 -0.0491 -0.1146  0.0655
  197MPD1    C3 2996   2.387   3.751  17.632 -0.8727 -0.5010  0.1197
  197MPD1    C4 2997   2.485   3.711   0.026  0.3257 -0.0185  0.3678
  197MPD1    C5 2998   2.440   3.645   0.137 -0.3577  0.6946 -0.1339
  197MPD1     H 2999   2.181   3.780  17.597  0.7563  1.6680  0.4435
  197MPD1    H1 3000   2.588   3.740   0.011  0.7310 -1.1646  0.9461
  197MPD1    H2 3001   2.280   3.557   0.247  1.2210  0.0659 -0.0115
  197MPD1    H3 3002   2.511   3.623   0.216  1.7700  0.6786 -2.0238
  197MPD1     N 3003   2.431   3.823  17.522  0.1152 -0.3769  0.0323
  197MPD1    H5 3004   2.528   3.812  17.494 -0.0147  1.3432 -1.1101
  197MPD1    N1 3005   2.074   3.653   0.097  0.0698 -0.2385 -0.5060
  197MPD1    H6 3006   2.053   3.579   0.164 -0.5977  1.9401  1.7052
  197MPD1    H7 3007   2.007   3.625   0.025 -1.2167 -1.2892  1.0752
  198MPD1     C 3008   3.918   1.750  15.461  0.0934 -0.4509  0.0633
  198MPD1    C1 3009   4.025   1.718  15.382  0.9324  0.4226  0.4292
  198MPD1    C2 3010   4.150   1.771  15.418 -0.0615  0.3255  0.1331
  198MPD1    C3 3011   4.170   1.834  15.540  0.2280 -0.0385 -0.1377
  198MPD1    C4 3012   4.059   1.873  15.614 -0.6711  0.1562 -0.6880
  198MPD1    C5 3013   3.932   1.827  15.575  0.1980 -0.0769 -0.0074
  198MPD1     H 3014   4.237   1.760  15.354  0.1808 -1.6123  0.7888
  198MPD1    H1 3015   4.062   1.923  15.710  0.2582  0.6350 -0.9708
  198MPD1    H2 3016   3.820   1.717  15.430  0.0283  0.8147 -1.0503
  198MPD1    H3 3017   3.845   1.828  15.640 -0.6890  0.5102 -1.1910
  198MPD1     N 3018   4.303   1.864  15.577 -0.8212  0.0993 -0.1025
  198MPD1    H5 3019   4.373   1.820  15.518 -1.7144  1.8041 -2.4559
  198MPD1    N1 3020   4.003   1.648  15.264 -0.4221 -0.2500  0.5174
  198MPD1    H6 3021   4.073   1.581  15.234  2.8872  2.8406  1.3502
  198MPD1    H7 3022   3.911   1.603  15.264  0.4031 -1.9380 -0.1647
  199MPD1     C 3023   1.227   2.630   9.845 -0.6086 -0.2959  0.0463
  199MPD1    C1 3024   1.309   2.718   9.907 -0.2209  0.6650 -0.5392
  199MPD1    C2 3025   1.290   2.856   9.888 -0.7010  0.6174 -0.2130
  199MPD1    C3 3026   1.209   2.905   9.785 -0.1735 -0.2469  0.0116
  199MPD1    C4 3027   1.131   2.813   9.718 -0.3099  1.2296  0.1059
  199MPD1    C5 3028   1.140   2.678   9.751 -0.0559  0.0499  0.0753
  199MPD1     H 3029   1.338   2.925   9.957  1.5698 -0.6417 -0.5164
  199MPD1    H1 3030   1.060   2.850   9.645 -1.0860 -1.5077 -0.5460
  199MPD1    H2 3031   1.238   2.524   9.865  3.3372  0.1500  0.1774
  199MPD1    H3 3032   1.065   2.618   9.701  1.2517 -2.0247  0.5765
  199MPD1     N 3033   1.180   3.041   9.768 -0.3562  0.1861 -0.4497
  199MPD1    H5 3034   1.103   3.061   9.705 -2.0545 -1.1060  1.2105
  199MPD1    N1 3035   1.402   2.665  10.006 -0.3764  0.0179 -0.5603
  199MPD1    H6 3036   1.476   2.731  10.027 -0.7305  0.1724  0.2133
  199MPD1    H7 3037   1.450   2.580   9.977  1.1044  0.9459 -0.7869
  200MPD1     C 3038   0.001   2.855  14.426 -0.2161 -0.7040 -0.2329
  200MPD1    C1 3039   0.077   2.758  14.376  0.4193  0.3095 -0.4054
  200MPD1    C2 3040   0.179   2.784  14.287 -0.4090 -0.2037  0.3491
  200MPD1    C3 3041   0.210   2.911  14.246  0.3581 -0.5948 -0.1797
  200MPD1    C4 3042   0.134   3.013  14.301  0.1678 -0.0660  0.3859
  200MPD1    C5 3043   0.035   2.986  14.386 -0.5980 -0.1696  1.0808
  200MPD1     H 3044   0.242   2.700  14.260  1.0859  0.2663  2.3435
  200MPD1    H1 3045   0.159   3.117  14.279 -0.1489  0.2620  1.5997
  200MPD1    H2 3046   4.642   2.834  14.492 -1.9261 -0.1810 -2.2401
  200MPD1    H3 3047   4.712   3.072  14.430 -2.8248 -2.0453  2.3479
  200MPD1     N 3048   0.329   2.930  14.164  0.0538 -0.4311  0.2758
  200MPD1    H5 3049   0.381   2.852  14.126  2.6459  0.4919  1.9178
  200MPD1    N1 3050   0.043   2.620  14.399 -0.6283  0.3625  0.3820
  200MPD1    H6 3051   0.126   2.562  14.399 -0.4631  0.6049 -1.3402
  200MPD1    H7 3052   4.719   2.596  14.486 -2.4818 -2.7597 -1.5225
  201MPD1     C 3053   2.743   2.027  12.606  0.2776  0.6154  0.4455
  201MPD1    C1 3054   2.711   2.080  12.728 -0.4305 -0.0619  0.7114
  201MPD1    C2 3055   2.716   1.983  12.836  0.6755 -0.1966  0.6544
  201MPD1    C3 3056   2.723   1.849  12.818  0.1305  0.5597  0.0807
  201MPD1    C4 3057   2.743   1.800  12.689  0.1233  0.2020 -0.5293
  201MPD1    C5 3058   2.750   1.892  12.584 -0.2278 -0.0978  0.1388
  201MPD1     H 3059   2.704   2.011  12.940  0.2736 -1.8802  1.0642
  201MPD1    H1 3060   2.745   1.695  12.659 -2.5039  0.1284 -0.4255
  201MPD1    H2 3061   2.748   2.096  12.523  1.4357 -0.8749 -0.7291
  201MPD1    H3 3062   2.763   1.862  12.481  0.4022  0.2044  0.1332
  201MPD1     N 3063   2.706   1.754  12.929 -0.4866  0.6951  0.1306
  201MPD1    H5 3064   2.700   1.795  13.022 -1.5733 -0.3303  0.5139
  201MPD1    N1 3065   2.721   2.214  12.762 -0.1672 -0.6156  0.4272
  201MPD1    H6 3066   2.686   2.288  12.701 -0.2936 -1.3584 -0.3929
  201MPD1    H7 3067   2.680   2.238  12.852  0.9857  1.1664  0.4616
  202MPD1     C 3068   2.520   1.528   8.965  0.2924  0.9733 -0.3738
  202MPD1    C1 3069   2.552   1.640   9.048 -0.0079  0.4594 -0.3046
  202MPD1    C2 3070   2.504   1.627   9.177  0.3915  0.2270  0.1392
  202MPD1    C3 3071   2.450   1.511   9.225  0.2570 -0.1310  0.0380
  202MPD1    C4 3072   2.432   1.401   9.145  0.1234 -1.3033 -0.7093
  202MPD1    C5 3073   2.478   1.408   9.018  0.1696  0.2127  0.1036
  202MPD1     H 3074   2.531   1.707   9.245  1.0762 -0.1097  0.2579
  202MPD1    H1 3075   2.388   1.311   9.185 -2.5373 -0.4728 -1.7238
  202MPD1    H2 3076   2.526   1.531   8.857  2.7162 -1.6980 -0.3246
  202MPD1    H3 3077   2.457   1.325   8.951  0.6023 -0.2809  0.5808
  202MPD1     N 3078   2.394   1.501   9.351 -0.1256 -0.6848  0.5498
  202MPD1    H5 3079   2.380   1.406   9.384  4.4330 -1.9233 -1.0461
  202MPD1    N1 3080   2.553   1.762   8.978  0.0256  0.1785  0.0505
  202MPD1    H6 3081   2.569   1.843   9.036  1.7686  0.8061 -1.3146
  202MPD1    H7 3082   2.606   1.774   8.892  0.7087 -1.0236  0.2921
  203MPD1     C 3083   1.490   3.114  12.857 -0.0867 -0.4679  0.4792
  203MPD1    C1 3084   1.393   3.019  12.821  0.5970  0.1390 -0.2689
  203MPD1    C2 3085   1.433   2.907  12.741 -0.5725  0.6704  0.1363
  203MPD1    C3 3086   1.566   2.869  12.739 -0.2440  0.7228  0.2108
  203MPD1    C4 3087   1.659   2.959  12.783 -0.1495  0.3002 -0.4016
  203MPD1    C5 3088   1.619   3.073  12.854 -0.1832  0.1150  0.1971
  203MPD1     H 3089   1.361   2.837  12.699 -0.8246  1.1756 -0.2709
  203MPD1    H1 3090   1.764   2.932  12.787  0.2363  2.0519  1.1779
  203MPD1    H2 3091   1.467   3.212  12.897 -1.2905 -1.1632  1.4946
  203MPD1    H3 3092   1.691   3.148  12.884  0.5251 -1.0669  1.4391
  203MPD1     N 3093   1.587   2.738  12.677  0.1823 -0.7109 -0.8885
  203MPD1    H5 3094   1.503   2.696  12.641 -0.7167  1.1047 -0.9090
  203MPD1    N1 3095   1.257   3.057  12.819 -0.0945  0.2913 -0.3572
  203MPD1    H6 3096   1.202   2.977  12.849 -1.2455  0.8322 -1.0388
  203MPD1    H7 3097   1.238   3.120  12.898  1.4939  0.2436  0.0602
  204MPD1     C 3098   0.810   4.047  17.603  0.1875 -0.1639 -0.3682
  204MPD1    C1 3099   0.824   3.924  17.662 -0.4056 -0.2437  0.3372
  204MPD1    C2 3100   0.891   3.829  17.597  0.0131 -0.2036 -0.2584
  204MPD1    C3 3101   0.940   3.850  17.469 -0.3797  0.2523 -0.0803
  204MPD1    C4 3102   0.926   3.978  17.406  0.2270  0.5772  0.6158
  204MPD1    C5 3103   0.849   4.074  17.477 -0.6113 -0.5039  0.0793
  204MPD1     H 3104   0.902   3.730  17.641  1.0619  0.3098  0.6300
  204MPD1    H1 3105   0.965   4.010  17.311  0.6798 -0.0789  0.5816
  204MPD1    H2 3106   0.773   4.128  17.664 -0.2294 -1.6147  1.3258
  204MPD1    H3 3107   0.820   4.168  17.432  0.3441  0.4145  1.4039
  204MPD1     N 3108   1.002   3.744  17.408  0.1175  0.0895  0.2203
  204MPD1    H5 3109   1.017   3.656  17.457 -1.7626  1.2003  2.8082
  204MPD1    N1 3110   0.797   3.901   0.100  0.2965  0.1098 -0.4483
  204MPD1    H6 3111   0.717   3.953   0.134  0.4999  0.6524 -0.8114
  204MPD1    H7 3112   0.776   3.801   0.103  0.7999 -0.0256 -1.6023
  205MPD1     C 3113   1.524   2.004  16.916  0.0514  0.8994  0.5605
  205MPD1    C1 3114   1.413   2.089  16.926  0.4711 -0.2796 -0.3486
  205MPD1    C2 3115   1.405   2.183  17.025  0.1809  0.3716  0.0716
  205MPD1    C3 3116   1.516   2.197  17.114 -0.2820 -0.6298  0.3211
  205MPD1    C4 3117   1.626   2.120  17.103 -0.3831  0.4443 -0.0016
  205MPD1    C5 3118   1.623   2.023  17.011 -0.3732 -0.0594  0.3833
  205MPD1     H 3119   1.312   2.234  17.046 -0.5419 -0.1717 -1.8436
  205MPD1    H1 3120   1.712   2.134  17.168  2.2606 -1.5513 -3.0700
  205MPD1    H2 3121   1.526   1.915  16.854 -0.4854 -0.7996  2.9378
  205MPD1    H3 3122   1.705   1.952  17.007  0.0931  0.4837  0.3437
  205MPD1     N 3123   1.505   2.281  17.219  0.2989  0.0521 -0.5688
  205MPD1    H5 3124   1.571   2.269  17.296 -0.1541  1.1211 -0.0126
  205MPD1    N1 3125   1.294   2.061  16.856  0.0131  0.0504  0.5825
  205MPD1    H6 3126   1.315   2.027  16.763 -0.4888  0.7675  0.2125
  205MPD1    H7 3127   1.235   2.143  16.845 -0.3624 -0.3899 -0.6317
  206MPD1     C 3128   2.186   0.021  16.325  0.3954  0.4300 -0.0312
  206MPD1    C1 3129   2.181   0.042  16.184 -0.6039  0.1515 -0.6630
  206MPD1    C2 3130   2.063   0.043  16.118  0.0127 -0.3401 -0.2896
  206MPD1    C3 3131   1.945   0.008  16.183 -0.5811  0.1706  0.9568
  206MPD1    C4 3132   1.953   4.700  16.317  0.1118 -0.5269  0.0966
  206MPD1    C5 3133   2.068   4.712  16.385 -0.2910  0.3617  0.0451
  206MPD1     H 3134   2.072   0.067  16.012  1.2380 -1.7896 -0.5157
  206MPD1    H1 3135   1.866   4.677  16.376 -0.8278  1.2367 -0.6113
  206MPD1    H2 3136   2.276   0.025  16.386  1.2254 -1.5217 -1.1451
  206MPD1    H3 3137   2.073   4.686  16.491 -1.0218 -1.8789 -0.4724
  206MPD1     N 3138   1.819   0.019  16.121  0.4099  0.7373  0.1156
  206MPD1    H5 3139   1.743   4.696  16.168 -0.1812  2.3772  0.8329
  206MPD1    N1 3140   2.299   0.100  16.128 -0.4785  0.0819 -0.5932
  206MPD1    H6 3141   2.295   0.083  16.028 -0.0210  0.8754 -0.7470
  206MPD1    H7 3142   2.386   0.058  16.158 -0.9288  1.4926  2.7363
  207MPD1     C 3143   2.986   2.299   9.708  0.1249  0.0394 -0.3774
  207MPD1    C1 3144   3.068   2.227   9.795  0.2055 -0.2029  0.1991
  207MPD1    C2 3145   3.208   2.238   9.783  0.0334 -0.0661 -0.3247
  207MPD1    C3 3146   3.263   2.334   9.699 -0.4283 -0.5510  0.3258
  207MPD1    C4 3147   3.181   2.404   9.615  0.0202  0.8332  0.7038
  207MPD1    C5 3148   3.044   2.384   9.624 -0.0835  0.0472  0.2393
  207MPD1     H 3149   3.271   2.170   9.840  0.5621  0.7639  0.0921
  207MPD1    H1 3150   3.222   2.468   9.537  0.3759 -0.1538  0.0905
  207MPD1    H2 3151   2.877   2.292   9.712  0.1176  0.4737  0.1171
  207MPD1    H3 3152   2.975   2.439   9.560 -0.1522  1.4735  1.5245
  207MPD1     N 3153   3.405   2.360   9.692  0.1937 -0.1749  0.1660
  207MPD1    H5 3154   3.445   2.431   9.631 -0.5474  0.4104  0.3558
  207MPD1    N1 3155   3.012   2.114   9.857  0.2019 -0.6481  0.0212
  207MPD1    H6 3156   3.061   2.082   9.941 -0.6390  0.9955  1.1292
  207MPD1    H7 3157   2.912   2.129   9.870  0.2276 -0.1827 -0.3248
  208MPD1     C 3158   2.409   2.007   0.066  0.3716 -0.3621  0.2984
  208MPD1    C1 3159   2.423   1.946   0.189 -0.2968 -0.1450 -0.2045
  208MPD1    C2 3160   2.312   1.889   0.244 -0.0961  0.6158  0.3421
  208MPD1    C3 3161   2.191   1.876   0.176 -0.3383 -0.2644 -0.2817
  208MPD1    C4 3162   2.184   1.929   0.047 -0.5854 -0.2317  0.6903
  208MPD1    C5 3163   2.289   1.998  17.694 -1.7381 -0.6089  0.6610
  208MPD1     H 3164   2.314   1.851   0.346 -1.2689  1.6571  0.7493
  208MPD1    H1 3165   2.093   1.933  17.688  0.3261  1.1090 -0.6597
  208MPD1    H2 3166   2.493   2.037   0.004 -0.1235 -1.3839 -0.8798
  208MPD1    H3 3167   2.278   2.035  17.593  0.1846  1.0445  1.0689
  208MPD1     N 3168   2.088   1.795   0.235 -0.3697  0.6721  0.1246
  208MPD1    H5 3169   2.125   1.755   0.321 -0.9342  0.0120  0.0596
  208MPD1    N1 3170   2.546   1.941   0.261 -0.1107 -0.2595  0.1682
  208MPD1    H6 3171   2.623   1.967   0.200  0.8175 -1.9264  0.6543
  208MPD1    H7 3172   2.564   1.863   0.323 -0.1741 -0.2290  0.2257
  209MPD1     C 3173   4.472   1.740  11.129 -0.1010  0.2051 -0.3228
  209MPD1    C1 3174   4.493   1.876  11.121  0.0843 -0.4200 -0.4051
  209MPD1    C2 3175   4.516   1.931  10.998 -0.5443  0.3363  0.1597
  209MPD1    C3 3176   4.499   1.852  10.885 -0.4346 -0.1445  0.1493
  209MPD1    C4 3177   4.462   1.718  10.890 -0.1578  0.2208 -0.5967
  209MPD1    C5 3178   4.460   1.662  11.014 -0.2838 -0.7073  0.0088
  209MPD1     H 3179   4.542   2.034  10.977 -1.3983  0.7291  1.0252
  209MPD1    H1 3180   4.440   1.656  10.804  0.7001  0.1375 -0.7614
  209MPD1    H2 3181   4.465   1.687  11.223 -2.2213  0.3733 -0.3829
  209MPD1    H3 3182   4.444   1.556  11.030  1.5614 -1.0184 -0.1407
  209MPD1     N 3183   4.510   1.921  10.765 -0.3861  0.2014 -0.2703
  209MPD1    H5 3184   4.547   2.015  10.768  1.3028 -0.4742 -0.2624
  209MPD1    N1 3185   4.529   1.948  11.233  0.6822 -0.2037  0.3963
  209MPD1    H6 3186   4.510   2.048  11.230 -1.1671 -0.6058 -1.2374
  209MPD1    H7 3187   4.474   1.916  11.313  0.9845 -0.2281  0.5950
  210MPD1     C 3188   0.325   2.571  10.695  0.1440  0.4450  0.7655
  210MPD1    C1 3189   0.273   2.583  10.568 -0.3596 -0.2220 -0.6185
  210MPD1    C2 3190   0.186   2.482  10.528 -0.2270  0.6894  0.2491
  210MPD1    C3 3191   0.138   2.390  10.617 -0.0551  0.4927  0.3683
  210MPD1    C4 3192   0.187   2.391  10.748  0.7076 -0.2671  0.3249
  210MPD1    C5 3193   0.280   2.485  10.785  0.6849  0.3428 -0.2678
  210MPD1     H 3194   0.170   2.478  10.421 -1.4162  0.2474  0.4432
  210MPD1    H1 3195   0.155   2.319  10.823  1.2594 -1.2872 -0.4201
  210MPD1    H2 3196   0.400   2.644  10.722  0.5987 -0.4166  1.8540
  210MPD1    H3 3197   0.320   2.498  10.884  0.6479  1.6679 -0.4211
  210MPD1     N 3198   0.034   2.292  10.581  0.4468  0.0639 -0.1544
  210MPD1    H5 3199   4.714   2.242  10.658 -0.3441 -0.4853 -0.9757
  210MPD1    N1 3200   0.350   2.646  10.470 -0.2888 -0.2318 -0.4525
  210MPD1    H6 3201   0.397   2.731  10.499 -0.7912 -0.2623  0.4370
  210MPD1    H7 3202   0.298   2.673  10.386 -0.5740  3.1488  0.8121
  211MPD1     C 3203   1.846   2.711  17.421  0.1182  0.4703  0.8549
  211MPD1    C1 3204   1.738   2.751  17.356  0.0592 -0.0252  0.2208
  211MPD1    C2 3205   1.727   2.717  17.220 -0.6348  0.1457  0.0755
  211MPD1    C3 3206   1.811   2.622  17.167  0.1610  0.2669  0.5964
  211MPD1    C4 3207   1.914   2.569  17.243  0.2535 -0.4736  0.2311
  211MPD1    C5 3208   1.923   2.617  17.370  0.6212 -0.5152 -0.2350
  211MPD1     H 3209   1.654   2.775  17.165 -0.9997  0.6602  1.1036
  211MPD1    H1 3210   1.975   2.490  17.199  0.8990 -0.6492  1.4477
  211MPD1    H2 3211   1.868   2.747  17.521  1.3999  0.5932  0.5294
  211MPD1    H3 3212   2.000   2.578  17.436 -0.5667 -3.7571 -0.7681
  211MPD1     N 3213   1.779   2.578  17.036  0.0566  0.0073 -1.0409
  211MPD1    H5 3214   1.693   2.612  16.993 -0.8300  2.1938  2.4762
  211MPD1    N1 3215   1.652   2.855  17.411  0.5575 -0.2428 -0.0232
  211MPD1    H6 3216   1.648   2.867  17.512 -0.6203 -1.9337  0.1377
  211MPD1    H7 3217   1.560   2.848  17.368  0.4290  2.2635 -0.1128
  212MPD1     C 3218   1.066   0.099  17.122 -0.1487  0.2241 -0.9887
  212MPD1    C1 3219   0.972   0.160  17.207  0.8335  0.7885 -0.2281
  212MPD1    C2 3220   0.841   0.158  17.162 -0.0466 -0.1637  0.0812
  212MPD1    C3 3221   0.801   0.073  17.062 -0.6647 -0.2288  0.1682
  212MPD1    C4 3222   0.897   0.007  16.985 -0.5601 -0.3768  0.0210
  212MPD1    C5 3223   1.028   0.026  17.012  0.1621  0.3988 -0.6591
  212MPD1     H 3224   0.776   0.228  17.213 -1.6126 -0.9269 -0.8510
  212MPD1    H1 3225   0.870   4.677  16.895  0.2088  1.8770 -1.5674
  212MPD1    H2 3226   1.172   0.093  17.147  0.0072 -0.3959 -1.8015
  212MPD1    H3 3227   1.096   4.691  16.954 -1.1987 -2.1995  0.4264
  212MPD1     N 3228   0.671   0.063  17.016  0.5969  0.2500 -0.5440
  212MPD1    H5 3229   0.654   0.008  16.932 -0.8982 -1.7662  1.0736
  212MPD1    N1 3230   1.017   0.233  17.319  0.0439 -0.2616 -0.0081
  212MPD1    H6 3231   0.956   0.220  17.399 -1.0432  1.0455 -0.6355
  212MPD1    H7 3232   1.103   0.195  17.359 -0.5264 -1.0643  0.4404
  213MPD1     C 3233   3.559   1.060  15.686  0.6606  0.5805 -0.0112
  213MPD1    C1 3234   3.453   0.982  15.658  0.0498  0.6373 -0.4675
  213MPD1    C2 3235   3.378   1.015  15.550 -0.1293 -0.4031  0.3320
  213MPD1    C3 3236   3.408   1.121  15.469  1.0469  0.5193 -0.1959
  213MPD1    C4 3237   3.515   1.195  15.492  0.2114 -0.9329 -0.2447
  213MPD1    C5 3238   3.599   1.161  15.596 -0.3963 -0.3689  0.2219
  213MPD1     H 3239   3.281   0.971  15.532 -0.4880  0.3962  0.3006
  213MPD1    H1 3240   3.547   1.266  15.417 -1.5008  1.6147  1.4320
  213MPD1    H2 3241   3.607   1.059  15.783 -1.9766 -1.5796  1.2762
  213MPD1    H3 3242   3.682   1.226  15.620 -0.9871 -0.3353  2.1392
  213MPD1     N 3243   3.318   1.153  15.360 -0.6179  0.9799  0.0906
  213MPD1    H5 3244   3.249   1.082  15.336  1.4789 -1.1119  0.2938
  213MPD1    N1 3245   3.401   0.915  15.773  0.2550  0.3393  0.6882
  213MPD1    H6 3246   3.319   0.856  15.761 -0.2726  1.3384 -0.6415
  213MPD1    H7 3247   3.467   0.876  15.839 -1.2023 -0.6497  1.5569
  214MPD1     C 3248   2.532   0.942  15.429  0.2878 -0.5565  0.9539
  214MPD1    C1 3249   2.512   0.999  15.301 -0.4256  0.1806  0.1478
  214MPD1    C2 3250   2.631   1.043  15.238 -0.2674 -0.2233  0.0957
  214MPD1    C3 3251   2.755   1.005  15.281 -0.4007  0.4104 -0.0197
  214MPD1    C4 3252   2.768   0.935  15.397  0.5647  0.5786  0.4558
  214MPD1    C5 3253   2.657   0.911  15.477 -0.3721 -0.2624 -0.1525
  214MPD1     H 3254   2.623   1.095  15.144 -3.5193 -0.8896  0.0010
  214MPD1    H1 3255   2.863   0.908  15.441  0.4811 -0.8560 -0.2688
  214MPD1    H2 3256   2.446   0.929  15.492 -1.5999  0.0039 -1.5059
  214MPD1    H3 3257   2.681   0.868  15.574  0.0371  1.7259  0.6257
  214MPD1     N 3258   2.872   1.058  15.224  0.4302 -0.6101  0.7527
  214MPD1    H5 3259   2.958   1.011  15.250  0.4835  0.0146  1.7121
  214MPD1    N1 3260   2.394   1.062  15.272 -0.4439 -0.0398  0.0016
  214MPD1    H6 3261   2.363   1.068  15.175  1.3964 -2.0468 -0.7057
  214MPD1    H7 3262   2.314   1.023  15.320 -1.4145 -0.2702 -1.8197
  215MPD1     C 3263   3.576   1.640   9.786  0.7202 -0.5630 -0.8780
  215MPD1    C1 3264   3.497   1.734   9.849 -0.0946 -0.7542  0.2435
  215MPD1    C2 3265   3.552   1.797   9.956 -0.4670  0.1705 -0.0401
  215MPD1    C3 3266   3.671   1.752  10.015  0.0282  0.6022 -0.3840
  215MPD1    C4 3267   3.733   1.639   9.963 -0.1645  0.0052 -0.3082
  215MPD1    C5 3268   3.687   1.589   9.849 -0.6282  0.2919 -0.2867
  215MPD1     H 3269   3.501   1.884   9.995  1.5581  1.0244  0.6907
  215MPD1    H1 3270   3.826   1.595   9.997  0.0026  0.9029  0.4197
  215MPD1    H2 3271   3.537   1.590   9.698  2.1590 -1.6292 -0.9098
  215MPD1    H3 3272   3.741   1.506   9.805  0.4671  0.4554  0.7543
  215MPD1     N 3273   3.720   1.831  10.115 -0.2648 -0.4735 -0.2823
  215MPD1    H5 3274   3.677   1.923  10.117  1.7048  0.4307  0.5029
  215MPD1    N1 3275   3.379   1.789   9.788  0.5839  0.5620  0.4624
  215MPD1    H6 3276   3.314   1.727   9.741  1.5142 -0.6401  0.7570
  215MPD1    H7 3277   3.325   1.844   9.855 -1.2517 -0.0478 -0.5321
  216MPD1     C 3278   0.123   0.300   0.435  0.5036  0.0614  0.0139
  216MPD1    C1 3279   0.179   0.193   0.506  0.2398  0.7938  0.2509
  216MPD1    C2 3280   0.160   0.069   0.448 -0.8824  0.1020  0.0996
  216MPD1    C3 3281   0.104   0.048   0.324 -0.1343  0.1030 -0.6073
  216MPD1    C4 3282   0.076   0.157   0.251  0.1731  0.1813 -0.4146
  216MPD1    C5 3283   0.083   0.282   0.301 -0.0092  0.1636  0.0327
  216MPD1     H 3284   0.173   4.702   0.506  0.9454  0.5096  0.3417
  216MPD1    H1 3285   0.038   0.157   0.149 -1.9531  1.3392  0.3911
  216MPD1    H2 3286   0.111   0.394   0.487 -2.2426 -0.1365 -0.2566
  216MPD1    H3 3287   0.057   0.370   0.243  0.8509 -1.0263 -2.1671
  216MPD1     N 3288   0.092   4.645   0.272 -0.2488 -0.4548 -0.1486
  216MPD1    H5 3289   0.132   4.578   0.337 -0.9395  0.2467  0.9797
  216MPD1    N1 3290   0.213   0.211   0.636 -0.2013 -0.0968  0.1867
  216MPD1    H6 3291   0.289   0.145   0.656 -1.9164 -1.9485  0.5918
  216MPD1    H7 3292   0.248   0.304   0.657  0.9064 -0.3898 -0.3484
  217MPD1     C 3293   0.881   0.195   9.639 -0.0350  0.1903 -0.0561
  217MPD1    C1 3294   0.764   0.266   9.642 -0.3308  0.2762 -0.0126
  217MPD1    C2 3295   0.750   0.379   9.565  0.0326 -0.5915  0.3723
  217MPD1    C3 3296   0.835   0.408   9.455  0.1674  0.6345  0.0466
  217MPD1    C4 3297   0.947   0.323   9.442 -0.4109  0.0765  0.4446
  217MPD1    C5 3298   0.972   0.222   9.539 -0.2106  0.6668  0.4241
  217MPD1     H 3299   0.666   0.444   9.588  1.4164  1.4207 -0.2541
  217MPD1    H1 3300   1.020   0.343   9.364  0.0717  0.9988  1.1360
  217MPD1    H2 3301   0.896   0.108   9.702  1.1046  0.9059  0.6460
  217MPD1    H3 3302   1.060   0.159   9.535 -1.8442 -1.5267 -0.8811
  217MPD1     N 3303   0.816   0.520   9.372  1.0815  0.4931  0.6126
  217MPD1    H5 3304   0.890   0.538   9.304  2.3412 -2.0142  1.3111
  217MPD1    N1 3305   0.681   0.240   9.752 -0.1095 -0.3669 -0.5201
  217MPD1    H6 3306   0.684   0.144   9.787 -0.6249 -0.6239 -1.1913
  217MPD1    H7 3307   0.591   0.267   9.714  0.6413  3.5965  0.5719
  218MPD1     C 3308   3.385   1.527  11.357 -0.5067  0.5388  0.0197
  218MPD1    C1 3309   3.379   1.665  11.365  0.5718 -0.0261 -0.0381
  218MPD1    C2 3310   3.338   1.721  11.485 -0.2023  0.6360  0.1567
  218MPD1    C3 3311   3.307   1.653  11.600 -0.1059  0.1938 -0.5912
  218MPD1    C4 3312   3.317   1.520  11.597 -0.5051  0.4178  0.9472
  218MPD1    C5 3313   3.353   1.460  11.477 -0.0086  0.4170  0.1529
  218MPD1     H 3314   3.323   1.828  11.495 -2.5511 -0.0753  4.3393
  218MPD1    H1 3315   3.298   1.458  11.683 -1.0418 -1.9842 -0.8798
  218MPD1    H2 3316   3.415   1.477  11.266  0.0870  0.7218  0.1195
  218MPD1    H3 3317   3.365   1.353  11.481 -2.9642  0.0411 -1.1834
  218MPD1     N 3318   3.267   1.723  11.710  0.1994 -0.6727 -0.0203
  218MPD1    H5 3319   3.247   1.821  11.692 -1.2839 -1.1786 -1.0906
  218MPD1    N1 3320   3.406   1.745  11.253  0.3485  0.2420  0.2366
  218MPD1    H6 3321   3.440   1.839  11.273  1.4352 -0.3715  1.2360
  218MPD1    H7 3322   3.481   1.705  11.197 -0.1447 -0.3413 -0.0004
  219MPD1     C 3323   2.512   1.955  11.598  0.2193 -0.0053  0.2699
  219MPD1    C1 3324   2.497   1.859  11.698  0.3267 -0.4411 -0.2280
  219MPD1    C2 3325   2.600   1.830  11.784  0.0895  0.9015 -0.5285
  219MPD1    C3 3326   2.717   1.903  11.771 -0.1417 -0.1914 -0.6583
  219MPD1    C4 3327   2.729   1.997  11.672  0.3781  0.1423  0.5331
  219MPD1    C5 3328   2.626   2.029  11.585  0.0708 -0.0167  0.2260
  219MPD1     H 3329   2.596   1.752  11.859  1.9068  1.4861  0.1894
  219MPD1    H1 3330   2.814   2.062  11.656  0.2825  0.3373  0.8276
  219MPD1    H2 3331   2.428   1.975  11.532  1.8672  1.6483 -1.3251
  219MPD1    H3 3332   2.641   2.091  11.498 -2.7461 -0.4806 -0.5886
  219MPD1     N 3333   2.831   1.891  11.856 -0.0769  0.1150  0.1269
  219MPD1    H5 3334   2.906   1.954  11.828  0.0623  0.2589  0.8052
  219MPD1    N1 3335   2.387   1.767  11.695  0.2979 -0.0795 -0.1358
  219MPD1    H6 3336   2.362   1.729  11.786 -0.2680 -1.7479 -0.9811
  219MPD1    H7 3337   2.303   1.808  11.654  2.8220  2.8575 -2.3443
  220MPD1     C 3338   3.138   3.481   9.843  0.8006 -0.3330 -0.5167
  220MPD1    C1 3339   3.246   3.403   9.801 -0.0548  0.1998  0.6890
  220MPD1    C2 3340   3.236   3.265   9.816 -0.2661  0.6301  0.4308
  220MPD1    C3 3341   3.129   3.207   9.880 -0.8215 -0.5521 -0.9179
  220MPD1    C4 3342   3.022   3.279   9.920 -0.2512 -0.5416  0.0020
  220MPD1    C5 3343   3.039   3.420   9.918  0.2742  0.2881 -0.6058
  220MPD1     H 3344   3.313   3.196   9.782 -0.5662  0.5759 -0.1481
  220MPD1    H1 3345   2.937   3.234   9.970  0.2045  0.3578  1.5801
  220MPD1    H2 3346   3.130   3.585   9.814 -0.5000  0.0697  1.3375
  220MPD1    H3 3347   2.961   3.483   9.959  1.9057  2.2596 -0.5885
  220MPD1     N 3348   3.131   3.066   9.895  0.6543  0.2622 -1.1739
  220MPD1    H5 3349   3.211   3.014   9.860  0.7234 -1.3856  1.3892
  220MPD1    N1 3350   3.350   3.463   9.728  0.0642 -0.4642  0.7396
  220MPD1    H6 3351   3.443   3.421   9.736 -0.0865 -1.2270 -1.7820
  220MPD1    H7 3352   3.356   3.562   9.751  3.1460 -0.3789 -0.3856
  221MPD1     C 3353   0.593   1.833  15.563 -0.0204 -0.0151  0.2354
  221MPD1    C1 3354   0.631   1.949  15.630 -0.4203 -0.2543  0.0272
  221MPD1    C2 3355   0.736   1.955  15.714 -0.0255 -0.0298  0.4052
  221MPD1    C3 3356   0.814   1.845  15.733  0.4714 -0.3598  0.7396
  221MPD1    C4 3357   0.779   1.732  15.657 -0.9063 -0.0698 -0.0136
  221MPD1    C5 3358   0.669   1.726  15.580  0.7040 -0.2122 -0.0352
  221MPD1     H 3359   0.756   2.043  15.774 -1.7103 -0.2766  1.3324
  221MPD1    H1 3360   0.843   1.645  15.658 -2.8313 -1.4337  1.8699
  221MPD1    H2 3361   0.510   1.820  15.494 -0.4443  2.0220  0.3540
  221MPD1    H3 3362   0.631   1.629  15.554 -1.5151  1.1890 -1.9777
  221MPD1     N 3363   0.923   1.835  15.817  0.4093  0.5109  0.0371
  221MPD1    H5 3364   0.958   1.739  15.821 -0.2612  0.1758 -2.5975
  221MPD1    N1 3365   0.551   2.062  15.623 -0.3560  0.4996 -0.8257
  221MPD1    H6 3366   0.506   2.075  15.533 -0.9546 -0.2734 -0.6380
  221MPD1    H7 3367   0.600   2.145  15.657  0.9369  0.1966 -1.9297
  222MPD1     C 3368   1.852   4.631  16.633  0.2561 -0.3187  0.5943
  222MPD1    C1 3369   1.865   0.004  16.734 -0.7074  0.5970 -0.7418
  222MPD1    C2 3370   1.749   0.076  16.764 -0.5282  0.1896  0.4610
  222MPD1    C3 3371   1.630   0.052  16.703 -0.2764 -0.1971 -0.5264
  222MPD1    C4 3372   1.618   4.681  16.610 -0.2734  0.0537 -0.0633
  222MPD1    C5 3373   1.726   4.602  16.581 -0.0982 -0.5942  0.4494
  222MPD1     H 3374   1.759   0.155  16.837  0.3750 -0.8579  1.4679
  222MPD1    H1 3375   1.530   4.659  16.551 -0.4333  3.6621 -1.1461
  222MPD1    H2 3376   1.938   4.579  16.591  0.6807  0.4810  0.4591
  222MPD1    H3 3377   1.717   4.519  16.513  3.8210  0.6416 -1.5401
  222MPD1     N 3378   1.512   0.123  16.729 -0.3714  0.1572  0.3896
  222MPD1    H5 3379   1.440   0.106  16.660 -0.9874  0.3409  0.9890
  222MPD1    N1 3380   1.993   0.040  16.775  0.3328  0.2366  0.2303
  222MPD1    H6 3381   1.979   0.078  16.869  0.6874  3.4975 -1.0382
  222MPD1    H7 3382   2.054   4.683  16.787 -0.2079  0.3367  3.7621
  223MPD1     C 3383   0.633   0.371  16.400  0.0051 -0.5475  0.3326
  223MPD1    C1 3384   0.738   0.455  16.373  0.1696 -0.7073 -0.2933
  223MPD1    C2 3385   0.852   0.427  16.440  0.3554  0.3341 -0.1079
  223MPD1    C3 3386   0.865   0.312  16.527 -0.1382  0.2673 -0.1558
  223MPD1    C4 3387   0.763   0.219  16.534  0.0015 -0.2324  0.6880
  223MPD1    C5 3388   0.647   0.256  16.472 -0.3389  0.2596  0.4268
  223MPD1     H 3389   0.932   0.499  16.444  0.7934 -0.2096  0.7792
  223MPD1    H1 3390   0.766   0.128  16.592  0.7518 -1.5528 -1.4337
  223MPD1    H2 3391   0.532   0.391  16.367  0.5656  1.2301 -0.3261
  223MPD1    H3 3392   0.559   0.193  16.465  0.4598 -0.7129 -0.7821
  223MPD1     N 3393   0.983   0.304  16.604  0.3007 -0.2829  0.2487
  223MPD1    H5 3394   1.060   0.369  16.593  0.1490  0.1305  1.6244
  223MPD1    N1 3395   0.721   0.573  16.297 -0.1512 -0.1288 -0.3040
  223MPD1    H6 3396   0.801   0.603  16.243 -1.0149  1.1214 -0.8601
  223MPD1    H7 3397   0.640   0.568  16.236  0.7156 -1.6344 -1.3253
  224MPD1     C 3398   0.769   1.707   8.713  0.3134 -0.1304  0.0779
  224MPD1    C1 3399   0.697   1.787   8.799  0.2055 -0.6576  0.1452
  224MPD1    C2 3400   0.748   1.818   8.921  0.2177 -0.2938  0.4077
  224MPD1    C3 3401   0.857   1.748   8.967 -0.1231  0.2861  0.2387
  224MPD1    C4 3402   0.926   1.660   8.884 -0.0716  0.1118 -0.6277
  224MPD1    C5 3403   0.879   1.639   8.755  0.1900  0.6346  0.0340
  224MPD1     H 3404   0.688   1.877   8.988  0.0719 -0.3063  0.2868
  224MPD1    H1 3405   1.018   1.615   8.919 -0.6642  0.3744  1.2733
  224MPD1    H2 3406   0.740   1.689   8.611  0.7675 -1.5933  0.1915
  224MPD1    H3 3407   0.925   1.569   8.686 -2.5482 -0.9584 -0.1854
  224MPD1     N 3408   0.909   1.759   9.092 -0.6622  0.1823 -0.2134
  224MPD1    H5 3409   0.984   1.695   9.115 -0.7616  0.0350 -0.3025
  224MPD1    N1 3410   0.579   1.865   8.758  0.1540  0.9947 -0.1441
  224MPD1    H6 3411   0.521   1.810   8.694 -0.8957  2.2440 -0.2789
  224MPD1    H7 3412   0.525   1.884   8.842 -0.6485 -1.0594 -0.1855
  225MPD1     C 3413   3.467   3.021  12.976 -0.5982 -0.0252  0.6264
  225MPD1    C1 3414   3.364   3.117  12.971 -0.3967 -0.6261  0.4563
  225MPD1    C2 3415   3.295   3.143  12.855  0.4279  0.2438  0.0179
  225MPD1    C3 3416   3.341   3.079  12.736  0.2417  0.7974 -0.3024
  225MPD1    C4 3417   3.447   2.994  12.739  0.7605 -0.6322 -0.7965
  225MPD1    C5 3418   3.510   2.965  12.857 -0.4503 -0.2918 -0.1762
  225MPD1     H 3419   3.205   3.203  12.843  1.3908  1.3703 -1.5437
  225MPD1    H1 3420   3.490   2.958  12.646  1.9267 -0.2933 -0.3941
  225MPD1    H2 3421   3.517   3.004  13.071  0.4116  2.7893  0.5861
  225MPD1    H3 3422   3.606   2.914  12.858  0.7899  2.0458 -0.0148
  225MPD1     N 3423   3.283   3.102  12.611  0.1756 -0.2561  0.3751
  225MPD1    H5 3424   3.303   3.041  12.532  0.3022  1.9184 -1.2660
  225MPD1    N1 3425   3.330   3.164  13.096  0.0975 -0.4002 -0.6835
  225MPD1    H6 3426   3.312   3.265  13.094 -0.2096 -0.4735 -1.6200
  225MPD1    H7 3427   3.400   3.143  13.166 -0.4082 -1.5020 -0.4983
  226MPD1     C 3428   1.737   4.140   9.197 -0.0869 -0.0463 -0.1522
  226MPD1    C1 3429   1.785   4.112   9.323  1.0035 -0.1366  0.1961
  226MPD1    C2 3430   1.756   3.988   9.380 -0.0201  0.0218 -0.5272
  226MPD1    C3 3431   1.673   3.906   9.318  0.0392 -0.4034 -0.2410
  226MPD1    C4 3432   1.628   3.926   9.189  0.1013  0.2248 -0.3004
  226MPD1    C5 3433   1.664   4.046   9.129  0.3328 -0.1255 -0.2119
  226MPD1     H 3434   1.786   3.962   9.481 -1.5563  0.7136  0.1181
  226MPD1    H1 3435   1.577   3.853   9.128  0.6744 -0.2353 -0.2351
  226MPD1    H2 3436   1.764   4.226   9.137 -0.2313 -0.1177 -0.3223
  226MPD1    H3 3437   1.630   4.067   9.028  1.9522  0.0720 -0.7175
  226MPD1     N 3438   1.624   3.802   9.392  0.2739 -0.2649  0.0796
  226MPD1    H5 3439   1.662   3.772   9.481 -0.5458  0.9560  0.8478
  226MPD1    N1 3440   1.873   4.206   9.381 -0.0161 -0.2364 -0.4424
  226MPD1    H6 3441   1.868   4.202   9.482 -0.2334  0.7463 -0.4120
  226MPD1    H7 3442   1.861   4.300   9.344 -0.4027 -0.9166 -2.0447
  227MPD1     C 3443   2.078   3.478  10.040 -0.0235 -0.3687  0.7507
  227MPD1    C1 3444   2.070   3.593   9.963  0.4310 -0.7580  0.0415
  227MPD1    C2 3445   1.983   3.583   9.857 -0.1699  0.7430  0.4718
  227MPD1    C3 3446   1.878   3.493   9.854  0.3098 -0.1902  0.3047
  227MPD1    C4 3447   1.869   3.397   9.953 -1.1123  0.5248 -0.4312
  227MPD1    C5 3448   1.969   3.390  10.046 -0.2047 -0.6118 -0.3257
  227MPD1     H 3449   1.983   3.661   9.782 -1.8063 -0.3614 -0.6722
  227MPD1    H1 3450   1.782   3.332   9.956  0.6001 -1.6779  1.9679
  227MPD1    H2 3451   2.154   3.466  10.116  1.4836  0.7565 -0.5943
  227MPD1    H3 3452   1.964   3.308  10.117  1.8254 -1.2231 -0.8966
  227MPD1     N 3453   1.794   3.495   9.743  0.5061  0.1637  0.3042
  227MPD1    H5 3454   1.815   3.563   9.671  1.2825  0.1955  0.5614
  227MPD1    N1 3455   2.180   3.680   9.950 -0.1696 -0.0311  0.0743
  227MPD1    H6 3456   2.134   3.764   9.914  1.1641  0.8639  0.4804
  227MPD1    H7 3457   2.213   3.702  10.044 -2.9085 -0.3477  1.1364
  228MPD1     C 3458   4.602   0.743  13.062 -0.3738 -0.0410  0.9105
  228MPD1    C1 3459   4.534   0.662  13.148 -0.2887 -0.2502  0.7177
  228MPD1    C2 3460   4.402   0.627  13.116 -0.2659  0.1922  0.5566
  228MPD1    C3 3461   4.342   0.656  12.992  0.8702  0.1349 -0.3657
  228MPD1    C4 3462   4.418   0.745  12.908 -0.0405 -0.6830 -0.5198
  228MPD1    C5 3463   4.541   0.779  12.944 -0.4363 -0.1048  0.4025
  228MPD1     H 3464   4.347   0.564  13.185  1.7305 -0.4029  1.5934
  228MPD1    H1 3465   4.384   0.789  12.815  2.6753 -2.0712 -2.1596
  228MPD1    H2 3466   4.693   0.793  13.092  2.6412 -2.8844 -3.4823
  228MPD1    H3 3467   4.593   0.851  12.882  1.0608 -2.3434 -0.9220
  228MPD1     N 3468   4.203   0.624  12.977 -0.0856  0.1708  0.0402
  228MPD1    H5 3469   4.158   0.562  13.043 -0.1505 -0.2742 -0.4282
  228MPD1    N1 3470   4.578   0.645  13.286  0.0461 -0.0825 -0.1415
  228MPD1    H6 3471   4.556   0.556  13.331 -0.5517  1.2035  2.0999
  228MPD1    H7 3472   4.679   0.655  13.296  0.3011  0.5374 -3.2932
  229MPD1     C 3473   4.291   4.521  16.201  0.4693 -0.3686  0.4088
  229MPD1    C1 3474   4.370   4.486  16.093  0.3266 -0.0906 -0.2464
  229MPD1    C2 3475   4.393   4.350  16.064  0.0133  0.1594 -0.0542
  229MPD1    C3 3476   4.338   4.248  16.149 -0.0430 -0.2598 -0.2754
  229MPD1    C4 3477   4.269   4.287  16.258 -0.0857 -0.0646 -0.0571
  229MPD1    C5 3478   4.245   4.418  16.280 -0.3515 -0.1033  0.6064
  229MPD1     H 3479   4.458   4.325  15.981 -1.2444  0.1545 -1.0223
  229MPD1    H1 3480   4.225   4.218  16.329  2.5898 -0.0748  1.5689
  229MPD1    H2 3481   4.259   4.621  16.228  1.8094  0.7448 -2.1416
  229MPD1    H3 3482   4.190   4.447  16.369 -1.8702  0.9866 -0.6768
  229MPD1     N 3483   4.349   4.113  16.113  0.3609 -0.2175  0.2160
  229MPD1    H5 3484   4.309   4.045  16.176  1.6667 -0.9492  0.2583
  229MPD1    N1 3485   4.431   4.591  16.012  0.4261  0.5347 -0.0530
  229MPD1    H6 3486   4.468   4.569  15.920 -1.2166 -0.3636 -0.5018
  229MPD1    H7 3487   4.382   4.680  16.012  0.5659  0.6177  1.6186
  230MPD1     C 3488   4.640   3.517  16.715  0.3320 -0.4335 -0.0071
  230MPD1    C1 3489   4.623   3.653  16.711 -0.3750 -0.3034  0.1439
  230MPD1    C2 3490   4.566   3.709  16.593  0.1985  0.1291 -0.8048
  230MPD1    C3 3491   4.536   3.631  16.485 -0.2886  0.7527 -0.2012
  230MPD1    C4 3492   4.551   3.491  16.496 -0.0923 -0.6818 -0.1951
  230MPD1    C5 3493   4.604   3.438  16.608 -0.3544  0.6636 -1.0165
  230MPD1     H 3494   4.561   3.817  16.584  0.2467  0.0150 -2.2167
  230MPD1    H1 3495   4.510   3.423  16.422  1.1282 -0.4974 -1.0439
  230MPD1    H2 3496   4.682   3.465  16.800  0.7995  1.3090  0.8355
  230MPD1    H3 3497   4.623   3.331  16.616  0.1838  0.8311 -0.0582
  230MPD1     N 3498   4.494   3.692  16.366 -0.8091  0.2720 -0.0079
  230MPD1    H5 3499   4.497   3.793  16.368  2.0851  0.2161 -1.0272
  230MPD1    N1 3500   4.689   3.731  16.811  0.0097  0.2534 -0.2387
  230MPD1    H6 3501   4.689   3.687  16.903 -0.2440 -0.4732 -0.5834
  230MPD1    H7 3502   4.623   3.808  16.822  0.1235  0.1775  1.0106
  231MPD1     C 3503   2.933   1.343  15.549  0.1294 -0.5763 -0.0590
  231MPD1    C1 3504   2.818   1.341  15.480 -0.4636  0.0894 -0.0208
  231MPD1    C2 3505   2.807   1.413  15.360 -0.1258  0.0370  0.7989
  231MPD1    C3 3506   2.908   1.485  15.308 -0.2088  0.8837  0.1880
  231MPD1    C4 3507   3.024   1.500  15.386 -0.1726  0.5264  0.2924
  231MPD1    C5 3508   3.037   1.421  15.502  0.5580  0.3246  0.4957
  231MPD1     H 3509   2.714   1.408  15.303  0.4340 -1.3406  0.0148
  231MPD1    H1 3510   3.108   1.563  15.358 -1.0304  0.9554 -1.3360
  231MPD1    H2 3511   2.937   1.299  15.648  1.4002 -0.4311 -0.0347
  231MPD1    H3 3512   3.128   1.440  15.558  1.4950 -0.4852 -0.7674
  231MPD1     N 3513   2.896   1.555  15.184 -0.3533  0.4430  0.8182
  231MPD1    H5 3514   2.803   1.568  15.147 -0.3424 -0.9524  0.3131
  231MPD1    N1 3515   2.706   1.282  15.526 -0.3745 -0.1552  0.5211
  231MPD1    H6 3516   2.642   1.266  15.449 -0.0496 -1.4674  0.5291
  231MPD1    H7 3517   2.724   1.194  15.575  3.3340  0.8444  0.8960
  232MPD1     C 3518   0.727   2.998   0.659  0.0402 -0.2171 -0.8572
  232MPD1    C1 3519   0.652   2.914   0.727 -0.3532  0.4559  0.0696
  232MPD1    C2 3520   0.531   2.887   0.671 -0.5822  0.1817  0.2377
  232MPD1    C3 3521   0.476   2.959   0.565 -0.5709  0.0215  0.0924
  232MPD1    C4 3522   0.553   3.046   0.495 -0.5879 -0.5668 -0.2979
  232MPD1    C5 3523   0.678   3.069   0.545 -0.2072  0.2021  0.1067
  232MPD1     H 3524   0.463   2.820   0.723  1.1691 -1.8395 -0.0953
  232MPD1    H1 3525   0.520   3.102   0.408  1.4787 -0.2703 -0.8891
  232MPD1    H2 3526   0.828   3.024   0.686 -0.2518 -0.0405  0.0918
  232MPD1    H3 3527   0.747   3.123   0.481  0.1072  0.1679  0.4179
  232MPD1     N 3528   0.336   2.932   0.549  0.3709 -0.2547  0.5974
  232MPD1    H5 3529   0.291   2.874   0.619  2.3941 -1.6129  0.7714
  232MPD1    N1 3530   0.704   2.832   0.825 -0.3162 -0.2027  0.1799
  232MPD1    H6 3531   0.632   2.814   0.894 -0.4787  0.5509  0.2066
  232MPD1    H7 3532   0.784   2.879   0.866  0.1691  0.2184 -1.2425
  233MPD1     C 3533   0.570   1.776   0.680 -0.5584 -0.0352  0.5047
  233MPD1    C1 3534   0.626   1.665   0.736 -0.0885  0.3576 -0.4219
  233MPD1    C2 3535   0.669   1.680   0.869 -0.5454  1.1073  0.3655
  233MPD1    C3 3536   0.656   1.797   0.937  0.3027  0.3078 -0.4002
  233MPD1    C4 3537   0.607   1.907   0.872 -0.7213  0.3479  0.4927
  233MPD1    C5 3538   0.572   1.898   0.741 -0.6970  0.4376  0.1005
  233MPD1     H 3539   0.715   1.594   0.916 -1.3375 -0.2629 -1.3553
  233MPD1    H1 3540   0.588   2.003   0.918 -0.6675  0.1773  0.8757
  233MPD1    H2 3541   0.523   1.781   0.582 -0.4003 -1.1842  0.3647
  233MPD1    H3 3542   0.539   1.986   0.688 -0.2171 -0.1142 -1.1268
  233MPD1     N 3543   0.700   1.810   1.068  0.6864 -0.2562 -0.0242
  233MPD1    H5 3544   0.708   1.905   1.104  0.4381 -0.1829 -0.1656
  233MPD1    N1 3545   0.623   1.542   0.667  0.0556 -0.4375 -0.0284
  233MPD1    H6 3546   0.707   1.492   0.694  1.7400  2.5561  0.2082
  233MPD1    H7 3547   0.629   1.544   0.566 -3.0310 -0.5777 -0.2242
  234MPD1     C 3548   2.380   0.778   9.551  0.3582 -0.1557  0.6863
  234MPD1    C1 3549   2.381   0.912   9.547  0.2018 -0.1241 -0.2679
  234MPD1    C2 3550   2.271   0.978   9.490 -0.2515  0.4440 -0.5037
  234MPD1    C3 3551   2.158   0.909   9.447 -1.0861  0.3559 -0.2764
  234MPD1    C4 3552   2.153   0.774   9.462  0.2701  0.8778 -0.5304
  234MPD1    C5 3553   2.262   0.712   9.522 -0.4221  0.3102 -0.5267
  234MPD1     H 3554   2.286   1.084   9.476 -0.9367  0.5857 -0.1623
  234MPD1    H1 3555   2.069   0.716   9.427  0.6109 -1.1927  2.1803
  234MPD1    H2 3556   2.466   0.715   9.571 -0.5126 -0.7220  2.6675
  234MPD1    H3 3557   2.266   0.606   9.545  2.9075  1.4792  4.1925
  234MPD1     N 3558   2.053   0.988   9.389  0.9441 -0.3754 -0.1201
  234MPD1    H5 3559   2.070   1.088   9.393 -1.0066 -0.0630  0.2812
  234MPD1    N1 3560   2.502   0.979   9.547 -0.6007  0.2709 -0.4182
  234MPD1    H6 3561   2.559   0.936   9.620  1.3901  0.6972 -1.7015
  234MPD1    H7 3562   2.470   1.069   9.580  0.0599  0.4795 -0.3393
  235MPD1     C 3563   3.149   2.684  10.312 -0.0350  0.4801  0.1118
  235MPD1    C1 3564   3.277   2.639  10.347  0.5837 -0.1166  0.7085
  235MPD1    C2 3565   3.384   2.713  10.303 -0.2636  0.1552  0.8429
  235MPD1    C3 3566   3.365   2.831  10.234  0.4663  0.3441 -0.6449
  235MPD1    C4 3567   3.241   2.875  10.213  0.1412  0.0303 -0.3233
  235MPD1    C5 3568   3.135   2.804  10.252  0.7860  0.0180 -0.1940
  235MPD1     H 3569   3.478   2.663  10.323 -1.3595 -1.3569  2.2282
  235MPD1    H1 3570   3.222   2.966  10.156 -0.0198  0.1683 -0.0503
  235MPD1    H2 3571   3.058   2.628  10.331  0.2060  0.6145  1.6863
  235MPD1    H3 3572   3.033   2.829  10.223  0.4925  0.6117  1.3321
  235MPD1     N 3573   3.481   2.898  10.182 -0.0264  0.0416 -0.4785
  235MPD1    H5 3574   3.567   2.856  10.214 -0.4677 -2.8195 -3.0726
  235MPD1    N1 3575   3.285   2.511  10.403  0.0680 -0.2574 -0.3203
  235MPD1    H6 3576   3.213   2.488  10.471 -0.2106 -1.5084 -1.0444
  235MPD1    H7 3577   3.376   2.506  10.449 -0.9264  2.2451  1.9272
  236MPD1     C 3578   3.701   4.532  10.014 -0.5306 -0.3881  0.2945
  236MPD1    C1 3579   3.673   4.414   9.960 -0.0367  0.6518 -0.5684
  236MPD1    C2 3580   3.688   4.300  10.037 -0.1582 -0.4092  0.4184
  236MPD1    C3 3581   3.731   4.303  10.167  0.1903 -0.3552 -0.5707
  236MPD1    C4 3582   3.769   4.430  10.218 -0.4150 -0.3184 -0.1794
  236MPD1    C5 3583   3.756   4.542  10.137  0.5165 -0.2913 -0.4475
  236MPD1     H 3584   3.658   4.203  10.001 -2.3781  0.0985  0.9361
  236MPD1    H1 3585   3.807   4.451  10.317 -0.1035 -0.1473 -0.3349
  236MPD1    H2 3586   3.688   4.617   9.948  0.8300  2.4112  3.6152
  236MPD1    H3 3587   3.775   4.640  10.179 -0.5195 -1.4365  2.7055
  236MPD1     N 3588   3.751   4.185  10.249  0.2603  0.2477 -0.5893
  236MPD1    H5 3589   3.775   4.195  10.347 -0.4462 -1.2185 -0.2530
  236MPD1    N1 3590   3.609   4.397   9.837 -0.9440  0.3214  0.2764
  236MPD1    H6 3591   3.643   4.466   9.770 -1.3736 -0.2345 -0.5272
  236MPD1    H7 3592   3.625   4.303   9.800 -1.9282 -0.7053  2.4353
  237MPD1     C 3593   3.181   2.132  15.572 -0.5448 -0.2510  0.2428
  237MPD1    C1 3594   3.120   2.133  15.695  0.7259  0.1142  0.2886
  237MPD1    C2 3595   2.986   2.170  15.708  0.1739 -0.7641 -0.4319
  237MPD1    C3 3596   2.922   2.222  15.599 -0.0339 -0.3705  0.0003
  237MPD1    C4 3597   2.989   2.243  15.480 -0.0022 -0.7983  0.0794
  237MPD1    C5 3598   3.116   2.194  15.465  0.4860  0.8130 -0.3747
  237MPD1     H 3599   2.942   2.171  15.807  1.2383  1.1082  0.0405
  237MPD1    H1 3600   2.942   2.291  15.395  0.1900 -0.9427 -0.1066
  237MPD1    H2 3601   3.281   2.099  15.548  0.3726  1.9284  1.0496
  237MPD1    H3 3602   3.168   2.218  15.373 -0.1344  0.1056 -0.9121
  237MPD1     N 3603   2.791   2.270  15.605  0.4126  0.1842  0.1314
  237MPD1    H5 3604   2.747   2.311  15.523 -2.2448 -0.4172  1.2454
  237MPD1    N1 3605   3.193   2.074  15.797  0.2269 -0.4894  0.3649
  237MPD1    H6 3606   3.165   2.107  15.889 -1.3194 -0.0670 -0.2556
  237MPD1    H7 3607   3.294   2.069  15.785 -0.1913  1.0657 -3.8231
  238MPD1     C 3608   4.562   1.684  15.200 -0.6265  0.3021 -0.8253
  238MPD1    C1 3609   4.484   1.607  15.278 -0.5595 -0.0793 -0.3287
  238MPD1    C2 3610   4.381   1.527  15.225  0.1355  0.2557 -0.2328
  238MPD1    C3 3611   4.378   1.512  15.086 -0.1820  0.0427  0.6276
  238MPD1    C4 3612   4.463   1.587  15.005 -0.5211 -0.2038  0.3780
  238MPD1    C5 3613   4.553   1.672  15.064  0.1792  0.0797  0.4786
  238MPD1     H 3614   4.328   1.472  15.302 -0.4082  1.0203 -0.0667
  238MPD1    H1 3615   4.452   1.586  14.897 -0.0966 -1.4404  0.3406
  238MPD1    H2 3616   4.624   1.760  15.248  2.3485 -3.2474  0.9130
  238MPD1    H3 3617   4.621   1.727  15.001  0.3884 -0.0482  0.5938
  238MPD1     N 3618   4.280   1.434  15.017 -0.3644 -0.4040 -0.0286
  238MPD1    H5 3619   4.300   1.414  14.920  0.9410 -0.4854  0.2546
  238MPD1    N1 3620   4.477   1.635  15.417 -0.3213  0.0443  0.3177
  238MPD1    H6 3621   4.568   1.663  15.454  0.1532 -1.3801  0.2053
  238MPD1    H7 3622   4.427   1.566  15.472  0.5066 -1.5852 -0.9805
  239MPD1     C 3623   0.070   2.078  14.912  0.0134  0.1066  0.4525
  239MPD1    C1 3624   0.151   2.039  14.807  0.1563 -0.2832  0.9950
  239MPD1    C2 3625   0.117   2.065  14.681  0.0145 -0.1242  0.4914
  239MPD1    C3 3626   0.016   2.151  14.652  0.5198 -0.0605 -0.2733
  239MPD1    C4 3627   4.660   2.202  14.753  0.1382 -0.2614 -0.1713
  239MPD1    C5 3628   4.684   2.155  14.881  0.0884  1.1876 -0.0988
  239MPD1     H 3629   0.177   2.022  14.603 -1.4773 -0.1544 -0.6475
  239MPD1    H1 3630   4.590   2.284  14.744 -1.3318 -1.5126 -0.1709
  239MPD1    H2 3631   0.085   2.041  15.012 -0.0143  0.8843  0.7471
  239MPD1    H3 3632   4.612   2.176  14.959  1.0744 -1.0081  1.4149
  239MPD1     N 3633   4.715   2.198  14.521  0.6823  0.0238  0.8722
  239MPD1    H5 3634   4.636   2.261  14.517 -0.2065 -1.1448 -0.2022
  239MPD1    N1 3635   0.247   1.939  14.830 -0.7668  0.3061 -0.2493
  239MPD1    H6 3636   0.279   1.957  14.925 -0.7053  1.8135 -0.5486
  239MPD1    H7 3637   0.324   1.950  14.764 -3.5876 -0.2249 -3.6519
  240MPD1     C 3638   4.201   1.949  13.702 -0.2662 -0.0550 -0.6280
  240MPD1    C1 3639   4.071   1.980  13.740  0.5068 -0.4050 -1.0196
  240MPD1    C2 3640   4.004   1.898  13.824 -0.3559  0.3140  0.5024
  240MPD1    C3 3641   4.068   1.798  13.897  0.5697 -0.1275  0.4571
  240MPD1    C4 3642   4.197   1.770  13.873  0.2958 -0.1339  1.1187
  240MPD1    C5 3643   4.257   1.839  13.769  0.5531  0.1192  0.4525
  240MPD1     H 3644   3.901   1.922  13.850 -0.9945 -2.1599  0.2412
  240MPD1    H1 3645   4.253   1.702  13.936  1.0540 -2.3189 -1.9308
  240MPD1    H2 3646   4.258   2.001  13.626 -1.4711  0.2245 -1.3429
  240MPD1    H3 3647   4.360   1.811  13.752  0.4250 -0.6999  0.9955
  240MPD1     N 3648   4.003   1.759  14.023 -0.0948 -0.7457 -0.2856
  240MPD1    H5 3649   3.904   1.781  14.034 -0.1965 -1.0470 -0.5925
  240MPD1    N1 3650   4.004   2.082  13.671  0.1167  0.3065  0.2408
  240MPD1    H6 3651   4.066   2.155  13.638 -0.9088  0.1083 -2.1193
  240MPD1    H7 3652   3.928   2.126  13.722 -1.0595 -1.0405 -0.3177
  241MPD1     C 3653   4.302   2.011  14.895 -0.4750 -0.4905 -0.3443
  241MPD1    C1 3654   4.247   1.891  14.923  0.7810 -0.5904 -0.6304
  241MPD1    C2 3655   4.153   1.836  14.832  0.4693 -0.0312  0.0059
  241MPD1    C3 3656   4.147   1.881  14.699 -0.7015 -0.4688 -0.4160
  241MPD1    C4 3657   4.210   2.005  14.670  0.5932 -1.1832  0.3600
  241MPD1    C5 3658   4.287   2.060  14.770 -0.2600  0.0049 -0.3267
  241MPD1     H 3659   4.109   1.742  14.865 -0.0142 -0.0032 -0.5612
  241MPD1    H1 3660   4.193   2.050  14.573  0.5756 -1.2899  0.3137
  241MPD1    H2 3661   4.372   2.067  14.956 -0.6577  0.0331 -0.6163
  241MPD1    H3 3662   4.344   2.146  14.736 -0.0742 -0.7047 -1.8406
  241MPD1     N 3663   4.066   1.827  14.597 -0.1006 -0.2529  0.5215
  241MPD1    H5 3664   4.062   1.877  14.509  0.3379 -2.7499 -0.8965
  241MPD1    N1 3665   4.268   1.845  15.054  0.2996  0.3154 -0.8658
  241MPD1    H6 3666   4.242   1.747  15.054  1.3433  0.0371 -0.7383
  241MPD1    H7 3667   4.357   1.856  15.102  1.5692 -0.3008 -3.0326
  242MPD1     C 3668   3.570   0.702  15.456  0.1648 -0.8892 -0.0646
  242MPD1    C1 3669   3.668   0.762  15.378 -0.2545 -0.2406  0.0342
  242MPD1    C2 3670   3.747   0.677  15.303 -0.2822  0.1514 -0.6290
  242MPD1    C3 3671   3.754   0.542  15.333 -0.1342  0.2282 -0.0690
  242MPD1    C4 3672   3.660   0.490  15.423  0.5530  0.6697 -0.0761
  242MPD1    C5 3673   3.568   0.572  15.473 -0.2900 -1.1566 -0.1260
  242MPD1     H 3674   3.816   0.714  15.228 -0.2653  0.6346 -0.3712
  242MPD1    H1 3675   3.665   0.390  15.463  0.4620 -0.1517 -2.1111
  242MPD1    H2 3676   3.489   0.757  15.504  0.2438  0.1117 -1.0741
  242MPD1    H3 3677   3.499   0.538  15.549 -2.1301  0.6265 -1.0063
  242MPD1     N 3678   3.838   0.445  15.276 -0.0563  0.1115 -0.6996
  242MPD1    H5 3679   3.841   0.358  15.328  2.5073  0.8176  0.3116
  242MPD1    N1 3680   3.661   0.896  15.353 -1.2687 -0.5738  0.3280
  242MPD1    H6 3681   3.743   0.943  15.316 -0.5566 -2.0076  0.0871
  242MPD1    H7 3682   3.622   0.950  15.430 -0.0721 -0.2306  0.6833
  243MPD1     C 3683   0.105   3.263  17.647  0.0644 -0.1469  0.0097
  243MPD1    C1 3684   0.217   3.238   0.027 -0.0338 -1.2063  0.2131
  243MPD1    C2 3685   0.333   3.198  17.653 -0.8062 -0.8030  0.1678
  243MPD1    C3 3686   0.326   3.177  17.513 -0.1510  0.1765 -0.4058
  243MPD1    C4 3687   0.205   3.198  17.444  0.2705 -0.2430  1.5224
  243MPD1    C5 3688   0.095   3.243  17.511  0.0318  0.3599 -0.3642
  243MPD1     H 3689   0.424   3.192   0.011  1.2915 -0.5529 -3.1812
  243MPD1    H1 3690   0.188   3.195  17.337  0.0600  1.4947  1.5061
  243MPD1    H2 3691   0.015   3.291  17.699  0.4693 -0.5547  0.9358
  243MPD1    H3 3692   0.007   3.283  17.462  0.4538  0.3137 -1.1670
  243MPD1     N 3693   0.449   3.140  17.451  0.2937  0.0681  0.2286
  243MPD1    H5 3694   0.532   3.130  17.508 -0.5094  0.5577  1.4881
  243MPD1    N1 3695   0.230   3.284   0.159 -0.7459 -0.8546 -0.5004
  243MPD1    H6 3696   0.142   3.260   0.204 -0.0622 -1.9612  0.2431
  243MPD1    H7 3697   0.301   3.229   0.207  0.3274  0.7971 -0.2159
  244MPD1     C 3698   1.044   2.410  17.549  1.0718  0.7791 -0.5789
  244MPD1    C1 3699   1.071   2.442  17.420  0.0115  0.3455  0.1800
  244MPD1    C2 3700   1.038   2.574  17.388 -0.1195  0.7790 -0.5206
  244MPD1    C3 3701   0.979   2.668  17.478  0.1436 -0.3545  0.1408
  244MPD1    C4 3702   0.938   2.628  17.603  0.0354 -0.1657  0.4926
  244MPD1    C5 3703   0.976   2.496  17.635 -0.2382  0.2160  0.5123
  244MPD1     H 3704   1.066   2.624  17.297 -0.3339 -0.3135 -1.1797
  244MPD1    H1 3705   0.901   2.693  17.682 -2.3919  0.8309 -1.4482
  244MPD1    H2 3706   1.065   2.309  17.584  0.9545  0.6362 -0.9189
  244MPD1    H3 3707   0.958   2.458   0.035 -0.2075 -0.2919  0.3221
  244MPD1     N 3708   0.940   2.792  17.421  0.1423  0.2593 -0.4905
  244MPD1    H5 3709   0.966   2.812  17.325  0.2065  3.9933  0.2920
  244MPD1    N1 3710   1.104   2.347  17.323  0.2838 -0.2672 -0.1383
  244MPD1    H6 3711   1.159   2.388  17.248 -1.2684  0.4699 -0.8634
  244MPD1    H7 3712   1.159   2.273  17.366  2.4913  0.6398 -1.4190
  245MPD1     C 3713   2.433   4.387  12.820  0.6005 -0.0898 -0.2360
  245MPD1    C1 3714   2.561   4.381  12.870  0.5919 -0.6116  0.5530
  245MPD1    C2 3715   2.605   4.461  12.971  0.5974  0.4551  0.0235
  245MPD1    C3 3716   2.518   4.550  13.020 -0.1519 -0.6630 -0.4237
  245MPD1    C4 3717   2.390   4.546  12.983  0.3030 -0.4255  0.6959
  245MPD1    C5 3718   2.346   4.474  12.873  0.3491  0.0316 -0.1792
  245MPD1     H 3719   2.710   4.451  12.995 -0.2501 -3.3118  2.1022
  245MPD1    H1 3720   2.318   4.601  13.043  0.7917  1.3696 -0.3802
  245MPD1    H2 3721   2.404   4.322  12.738 -1.1310 -1.1527  1.2168
  245MPD1    H3 3722   2.245   4.478  12.834  0.4514 -3.1354 -0.7608
  245MPD1     N 3723   2.570   4.629  13.124  0.5400  0.6376 -0.3154
  245MPD1    H5 3724   2.665   4.610  13.156  0.3412  2.1691  1.2205
  245MPD1    N1 3725   2.658   4.304  12.800  0.3823  0.0029 -0.0937
  245MPD1    H6 3726   2.605   4.231  12.752 -2.0631  1.2073  0.7498
  245MPD1    H7 3727   2.699   4.241  12.869 -1.1103 -2.0166 -1.0464
  246MPD1     C 3728   1.867   3.178   9.489  0.1414  0.3178  0.0433
  246MPD1    C1 3729   1.775   3.186   9.391 -0.0533 -0.6519 -1.0627
  246MPD1    C2 3730   1.768   3.294   9.313  0.6061  0.3907  0.4497
  246MPD1    C3 3731   1.860   3.400   9.335 -0.6125 -0.5566 -0.4167
  246MPD1    C4 3732   1.942   3.391   9.444  0.2680 -0.2173  0.1783
  246MPD1    C5 3733   1.958   3.271   9.504  0.2528  1.0186  0.0391
  246MPD1     H 3734   1.698   3.309   9.232  0.9203  0.1535  0.1366
  246MPD1    H1 3735   2.016   3.466   9.469 -1.4414  1.5375 -0.0426
  246MPD1    H2 3736   1.865   3.097   9.561 -6.3021  1.6974  1.4006
  246MPD1    H3 3737   2.010   3.271   9.599  1.5339  0.7918 -0.6684
  246MPD1     N 3738   1.867   3.510   9.248 -0.1439 -0.0155  0.1092
  246MPD1    H5 3739   1.814   3.501   9.162  1.4685  0.5683 -0.9640
  246MPD1    N1 3740   1.670   3.092   9.382  0.6245 -0.4687 -0.3920
  246MPD1    H6 3741   1.625   3.088   9.291  0.0045  0.2397 -0.1149
  246MPD1    H7 3742   1.687   2.997   9.415  1.8662  0.3927  1.4708
  247MPD1     C 3743   1.352   4.394  16.109  0.5834  0.0276 -0.0524
  247MPD1    C1 3744   1.407   4.384  16.232 -0.3270 -0.1444  0.1851
  247MPD1    C2 3745   1.511   4.294  16.250 -0.9253 -0.8224  0.7307
  247MPD1    C3 3746   1.545   4.206  16.145  0.0721  0.3707 -0.4729
  247MPD1    C4 3747   1.476   4.207  16.030 -0.2473 -0.6468 -0.5761
  247MPD1    C5 3748   1.385   4.305  16.013 -0.1053  0.3966 -0.4925
  247MPD1     H 3749   1.572   4.286  16.339 -2.7393  0.7098  2.1075
  247MPD1    H1 3750   1.498   4.140  15.947  1.0527 -0.5844 -0.2761
  247MPD1    H2 3751   1.271   4.461  16.081  0.4880  0.2920  0.8619
  247MPD1    H3 3752   1.337   4.321  15.917 -0.2708  2.3154 -0.1092
  247MPD1     N 3753   1.639   4.097  16.157  0.5602  1.2548 -0.4650
  247MPD1    H5 3754   1.643   4.033  16.078  0.3776  1.4585 -0.6395
  247MPD1    N1 3755   1.378   4.480  16.330 -0.1841  0.2413 -0.1851
  247MPD1    H6 3756   1.408   4.443  16.420  0.0920  2.6649  0.7130
  247MPD1    H7 3757   1.279   4.505  16.332 -0.7340 -1.8550 -0.6193
  248MPD1     C 3758   2.873   2.662   0.217  0.2800  0.2553  0.2011
  248MPD1    C1 3759   2.814   2.784   0.210 -0.2882 -1.1828  0.0916
  248MPD1    C2 3760   2.868   2.884   0.286  0.2297 -0.5687 -0.2869
  248MPD1    C3 3761   2.974   2.860   0.371  0.2684 -0.7160 -0.7784
  248MPD1    C4 3762   3.026   2.733   0.386  0.1793 -0.0594  0.2421
  248MPD1    C5 3763   2.971   2.640   0.305 -0.1864 -0.4149  0.5450
  248MPD1     H 3764   2.839   2.986   0.264  1.2328 -0.6831 -2.0621
  248MPD1    H1 3765   3.102   2.702   0.456 -0.5671 -1.9792  0.2015
  248MPD1    H2 3766   2.851   2.577   0.153 -2.7769  1.2589 -0.0595
  248MPD1    H3 3767   3.022   2.544   0.308 -0.3691 -0.5781 -1.8008
  248MPD1     N 3768   3.018   2.983   0.437  0.0700  0.0410  0.3169
  248MPD1    H5 3769   2.983   3.066   0.391 -1.3103 -0.1334  1.0351
  248MPD1    N1 3770   2.720   2.819   0.115 -0.5314 -0.9132 -0.1215
  248MPD1    H6 3771   2.658   2.741   0.094 -2.5505  1.2197 -2.0996
  248MPD1    H7 3772   2.665   2.903   0.136  0.5385  0.2228 -1.8240
  249MPD1     C 3773   4.425   2.869   9.491 -0.3053 -0.1121  0.3514
  249MPD1    C1 3774   4.408   2.992   9.430  0.3661 -0.8138 -0.5567
  249MPD1    C2 3775   4.485   3.102   9.476 -0.0104  0.2005 -0.4490
  249MPD1    C3 3776   4.555   3.097   9.597  0.3402  0.1145  0.6112
  249MPD1    C4 3777   4.561   2.977   9.662  0.0164 -0.1846  0.3760
  249MPD1    C5 3778   4.492   2.869   9.608 -0.0470 -0.3020 -0.1970
  249MPD1     H 3779   4.496   3.197   9.425 -1.0815  1.3313  1.3986
  249MPD1    H1 3780   4.624   2.975   9.750  0.3474  2.1428  0.1899
  249MPD1    H2 3781   4.386   2.774   9.460  3.3066 -1.7666  0.8095
  249MPD1    H3 3782   4.500   2.773   9.659 -0.6553 -0.4788 -0.4329
  249MPD1     N 3783   4.636   3.212   9.627  0.9188 -0.1054 -0.3489
  249MPD1    H5 3784   4.636   3.282   9.553  1.5469  1.5900  1.2490
  249MPD1    N1 3785   4.334   2.999   9.312 -0.3681  0.5533  0.1766
  249MPD1    H6 3786   4.285   3.087   9.297 -1.4701  0.4936  3.3907
  249MPD1    H7 3787   4.273   2.918   9.305  1.1178 -0.5893  0.6091
  250MPD2     C 3788   0.697   3.578  12.871  0.3054  0.0450  0.8855
  250MPD2    C1 3789   0.772   3.471  12.838  0.1799  0.4433 -0.0989
  250MPD2    C2 3790   0.713   3.344  12.822  0.0203  0.2109  0.2772
  250MPD2    C3 3791   0.579   3.328  12.854 -0.4968 -0.4694  0.5278
  250MPD2    C4 3792   0.497   3.435  12.891  0.1663  0.7708  0.0136
  250MPD2    C5 3793   0.561   3.562  12.884 -0.3149  0.2350 -0.5900
  250MPD2     H 3794   0.782   3.267  12.790 -2.0862 -0.7811 -1.8230
  250MPD2    H1 3795   0.392   3.422  12.913  0.6622 -0.7408  1.4474
  250MPD2    H2 3796   0.746   3.674  12.877 -0.0388  0.3978 -1.7884
  250MPD2    H3 3797   0.508   3.656  12.900  1.1309  0.4484  2.7315
  250MPD2     N 3798   0.510   3.207  12.831 -0.1198 -0.3848 -0.4807
  250MPD2    H5 3799   0.412   3.207  12.859  0.0649  1.4431  0.1368
  250MPD2    N1 3800   0.913   3.489  12.825  0.1283 -1.3360  0.0870
  250MPD2    H7 3801   0.928   3.588  12.812 -1.1421 -0.9637  1.4492
  251TMC3    C1 3802   1.138   3.483  12.786  0.7510  1.3760 -0.4772
  251TMC3    C2 3803   1.110   3.611  12.752  1.0846  0.0308 -0.5971
  251TMC3    C3 3804   1.177   3.716  12.804 -0.2186 -0.2122  0.3747
  251TMC3    C4 3805   1.244   3.451  12.864 -0.2635  0.5230  0.2987
  251TMC3    C5 3806   1.321   3.559  12.908  0.1856 -0.4921 -0.0532
  251TMC3    C6 3807   1.277   3.688  12.887  0.9921  0.3504  0.1795
  251TMC3     C 3808   1.017   3.407  12.817  0.6380 -0.1856 -0.2479
  251TMC3     O 3809   1.025   3.284  12.812  0.5736  0.4672  0.3543
  251TMC3     H 3810   1.034   3.637  12.679  1.5203  2.1527 -0.2822
  251TMC3    H1 3811   1.265   3.347  12.885  0.6926  0.2373 -2.1037
  251TMC3    H2 3812   1.335   3.771  12.925 -1.0430  1.4215  0.9100
  251TMC3    C7 3813   1.422   3.522  13.012 -0.4774 -0.5831 -0.8996
  251TMC3    C8 3814   1.085   3.821  12.833  0.0298  0.0801  0.5931
  251TMC3    O1 3815   1.463   3.407  13.017 -0.1072  0.1129 -0.5460
  251TMC3    O2 3816   0.973   3.776  12.853 -0.1596  0.2725  0.0479
  252TMC3    C1 3817   1.401   4.301   9.125  0.1955  0.0658  0.1892
  252TMC3    C2 3818   1.475   4.419   9.122  0.6821 -0.1076 -0.8973
  252TMC3    C3 3819   1.482   4.485   9.238 -0.0688 -0.1184 -0.2158
  252TMC3    C4 3820   1.361   4.241   9.242  0.5140  1.1193 -0.0496
  252TMC3    C5 3821   1.386   4.316   9.356 -0.4388  0.1377 -0.0597
  252TMC3    C6 3822   1.431   4.445   9.358  0.1805  0.5080 -0.5222
  252TMC3     C 3823   1.362   4.246   9.000 -0.4025 -0.7597 -0.2028
  252TMC3     O 3824   1.429   4.283   8.905  0.5462 -0.4288 -0.4730
  252TMC3     H 3825   1.513   4.470   9.035 -0.4956  0.9005 -0.8222
  252TMC3    H1 3826   1.319   4.142   9.256  2.5208  0.2431 -0.2104
  252TMC3    H2 3827   1.447   4.511   9.443  0.2466 -2.0651  1.4926
  252TMC3    C7 3828   1.459   4.256   9.456  0.3481 -0.3601 -0.3508
  252TMC3    C8 3829   1.610   4.550   9.239 -0.8246  0.3776  0.3697
  252TMC3    O1 3830   1.564   4.310   9.497  0.4375 -0.3547 -0.5955
  252TMC3    O2 3831   1.645   4.626   9.149 -0.0258 -0.3618  0.1050
  253MPD2     C 3832   1.514   2.365  15.150  0.5225 -0.0932  0.3118
  253MPD2    C1 3833   1.511   2.502  15.147 -0.5691 -1.1575  0.5203
  253MPD2    C2 3834   1.613   2.574  15.199 -0.1704 -0.5216  0.0055
  253MPD2    C3 3835   1.729   2.515  15.252  0.6780 -0.0964  0.1477
  253MPD2    C4 3836   1.739   2.380  15.248  1.1003 -0.0946  0.1481
  253MPD2    C5 3837   1.631   2.313  15.192 -0.5725 -0.9528  0.3107
  253MPD2     H 3838   1.591   2.678  15.215  0.6870 -0.5605  1.4891
  253MPD2    H1 3839   1.826   2.326  15.283  0.2819 -0.7400  1.1504
  253MPD2    H2 3840   1.439   2.304  15.102  0.8105 -1.1814  1.2423
  253MPD2    H3 3841   1.634   2.205  15.181 -0.4461 -1.0275  1.0729
  253MPD2     N 3842   1.837   2.588  15.306 -0.1486  0.2296  0.8225
  253MPD2    H5 3843   1.916   2.540  15.349 -0.7201 -1.4269  0.0176
  253MPD2    N1 3844   1.406   2.572  15.092  0.5693 -0.4144 -0.4127
  253MPD2    H7 3845   1.411   2.673  15.095 -1.1008 -0.3089 -1.4332
  254TMC3    C1 3846   1.971   2.774  15.363 -0.2626  0.0771 -0.4399
  254TMC3    C2 3847   2.003   2.908  15.333 -0.2781  0.3941  0.9311
  254TMC3    C3 3848   2.090   2.970  15.415  0.1801 -0.3520 -0.1953
  254TMC3    C4 3849   2.029   2.702  15.468  0.1978  0.0092 -0.2006
  254TMC3    C5 3850   2.116   2.779  15.544  0.3431 -0.0977 -0.1261
  254TMC3    C6 3851   2.140   2.913  15.525 -0.1474 -0.5808  0.0435
  254TMC3     C 3852   1.851   2.720  15.298 -0.0523  0.1213  0.2285
  254TMC3     O 3853   1.778   2.799  15.233  0.2147 -0.4147 -0.0858
  254TMC3     H 3854   1.955   2.964  15.254  1.3914 -0.1733 -0.4873
  254TMC3    H1 3855   2.008   2.600  15.497 -0.8947  0.4322  0.4954
  254TMC3    H2 3856   2.215   2.971  15.578 -0.3056  0.5448 -0.9606
  254TMC3    C7 3857   2.176   2.725  15.663  0.2438 -0.1848  0.7268
  254TMC3    C8 3858   2.039   3.109  15.436 -0.5794 -0.2992  0.2115
  254TMC3    O1 3859   2.111   2.636  15.719  0.2561  0.6270 -0.0800
  254TMC3    O2 3860   2.029   3.187  15.343  0.3598 -0.4973 -0.5957
  255MPD2     C 3861   0.562   0.397  10.380 -0.6091  0.4510  0.2459
  255MPD2    C1 3862   0.624   0.515  10.369  0.1433 -0.0445  0.3267
  255MPD2    C2 3863   0.741   0.536  10.428 -0.8930  0.4993  0.6916
  255MPD2    C3 3864   0.797   0.444  10.521 -0.3370 -0.6756 -0.2458
  255MPD2    C4 3865   0.734   0.321  10.537 -0.2005 -0.7056 -0.7184
  255MPD2    C5 3866   0.613   0.306  10.472  0.3933  0.4747  0.2305
  255MPD2     H 3867   0.785   0.634  10.414 -0.2573 -0.2146 -2.2717
  255MPD2    H1 3868   0.760   0.236  10.599 -0.3952 -1.1589 -1.2514
  255MPD2    H2 3869   0.464   0.378  10.338 -0.1972 -2.2424  0.4770
  255MPD2    H3 3870   0.565   0.209  10.482 -1.9031  1.4258 -1.5807
  255MPD2     N 3871   0.920   0.476  10.590 -0.2042  0.1912 -0.2320
  255MPD2    H5 3872   0.974   0.558  10.562 -0.0042  0.5433  1.1973
  255MPD2    N1 3873   0.561   0.613  10.290 -0.0416 -0.0668 -0.3467
  255MPD2    H7 3874   0.488   0.577  10.229  0.8479 -2.6985  0.1549
  256TMC3    C1 3875   0.496   0.793  10.169  0.6551 -0.2673  0.0222
  256TMC3    C2 3876   0.450   0.916  10.171  0.0908  0.7036  0.4116
  256TMC3    C3 3877   0.365   0.951  10.069 -0.4455 -0.3628 -0.2189
  256TMC3    C4 3878   0.451   0.705  10.075  0.6044 -0.1641  0.5839
  256TMC3    C5 3879   0.354   0.738   9.987  0.8707  0.4781 -0.5380
  256TMC3    C6 3880   0.309   0.868   9.975 -0.9383 -0.1033  0.6864
  256TMC3     C 3881   0.595   0.745  10.267  0.2764 -0.0048 -0.7134
  256TMC3     O 3882   0.669   0.826  10.324  0.1393  0.3632 -0.1200
  256TMC3     H 3883   0.481   0.993  10.242  1.8575 -0.8310  1.2883
  256TMC3    H1 3884   0.507   0.613  10.065  1.4801  0.3691  0.5181
  256TMC3    H2 3885   0.241   0.897   9.896 -0.4163  2.8401  1.3142
  256TMC3    C7 3886   0.323   0.645   9.877 -0.5056 -0.4319 -0.6057
  256TMC3    C8 3887   0.309   1.091  10.090  0.3641  0.5084 -0.3830
  256TMC3    O1 3888   0.412   0.566   9.845  0.0268 -0.0879  0.3963
  256TMC3    O2 3889   0.308   1.142  10.203 -0.1766 -0.0106 -0.2772
  257MPD2     C 3890   4.128   2.635  12.985 -0.3288  0.1300  0.4160
  257MPD2    C1 3891   4.217   2.567  12.909 -0.0610  0.6507  0.0288
  257MPD2    C2 3892   4.277   2.456  12.951 -0.7010 -0.0303 -0.2736
  257MPD2    C3 3893   4.263   2.420  13.078  0.1885  0.0369 -0.2744
  257MPD2    C4 3894   4.180   2.484  13.160  0.2786  0.5546 -0.4989
  257MPD2    C5 3895   4.102   2.588  13.112 -0.0475  0.7016 -0.1353
  257MPD2     H 3896   4.335   2.399  12.879  0.5230  1.0832 -0.1739
  257MPD2    H1 3897   4.164   2.457  13.263  2.7602  0.2911 -0.1752
  257MPD2    H2 3898   4.067   2.718  12.950 -0.6915 -0.3243 -0.0274
  257MPD2    H3 3899   4.023   2.622  13.179 -2.4832 -0.7307 -2.2674
  257MPD2     N 3900   4.334   2.304  13.120  0.0429 -0.9279  0.4746
  257MPD2    H5 3901   4.390   2.261  13.047 -0.0342  0.7636 -0.5714
  257MPD2    N1 3902   4.237   2.597  12.775 -0.6909 -0.4444  0.8969
  257MPD2    H7 3903   4.280   2.522  12.720 -0.8866  0.0654  0.0504
  258TMC3    C1 3904   4.418   2.135  13.272  0.0621 -0.2682  0.1381
  258TMC3    C2 3905   4.454   2.063  13.161 -0.1550 -0.8191 -0.5277
  258TMC3    C3 3906   4.567   1.989  13.169 -0.6326 -0.2224 -0.0371
  258TMC3    C4 3907   4.483   2.114  13.391 -0.2268 -0.0766 -0.1691
  258TMC3    C5 3908   4.590   2.027  13.403 -0.1895 -0.0812 -0.0075
  258TMC3    C6 3909   4.634   1.965  13.282  0.9167  0.3180 -0.3430
  258TMC3     C 3910   4.346   2.262  13.256  0.1538  0.4184 -0.5532
  258TMC3     O 3911   4.323   2.329  13.356  0.4706 -0.5405  0.1376
  258TMC3     H 3912   4.391   2.067  13.073  1.5393 -0.6289 -1.7247
  258TMC3    H1 3913   4.463   2.172  13.481  0.1810 -2.1327  1.2388
  258TMC3    H2 3914   4.720   1.899  13.282  0.3227 -0.4771  1.6363
  258TMC3    C7 3915   4.604   1.960  13.528  0.7191 -0.2023  0.1247
  258TMC3    C8 3916   4.602   1.906  13.057  0.4628 -0.4578  0.1427
  258TMC3    O1 3917   4.516   1.980  13.611  0.3213  0.0373  0.4809
  258TMC3    O2 3918   4.719   1.882  13.032 -0.2818 -0.3192  0.3038
  259MPD2     C 3919   3.470   4.147   1.024 -0.1346 -0.0914  0.0032
  259MPD2    C1 3920   3.509   4.029   1.087 -0.2070  0.1058  0.5431
  259MPD2    C2 3921   3.589   3.944   1.025 -0.6843  0.4292  0.1148
  259MPD2    C3 3922   3.637   3.969   0.900 -0.4816 -0.0447  0.5561
  259MPD2    C4 3923   3.595   4.085   0.834 -0.2757  0.1904  0.6943
  259MPD2    C5 3924   3.506   4.171   0.895 -0.3887  0.2847 -0.2256
  259MPD2     H 3925   3.624   3.857   1.079 -1.5123 -0.4136 -0.7179
  259MPD2    H1 3926   3.630   4.124   0.739  2.8670  0.0270  1.7561
  259MPD2    H2 3927   3.399   4.212   1.074  0.7948  1.3135 -0.5083
  259MPD2    H3 3928   3.487   4.269   0.853  1.7263  0.3310 -1.0855
  259MPD2     N 3929   3.702   3.869   0.824  0.0983 -0.3495  0.6549
  259MPD2    H5 3930   3.712   3.779   0.870 -2.1159 -1.4108 -0.9631
  259MPD2    N1 3931   3.462   4.004   1.215  0.2491 -0.2126  0.1065
  259MPD2    H7 3932   3.412   4.081   1.258 -0.0752 -0.2703 -0.1691
  260TMC3    C1 3933   3.794   3.746   0.653  0.3269  0.1500  0.2065
  260TMC3    C2 3934   3.842   3.750   0.519  0.3052  0.1028 -0.1128
  260TMC3    C3 3935   3.901   3.639   0.473  0.6507 -0.3664  0.0135
  260TMC3    C4 3936   3.804   3.631   0.729  0.0136 -0.4518 -0.3244
  260TMC3    C5 3937   3.844   3.516   0.665  0.0589  0.1061  0.6335
  260TMC3    C6 3938   3.891   3.518   0.531 -0.5619 -0.1573 -0.7311
  260TMC3     C 3939   3.745   3.874   0.696  0.4442  0.0069  0.7885
  260TMC3     O 3940   3.729   3.969   0.615  0.1256 -0.3427 -0.4044
  260TMC3     H 3941   3.863   3.841   0.464 -0.1508  0.1519 -0.2075
  260TMC3    H1 3942   3.786   3.639   0.836  0.5305  0.6821 -0.3224
  260TMC3    H2 3943   3.923   3.427   0.480  0.2075  0.2909 -1.0410
  260TMC3    C7 3944   3.825   3.386   0.722 -0.1166 -0.6577  0.3839
  260TMC3    C8 3945   4.020   3.654   0.391  0.1305  0.3852 -0.2500
  260TMC3    O1 3946   3.890   3.296   0.673 -0.3756 -0.4286  0.5579
  260TMC3    O2 3947   4.039   3.743   0.308 -0.9918 -0.0446  0.4683
  261MPD2     C 3948   0.362   2.594  12.256 -0.9058 -0.0381  0.0408
  261MPD2    C1 3949   0.363   2.733  12.257 -0.0739 -0.2820  0.1621
  261MPD2    C2 3950   0.350   2.801  12.141  0.1610  0.7195 -0.4513
  261MPD2    C3 3951   0.359   2.732  12.018 -0.0785 -0.5953  0.1762
  261MPD2    C4 3952   0.389   2.597  12.025 -0.1202 -0.2304  0.0374
  261MPD2    C5 3953   0.388   2.527  12.139  0.3678 -0.3712  0.8780
  261MPD2     H 3954   0.338   2.909  12.145 -0.2400  0.5847  2.6145
  261MPD2    H1 3955   0.405   2.538  11.935  1.7987 -0.0604  0.2560
  261MPD2    H2 3956   0.349   2.540  12.349 -1.3482 -0.6473 -0.3765
  261MPD2    H3 3957   0.408   2.421  12.136  0.4383 -0.3690  1.2006
  261MPD2     N 3958   0.350   2.798  11.893  0.4117  0.4274  0.6125
  261MPD2    H5 3959   0.379   2.755  11.805 -0.3071  0.1745  0.4995
  261MPD2    N1 3960   0.368   2.802  12.389 -0.3596 -0.0256 -0.2108
  261MPD2    H7 3961   0.370   2.904  12.382 -2.3625 -0.0282 -0.8454
  262TMC3    C1 3962   0.288   2.981  11.741  0.2278 -0.8572 -0.0086
  262TMC3    C2 3963   0.214   3.091  11.728 -0.2839 -0.5842  0.4416
  262TMC3    C3 3964   0.243   3.178  11.618  0.2083 -0.0420 -0.0447
  262TMC3    C4 3965   0.379   2.947  11.645 -0.4944 -0.3785  0.0075
  262TMC3    C5 3966   0.405   3.035  11.542  0.6011 -0.0404  0.0483
  262TMC3    C6 3967   0.330   3.153  11.519 -0.7728 -0.8300 -0.0558
  262TMC3     C 3968   0.292   2.924  11.880 -0.9923  0.1602  0.3387
  262TMC3     O 3969   0.233   2.988  11.967  0.0105 -0.2386  0.0702
  262TMC3     H 3970   0.130   3.104  11.796  0.1587  1.0953  0.6796
  262TMC3    H1 3971   0.444   2.860  11.654 -0.4693 -0.2699  0.9402
  262TMC3    H2 3972   0.336   3.209  11.426 -0.5550 -1.1959 -0.2621
  262TMC3    C7 3973   0.490   2.985  11.436  0.3324 -0.4764 -0.5901
  262TMC3    C8 3974   0.256   3.315  11.658  0.7463 -0.0493 -0.6645
  262TMC3    O1 3975   0.493   2.863  11.413  0.0449  0.5441 -0.1590
  262TMC3    O2 3976   0.332   3.391  11.599 -0.0281 -0.3115 -0.3577
  263MPD2     C 3977   0.961   1.987  11.224 -0.1284 -0.2118 -0.8233
  263MPD2    C1 3978   1.060   2.053  11.291  0.0088  0.2219 -0.0485
  263MPD2    C2 3979   1.143   2.143  11.222 -1.2085  0.1270  0.1916
  263MPD2    C3 3980   1.136   2.173  11.082  0.6073 -0.9501 -0.3052
  263MPD2    C4 3981   1.043   2.095  11.020 -0.1771  0.2989 -0.3589
  263MPD2    C5 3982   0.959   2.010  11.092  0.0214  0.5095  0.0841
  263MPD2     H 3983   1.227   2.194  11.268 -0.5015 -2.0392  1.2546
  263MPD2    H1 3984   1.020   2.091  10.914 -2.7947  2.1194  0.1241
  263MPD2    H2 3985   0.895   1.915  11.270 -0.7449  0.1221 -1.1781
  263MPD2    H3 3986   0.880   1.952  11.046 -0.9963  1.7467  0.2914
  263MPD2     N 3987   1.231   2.258  11.023 -0.0114  0.0646 -0.3177
  263MPD2    H5 3988   1.304   2.293  11.084  0.5872  2.7393 -2.5571
  263MPD2    N1 3989   1.095   2.009  11.420 -0.0051  0.7327  0.0515
  263MPD2    H7 3990   1.056   1.920  11.448 -0.8460  0.6641 -1.2954
  264TMC3    C1 3991   1.354   2.352  10.851 -0.5291 -0.8961  0.6256
  264TMC3    C2 3992   1.377   2.469  10.915  0.6308  0.1042 -0.6236
  264TMC3    C3 3993   1.455   2.570  10.856 -0.1252 -0.1337 -0.0908
  264TMC3    C4 3994   1.402   2.335  10.725  0.3708 -0.5085 -0.6111
  264TMC3    C5 3995   1.483   2.434  10.667 -0.9087  0.0473  0.2575
  264TMC3    C6 3996   1.505   2.552  10.729  0.1252  0.5029  0.0472
  264TMC3     C 3997   1.249   2.267  10.887 -0.6571  0.1409 -0.5479
  264TMC3     O 3998   1.179   2.235  10.790  0.7462 -0.5578  0.0865
  264TMC3     H 3999   1.333   2.483  11.013  0.2168 -0.7650 -0.6813
  264TMC3    H1 4000   1.378   2.247  10.666 -0.6450 -1.0407  0.5904
  264TMC3    H2 4001   1.571   2.625  10.684 -0.0693  0.7814  0.2124
  264TMC3    C7 4002   1.541   2.406  10.537 -0.3333  1.2950 -0.3306
  264TMC3    C8 4003   1.480   2.701  10.921 -0.1753  0.0108 -0.0588
  264TMC3    O1 4004   1.556   2.286  10.512 -0.7156  0.1213  0.5575
  264TMC3    O2 4005   1.562   2.773  10.864 -0.6435  0.2725  0.0444
  265MPD2     C 4006   3.533   2.008  15.518 -0.3176 -0.1237 -0.3731
  265MPD2    C1 4007   3.553   2.136  15.475 -0.1725 -0.3684 -0.4899
  265MPD2    C2 4008   3.620   2.152  15.354 -0.5746 -0.8068 -1.0576
  265MPD2    C3 4009   3.665   2.047  15.280  0.1508  0.1603  0.1855
  265MPD2    C4 4010   3.638   1.917  15.318 -0.3679 -0.3271  0.5717
  265MPD2    C5 4011   3.578   1.902  15.440  0.6168  0.2692  0.3691
  265MPD2     H 4012   3.623   2.254  15.315  1.1651 -0.7876 -0.8679
  265MPD2    H1 4013   3.668   1.830  15.260 -1.1914  0.0924 -0.5105
  265MPD2    H2 4014   3.486   1.976  15.610  0.4082 -2.0252 -0.6809
  265MPD2    H3 4015   3.578   1.804  15.487  0.6180 -0.3268 -0.8928
  265MPD2     N 4016   3.708   2.060  15.148 -0.9458  0.2542  0.2084
  265MPD2    H5 4017   3.706   1.970  15.101  1.7538 -0.5367  1.6082
  265MPD2    N1 4018   3.504   2.250  15.545  0.2834  0.6862 -0.0557
  265MPD2    H7 4019   3.523   2.336  15.496 -1.6383  0.5172 -1.0737
  266TMC3    C1 4020   3.466   2.390  15.732 -0.2385 -0.7564  0.3919
  266TMC3    C2 4021   3.501   2.397  15.864  0.2040  0.5671  0.2768
  266TMC3    C3 4022   3.497   2.525  15.924  0.2533 -0.7354 -0.4178
  266TMC3    C4 4023   3.434   2.501  15.659 -0.2602  0.0318  0.5094
  266TMC3    C5 4024   3.445   2.626  15.721 -0.4173 -0.1080 -0.6236
  266TMC3    C6 4025   3.476   2.638  15.854 -0.4521 -0.0408 -0.3183
  266TMC3     C 4026   3.468   2.259  15.681 -0.1555 -0.0450 -0.4609
  266TMC3     O 4027   3.482   2.167  15.761 -0.1396  0.2180  0.4647
  266TMC3     H 4028   3.530   2.310  15.921  1.7445  0.4418 -0.7192
  266TMC3    H1 4029   3.410   2.495  15.553  0.7398  1.0849  0.2238
  266TMC3    H2 4030   3.498   2.736  15.895 -3.0997  0.1639  0.6308
  266TMC3    C7 4031   3.385   2.732  15.641 -0.0060  0.2181 -0.0377
  266TMC3    C8 4032   3.564   2.533  16.049  0.1959  0.1186  0.5922
  266TMC3    O1 4033   3.381   2.721  15.520  0.4179 -0.7584  0.4555
  266TMC3    O2 4034   3.628   2.437  16.084  0.3798 -0.3761 -0.2635
  267MPD2     C 4035   0.136   3.926   0.725 -0.6998  0.2196 -0.0290
  267MPD2    C1 4036   0.150   3.878   0.600  0.1580 -0.3405  0.1217
  267MPD2    C2 4037   0.105   3.949   0.491 -0.2447 -0.1367  0.1770
  267MPD2    C3 4038   0.034   4.071   0.515 -0.0209 -0.0950  0.3473
  267MPD2    C4 4039   0.018   4.114   0.642 -0.3622  0.2257 -0.6855
  267MPD2    C5 4040   0.076   4.045   0.743 -0.3243  0.7029 -0.8337
  267MPD2     H 4041   0.116   3.903   0.393  0.3840  0.5290 -0.0653
  267MPD2    H1 4042   4.688   4.207   0.660 -2.5380 -1.4688  1.5243
  267MPD2    H2 4043   0.167   3.876   0.816 -0.3606 -0.4187 -0.4951
  267MPD2    H3 4044   0.072   4.091   0.841  0.3205 -4.7086  1.7068
  267MPD2     N 4045   4.724   4.166   0.413  0.0482  0.5841 -0.6659
  267MPD2    H5 4046   4.698   4.256   0.450 -1.7593 -0.0969 -0.2669
  267MPD2    N1 4047   0.234   3.765   0.587 -0.7056 -0.0532 -0.0539
  267MPD2    H7 4048   0.242   3.711   0.672  1.1556 -0.9530 -0.8089
  268TMC3    C1 4049   0.370   3.596   0.485  0.0341  0.4092  0.2642
  268TMC3    C2 4050   0.408   3.519   0.373 -0.4015  0.5321  0.0609
  268TMC3    C3 4051   0.522   3.442   0.387 -0.3543 -0.6105  0.3725
  268TMC3    C4 4052   0.444   3.593   0.602 -0.1041  0.0160 -0.6915
  268TMC3    C5 4053   0.544   3.500   0.612 -0.1067 -0.0860  0.2019
  268TMC3    C6 4054   0.587   3.422   0.506  0.3720 -0.1232  0.5242
  268TMC3     C 4055   0.295   3.714   0.469 -0.4710  0.2761 -0.0418
  268TMC3     O 4056   0.295   3.757   0.355  0.0221 -0.1042  0.2788
  268TMC3     H 4057   0.350   3.514   0.281 -0.8383 -1.1919  0.4409
  268TMC3    H1 4058   0.430   3.673   0.674 -1.5178 -0.2011 -0.7222
  268TMC3    H2 4059   0.684   3.376   0.512  0.9261  1.0087  0.2627
  268TMC3    C7 4060   0.618   3.478   0.731 -0.2139 -0.0217  0.1349
  268TMC3    C8 4061   0.584   3.388   0.266 -0.7063 -0.2180  0.1657
  268TMC3    O1 4062   0.733   3.437   0.718 -0.1164 -0.3193 -0.1007
  268TMC3    O2 4063   0.679   3.312   0.285 -0.5526 -0.4206 -0.0558
  269MPD2     C 4064   1.320   2.710  15.385 -0.3656  0.3821 -0.3164
  269MPD2    C1 4065   1.187   2.734  15.414 -0.0345 -0.1150 -0.0090
  269MPD2    C2 4066   1.152   2.862  15.429 -0.2754  0.0454  0.0575
  269MPD2    C3 4067   1.235   2.970  15.420 -0.2678 -0.0010 -0.1774
  269MPD2    C4 4068   1.364   2.940  15.399  0.6799 -0.1935 -0.1953
  269MPD2    C5 4069   1.407   2.812  15.380 -0.5989 -0.4470  0.2717
  269MPD2     H 4070   1.048   2.880  15.453 -0.4028 -3.3983  2.0588
  269MPD2    H1 4071   1.435   3.021  15.398 -0.4086  0.7582 -0.5248
  269MPD2    H2 4072   1.355   2.608  15.372  1.1596  0.9275 -0.5574
  269MPD2    H3 4073   1.513   2.800  15.362  0.0386  1.5493  2.6170
  269MPD2     N 4074   1.197   3.109  15.429 -0.0407 -0.4429 -0.3996
  269MPD2    H5 4075   1.271   3.179  15.437 -0.3411  0.0945 -2.4575
  269MPD2    N1 4076   1.099   2.624  15.434  0.1446  0.0396 -0.1572
  269MPD2    H7 4077   1.132   2.528  15.424  2.5758  0.9872 -0.9547
  270TMC3    C1 4078   0.914   2.497  15.514  0.1287 -0.1724  0.1251
  270TMC3    C2 4079   0.779   2.492  15.478 -0.2041  0.7023 -0.0439
  270TMC3    C3 4080   0.720   2.370  15.483  0.6837 -0.6647 -0.0201
  270TMC3    C4 4081   0.998   2.391  15.549  0.4425 -0.2626 -0.9043
  270TMC3    C5 4082   0.932   2.273  15.531  0.2546  0.2951 -0.2104
  270TMC3    C6 4083   0.794   2.259  15.499  0.3124  0.1279  0.7735
  270TMC3     C 4084   0.971   2.628  15.484  0.3730 -0.2339  1.2712
  270TMC3     O 4085   0.893   2.724  15.494 -0.2011 -0.3441 -0.3554
  270TMC3     H 4086   0.732   2.578  15.432 -0.7549  1.1767  1.4023
  270TMC3    H1 4087   1.105   2.404  15.560  0.7167 -1.3745 -2.3561
  270TMC3    H2 4088   0.749   2.160  15.495  1.4642 -0.3195 -1.2367
  270TMC3    C7 4089   1.013   2.157  15.535  0.5901  0.2305 -0.5572
  270TMC3    C8 4090   0.620   2.351  15.386 -0.0426  0.0601  1.1042
  270TMC3    O1 4091   1.118   2.167  15.599  0.4364  0.0756 -0.0629
  270TMC3    O2 4092   0.534   2.266  15.410 -0.3008 -0.1257  0.9495
  271MPD2     C 4093   0.520   2.340  13.758  0.4798  0.4281 -0.1642
  271MPD2    C1 4094   0.483   2.389  13.885 -0.1452  0.3096  0.4661
  271MPD2    C2 4095   0.393   2.499  13.897 -0.0210  0.7428  0.3139
  271MPD2    C3 4096   0.347   2.552  13.774  0.1286 -0.2162 -0.0606
  271MPD2    C4 4097   0.388   2.509  13.649 -0.4971  0.8634  0.3009
  271MPD2    C5 4098   0.484   2.407  13.643 -0.3118 -0.6876 -0.9892
  271MPD2     H 4099   0.358   2.533  13.994 -0.6669 -2.1131  1.0890
  271MPD2    H1 4100   0.358   2.542  13.551 -3.8747  2.9122  2.0116
  271MPD2    H2 4101   0.594   2.261  13.746  2.1941  2.2457 -1.5952
  271MPD2    H3 4102   0.502   2.352  13.551 -1.4641  1.8841 -2.7816
  271MPD2     N 4103   0.251   2.652  13.772 -0.6842  0.3694  0.1492
  271MPD2    H5 4104   0.230   2.688  13.680 -0.8357 -0.6909 -0.2277
  271MPD2    N1 4105   0.518   2.326  14.008  1.1626 -0.2441  0.3936
  271MPD2    H7 4106   0.491   2.371  14.095 -3.1639 -0.2914 -0.9136
  272TMC3    C1 4107   0.630   2.174  14.151  0.6029 -0.5062  0.0226
  272TMC3    C2 4108   0.749   2.116  14.179  0.4753 -0.4453  0.3637
  272TMC3    C3 4109   0.782   2.083  14.303 -0.1176  0.1834 -0.6819
  272TMC3    C4 4110   0.533   2.201  14.249  0.0051 -0.0046  0.4166
  272TMC3    C5 4111   0.571   2.160  14.372  0.0956  0.0877  0.3736
  272TMC3    C6 4112   0.695   2.102  14.407  0.8819  0.0426  0.0436
  272TMC3     C 4113   0.605   2.225  14.019 -0.0148 -0.2958  0.7603
  272TMC3     O 4114   0.644   2.152  13.930 -0.4203 -0.3285 -0.3911
  272TMC3     H 4115   0.824   2.116  14.100 -1.2522 -2.4818 -1.2824
  272TMC3    H1 4116   0.430   2.231  14.231 -0.7408 -3.2014 -0.5279
  272TMC3    H2 4117   0.732   2.095  14.509 -0.8620 -1.3696  0.5743
  272TMC3    C7 4118   0.501   2.217  14.487  0.1419 -0.1762 -0.6171
  272TMC3    C8 4119   0.924   2.098  14.332 -0.3480 -0.2716  0.0260
  272TMC3    O1 4120   0.532   2.173  14.596  0.0086 -0.3986 -0.2800
  272TMC3    O2 4121   0.979   2.170  14.253  0.2604 -0.1177  0.1654
  273MPD2     C 4122   1.670   0.462  11.546 -0.0327  0.7055  0.0339
  273MPD2    C1 4123   1.691   0.568  11.629 -0.3547  0.2745  0.0761
  273MPD2    C2 4124   1.697   0.695  11.570  0.1702  0.5839  0.0241
  273MPD2    C3 4125   1.686   0.715  11.431 -0.6885  0.4296  0.8464
  273MPD2    C4 4126   1.667   0.602  11.356  0.1349 -0.3383  0.0808
  273MPD2    C5 4127   1.653   0.481  11.411 -0.7958  0.1483 -0.0429
  273MPD2     H 4128   1.695   0.778  11.639  0.4547  0.7466 -0.1628
  273MPD2    H1 4129   1.667   0.598  11.248  2.2082 -0.1172  0.0571
  273MPD2    H2 4130   1.695   0.364  11.585 -0.3195 -0.7713 -3.5060
  273MPD2    H3 4131   1.669   0.393  11.349  0.7051  0.3927 -0.0144
  273MPD2     N 4132   1.688   0.840  11.364  0.1351 -0.7450  1.0023
  273MPD2    H5 4133   1.682   0.847  11.263  1.5129  0.8552  1.0345
  273MPD2    N1 4134   1.726   0.552  11.763 -0.1953 -0.0924 -0.4059
  273MPD2    H7 4135   1.745   0.454  11.782  1.1116  0.2667  0.1782
  274TMC3    C1 4136   1.709   1.078  11.355 -0.2395 -0.0526 -1.4220
  274TMC3    C2 4137   1.699   1.081  11.219 -0.2023 -0.4544 -0.1059
  274TMC3    C3 4138   1.709   1.204  11.157  0.8312 -0.0670 -0.4813
  274TMC3    C4 4139   1.739   1.193  11.428  0.2359  1.1931 -0.3426
  274TMC3    C5 4140   1.753   1.307  11.353 -0.4239 -0.2961  0.0326
  274TMC3    C6 4141   1.716   1.321  11.225 -0.6113 -0.0855  0.4763
  274TMC3     C 4142   1.702   0.957  11.438  0.2011 -0.1769 -0.6736
  274TMC3     O 4143   1.711   0.977  11.561 -0.0042 -0.3226  0.6389
  274TMC3     H 4144   1.664   0.991  11.168 -0.5344 -0.7362  0.6188
  274TMC3    H1 4145   1.763   1.192  11.533  0.8643 -0.1155 -0.5069
  274TMC3    H2 4146   1.737   1.416  11.177  0.9846  0.0763  1.4851
  274TMC3    C7 4147   1.767   1.431  11.430 -0.1149 -0.3242  1.0194
  274TMC3    C8 4148   1.678   1.207  11.016  0.1277  0.1702  0.0393
  274TMC3    O1 4149   1.712   1.530  11.381  0.1002  0.1485 -0.0989
  274TMC3    O2 4150   1.625   1.108  10.972 -0.1099  0.1128 -0.8389
  275MPD2     C 4151   1.941   2.978  14.352 -0.4170 -0.0819 -0.0521
  275MPD2    C1 4152   1.860   3.092  14.375 -0.3707  0.1861 -0.0900
  275MPD2    C2 4153   1.748   3.111  14.297 -0.0575  0.3706 -0.6693
  275MPD2    C3 4154   1.706   3.022  14.199  1.3987  0.6384  0.8307
  275MPD2    C4 4155   1.785   2.912  14.180  0.7976 -0.5865 -0.2263
  275MPD2    C5 4156   1.897   2.890  14.258 -0.4457  0.3438  0.0109
  275MPD2     H 4157   1.684   3.196  14.317 -0.3495 -0.2754  1.0865
  275MPD2    H1 4158   1.755   2.835  14.110 -0.6284 -0.0439 -0.2198
  275MPD2    H2 4159   2.020   2.941  14.417 -1.9090 -0.6729  1.4336
  275MPD2    H3 4160   1.944   2.794  14.241 -0.0873  0.5505 -0.1463
  275MPD2     N 4161   1.589   3.043  14.121 -0.0047  0.0486  0.1515
  275MPD2    H5 4162   1.555   2.970  14.060 -0.0771 -0.4215  0.7453
  275MPD2    N1 4163   1.874   3.190  14.472 -0.1197  0.1868  0.1863
  275MPD2    H7 4164   1.808   3.267  14.464  0.1943  0.3031 -1.1745
  276TMC3    C1 4165   1.947   3.279  14.679  0.6169  0.3227 -0.7105
  276TMC3    C2 4166   1.822   3.309  14.726  0.0074  0.1888  0.1774
  276TMC3    C3 4167   1.803   3.426  14.795  0.6263 -0.2985 -0.9145
  276TMC3    C4 4168   2.060   3.345  14.720 -0.3134  0.0168  0.1558
  276TMC3    C5 4169   2.038   3.459  14.793 -0.6114  0.1121 -0.0441
  276TMC3    C6 4170   1.918   3.506  14.824  0.3943  0.5778 -0.1345
  276TMC3     C 4171   1.971   3.180  14.579 -0.0617  0.0600 -0.3870
  276TMC3     O 4172   2.083   3.123  14.576 -0.0371  0.3715  0.2114
  276TMC3     H 4173   1.748   3.235  14.699  1.1420 -0.4982 -1.1001
  276TMC3    H1 4174   2.160   3.321  14.686 -0.7001 -2.5060  0.8288
  276TMC3    H2 4175   1.898   3.601  14.872 -2.2125 -0.1374  0.2424
  276TMC3    C7 4176   2.151   3.521  14.867 -0.2431 -0.3973 -0.0121
  276TMC3    C8 4177   1.677   3.460  14.866 -0.5263  0.1575  0.8056
  276TMC3    O1 4178   2.116   3.609  14.948  0.2551 -0.5201 -0.5072
  276TMC3    O2 4179   1.644   3.578  14.876 -0.3085 -0.0433 -0.0094
  277MPD2     C 4180   3.650   2.331  13.328 -0.2558  0.5778 -0.0519
  277MPD2    C1 4181   3.522   2.378  13.301  0.6033 -0.1179  0.7148
  277MPD2    C2 4182   3.426   2.333  13.387  0.4062  0.1698 -0.4775
  277MPD2    C3 4183   3.458   2.267  13.500  0.7040  0.6298 -0.2151
  277MPD2    C4 4184   3.580   2.231  13.530  0.6980  0.2380  0.5909
  277MPD2    C5 4185   3.679   2.263  13.441  0.1897  0.6982 -0.0716
  277MPD2     H 4186   3.323   2.361  13.372  0.1367 -1.7916 -2.2189
  277MPD2    H1 4187   3.608   2.185  13.623  0.7473  0.0038  0.4607
  277MPD2    H2 4188   3.727   2.365  13.259  0.5875  1.5118  1.3469
  277MPD2    H3 4189   3.781   2.234  13.463  0.3569  1.3039 -0.0572
  277MPD2     N 4190   3.349   2.239  13.580 -0.0076 -0.3212  0.5566
  277MPD2    H5 4191   3.265   2.283  13.545  0.7029  1.3320  0.9233
  277MPD2    N1 4192   3.492   2.451  13.180 -0.3275 -0.1605  0.2165
  277MPD2    H7 4193   3.567   2.457  13.112 -1.3839 -1.2468 -1.0195
  278TMC3    C1 4194   3.212   2.153  13.748  0.5715 -0.2395 -0.0439
  278TMC3    C2 4195   3.165   2.030  13.771  0.6207 -0.5063  0.1320
  278TMC3    C3 4196   3.034   2.010  13.787  0.7568  0.3792 -0.5472
  278TMC3    C4 4197   3.130   2.260  13.751 -0.2295 -0.0459  0.2405
  278TMC3    C5 4198   2.999   2.240  13.785  0.7177  0.7412 -0.6441
  278TMC3    C6 4199   2.947   2.113  13.796  0.3896  0.2805 -0.6365
  278TMC3     C 4200   3.345   2.156  13.686  0.4040  0.6049  0.3649
  278TMC3     O 4201   3.426   2.064  13.706 -0.7969 -0.1309 -0.1910
  278TMC3     H 4202   3.230   1.943  13.775  1.9384  0.4302 -0.8734
  278TMC3    H1 4203   3.170   2.357  13.722  2.5756 -2.0013 -2.4329
  278TMC3    H2 4204   2.844   2.091  13.825  0.8824 -1.1603  0.0525
  278TMC3    C7 4205   2.913   2.352  13.755 -0.0331  0.2680 -0.0742
  278TMC3    C8 4206   2.978   1.882  13.763 -0.6589  0.1698  0.6196
  278TMC3    O1 4207   2.956   2.463  13.783  0.0654 -0.0640 -0.4990
  278TMC3    O2 4208   2.865   1.877  13.715 -0.4358  0.4098 -0.4119
  279MPD2     C 4209   2.770   2.137   0.141 -0.2113 -0.2904 -0.8399
  279MPD2    C1 4210   2.709   2.255   0.152  0.1260  0.7524 -0.3189
  279MPD2    C2 4211   2.684   2.336   0.046  0.8391 -0.2616  1.0527
  279MPD2    C3 4212   2.731   2.303  17.621  0.1122  0.9094 -0.5323
  279MPD2    C4 4213   2.793   2.185  17.603 -0.3429 -0.2338 -0.5522
  279MPD2    C5 4214   2.811   2.101   0.015 -0.8022 -0.4948  0.2122
  279MPD2     H 4215   2.644   2.436   0.061  3.1146  0.5589  1.5540
  279MPD2    H1 4216   2.835   2.156  17.507 -3.6411  0.0245 -2.0475
  279MPD2    H2 4217   2.784   2.074   0.228 -0.7715  0.5544 -0.1405
  279MPD2    H3 4218   2.845   1.999   0.002 -1.1506 -0.8110  1.8853
  279MPD2     N 4219   2.733   2.397  17.511 -0.6434 -0.5261 -0.2821
  279MPD2    H5 4220   2.786   2.383  17.425  1.6039  2.2103  0.6672
  279MPD2    N1 4221   2.704   2.304   0.283  0.0645 -0.3332  0.1178
  279MPD2    H7 4222   2.754   2.247   0.350 -0.0097 -0.7127 -0.1499
  280TMC3    C1 4223   2.678   2.473   0.458 -0.0655  0.1732  0.0510
  280TMC3    C2 4224   2.802   2.435   0.513  0.2993 -0.4095  0.5058
  280TMC3    C3 4225   2.842   2.502   0.628 -0.0854  0.3557 -0.6955
  280TMC3    C4 4226   2.605   2.576   0.512  0.5559  0.0030  0.3942
  280TMC3    C5 4227   2.653   2.638   0.625 -1.1668  0.0825 -0.0744
  280TMC3    C6 4228   2.768   2.598   0.692  0.0861  0.6920 -0.5285
  280TMC3     C 4229   2.642   2.424   0.326  0.2826 -0.1673  0.8429
  280TMC3     O 4230   2.557   2.488   0.264  0.4012 -0.0007 -0.0356
  280TMC3     H 4231   2.861   2.366   0.453 -0.8910  0.2396 -1.4124
  280TMC3    H1 4232   2.516   2.613   0.462  1.7629  1.5872 -0.5734
  280TMC3    H2 4233   2.796   2.639   0.789 -0.3703  2.1949 -1.0296
  280TMC3    C7 4234   2.631   2.777   0.629 -0.0244  0.1503 -0.5491
  280TMC3    C8 4235   2.984   2.471   0.663 -0.3533 -0.7445 -0.6265
  280TMC3    O1 4236   2.703   2.842   0.706  0.4413  0.1980 -0.1536
  280TMC3    O2 4237   3.040   2.387   0.594  0.3402  0.2956  0.0873
  281TMC3    C1 4238   1.419   3.127  13.227  0.0964 -0.1221 -0.1824
  281TMC3    C2 4239   1.501   3.208  13.304 -0.2047 -0.3550 -0.0299
  281TMC3    C3 4240   1.633   3.175  13.312 -0.3465 -0.3679 -0.1906
  281TMC3    C4 4241   1.462   3.007  13.169 -0.1983 -0.0476  0.4907
  281TMC3    C5 4242   1.597   2.984  13.180  0.7511  0.3348  0.1093
  281TMC3    C6 4243   1.683   3.065  13.252  0.6231  0.3124  0.0731
  281TMC3     C 4244   1.279   3.174  13.201 -0.0316 -0.4437  0.2916
  281TMC3     O 4245   1.217   3.094  13.140  0.5666 -0.1342  0.8260
  281TMC3     H 4246   1.463   3.289  13.365 -1.4374  0.4790 -1.9008
  281TMC3    H1 4247   1.395   2.948  13.108  1.8329 -1.0704 -0.7877
  281TMC3    H2 4248   1.789   3.047  13.262  0.4247 -0.4603  0.7454
  281TMC3    C7 4249   1.648   2.845  13.177 -0.2926  0.1208 -0.1050
  281TMC3    C8 4250   1.730   3.250  13.393 -0.5188  0.1878  0.5579
  281TMC3    O1 4251   1.730   2.812  13.266  0.3339 -0.4342  0.1299
  281TMC3    O2 4252   1.826   3.179  13.424  0.2088  0.6004  0.2211
  282MPD2     C 4253   3.516   3.746  14.986  0.3952 -0.0059 -0.7250
  282MPD2    C1 4254   3.382   3.731  15.004  0.4550 -0.0319 -0.2733
  282MPD2    C2 4255   3.320   3.640  14.924  0.7425 -0.4418  1.6186
  282MPD2    C3 4256   3.385   3.584  14.814 -0.1614 -0.3086 -0.3211
  282MPD2    C4 4257   3.522   3.605  14.794 -0.2719 -0.3329 -0.0142
  282MPD2    C5 4258   3.586   3.680  14.885 -0.0795 -0.0732 -0.4808
  282MPD2     H 4259   3.213   3.630  14.939  0.4075 -1.0482 -1.1314
  282MPD2    H1 4260   3.579   3.552  14.718  0.3725  1.6681 -0.9112
  282MPD2    H2 4261   3.584   3.805  15.046  1.0960 -0.9992 -0.5587
  282MPD2    H3 4262   3.694   3.671  14.881  0.0528  1.1190  0.7002
  282MPD2     N 4263   3.312   3.507  14.718  0.1723  0.7704 -0.2143
  282MPD2    H5 4264   3.222   3.476  14.755 -0.0420  1.2230 -0.3521
  282MPD2    N1 4265   3.305   3.811  15.093  0.0586 -0.0341  0.0600
  282MPD2    H7 4266   3.206   3.792  15.099  0.2848 -1.4891 -0.8616
  283TMC3    C1 4267   3.259   4.003  15.226  0.2367  0.5622 -0.0213
  283TMC3    C2 4268   3.301   4.127  15.268 -0.4072  0.2904 -0.1838
  283TMC3    C3 4269   3.232   4.184  15.375  0.2001  0.9336 -0.4942
  283TMC3    C4 4270   3.149   3.943  15.287  0.0078 -1.3203 -0.0694
  283TMC3    C5 4271   3.078   4.005  15.391  1.0367 -0.3563 -0.5698
  283TMC3    C6 4272   3.127   4.127  15.437 -0.0448 -0.8643 -0.7057
  283TMC3     C 4273   3.357   3.921  15.156 -0.9895 -0.7554  0.2865
  283TMC3     O 4274   3.474   3.943  15.181 -0.1527  0.2480 -0.0643
  283TMC3     H 4275   3.398   4.165  15.238 -0.7488  0.5672 -0.9346
  283TMC3    H1 4276   3.128   3.839  15.265 -1.6631 -1.1156  0.6386
  283TMC3    H2 4277   3.082   4.180  15.520  0.9075 -1.0334 -0.0818
  283TMC3    C7 4278   2.971   3.935  15.472 -0.6239 -0.0689 -0.3224
  283TMC3    C8 4279   3.288   4.289  15.456 -0.5618 -0.3382 -0.1847
  283TMC3    O1 4280   2.960   3.988  15.581 -0.0756 -0.0431  0.0696
  283TMC3    O2 4281   3.299   4.250  15.571 -0.1407 -0.0471 -0.1943
  284MPD2     C 4282   1.692   3.588  12.227 -0.8685  0.5290 -0.1227
  284MPD2    C1 4283   1.726   3.562  12.095  0.1102 -0.5084 -0.2824
  284MPD2    C2 4284   1.674   3.459  12.026  0.1219 -0.5716 -0.1761
  284MPD2    C3 4285   1.580   3.373  12.088 -0.2369 -0.1891 -0.4840
  284MPD2    C4 4286   1.537   3.401  12.215  0.4333 -0.1939  0.0004
  284MPD2    C5 4287   1.593   3.508  12.281  0.4723 -0.0366  0.1649
  284MPD2     H 4288   1.727   3.435  11.934 -0.1885  0.9528 -0.7543
  284MPD2    H1 4289   1.462   3.340  12.266  0.8598 -0.3892  0.3975
  284MPD2    H2 4290   1.745   3.653  12.295 -0.0781  0.1169 -0.3519
  284MPD2    H3 4291   1.563   3.523  12.384 -0.3074  2.6395 -0.4443
  284MPD2     N 4292   1.534   3.260  12.015  0.2826  0.2340 -0.1204
  284MPD2    H5 4293   1.472   3.200  12.068  0.7714 -1.2360 -1.2209
  284MPD2    N1 4294   1.830   3.625  12.034 -0.1591 -0.0662  0.2664
  284MPD2    H7 4295   1.842   3.600  11.937 -1.5556  1.2186 -0.2301
  285TMC3    C1 4296   2.008   3.739  12.000  0.0996  0.2103 -0.0469
  285TMC3    C2 4297   2.071   3.638  11.931  0.9884 -0.9926 -0.1889
  285TMC3    C3 4298   2.178   3.683  11.853  0.0308 -0.1303 -0.1219
  285TMC3    C4 4299   2.012   3.870  11.976 -0.0601 -0.1141 -0.6138
  285TMC3    C5 4300   2.091   3.908  11.877 -0.4342  0.5269 -0.0246
  285TMC3    C6 4301   2.187   3.821  11.823  0.0563  0.3118 -0.2659
  285TMC3     C 4302   1.915   3.709  12.098 -0.2175  0.5110 -0.0639
  285TMC3     O 4303   1.928   3.759  12.208  0.8363 -0.2601 -0.3831
  285TMC3     H 4304   2.072   3.531  11.949 -0.1119 -1.0392 -0.3984
  285TMC3    H1 4305   1.935   3.930  12.022  1.7672 -0.6829  3.1493
  285TMC3    H2 4306   2.256   3.860  11.749  0.8626  2.8207  1.8061
  285TMC3    C7 4307   2.014   3.946  11.759  0.1691 -0.1138  0.3697
  285TMC3    C8 4308   2.205   3.597  11.735  0.5765 -0.5286 -0.3672
  285TMC3    O1 4309   2.078   4.012  11.679 -0.3388  0.6513  0.3867
  285TMC3    O2 4310   2.117   3.514  11.710 -0.2970 -0.1167 -0.0563
  286MPD2     C 4311   1.799   2.001   1.729  0.4100 -1.1425 -0.8109
  286MPD2    C1 4312   1.831   2.050   1.604  0.3857 -0.3014 -0.1876
  286MPD2    C2 4313   1.959   2.022   1.549 -0.3397  0.1007 -0.1564
  286MPD2    C3 4314   2.045   1.930   1.607 -0.0502 -0.0507  0.2148
  286MPD2    C4 4315   2.008   1.871   1.730  0.0608  0.5373  0.5431
  286MPD2    C5 4316   1.880   1.904   1.782  0.5837 -0.7304 -0.1763
  286MPD2     H 4317   1.988   2.070   1.456 -1.4572 -0.1488 -0.6277
  286MPD2    H1 4318   2.069   1.802   1.786 -0.8291  0.9068  1.9689
  286MPD2    H2 4319   1.711   2.036   1.783  0.7800 -0.2057 -0.8051
  286MPD2    H3 4320   1.868   1.859   1.880  1.8334  0.3739  0.4812
  286MPD2     N 4321   2.172   1.895   1.555 -0.0959 -0.4674 -0.6170
  286MPD2    H5 4322   2.231   1.832   1.609 -1.0770  1.1721  2.3772
  286MPD2    N1 4323   1.744   2.137   1.537  0.1153  0.4282 -0.4289
  286MPD2    H7 4324   1.786   2.192   1.463  1.2921  0.4558  0.2526
  287TMC3    C1 4325   2.338   1.865   1.398  0.3732 -0.8538 -0.0378
  287TMC3    C2 4326   2.352   1.790   1.285  0.6353  1.9849 -0.1491
  287TMC3    C3 4327   2.465   1.729   1.260  0.5051  0.4197 -0.2369
  287TMC3    C4 4328   2.452   1.893   1.468  0.4665 -0.0471 -0.6010
  287TMC3    C5 4329   2.568   1.827   1.442  0.3219 -0.1210  0.2028
  287TMC3    C6 4330   2.576   1.737   1.341  0.0867 -0.6247 -0.1101
  287TMC3     C 4331   2.210   1.921   1.429 -0.2216  0.3068  0.7675
  287TMC3     O 4332   2.143   1.962   1.337 -0.4505 -0.2831 -0.5422
  287TMC3     H 4333   2.263   1.776   1.224  0.9688  1.0881 -0.4213
  287TMC3    H1 4334   2.437   1.947   1.561 -1.3008  0.7807 -1.3731
  287TMC3    H2 4335   2.672   1.686   1.333  1.2742  1.4607  0.8072
  287TMC3    C7 4336   2.687   1.857   1.519  0.4736 -0.2641 -0.3907
  287TMC3    C8 4337   2.476   1.657   1.148 -0.4731  0.1436 -0.1813
  287TMC3    O1 4338   2.773   1.770   1.510  0.2235 -0.0868  0.4972
  287TMC3    O2 4339   2.369   1.600   1.123 -0.0252 -0.3542 -0.3795
  288TMC3    C1 4340   3.944   2.075  14.191  0.7189 -0.5402 -0.0108
  288TMC3    C2 4341   3.827   2.066  14.268  0.1976  0.5618 -0.1394
  288TMC3    C3 4342   3.718   2.131  14.230 -0.3199  0.0546  0.1463
  288TMC3    C4 4343   3.938   2.154  14.072 -0.1084  0.3463 -0.6635
  288TMC3    C5 4344   3.822   2.217  14.040  0.1383  0.5822 -0.8870
  288TMC3    C6 4345   3.710   2.211  14.115  0.3497  0.9422 -0.0709
  288TMC3     C 4346   4.076   2.044  14.253 -0.0711  0.1746 -0.2404
  288TMC3     O 4347   4.070   1.985  14.364 -0.1581 -0.8037 -0.7105
  288TMC3     H 4348   3.834   2.019  14.365  1.3632  1.3335  0.1393
  288TMC3    H1 4349   4.017   2.164  13.999  0.6041 -0.7082 -0.0447
  288TMC3    H2 4350   3.624   2.275  14.094 -0.9715  0.0234  2.4649
  288TMC3    C7 4351   3.813   2.292  13.918  0.3724 -0.1576 -0.1950
  288TMC3    C8 4352   3.644   2.177  14.350 -0.6808 -0.0815  0.4150
  288TMC3    O1 4353   3.701   2.298  13.859  0.5178  0.1995  0.2139
  288TMC3    O2 4354   3.701   2.233  14.443 -0.2263 -0.3858 -0.6870
  289MPD2     C 4355   3.540   1.226  14.532 -0.1585  0.8648  0.3041
  289MPD2    C1 4356   3.547   1.312  14.418 -0.7673 -0.1388 -0.5991
  289MPD2    C2 4357   3.432   1.315  14.332 -0.4088 -0.6209  0.1266
  289MPD2    C3 4358   3.322   1.235  14.356 -0.8606 -0.0924 -0.6460
  289MPD2    C4 4359   3.318   1.154  14.466 -0.0744  0.1782  0.0391
  289MPD2    C5 4360   3.422   1.157  14.556  0.0104  0.4300 -0.7434
  289MPD2     H 4361   3.442   1.368  14.238 -1.3452 -0.0908  0.3237
  289MPD2    H1 4362   3.226   1.097  14.477  0.0643  0.0196  0.3925
  289MPD2    H2 4363   3.615   1.231  14.610 -0.2114  0.5588  0.3740
  289MPD2    H3 4364   3.420   1.088  14.639 -2.0392  0.3014 -0.9008
  289MPD2     N 4365   3.209   1.232  14.270  0.6451  0.1361  0.2178
  289MPD2    H5 4366   3.146   1.158  14.299 -1.5172  0.9761 -2.3907
  289MPD2    N1 4367   3.655   1.395  14.410 -0.2057 -0.3179 -0.3417
  289MPD2    H7 4368   3.731   1.386  14.477  0.8486  2.3219 -1.1906
  290TMC3    C1 4369   3.067   1.283  14.090 -0.2760  0.6185  0.2035
  290TMC3    C2 4370   3.003   1.389  14.029 -0.0889 -0.4951  0.1605
  290TMC3    C3 4371   2.869   1.377  13.995  0.1398 -0.8447 -0.3231
  290TMC3    C4 4372   2.990   1.171  14.118 -0.4838 -0.4219 -0.1999
  290TMC3    C5 4373   2.857   1.174  14.080  0.0790  0.5792  0.3118
  290TMC3    C6 4374   2.791   1.277  14.029  0.1065  0.3355 -0.9953
  290TMC3     C 4375   3.192   1.317  14.165 -0.5218 -0.0212  0.7220
  290TMC3     O 4376   3.260   1.408  14.109  0.2101  0.0674 -0.2370
  290TMC3     H 4377   3.058   1.481  14.022 -1.8337  0.7533  2.7405
  290TMC3    H1 4378   3.045   1.090  14.166 -0.4140 -0.9961 -1.2409
  290TMC3    H2 4379   2.685   1.275  14.004  0.5560  2.3175 -3.0055
  290TMC3    C7 4380   2.766   1.068  14.119  0.4865  0.2943  0.0679
  290TMC3    C8 4381   2.796   1.493  13.970 -0.6325 -0.4389  0.3392
  290TMC3    O1 4382   2.660   1.053  14.057  0.2579 -0.4884  0.2749
  290TMC3    O2 4383   2.702   1.487  13.894  0.5857  0.0361 -0.3721
  291MPD2     C 4384   3.785   0.785   0.904  0.4632 -0.0058  1.1498
  291MPD2    C1 4385   3.757   0.770   0.770 -0.3062  0.2444  0.1959
  291MPD2    C2 4386   3.828   0.846   0.673  0.6290  0.1576 -0.2586
  291MPD2    C3 4387   3.936   0.925   0.708 -0.0478  0.4010  0.9829
  291MPD2    C4 4388   3.959   0.947   0.848  0.0713 -0.2486  0.2942
  291MPD2    C5 4389   3.886   0.876   0.939 -0.2713  0.1709 -0.4688
  291MPD2     H 4390   3.803   0.840   0.568 -2.0945 -1.4714  0.4850
  291MPD2    H1 4391   4.032   1.022   0.876 -0.3474  0.8088 -1.4190
  291MPD2    H2 4392   3.730   0.723   0.973  0.5689  1.4148  2.5189
  291MPD2    H3 4393   3.903   0.895   1.045 -1.8657  1.4951 -0.4531
  291MPD2     N 4394   3.994   1.016   0.624 -0.0830  0.0865 -0.8973
  291MPD2    H5 4395   4.042   1.093   0.669 -1.6022  0.7701 -0.4432
  291MPD2    N1 4396   3.649   0.685   0.737  0.3378  0.0809 -0.2300
  291MPD2    H7 4397   3.587   0.653   0.810  1.1629 -1.7257 -0.3139
  292TMC3    C1 4398   3.499   0.584   0.589 -0.2089  0.0011  0.2437
  292TMC3    C2 4399   3.391   0.655   0.642 -0.7874 -0.0901  0.3081
  292TMC3    C3 4400   3.270   0.658   0.576 -0.2372 -0.9494 -0.6416
  292TMC3    C4 4401   3.487   0.527   0.467 -0.0279 -0.3745 -0.5098
  292TMC3    C5 4402   3.375   0.551   0.395  0.1539 -0.3323  0.1940
  292TMC3    C6 4403   3.267   0.618   0.449 -0.2076  0.0893  0.6818
  292TMC3     C 4404   3.624   0.646   0.613 -0.4953  0.1954  0.1242
  292TMC3     O 4405   3.709   0.636   0.523 -0.1774 -0.7162  0.1970
  292TMC3     H 4406   3.402   0.714   0.732  0.3803  0.8815 -0.4616
  292TMC3    H1 4407   3.575   0.477   0.428  0.7915 -0.0742  0.9661
  292TMC3    H2 4408   3.173   0.623   0.395  1.0445  0.3332 -1.4824
  292TMC3    C7 4409   3.365   0.484   0.271  0.6160  0.2209 -0.7399
  292TMC3    C8 4410   3.152   0.710   0.636  0.6200 -0.8343 -0.6291
  292TMC3    O1 4411   3.416   0.375   0.268  0.1495  0.3173 -0.6338
  292TMC3    O2 4412   3.174   0.791   0.724  0.1134  0.3833  0.2284
  293MPD2     C 4413   4.700   2.280  12.316  0.7382 -0.4132  0.4153
  293MPD2    C1 4414   4.577   2.253  12.372 -0.6806 -0.1049 -0.1927
  293MPD2    C2 4415   4.563   2.265  12.511  0.1838 -0.9362  0.0271
  293MPD2    C3 4416   4.664   2.335  12.579  0.2375  0.2870  0.4272
  293MPD2    C4 4417   0.063   2.367  12.521 -0.1670  0.1385  0.0742
  293MPD2    C5 4418   0.081   2.337  12.385 -0.7002  0.2138 -0.0260
  293MPD2     H 4419   4.472   2.233  12.561 -0.9742 -0.5041 -1.8258
  293MPD2    H1 4420   0.143   2.412  12.579 -0.8201  1.0219  0.2864
  293MPD2    H2 4421   4.721   2.262  12.211  0.0117  2.1223 -0.1526
  293MPD2    H3 4422   0.175   2.366  12.340 -0.9055 -1.4279 -1.5023
  293MPD2     N 4423   4.626   2.380  12.710  0.1117 -0.2390  0.1312
  293MPD2    H5 4424   4.558   2.323  12.759 -1.9657  0.1891 -2.2117
  293MPD2    N1 4425   4.471   2.207  12.281  0.5868  0.0181 -1.0159
  293MPD2    H7 4426   4.499   2.184  12.186 -1.2987 -1.4678 -1.2190
  294TMC3    C1 4427   4.254   2.134  12.210  0.1975 -0.0225  0.1798
  294TMC3    C2 4428   4.146   2.070  12.258 -0.2363  0.2161  0.1239
  294TMC3    C3 4429   4.066   2.009  12.172 -0.1613 -0.1444 -0.4518
  294TMC3    C4 4430   4.288   2.123  12.075  0.2795 -0.5381  0.0851
  294TMC3    C5 4431   4.213   2.051  11.991 -0.8172  1.0465  0.0027
  294TMC3    C6 4432   4.098   1.998  12.042 -0.3661  0.4605 -0.0620
  294TMC3     C 4433   4.336   2.201  12.311 -0.4348  0.5823  0.5874
  294TMC3     O 4434   4.277   2.224  12.417  0.4513 -0.0555 -0.6049
  294TMC3     H 4435   4.110   2.074  12.360 -2.6695 -0.9351 -0.6722
  294TMC3    H1 4436   4.376   2.179  12.043  0.4556 -0.9351 -0.1307
  294TMC3    H2 4437   4.023   1.950  11.981 -0.6019 -0.3263  0.8329
  294TMC3    C7 4438   4.251   1.995  11.858  0.4018 -0.2273  0.1501
  294TMC3    C8 4439   3.933   1.963  12.207 -0.0803  0.2626 -0.0102
  294TMC3    O1 4440   4.171   1.927  11.797 -0.0915 -0.4164 -0.0156
  294TMC3    O2 4441   3.855   2.051  12.250 -0.4192  0.0901  0.0590
  295MPD2     C 4442   0.487   0.742   0.027  0.4579  0.3116  0.1572
  295MPD2    C1 4443   0.569   0.850   0.053 -0.0359 -0.0772  0.2349
  295MPD2    C2 4444   0.616   0.866   0.182  0.7425  0.3826 -0.0297
  295MPD2    C3 4445   0.585   0.764   0.280  0.5359 -0.0204  0.2783
  295MPD2    C4 4446   0.503   0.668   0.246 -0.3506  0.4492 -1.1409
  295MPD2    C5 4447   0.454   0.653   0.122  0.2480  0.1939  0.3038
  295MPD2     H 4448   0.690   0.942   0.204 -0.5275  1.1426  1.6112
  295MPD2    H1 4449   0.490   0.587   0.318  0.6014  1.6109  0.3490
  295MPD2    H2 4450   0.437   0.724  17.631  3.9135 -0.5292 -1.4839
  295MPD2    H3 4451   0.403   0.560   0.098 -1.3552  0.9190  0.8925
  295MPD2     N 4452   0.640   0.765   0.412 -0.1006 -0.4143 -0.3024
  295MPD2    H5 4453   0.610   0.701   0.484  0.0829  1.1947  1.1926
  295MPD2    N1 4454   0.609   0.945  17.648  0.1708  0.2149 -0.8037
  295MPD2    H7 4455   0.665   1.022  17.683  0.0859  0.1329 -0.4953
  296TMC3    C1 4456   0.734   0.840   0.607 -1.0176 -0.0147 -0.1092
  296TMC3    C2 4457   0.773   0.950   0.681 -0.5019  0.0345  1.1729
  296TMC3    C3 4458   0.799   0.935   0.812  0.2952 -0.1028  0.6849
  296TMC3    C4 4459   0.727   0.715   0.664 -0.3336 -0.1067  0.3062
  296TMC3    C5 4460   0.761   0.703   0.793 -0.4784  0.8659  1.0299
  296TMC3    C6 4461   0.793   0.809   0.873 -0.1711 -0.1114  0.5697
  296TMC3     C 4462   0.719   0.863   0.466 -0.3076 -0.0330 -0.1833
  296TMC3     O 4463   0.770   0.959   0.419 -0.2068  0.0469  0.7010
  296TMC3     H 4464   0.759   1.050   0.641  1.5783  0.0282  0.4403
  296TMC3    H1 4465   0.701   0.628   0.606 -1.0527 -1.3671  2.5113
  296TMC3    H2 4466   0.823   0.792   0.976 -1.3394 -2.0732  0.5948
  296TMC3    C7 4467   0.751   0.564   0.846  0.0929 -1.5243  0.2886
  296TMC3    C8 4468   0.822   1.057   0.890 -0.3005  0.2535  0.3938
  296TMC3    O1 4469   0.762   0.472   0.769  0.0352 -0.1040 -0.2288
  296TMC3    O2 4470   0.864   1.155   0.833 -0.4203  0.2283 -0.2114
  297MPD2     C 4471   2.772   3.097  16.385  0.1672 -0.3713 -0.0871
  297MPD2    C1 4472   2.695   3.200  16.333  0.0022 -0.4791  0.1288
  297MPD2    C2 4473   2.751   3.326  16.316 -0.4847 -0.2305  0.7103
  297MPD2    C3 4474   2.879   3.349  16.347 -0.2357  0.0633  0.1182
  297MPD2    C4 4475   2.959   3.245  16.382  0.2459 -0.6056 -0.1752
  297MPD2    C5 4476   2.908   3.121  16.403 -0.1398  0.4368 -0.1310
  297MPD2     H 4477   2.688   3.407  16.281  0.2647 -0.7023 -1.7188
  297MPD2    H1 4478   3.066   3.254  16.398  0.3604  0.5992 -1.6573
  297MPD2    H2 4479   2.738   2.996  16.403  0.8294 -0.3818  1.0342
  297MPD2    H3 4480   2.959   3.032  16.437 -0.9261 -0.0437 -0.2099
  297MPD2     N 4481   2.931   3.471  16.315  0.0469 -0.3791 -0.2867
  297MPD2    H5 4482   2.862   3.537  16.281  1.3518  1.0990 -0.0821
  297MPD2    N1 4483   2.562   3.183  16.292  0.2543  0.4912 -0.2704
  297MPD2    H7 4484   2.519   3.273  16.274  1.0436  1.2638  1.7138
  298TMC3    C1 4485   2.370   3.074  16.200  0.6095 -0.0967 -0.5187
  298TMC3    C2 4486   2.356   3.037  16.071  0.0426 -0.4352  0.2851
  298TMC3    C3 4487   2.243   3.067  16.000 -0.0502 -0.4393  0.1475
  298TMC3    C4 4488   2.278   3.156  16.258 -0.1657 -0.4766 -0.7169
  298TMC3    C5 4489   2.169   3.185  16.187  0.3632 -1.6142  0.1062
  298TMC3    C6 4490   2.151   3.146  16.058  0.1531  0.1550  0.6822
  298TMC3     C 4491   2.503   3.064  16.261 -0.1698  1.1655 -0.6099
  298TMC3     O 4492   2.561   2.955  16.246  0.3411 -0.1564 -0.0979
  298TMC3     H 4493   2.440   2.984  16.028  1.2782 -0.4681  2.7272
  298TMC3    H1 4494   2.290   3.186  16.361  3.2946 -0.9165 -0.9918
  298TMC3    H2 4495   2.055   3.165  16.010  0.2150  4.5615  2.3817
  298TMC3    C7 4496   2.071   3.278  16.249  0.9519 -0.8238 -0.5419
  298TMC3    C8 4497   2.254   3.077  15.860  0.5172  0.4959 -0.3000
  298TMC3    O1 4498   2.061   3.270  16.372  0.0313  0.2387 -0.7657
  298TMC3    O2 4499   2.147   3.084  15.798  0.3371  0.8309 -0.6013
  299MPD2     C 4500   3.102   3.889   9.920  0.6528  0.3135 -0.2521
  299MPD2    C1 4501   3.105   3.818  10.042  0.1955 -0.3064  0.4293
  299MPD2    C2 4502   2.994   3.804  10.119 -0.1215  0.0922  1.3113
  299MPD2    C3 4503   2.880   3.874  10.093 -0.3356 -0.3497 -0.7243
  299MPD2    C4 4504   2.873   3.952   9.979  0.1618 -0.6750 -0.0454
  299MPD2    C5 4505   2.979   3.949   9.890 -0.2216  0.7101  0.5823
  299MPD2     H 4506   3.002   3.745  10.210 -2.1330 -0.3132  1.2187
  299MPD2    H1 4507   2.779   3.996   9.948  0.5955 -0.5441 -1.1711
  299MPD2    H2 4508   3.185   3.889   9.851  2.1880  0.0923  1.5985
  299MPD2    H3 4509   2.976   4.018   9.806 -1.2582  0.8847  0.7636
  299MPD2     N 4510   2.767   3.880  10.174  0.5481 -0.3742 -0.0820
  299MPD2    H5 4511   2.690   3.937  10.140  3.3447  2.4595 -1.5868
  299MPD2    N1 4512   3.218   3.741  10.086  0.2958 -0.0514 -0.0016
  299MPD2    H7 4513   3.201   3.701  10.178  0.8442  0.7744  0.4578
  300TMC3    C1 4514   2.626   3.841  10.343  0.1814 -0.2418  0.3223
  300TMC3    C2 4515   2.634   3.870  10.473 -0.1388  0.0800 -0.3271
  300TMC3    C3 4516   2.524   3.895  10.545 -1.0676  0.8806 -0.2426
  300TMC3    C4 4517   2.506   3.833  10.280  0.7149 -0.2289  0.1413
  300TMC3    C5 4518   2.396   3.876  10.350  0.1413  0.5984  1.2936
  300TMC3    C6 4519   2.405   3.892  10.485  0.5827  0.0930 -0.3024
  300TMC3     C 4520   2.750   3.803  10.284  0.1887  0.1913 -0.1894
  300TMC3     O 4521   2.821   3.727  10.346 -0.1152 -0.0730  0.1998
  300TMC3     H 4522   2.725   3.887  10.529  0.5455 -0.6373 -1.2073
  300TMC3    H1 4523   2.497   3.786  10.183 -0.9940  0.6157 -0.1086
  300TMC3    H2 4524   2.311   3.909  10.537  0.2558  1.3879 -1.3083
  300TMC3    C7 4525   2.276   3.794  10.318  0.1891 -0.0575 -0.3944
  300TMC3    C8 4526   2.510   3.831  10.678 -0.5434 -0.4836 -0.3458
  300TMC3    O1 4527   2.232   3.803  10.205  0.3078  0.1564 -0.3895
  300TMC3    O2 4528   2.419   3.756  10.697 -0.3113 -0.6046  0.2667
  301MPD2     C 4529   0.221   3.735   1.883  0.1305 -0.0243  0.4735
  301MPD2    C1 4530   0.152   3.728   1.767  0.0032 -0.2978 -0.2220
  301MPD2    C2 4531   0.175   3.616   1.682  0.0359 -0.5011  0.1572
  301MPD2    C3 4532   0.278   3.528   1.700 -0.2194 -0.4339  0.1165
  301MPD2    C4 4533   0.355   3.544   1.816  0.4531  0.9745 -0.0135
  301MPD2    C5 4534   0.319   3.645   1.910 -0.2983  0.3229  0.5020
  301MPD2     H 4535   0.102   3.596   1.604  1.1498  0.5780 -1.1482
  301MPD2    H1 4536   0.439   3.480   1.839 -0.0890  0.5775  0.8735
  301MPD2    H2 4537   0.214   3.824   1.945 -0.8527  0.5366 -0.4325
  301MPD2    H3 4538   0.382   3.669   1.995  1.9624 -3.9529  0.0279
  301MPD2     N 4539   0.298   3.421   1.612 -0.0688  0.0229  0.9010
  301MPD2    H5 4540   0.362   3.346   1.635  0.1479  0.2519  1.0471
  301MPD2    N1 4541   0.051   3.814   1.722 -0.2047 -0.1912 -0.3502
  301MPD2    H7 4542   0.003   3.793   1.635 -0.9539  2.0358 -0.4654
  302TMC3    C1 4543   0.277   3.278   1.427  0.3912 -0.8264 -0.2612
  302TMC3    C2 4544   0.314   3.173   1.509 -0.0127 -0.3762 -0.6628
  302TMC3    C3 4545   0.375   3.068   1.444 -0.1688 -0.2008  0.5347
  302TMC3    C4 4546   0.293   3.282   1.288 -0.4173 -0.7257  0.2633
  302TMC3    C5 4547   0.373   3.182   1.229  0.3179 -0.4410 -0.0166
  302TMC3    C6 4548   0.403   3.068   1.308 -0.0615 -0.6625 -0.0931
  302TMC3     C 4549   0.241   3.402   1.491  0.8070 -0.0007  0.2312
  302TMC3     O 4550   0.188   3.484   1.416  0.3257  0.1295 -0.0870
  302TMC3     H 4551   0.288   3.178   1.614  1.2066  1.2684 -0.4402
  302TMC3    H1 4552   0.256   3.363   1.227  2.1166 -0.7260 -1.2722
  302TMC3    H2 4553   0.446   2.979   1.264  1.5936 -0.1261  0.4515
  302TMC3    C7 4554   0.382   3.162   1.089 -0.0152  0.1374  0.2109
  302TMC3    C8 4555   0.422   2.949   1.511  0.1287  0.0948  0.4686
  302TMC3    O1 4556   0.490   3.118   1.053  0.1502  0.2572 -0.0945
  302TMC3    O2 4557   0.521   2.897   1.464  0.3066  0.4622  0.0334
  303MPD2     C 4558   0.609   2.574  10.125  0.2925  0.0508 -0.1350
  303MPD2    C1 4559   0.508   2.502  10.064 -0.1154 -0.5687  0.1030
  303MPD2    C2 4560   0.425   2.575   9.980  0.1736 -0.0929 -1.1624
  303MPD2    C3 4561   0.446   2.712   9.967  0.1963  0.1745 -0.4894
  303MPD2    C4 4562   0.536   2.781  10.043 -0.0230 -0.4190  0.3189
  303MPD2    C5 4563   0.623   2.706  10.115 -0.6444  0.7416  0.4325
  303MPD2     H 4564   0.338   2.532   9.932  0.3503 -0.2236 -1.3647
  303MPD2    H1 4565   0.555   2.887  10.031  0.8891 -0.5674  0.4093
  303MPD2    H2 4566   0.676   2.521  10.191  0.5308 -1.2289 -1.3969
  303MPD2    H3 4567   0.695   2.751  10.183 -0.0845  2.2897 -1.1921
  303MPD2     N 4568   0.369   2.789   9.875 -0.3513 -0.0708 -0.3269
  303MPD2    H5 4569   0.373   2.889   9.891 -3.3003 -0.0404  0.1253
  303MPD2    N1 4570   0.486   2.375  10.108  0.1027 -0.0386  1.1176
  303MPD2    H7 4571   0.555   2.324  10.163 -0.7007 -0.0710  2.0967
  304TMC3    C1 4572   0.360   2.181  10.149  0.0948  0.3022  0.2813
  304TMC3    C2 4573   0.237   2.170  10.204  0.0158  0.4865  0.0975
  304TMC3    C3 4574   0.174   2.049  10.206 -0.0578  0.6108 -0.0663
  304TMC3    C4 4575   0.427   2.070  10.103 -0.4566 -0.1114  0.5767
  304TMC3    C5 4576   0.369   1.943  10.125  0.1427 -0.2100  0.2447
  304TMC3    C6 4577   0.238   1.931  10.171 -0.3137  0.5690 -0.1656
  304TMC3     C 4578   0.371   2.304  10.074 -0.3067 -0.6977 -0.5509
  304TMC3     O 4579   0.271   2.341  10.021  0.4082 -0.0383 -0.1601
  304TMC3     H 4580   0.187   2.266  10.213  1.2394  1.1067  0.1489
  304TMC3    H1 4581   0.516   2.083  10.043 -1.3200 -1.6410 -1.0368
  304TMC3    H2 4582   0.194   1.833  10.186 -1.2168  0.9550 -0.2815
  304TMC3    C7 4583   0.386   1.858  10.014 -0.1850 -0.1335  0.2690
  304TMC3    C8 4584   0.046   2.052  10.139  0.2664  0.1245  0.3708
  304TMC3    O1 4585   0.501   1.845   9.967  0.3546 -0.2166 -0.0123
  304TMC3    O2 4586   0.007   1.946  10.089 -0.0374  0.2544  0.0298
  305MPD2     C 4587   3.200   4.287  13.889 -0.0688  0.6699 -0.5415
  305MPD2    C1 4588   3.305   4.200  13.919 -0.2700  0.4675  0.5808
  305MPD2    C2 4589   3.356   4.126  13.814 -0.7571  0.3165  0.2479
  305MPD2    C3 4590   3.303   4.129  13.684 -0.2598  0.4356  0.3227
  305MPD2    C4 4591   3.194   4.213  13.669 -0.3753 -0.5489 -0.1769
  305MPD2    C5 4592   3.147   4.286  13.767 -0.2144  0.1682 -1.1273
  305MPD2     H 4593   3.449   4.076  13.838 -0.8289 -0.4374 -1.0613
  305MPD2    H1 4594   3.150   4.225  13.570  0.0432  0.4097 -0.2489
  305MPD2    H2 4595   3.136   4.338  13.961  1.1209  3.6349 -1.6073
  305MPD2    H3 4596   3.072   4.362  13.750  0.2955  0.9990  0.3779
  305MPD2     N 4597   3.353   4.056  13.576  0.0008  0.8865  0.4256
  305MPD2    H5 4598   3.313   4.076  13.484 -0.9898  0.3231  0.7334
  305MPD2    N1 4599   3.359   4.224  14.045 -0.3264 -0.0949 -0.1535
  305MPD2    H7 4600   3.310   4.296  14.098 -0.5560 -0.0782 -0.3869
  306TMC3    C1 4601   3.540   4.217  14.200 -0.2292 -0.2976  0.7568
  306TMC3    C2 4602   3.651   4.147  14.244  0.0963  0.1132  0.4019
  306TMC3    C3 4603   3.743   4.212  14.325 -0.3395 -0.2014  0.9952
  306TMC3    C4 4604   3.513   4.348  14.243 -0.6821 -0.3270 -0.2230
  306TMC3    C5 4605   3.614   4.403  14.321 -0.1256 -0.2649  0.5649
  306TMC3    C6 4606   3.732   4.341  14.357 -0.3235  0.1659 -0.3347
  306TMC3     C 4607   3.465   4.152  14.100  0.3272  0.5880 -0.3427
  306TMC3     O 4608   3.511   4.053  14.049 -0.0452  0.0438  0.1430
  306TMC3     H 4609   3.653   4.038  14.247  2.3800  0.1688  0.7166
  306TMC3    H1 4610   3.423   4.405  14.223 -0.2460  1.0077  1.6737
  306TMC3    H2 4611   3.803   4.397  14.417 -1.5613  1.6413 -0.2413
  306TMC3    C7 4612   3.636   4.549  14.327 -0.2261 -0.0352  0.3937
  306TMC3    C8 4613   3.838   4.124  14.384 -0.0049  0.3449  0.7381
  306TMC3    O1 4614   3.586   4.616  14.240 -0.1510  0.1264  0.0275
  306TMC3    O2 4615   3.850   4.016  14.328  1.0888  0.2575  0.4689
  307MPD2     C 4616   1.693   1.925   0.835 -0.0051 -0.3525 -0.1859
  307MPD2    C1 4617   1.611   2.008   0.765  0.2683 -0.3881 -0.2385
  307MPD2    C2 4618   1.479   1.968   0.743 -0.3022  0.1030  0.0320
  307MPD2    C3 4619   1.430   1.845   0.786  0.0552 -0.0947 -0.0263
  307MPD2    C4 4620   1.517   1.757   0.847 -0.4915 -0.1259 -0.0312
  307MPD2    C5 4621   1.647   1.800   0.864  0.2376 -0.1116  0.0164
  307MPD2     H 4622   1.409   2.039   0.700 -1.3200 -0.3255  0.9695
  307MPD2    H1 4623   1.500   1.662   0.895  0.3780 -1.1537 -1.7472
  307MPD2    H2 4624   1.797   1.950   0.846  0.2401 -0.8245 -1.4456
  307MPD2    H3 4625   1.718   1.736   0.913  1.7216  0.1912 -1.7289
  307MPD2     N 4626   1.299   1.818   0.751  0.6588  0.1011  0.2606
  307MPD2    H5 4627   1.254   1.893   0.700  0.0929 -0.5843 -0.2479
  307MPD2    N1 4628   1.643   2.132   0.704  0.4288  0.1908  0.3862
  307MPD2    H7 4629   1.578   2.160   0.632  1.8205  2.5073  0.0400
  308TMC3    C1 4630   0.945   1.791   0.617 -1.0727 -0.1186  0.3446
  308TMC3    C2 4631   0.899   1.893   0.698  0.0870 -0.2499  0.1701
  308TMC3    C3 4632   0.957   1.904   0.819  0.2186 -0.7699 -0.2984
  308TMC3    C4 4633   1.050   1.712   0.657  0.0151  0.0961 -0.2350
  308TMC3    C5 4634   1.091   1.724   0.788 -0.2158 -0.5472 -0.3015
  308TMC3    C6 4635   1.057   1.825   0.875  0.4354 -0.1070  0.5734
  308TMC3     C 4636   0.878   1.772   0.494  0.2381 -0.6715 -0.1428
  308TMC3     O 4637   0.856   1.656   0.456 -0.0854 -0.2232  0.1579
  308TMC3     H 4638   0.816   1.954   0.663 -0.5351 -0.9770  0.3992
  308TMC3    H1 4639   1.097   1.647   0.585  1.8003  0.9520  0.1585
  308TMC3    H2 4640   1.098   1.842   0.973  0.9780  0.9673  0.1660
  308TMC3    C7 4641   1.231   1.711   0.797 -0.2829 -0.2079  0.2639
  308TMC3    C8 4642   0.920   2.022   0.894  0.3130 -0.6377  0.8533
  308TMC3    O1 4643   1.270   1.609   0.848 -0.4164  0.1588 -0.2089
  308TMC3    O2 4644   0.965   2.033   1.006 -0.1729 -0.7017 -0.1181
  309MPD2     C 4645   0.389   2.638  17.092  0.1832 -0.3181 -0.1717
  309MPD2    C1 4646   0.382   2.775  17.063  0.1101  0.6862  0.0371
  309MPD2    C2 4647   0.267   2.844  17.102 -0.1122  0.5645 -0.5690
  309MPD2    C3 4648   0.175   2.787  17.189  0.6433  0.4624 -0.5943
  309MPD2    C4 4649   0.196   2.655  17.230 -1.0709 -0.6759  0.3721
  309MPD2    C5 4650   0.302   2.577  17.178  0.6028  0.2802  0.0094
  309MPD2     H 4651   0.259   2.949  17.076 -0.2397  0.7536  0.2435
  309MPD2    H1 4652   0.119   2.617  17.295 -2.0389 -0.5269 -0.6878
  309MPD2    H2 4653   0.464   2.577  17.044  0.8278  1.8061 -1.8562
  309MPD2    H3 4654   0.309   2.471  17.198 -1.2755 -0.0998 -1.3429
  309MPD2     N 4655   0.055   2.848  17.233 -0.2689 -0.1106 -0.0534
  309MPD2    H5 4656   4.717   2.809  17.302 -0.8785  1.8469  0.5232
  309MPD2    N1 4657   0.468   2.849  16.988  0.4501 -0.0939 -0.2469
  309MPD2    H7 4658   0.442   2.945  16.969  0.6180 -0.3233 -1.6991
  310TMC3    C1 4659   0.668   2.888  16.856 -0.0121  0.3442 -0.2231
  310TMC3    C2 4660   0.614   2.976  16.776  0.0559  0.3016  0.2460
  310TMC3    C3 4661   0.694   3.038  16.679  0.3328  0.0854  0.4672
  310TMC3    C4 4662   0.802   2.863  16.852 -0.2283  0.6363  0.8296
  310TMC3    C5 4663   0.887   2.934  16.766  0.3796  0.7187 -0.3064
  310TMC3    C6 4664   0.832   3.021  16.671  0.4476 -0.4034  0.2787
  310TMC3     C 4665   0.598   2.806  16.950  0.2998 -0.1647 -0.0348
  310TMC3     O 4666   0.660   2.709  16.997  0.1180  0.2145 -0.3511
  310TMC3     H 4667   0.506   2.989  16.771  0.0576 -0.2628 -1.5502
  310TMC3    H1 4668   0.849   2.794  16.920 -1.4329 -1.1404 -0.1473
  310TMC3    H2 4669   0.892   3.084  16.606 -1.5677  0.5225 -0.6717
  310TMC3    C7 4670   1.022   2.879  16.756 -0.5070  0.3155  0.6323
  310TMC3    C8 4671   0.627   3.076  16.555 -0.1622  0.2160 -0.5261
  310TMC3    O1 4672   1.061   2.819  16.856 -0.0332 -0.4937  0.6785
  310TMC3    O2 4673   0.523   3.022  16.534 -0.8934 -0.3896 -0.2822
  311MPD2     C 4674   2.706   4.031  12.534 -0.6186 -0.5981 -0.1071
  311MPD2    C1 4675   2.592   4.108  12.506  0.0705 -1.0076 -0.1434
  311MPD2    C2 4676   2.488   4.103  12.596 -0.7553 -0.0801 -0.8717
  311MPD2    C3 4677   2.494   4.034  12.718  0.5041  0.3474  0.4834
  311MPD2    C4 4678   2.612   3.960  12.738 -0.8385  0.0163  0.1405
  311MPD2    C5 4679   2.718   3.968  12.653 -0.5232 -0.3388  0.7388
  311MPD2     H 4680   2.399   4.162  12.577 -0.1176  1.0498 -0.3765
  311MPD2    H1 4681   2.627   3.909  12.832 -1.8394 -0.9842 -0.2352
  311MPD2    H2 4682   2.799   4.039  12.479  0.2888 -1.0484  1.3698
  311MPD2    H3 4683   2.813   3.922  12.674  0.0221  0.3077 -0.2987
  311MPD2     N 4684   2.385   4.048  12.802 -0.0197  0.2255 -0.1080
  311MPD2    H5 4685   2.296   4.063  12.756  0.3716  3.9352  0.2863
  311MPD2    N1 4686   2.588   4.208  12.407  0.3756 -1.1197 -0.1163
  311MPD2    H7 4687   2.504   4.265  12.402 -1.1042 -3.2638  0.5196
  312TMC3    C1 4688   2.291   4.109  12.991  0.7620  0.3730 -0.1988
  312TMC3    C2 4689   2.165   4.089  12.944  0.6542  0.3194 -0.3518
  312TMC3    C3 4690   2.058   4.154  13.009 -0.1985 -0.4365  0.1855
  312TMC3    C4 4691   2.319   4.195  13.094  0.1716 -0.4328  0.0587
  312TMC3    C5 4692   2.214   4.263  13.149  0.7608  0.3147  0.1558
  312TMC3    C6 4693   2.084   4.238  13.109 -0.8046  0.1957  0.6917
  312TMC3     C 4694   2.400   4.049  12.937  0.3194 -0.9926  0.8852
  312TMC3     O 4695   2.498   4.044  13.008 -0.1695  0.3197  0.0837
  312TMC3     H 4696   2.151   4.013  12.868 -0.0295 -0.5192  0.6132
  312TMC3    H1 4697   2.423   4.224  13.102 -0.2805  1.2374 -0.1602
  312TMC3    H2 4698   2.001   4.291  13.155 -1.1706  0.7902 -0.6521
  312TMC3    C7 4699   2.242   4.372  13.246 -0.0737  0.0499  0.3720
  312TMC3    C8 4700   1.930   4.146  12.940  0.2451  0.0271  0.0148
  312TMC3    O1 4701   2.151   4.447  13.281 -0.4043 -0.2287  0.2057
  312TMC3    O2 4702   1.909   4.049  12.870  0.0143 -0.1367  0.3348
  313MPD2     C 4703   1.392   3.358  11.139 -0.3159  1.0527 -0.1764
  313MPD2    C1 4704   1.438   3.353  11.006 -0.3543 -0.2389  0.3898
  313MPD2    C2 4705   1.397   3.244  10.924 -0.1786 -0.1690  0.3387
  313MPD2    C3 4706   1.304   3.157  10.966 -0.2922  0.5900  0.2517
  313MPD2    C4 4707   1.251   3.162  11.091  0.3699  0.8117 -0.0546
  313MPD2    C5 4708   1.295   3.263  11.175  0.5128 -0.2012 -0.0706
  313MPD2     H 4709   1.437   3.246  10.824 -2.8929 -1.8977 -0.7840
  313MPD2    H1 4710   1.177   3.094  11.133  0.2168  0.5390 -0.7781
  313MPD2    H2 4711   1.418   3.441  11.203  0.5274  0.3476  0.3944
  313MPD2    H3 4712   1.246   3.275  11.270 -1.7703  0.0787 -1.2830
  313MPD2     N 4713   1.270   3.058  10.873  0.2774 -0.1077  0.4773
  313MPD2    H5 4714   1.314   3.065  10.781 -0.0025 -0.2040  0.3333
  313MPD2    N1 4715   1.538   3.441  10.953 -0.4939 -0.1528 -0.0718
  313MPD2    H7 4716   1.572   3.420  10.860 -1.8379 -0.6309 -0.4488
  314TMC3    C1 4717   1.681   3.621  10.926  0.6423  0.1993  0.4064
  314TMC3    C2 4718   1.791   3.678  10.990  0.4092  0.2374  0.2628
  314TMC3    C3 4719   1.888   3.725  10.912 -0.3504 -0.8211  0.0181
  314TMC3    C4 4720   1.653   3.635  10.791  0.9382  0.0107  0.0449
  314TMC3    C5 4721   1.738   3.707  10.721 -0.4192 -0.1546 -0.4798
  314TMC3    C6 4722   1.866   3.738  10.777 -0.5425  0.5731  0.0687
  314TMC3     C 4723   1.585   3.555  11.012 -0.1502 -0.1815 -0.1853
  314TMC3     O 4724   1.572   3.601  11.125 -0.0329 -0.1801 -0.0171
  314TMC3     H 4725   1.793   3.678  11.098 -0.4023  0.2556  0.2808
  314TMC3    H1 4726   1.558   3.597  10.755 -0.6969  2.9340  1.2946
  314TMC3    H2 4727   1.944   3.785  10.717 -0.7928  0.8331 -0.0544
  314TMC3    C7 4728   1.702   3.725  10.578  0.5975 -0.1412  0.6304
  314TMC3    C8 4729   1.997   3.802  10.971 -0.9786  0.5538  0.5344
  314TMC3    O1 4730   1.590   3.695  10.551 -0.1270 -0.5376  0.0947
  314TMC3    O2 4731   2.040   3.894  10.898 -0.1107  0.4695 -0.3483
  315MPD2     C 4732   1.634   2.843   0.070 -0.0129 -0.1599 -0.1954
  315MPD2    C1 4733   1.761   2.789   0.097 -0.2015 -0.6980  0.6049
  315MPD2    C2 4734   1.871   2.875   0.099  0.4640 -0.1658  0.1723
  315MPD2    C3 4735   1.860   3.005   0.059  0.3096  0.4596  0.2858
  315MPD2    C4 4736   1.733   3.059   0.038  0.1174  0.3189  0.6263
  315MPD2    C5 4737   1.619   2.974   0.043 -0.3091  0.4062  0.2137
  315MPD2     H 4738   1.971   2.835   0.114  0.7826  0.1914 -0.9746
  315MPD2    H1 4739   1.713   3.164   0.021 -0.4375  0.5887  2.8464
  315MPD2    H2 4740   1.543   2.783   0.062 -0.2486  0.2126 -0.2844
  315MPD2    H3 4741   1.522   3.021   0.029  0.8487  2.6201 -0.3904
  315MPD2     N 4742   1.980   3.081   0.043  0.7216  0.7205  0.3667
  315MPD2    H5 4743   2.065   3.031   0.065 -0.2999 -0.7619  0.9724
  315MPD2    N1 4744   1.774   2.651   0.119 -0.5332  0.2248  0.0092
  315MPD2    H7 4745   1.868   2.618   0.139 -0.4772  0.0199 -0.5808
  316TMC3    C1 4746   2.115   3.240  17.645 -0.4644  0.2197  0.3669
  316TMC3    C2 4747   2.216   3.211   0.035  0.3490 -0.6737  0.3640
  316TMC3    C3 4748   2.340   3.271   0.011  0.3300  0.5257  0.4671
  316TMC3    C4 4749   2.138   3.324  17.540 -0.4869 -0.0290  0.2405
  316TMC3    C5 4750   2.262   3.376  17.516  0.5329 -0.6058  0.8746
  316TMC3    C6 4751   2.366   3.349  17.602  0.1560  0.5910 -1.2650
  316TMC3     C 4752   1.978   3.204  17.685 -0.2739 -0.2941  0.2509
  316TMC3     O 4753   1.889   3.267  17.632 -0.4004  0.9958 -0.0932
  316TMC3     H 4754   2.191   3.155   0.124 -1.6230 -0.5904 -0.1373
  316TMC3    H1 4755   2.057   3.340  17.470 -0.6691  0.1948  0.5032
  316TMC3    H2 4756   2.469   3.376  17.581  0.8357  0.5800  2.1375
  316TMC3    C7 4757   2.297   3.441  17.388  0.0385  0.1236 -0.0232
  316TMC3    C8 4758   2.442   3.267   0.117 -0.1960 -0.1522  0.1420
  316TMC3    O1 4759   2.413   3.454  17.364 -0.1067  0.2656  0.1275
  316TMC3    O2 4760   2.539   3.345   0.109  0.4318  0.0211 -0.2957
  317MPD2     C 4761   3.005   1.422  12.754 -0.8954 -0.3076  0.0519
  317MPD2    C1 4762   3.071   1.306  12.739  0.2180 -0.1013 -0.3569
  317MPD2    C2 4763   3.125   1.227  12.843 -0.7260  0.3586  0.0006
  317MPD2    C3 4764   3.103   1.268  12.972  0.0320  0.0350  0.4629
  317MPD2    C4 4765   3.039   1.391  12.992  0.0701 -0.1521  0.0536
  317MPD2    C5 4766   2.995   1.471  12.884  0.9665 -0.6897  0.0064
  317MPD2     H 4767   3.164   1.128  12.819  1.1329  1.2345 -0.5983
  317MPD2    H1 4768   3.036   1.430  13.093  0.5500  1.9527 -0.7332
  317MPD2    H2 4769   2.995   1.487  12.668 -0.0931 -0.9008 -0.4974
  317MPD2    H3 4770   2.957   1.571  12.901 -1.8025 -1.9442  1.1565
  317MPD2     N 4771   3.157   1.182  13.074 -0.5315 -0.0875  0.2674
  317MPD2    H5 4772   3.223   1.109  13.048 -3.0055 -1.9491 -0.8187
  317MPD2    N1 4773   3.083   1.252  12.601 -0.1802 -0.9821  0.3637
  317MPD2    H7 4774   3.023   1.301  12.535  0.0563 -0.4611  0.5350
  318TMC3    C1 4775   3.236   1.116  13.279  0.6950 -0.0240 -0.5100
  318TMC3    C2 4776   3.237   0.984  13.239  0.0425  0.0358  0.1997
  318TMC3    C3 4777   3.302   0.896  13.318 -0.2433 -0.4129 -0.0226
  318TMC3    C4 4778   3.289   1.152  13.403 -0.0034  0.3426  0.0542
  318TMC3    C5 4779   3.364   1.059  13.474  0.2259 -0.4809 -0.3364
  318TMC3    C6 4780   3.374   0.927  13.431  0.2613 -0.2586 -0.0663
  318TMC3     C 4781   3.146   1.204  13.206  0.2284 -0.3696  0.0807
  318TMC3     O 4782   3.109   1.306  13.262  0.2519  0.0228  0.5783
  318TMC3     H 4783   3.182   0.952  13.151  0.7071 -0.9669  0.1548
  318TMC3    H1 4784   3.270   1.251  13.443  1.2397  0.6646 -0.1682
  318TMC3    H2 4785   3.414   0.848  13.494 -0.5482 -3.2631 -3.2733
  318TMC3    C7 4786   3.469   1.102  13.565 -0.1846  0.8492  0.3845
  318TMC3    C8 4787   3.290   0.754  13.301  0.5574  0.0377 -0.4539
  318TMC3    O1 4788   3.434   1.206  13.619  0.0912  0.0152  0.2803
  318TMC3    O2 4789   3.388   0.684  13.324 -0.2919  0.5494 -0.1728
  319MPD2     C 4790   0.119   2.286  16.140  0.4083 -0.3443  0.6610
  319MPD2    C1 4791   0.063   2.398  16.208  0.3492 -0.1716 -0.2516
  319MPD2    C2 4792   4.650   2.414  16.216  0.1327  0.1053  0.3563
  319MPD2    C3 4793   4.568   2.324  16.157  0.3498 -0.0889  0.6326
  319MPD2    C4 4794   4.621   2.205  16.098  0.2784 -0.0854 -0.4316
  319MPD2    C5 4795   0.032   2.194  16.081  0.5620  0.4897  0.5871
  319MPD2     H 4796   4.614   2.496  16.277 -1.3269  0.9202 -1.6176
  319MPD2    H1 4797   4.546   2.146  16.047  0.5054 -0.8387  0.1128
  319MPD2    H2 4798   0.223   2.258  16.139  0.1837 -1.1433 -1.3804
  319MPD2    H3 4799   0.067   2.118  16.013 -2.1117  0.2692 -0.5592
  319MPD2     N 4800   4.431   2.342  16.156  0.7403 -0.4772 -0.4833
  319MPD2    H5 4801   4.384   2.257  16.125 -0.3382 -0.3979  0.9110
  319MPD2    N1 4802   0.141   2.490  16.271  0.1885  0.9294 -0.1206
  319MPD2    H7 4803   0.091   2.566  16.316  0.1685  0.1388  1.2047
  320TMC3    C1 4804   4.214   2.419  16.189  0.0600  0.4944 -0.0794
  320TMC3    C2 4805   4.140   2.507  16.102  0.2210  0.0134  0.0308
  320TMC3    C3 4806   4.042   2.450  16.024 -0.2083 -0.2763  0.6581
  320TMC3    C4 4807   4.180   2.293  16.209 -0.1446 -0.2548 -0.3298
  320TMC3    C5 4808   4.065   2.248  16.156  0.1370 -0.2988  0.1180
  320TMC3    C6 4809   3.996   2.322  16.062  0.5523  0.1675 -0.3859
  320TMC3     C 4810   4.357   2.451  16.190 -0.6818 -0.6145  0.1527
  320TMC3     O 4811   4.383   2.567  16.198  0.2111 -0.3735  0.2021
  320TMC3     H 4812   4.173   2.604  16.069 -2.1011  0.9045  0.3512
  320TMC3    H1 4813   4.230   2.244  16.292  0.5274  0.6903 -0.1800
  320TMC3    H2 4814   3.910   2.287  16.006  0.8778 -1.4592  0.1393
  320TMC3    C7 4815   4.036   2.109  16.168 -0.3770 -0.4403  0.5254
  320TMC3    C8 4816   3.967   2.536  15.947  0.3607 -0.1182  0.5414
  320TMC3    O1 4817   3.962   2.053  16.089  0.1654 -0.3293 -0.2497
  320TMC3    O2 4818   3.985   2.656  15.962  0.4924  0.1709  0.6639
  321TMC3    C1 4819   0.315   2.593  16.379  0.0415 -0.1659 -0.2899
  321TMC3    C2 4820   0.256   2.588  16.507  0.0913  0.5848 -0.0795
  321TMC3    C3 4821   0.307   2.663  16.612 -0.6411 -0.5140 -0.1349
  321TMC3    C4 4822   0.439   2.642  16.363  0.4705  0.5468  0.1834
  321TMC3    C5 4823   0.487   2.723  16.463 -0.0229 -0.0850 -0.4675
  321TMC3    C6 4824   0.413   2.736  16.577 -0.1171 -0.2091 -0.2990
  321TMC3     C 4825   0.278   2.491  16.282 -0.8565 -0.1172  0.4738
  321TMC3     O 4826   0.368   2.434  16.221 -0.0664  0.0266 -0.6774
  321TMC3     H 4827   0.160   2.538  16.519  1.0910 -1.1239  0.9096
  321TMC3    H1 4828   0.497   2.632  16.273  0.0448  0.7098 -0.1101
  321TMC3    H2 4829   0.455   2.798  16.656 -0.3823  3.3620 -2.9341
  321TMC3    C7 4830   0.631   2.725  16.469  0.2436  0.2128  0.0717
  321TMC3    C8 4831   0.360   2.583  16.716 -0.3766 -0.6283  0.3690
  321TMC3    O1 4832   0.684   2.751  16.368  0.2004 -0.5159  0.3225
  321TMC3    O2 4833   0.478   2.574  16.728  0.0060 -0.5291 -0.4195
  322MPD2     C 4834   3.315   3.575  13.658 -0.3331  0.3769  0.8080
  322MPD2    C1 4835   3.358   3.508  13.763 -0.3361  0.1581 -0.4869
  322MPD2    C2 4836   3.399   3.382  13.739  0.3029  0.3372 -0.1210
  322MPD2    C3 4837   3.407   3.327  13.614 -0.6820  0.2689 -0.2673
  322MPD2    C4 4838   3.350   3.392  13.515 -0.1519 -0.1331 -0.2691
  322MPD2    C5 4839   3.291   3.511  13.537  0.4103 -0.1221 -1.1611
  322MPD2     H 4840   3.452   3.331  13.819 -0.0685  1.3199  0.7450
  322MPD2    H1 4841   3.343   3.333  13.425  0.9148  0.7926 -0.9426
  322MPD2    H2 4842   3.272   3.674  13.669 -0.4980  0.6050 -1.8400
  322MPD2    H3 4843   3.248   3.569  13.457  1.0241 -0.5374 -1.7972
  322MPD2     N 4844   3.482   3.206  13.598  0.4475  0.5834  0.1448
  322MPD2    H5 4845   3.541   3.190  13.679  0.2083 -2.4405 -0.3018
  322MPD2    N1 4846   3.381   3.585  13.882 -0.4751 -0.0480 -0.4247
  322MPD2    H7 4847   3.362   3.684  13.889 -2.2404 -0.3324 -1.1817
  323TMC3    C1 4848   3.496   3.627  14.089 -0.3034  0.5010 -0.2293
  323TMC3    C2 4849   3.581   3.731  14.043 -0.3607 -0.4120 -0.3430
  323TMC3    C3 4850   3.687   3.771  14.117  0.1106  0.1721 -0.4920
  323TMC3    C4 4851   3.522   3.574  14.210  1.1775  0.3089  0.3471
  323TMC3    C5 4852   3.617   3.626  14.292 -0.1813 -1.0101 -1.3313
  323TMC3    C6 4853   3.707   3.723  14.247 -0.1752  0.3503 -0.4994
  323TMC3     C 4854   3.435   3.528  13.994  0.2216 -0.3775  0.2093
  323TMC3     O 4855   3.448   3.406  14.023 -0.1076 -0.1716 -0.3372
  323TMC3     H 4856   3.568   3.777  13.946 -2.4436 -1.1463 -0.4000
  323TMC3    H1 4857   3.469   3.486  14.243  1.8332  0.3669  1.5868
  323TMC3    H2 4858   3.795   3.757  14.302 -0.0885 -0.0482 -0.3880
  323TMC3    C7 4859   3.683   3.523  14.373  0.1355  0.7365 -0.0584
  323TMC3    C8 4860   3.801   3.830  14.049 -0.4337  0.1825 -0.2278
  323TMC3    O1 4861   3.658   3.404  14.359 -0.3474 -0.0955 -0.0923
  323TMC3    O2 4862   3.916   3.808  14.086  0.4000  0.8007 -0.0490
  324MPD2     C 4863   0.085   4.456  14.457  0.3034 -0.3051 -0.2818
  324MPD2    C1 4864   0.118   4.557  14.371 -0.6838 -0.5300  0.2430
  324MPD2    C2 4865   0.027   4.618  14.290 -0.3181 -0.2622  0.4113
  324MPD2    C3 4866   4.619   4.584  14.295  0.4407 -0.2430  0.6654
  324MPD2    C4 4867   4.585   4.471  14.370 -0.5496  0.3299  0.5666
  324MPD2    C5 4868   4.679   4.409  14.453  0.6632 -0.0315 -0.2972
  324MPD2     H 4869   0.068   4.686  14.216  0.4104 -1.1149  0.0349
  324MPD2    H1 4870   4.479   4.450  14.378 -0.6314  1.1659  1.7345
  324MPD2    H2 4871   0.147   4.416  14.537 -0.2923 -1.9880 -0.6447
  324MPD2    H3 4872   4.655   4.324  14.516  0.8536 -1.8142 -2.5974
  324MPD2     N 4873   4.516   4.637  14.217 -0.0015  0.2097  0.4209
  324MPD2    H5 4874   4.424   4.595  14.223 -0.8923  1.7857 -1.8330
  324MPD2    N1 4875   0.252   4.610  14.371  0.0315 -0.1211  0.1656
  324MPD2    H7 4876   0.271   4.671  14.292  0.3835  0.2145  0.5031
  325TMC3    C1 4877   4.399   0.096  14.128 -0.0575 -0.9005 -0.0916
  325TMC3    C2 4878   4.294   0.015  14.086  0.7151 -0.6072 -0.2495
  325TMC3    C3 4879   4.171   0.074  14.058  0.7322  0.1907  0.4157
  325TMC3    C4 4880   4.390   0.232  14.141 -0.5621  0.2016  0.5235
  325TMC3    C5 4881   4.274   0.277  14.097 -0.1048 -0.5700 -0.2471
  325TMC3    C6 4882   4.164   0.208  14.064 -0.0811  0.1231 -0.1448
  325TMC3     C 4883   4.525   0.040  14.161  0.3338  0.6976  0.0375
  325TMC3     O 4884   4.617   0.120  14.172  0.1630  0.6814  1.1135
  325TMC3     H 4885   4.313   4.635  14.063  0.1348 -0.6948 -0.3357
  325TMC3    H1 4886   4.467   0.288  14.192  1.9439 -0.1847 -2.8320
  325TMC3    H2 4887   4.074   0.250  14.021 -0.0906 -0.1842 -0.4288
  325TMC3    C7 4888   4.275   0.411  14.047  0.2655  0.1063 -0.4140
  325TMC3    C8 4889   4.084   0.000  13.963 -0.5320  0.4051 -0.3020
  325TMC3    O1 4890   4.367   0.444  13.978 -0.4615  0.5554  0.3699
  325TMC3    O2 4891   4.131   4.632  13.900  0.1131 -0.0126 -0.0765
  326MPD2     C 4892   1.168   1.249  10.973 -0.6802  0.4177  0.3271
  326MPD2    C1 4893   1.226   1.308  10.859  0.4686 -0.3595 -0.3605
  326MPD2    C2 4894   1.315   1.418  10.881  0.2572  0.7441  0.2212
  326MPD2    C3 4895   1.357   1.461  10.999  0.3940 -0.3459 -1.1773
  326MPD2    C4 4896   1.314   1.387  11.112  0.3647 -0.5718  0.0936
  326MPD2    C5 4897   1.220   1.284  11.094  0.3245  0.4692 -0.5599
  326MPD2     H 4898   1.352   1.475  10.797 -0.3117  0.2579 -0.3664
  326MPD2    H1 4899   1.345   1.409  11.213  1.2805 -2.3182  0.1862
  326MPD2    H2 4900   1.097   1.167  10.978  0.3642 -0.5639 -0.6187
  326MPD2    H3 4901   1.176   1.248  11.187  1.5536  0.0765 -0.1192
  326MPD2     N 4902   1.451   1.564  11.026  0.3458 -0.1318  0.4578
  326MPD2    H5 4903   1.463   1.591  11.123 -0.0318 -1.2967  0.8288
  326MPD2    N1 4904   1.196   1.279  10.723  0.3171 -0.0792  0.2106
  326MPD2    H7 4905   1.234   1.334  10.647  0.0432 -0.6986 -0.3734
  327TMC3    C1 4906   1.148   1.130  10.543 -0.1528 -0.5498  0.0137
  327TMC3    C2 4907   1.083   1.225  10.462  0.1307 -0.2473  0.8757
  327TMC3    C3 4908   1.135   1.251  10.342 -0.0353  0.1043  0.6606
  327TMC3    C4 4909   1.269   1.088  10.512  0.3866  0.0070  0.2677
  327TMC3    C5 4910   1.328   1.130  10.397  0.1702 -0.2681  0.3542
  327TMC3    C6 4911   1.257   1.202  10.305 -0.3004  0.5799  0.0367
  327TMC3     C 4912   1.135   1.156  10.689  0.6254  0.0205 -0.4055
  327TMC3     O 4913   1.115   1.058  10.755  0.1693 -0.5745  0.0515
  327TMC3     H 4914   0.999   1.275  10.509 -0.6991 -0.7406 -0.0858
  327TMC3    H1 4915   1.315   1.034  10.594  1.5685 -0.2619 -0.5770
  327TMC3    H2 4916   1.303   1.249  10.219  0.5715  0.8062  0.6340
  327TMC3    C7 4917   1.461   1.184  10.421 -0.4713 -0.7941  0.6958
  327TMC3    C8 4918   1.053   1.330  10.253  0.1418  0.5953 -0.4711
  327TMC3    O1 4919   1.514   1.222  10.320  0.5416  0.4115  0.2652
  327TMC3    O2 4920   1.108   1.412  10.176 -0.6488  0.0761 -0.0561
  328MPD2     C 4921   4.097   0.982  16.927  0.3491  0.2491 -0.4137
  328MPD2    C1 4922   3.964   1.025  16.936  0.0515  0.1172  0.6498
  328MPD2    C2 4923   3.935   1.153  16.903  1.1004 -0.3952  0.8700
  328MPD2    C3 4924   4.040   1.242  16.864  0.6427 -0.1936 -0.1421
  328MPD2    C4 4925   4.168   1.201  16.873  0.3477 -0.1996  0.7615
  328MPD2    C5 4926   4.199   1.069  16.902  0.1704 -0.1283  0.2976
  328MPD2     H 4927   3.831   1.184  16.902  1.6434  1.3653 -0.1336
  328MPD2    H1 4928   4.249   1.265  16.837  0.3034 -1.0582 -0.8540
  328MPD2    H2 4929   4.111   0.877  16.952 -2.0554 -0.3042 -1.4142
  328MPD2    H3 4930   4.302   1.034  16.904  0.2209 -0.0799 -1.0242
  328MPD2     N 4931   4.004   1.375  16.826  0.5808  0.2265  0.0152
  328MPD2    H5 4932   4.082   1.436  16.808  1.9235 -0.9334  1.8909
  328MPD2    N1 4933   3.872   0.930  16.978  0.0651 -0.4197 -1.1114
  328MPD2    H7 4934   3.903   0.841  17.017 -0.4156 -0.5175 -0.9461
  329TMC3    C1 4935   3.671   0.851  17.064 -0.3169  0.0077  0.3137
  329TMC3    C2 4936   3.628   0.897  17.183  0.0656 -0.4030 -0.1524
  329TMC3    C3 4937   3.628   0.816  17.298  0.0324 -0.0593 -0.3234
  329TMC3    C4 4938   3.725   0.726  17.061  0.4461 -0.3408  0.7867
  329TMC3    C5 4939   3.719   0.649  17.175 -0.2787  0.9127 -0.2867
  329TMC3    C6 4940   3.676   0.689  17.290 -0.4853 -0.3000 -0.3363
  329TMC3     C 4941   3.734   0.958  16.993 -0.3909 -0.1703 -0.5996
  329TMC3     O 4942   3.668   1.059  16.981  0.1500 -0.2273  0.3967
  329TMC3     H 4943   3.606   1.003  17.191 -0.1986 -0.5673  1.3814
  329TMC3    H1 4944   3.767   0.682  16.972 -1.2933  0.4507 -0.4353
  329TMC3    H2 4945   3.669   0.633  17.382 -0.0661 -1.6873 -1.1463
  329TMC3    C7 4946   3.731   0.501  17.144  0.4903  0.5584  0.3279
  329TMC3    C8 4947   3.623   0.881  17.429  0.0884  0.3305 -0.1748
  329TMC3    O1 4948   3.720   0.464  17.027  0.2574 -0.2114 -0.6419
  329TMC3    O2 4949   3.688   0.831  17.520  0.1705  0.1886 -0.0887
  330TMC3    C1 4950   2.038   0.434   9.864  0.1573 -0.4312  0.3045
  330TMC3    C2 4951   1.958   0.353   9.794 -0.4343  0.5027  0.0430
  330TMC3    C3 4952   1.945   0.218   9.829 -0.3331 -0.0177  0.2895
  330TMC3    C4 4953   2.110   0.383   9.976 -0.1877 -0.0393  0.4472
  330TMC3    C5 4954   2.109   0.245   9.992  0.0687 -0.0015  0.1484
  330TMC3    C6 4955   2.028   0.161   9.921 -0.1305 -0.9184 -0.3310
  330TMC3     C 4956   2.018   0.582   9.857  1.0838  0.1665 -0.4140
  330TMC3     O 4957   2.041   0.640   9.963 -0.1690 -0.6385  0.5926
  330TMC3     H 4958   1.882   0.396   9.730  0.4910  3.2138  0.7726
  330TMC3    H1 4959   2.185   0.438  10.031 -0.9294  0.5414  0.8702
  330TMC3    H2 4960   2.022   0.055   9.940 -0.8048 -1.0717 -1.4072
  330TMC3    C7 4961   2.227   0.193  10.055 -0.2734 -0.2087 -0.0276
  330TMC3    C8 4962   1.839   0.144   9.758 -0.1135  0.4677  0.5775
  330TMC3    O1 4963   2.264   0.261  10.151  0.3267  0.5088 -0.1106
  330TMC3    O2 4964   1.798   0.202   9.658 -0.1978 -0.5465  0.5233
  331MPD2     C 4965   4.548   4.171  12.786  0.5139 -0.4891  0.3124
  331MPD2    C1 4966   4.666   4.205  12.736 -0.1241  0.1624 -0.0763
  331MPD2    C2 4967   0.006   4.121  12.640  0.2685 -1.0197 -0.3658
  331MPD2    C3 4968   4.673   4.009  12.606 -0.2827 -0.3583 -0.3907
  331MPD2    C4 4969   4.553   3.971  12.661 -0.4696  0.2878  0.0134
  331MPD2    C5 4970   4.488   4.053  12.747 -0.1820  0.0145  0.3597
  331MPD2     H 4971   0.092   4.160  12.587  0.3348 -0.0245  0.4653
  331MPD2    H1 4972   4.499   3.880  12.637 -0.9365 -0.0720  2.3911
  331MPD2    H2 4973   4.504   4.232  12.865  0.1176  0.3231 -0.5394
  331MPD2    H3 4974   4.394   4.027  12.794 -1.4701 -0.3200 -2.3823
  331MPD2     N 4975   0.023   3.934  12.509  0.2510 -0.3781  0.2695
  331MPD2    H5 4976   0.112   3.970  12.477 -0.4287  1.5461  0.5409
  331MPD2    N1 4977   4.723   4.321  12.788  0.4551 -1.0161 -0.1250
  331MPD2    H7 4978   4.663   4.374  12.850  1.7686 -0.1967  0.4207
  332TMC3    C1 4979   0.071   3.772  12.348  0.2193  0.1610  0.5294
  332TMC3    C2 4980   0.108   3.883  12.273  0.2191  0.0260  0.2668
  332TMC3    C3 4981   0.241   3.903  12.236  0.1375  0.4011 -0.0287
  332TMC3    C4 4982   0.167   3.679  12.376  0.2080  0.2033 -0.0587
  332TMC3    C5 4983   0.295   3.703  12.338  0.1873  0.5647  0.3888
  332TMC3    C6 4984   0.335   3.816  12.272  0.0147  0.1471  0.2759
  332TMC3     C 4985   4.706   3.810  12.460  0.4892 -0.1958  0.8835
  332TMC3     O 4986   4.631   3.721  12.506 -0.7626  0.2973  0.6131
  332TMC3     H 4987   0.035   3.962  12.255 -0.5352 -0.4943  1.0634
  332TMC3    H1 4988   0.144   3.599  12.445 -0.7465  0.0684 -0.5306
  332TMC3    H2 4989   0.430   3.819  12.221 -0.1083  0.4309  0.0650
  332TMC3    C7 4990   0.404   3.622  12.401  0.4616  0.2796  0.0861
  332TMC3    C8 4991   0.283   4.018  12.145 -0.0959 -0.4594 -0.1968
  332TMC3    O1 4992   0.374   3.512  12.437  0.2753 -0.5380 -0.3524
  332TMC3    O2 4993   0.403   4.031  12.126 -0.3684  0.1330  0.6043
  333MPD2     C 4994   0.253   4.384  11.252  0.2317 -0.0413  0.2466
  333MPD2    C1 4995   0.270   4.300  11.142  0.1758  1.2087  0.5309
  333MPD2    C2 4996   0.252   4.165  11.158  0.1720 -0.3695 -0.8471
  333MPD2    C3 4997   0.211   4.115  11.282  0.0437 -0.3492  0.2515
  333MPD2    C4 4998   0.205   4.198  11.387  0.2569 -0.1279  0.3488
  333MPD2    C5 4999   0.224   4.332  11.373  0.0319 -0.1147 -0.3295
  333MPD2     H 5000   0.263   4.097  11.074 -0.2706 -1.6691  0.1417
  333MPD2    H1 5001   0.181   4.158  11.484 -3.7428  1.4600 -0.0137
  333MPD2    H2 5002   0.274   4.491  11.246 -0.3767 -0.0554 -2.0816
  333MPD2    H3 5003   0.210   4.386  11.466 -3.3892  0.4429 -1.1540
  333MPD2     N 5004   0.213   3.978  11.299 -0.2203 -0.0558  1.0221
  333MPD2    H5 5005   0.212   3.928  11.210  0.9239  3.3517 -0.9262
  333MPD2    N1 5006   0.321   4.362  11.024  0.0796  0.0635  0.4144
  333MPD2    H7 5007   0.321   4.464  11.023  1.7328  0.0575 -0.9008
  334TMC3    C1 5008   0.412   4.381  10.804 -0.6218 -0.3735  0.3218
  334TMC3    C2 5009   0.496   4.312  10.717 -0.5191 -0.1542  0.3286
  334TMC3    C3 5010   0.572   4.382  10.634  0.0395  0.9240  0.2510
  334TMC3    C4 5011   0.406   4.518  10.817 -0.8099 -0.3380 -0.5284
  334TMC3    C5 5012   0.492   4.580  10.726  0.7839 -0.4336  0.5747
  334TMC3    C6 5013   0.572   4.515  10.639  0.0550 -0.2349 -0.2255
  334TMC3     C 5014   0.382   4.296  10.918 -0.4168  0.3288 -0.2483
  334TMC3     O 5015   0.411   4.179  10.905 -0.2121  0.2635 -0.5214
  334TMC3     H 5016   0.499   4.203  10.713 -2.2300 -0.1183 -1.7987
  334TMC3    H1 5017   0.375   4.570  10.907  1.3615  0.3815 -0.2000
  334TMC3    H2 5018   0.625   4.569  10.561 -0.2030 -0.0714 -0.2886
  334TMC3    C7 5019   0.490   4.723  10.724  0.7511 -0.3588  0.5653
  334TMC3    C8 5020   0.672   4.314  10.551 -0.1611  0.4977  0.7447
  334TMC3    O1 5021   0.597   0.057  10.700  0.1672 -0.1637  0.1068
  334TMC3    O2 5022   0.659   4.191  10.532  0.1719 -0.2129  0.5018
  335TMC3    C1 5023   0.165   1.041  17.345 -0.1348 -0.5649 -0.5022
  335TMC3    C2 5024   0.066   0.983  17.278  0.0043 -0.2095  0.4680
  335TMC3    C3 5025   0.055   1.018  17.144 -0.4673 -0.3293  0.0082
  335TMC3    C4 5026   0.269   1.097  17.278  0.0571  0.0674  0.2411
  335TMC3    C5 5027   0.257   1.128  17.151 -0.7375  0.4896 -0.1873
  335TMC3    C6 5028   0.153   1.087  17.076 -0.1567  0.0250  0.1670
  335TMC3     C 5029   0.181   1.011  17.484 -0.6008 -0.0300 -0.2120
  335TMC3     O 5030   0.109   0.926  17.533 -0.0206 -0.0741  0.2600
  335TMC3     H 5031   4.716   0.927  17.335  2.0006 -0.5648  2.7407
  335TMC3    H1 5032   0.363   1.125  17.323 -1.4051  2.0701  2.0798
  335TMC3    H2 5033   0.151   1.102  16.969  0.6317 -1.3776 -0.0432
  335TMC3    C7 5034   0.370   1.184  17.076 -0.0995 -0.2855 -0.1789
  335TMC3    C8 5035   4.690   0.944  17.055 -0.4907  0.9539 -0.2489
  335TMC3    O1 5036   0.394   1.137  16.969 -0.0784  0.0171 -0.4485
  335TMC3    O2 5037   4.710   0.951  16.936 -0.7261  0.8340 -0.8825
  336MPD2     C 5038   4.103   3.563  16.499 -0.2042  0.0086 -0.2837
  336MPD2    C1 5039   4.128   3.487  16.389  0.0477 -0.1861  0.2921
  336MPD2    C2 5040   4.188   3.362  16.399  0.3334  0.3209  0.3743
  336MPD2    C3 5041   4.236   3.319  16.521 -0.1644 -0.0721  0.5300
  336MPD2    C4 5042   4.199   3.393  16.636  0.2620  0.2574  0.3228
  336MPD2    C5 5043   4.139   3.516  16.626  0.8335 -0.5060  0.2950
  336MPD2     H 5044   4.196   3.304  16.308  1.6463 -0.8995  1.2541
  336MPD2    H1 5045   4.220   3.354  16.735 -0.0443 -3.3547 -1.0418
  336MPD2    H2 5046   4.053   3.659  16.490 -0.1948  0.0581  0.1564
  336MPD2    H3 5047   4.124   3.584  16.709  2.3588  0.0286  0.1387
  336MPD2     N 5048   4.310   3.197  16.530 -0.3517  0.3104 -0.0564
  336MPD2    H5 5049   4.345   3.161  16.619  0.8873  0.9056 -0.3102
  336MPD2    N1 5050   4.108   3.533  16.256  0.8234 -0.3180  0.1427
  336MPD2    H7 5051   4.138   3.474  16.179  0.1123 -0.4852 -0.0104
  337TMC3    C1 5052   4.056   3.669  16.075 -0.5185 -0.2221 -0.2490
  337TMC3    C2 5053   4.076   3.564  15.989 -0.1582 -0.3826 -0.3207
  337TMC3    C3 5054   4.109   3.588  15.854 -0.4155  0.6778 -0.4227
  337TMC3    C4 5055   4.050   3.795  16.024  0.4215  0.0101  0.4758
  337TMC3    C5 5056   4.068   3.817  15.889 -0.6649 -0.2150 -0.9942
  337TMC3    C6 5057   4.111   3.719  15.802 -0.2146 -0.5002  0.6778
  337TMC3     C 5058   4.050   3.651  16.225 -0.4615  0.2951 -0.3552
  337TMC3     O 5059   3.986   3.733  16.292 -0.6742  0.0329 -0.4854
  337TMC3     H 5060   4.075   3.462  16.024  2.6495 -0.2067  0.2734
  337TMC3    H1 5061   4.037   3.877  16.094 -0.5087 -0.5216  0.9130
  337TMC3    H2 5062   4.155   3.740  15.705 -1.0174 -1.9652  0.0051
  337TMC3    C7 5063   4.096   3.953  15.844  0.6090  0.1223  0.8010
  337TMC3    C8 5064   4.123   3.472  15.772  0.4327  0.3371  0.1255
  337TMC3    O1 5065   4.093   4.035  15.935  0.2902  0.2713  0.0358
  337TMC3    O2 5066   4.178   3.377  15.829  0.0379  0.0271  0.1481
  338MPD2     C 5067   0.336   2.134   0.839 -0.0113 -1.1111 -0.0161
  338MPD2    C1 5068   0.340   2.271   0.819  0.1288 -0.0816 -0.3779
  338MPD2    C2 5069   0.362   2.353   0.927  1.0598 -0.8449  1.2207
  338MPD2    C3 5070   0.371   2.297   1.053 -0.0372  1.1242  1.0166
  338MPD2    C4 5071   0.355   2.159   1.075  0.0238  0.3139 -0.2497
  338MPD2    C5 5072   0.339   2.077   0.963  0.1805  0.5226 -0.4884
  338MPD2     H 5073   0.373   2.459   0.910  1.8421 -1.3787 -1.5695
  338MPD2    H1 5074   0.355   2.117   1.175  0.0467  0.9123 -0.0001
  338MPD2    H2 5075   0.334   2.067   0.754  2.1347 -1.3257  0.0961
  338MPD2    H3 5076   0.327   1.972   0.982  1.3209 -0.1370 -3.3819
  338MPD2     N 5077   0.377   2.394   1.161 -0.3041 -0.0349 -0.3020
  338MPD2    H5 5078   0.376   2.490   1.128 -1.5609 -0.4643 -1.4812
  338MPD2    N1 5079   0.309   2.322   0.690 -0.0183 -0.0957  0.2825
  338MPD2    H7 5080   0.300   2.250   0.620  1.4198 -1.3131  1.3318
  339TMC3    C1 5081   0.338   2.466   1.375 -0.4118 -0.6110 -0.0891
  339TMC3    C2 5082   0.251   2.426   1.473 -0.0943  0.2264  0.0352
  339TMC3    C3 5083   0.147   2.509   1.514  0.7207  0.0904 -0.2037
  339TMC3    C4 5084   0.322   2.594   1.320  0.6012  0.6012  0.3583
  339TMC3    C5 5085   0.218   2.671   1.361  0.3226 -0.0542  0.0851
  339TMC3    C6 5086   0.131   2.634   1.455  0.1299 -0.3035 -0.5502
  339TMC3     C 5087   0.400   2.358   1.295 -0.5123  0.2676 -1.1997
  339TMC3     O 5088   0.419   2.251   1.350 -0.4051 -0.1295  1.0251
  339TMC3     H 5089   0.260   2.341   1.539  3.3628  0.6223  0.0446
  339TMC3    H1 5090   0.405   2.622   1.257  2.1589 -1.9695  1.2381
  339TMC3    H2 5091   0.050   2.702   1.476 -0.1883 -0.5814 -0.8946
  339TMC3    C7 5092   0.204   2.786   1.270 -0.2379  0.2347 -0.5829
  339TMC3    C8 5093   0.047   2.464   1.607 -0.9923  0.2657 -0.1808
  339TMC3    O1 5094   0.284   2.812   1.186 -0.3732 -0.8045 -0.1552
  339TMC3    O2 5095   4.691   2.550   1.644  0.7217 -0.2593 -0.1998
  340MPD2     C 5096   4.686   0.378   9.635  0.0166 -0.1841  0.6082
  340MPD2    C1 5097   0.098   0.357   9.637 -0.4263 -0.7666  0.3071
  340MPD2    C2 5098   0.178   0.449   9.704 -0.3989 -0.3620 -0.1892
  340MPD2    C3 5099   0.119   0.559   9.763  0.3727  0.1218 -0.2967
  340MPD2    C4 5100   4.709   0.579   9.752  0.1762 -0.4661  0.4083
  340MPD2    C5 5101   4.626   0.487   9.690 -0.2062 -0.2014 -0.2824
  340MPD2     H 5102   0.287   0.444   9.706 -0.5394 -2.4483  2.1744
  340MPD2    H1 5103   4.681   0.674   9.796  1.3849  0.7647 -1.5401
  340MPD2    H2 5104   4.625   0.308   9.579 -1.0086  0.5784  0.7773
  340MPD2    H3 5105   4.520   0.504   9.677  0.5134  3.4225 -1.3355
  340MPD2     N 5106   0.187   0.646   9.848  0.4293 -0.0069  0.4628
  340MPD2    H5 5107   0.129   0.705   9.907 -0.1422 -0.4581  0.3486
  340MPD2    N1 5108   0.151   0.239   9.579  0.0317 -0.1873  0.0460
  340MPD2    H7 5109   0.085   0.164   9.560  0.7740 -0.4992 -1.2759
  341TMC3    C1 5110   0.304   0.080   9.495  0.5017 -0.1652 -0.0946
  341TMC3    C2 5111   0.192   0.004   9.457 -0.2042  0.9791 -0.7480
  341TMC3    C3 5112   0.220   4.602   9.417 -0.0359  0.3689 -0.4928
  341TMC3    C4 5113   0.433   0.032   9.499 -0.4620 -0.3998 -0.3934
  341TMC3    C5 5114   0.449   4.626   9.458 -0.5908  0.4268  0.6542
  341TMC3    C6 5115   0.345   4.547   9.418 -1.0875 -0.1007 -0.1957
  341TMC3     C 5116   0.286   0.207   9.568  0.3572  0.3538 -0.0943
  341TMC3     O 5117   0.385   0.270   9.591 -0.3051 -0.0675 -0.0693
  341TMC3     H 5118   0.088   0.026   9.475 -0.0435  0.1245  1.1763
  341TMC3    H1 5119   0.511   0.089   9.549 -0.1743 -0.9853 -0.1761
  341TMC3    H2 5120   0.361   4.447   9.379 -1.6355 -0.2793  0.0536
  341TMC3    C7 5121   0.572   4.552   9.485 -0.5409 -0.2777 -0.1960
  341TMC3    C8 5122   0.123   4.498   9.430  0.2183 -0.2046 -0.1627
  341TMC3    O1 5123   0.564   4.436   9.514  0.0049  0.2666 -0.0252
  341TMC3    O2 5124   0.157   4.386   9.464  0.5560 -0.5837  0.7587
  342MPD2     C 5125   2.694   4.092  17.500  0.4064 -0.1073  0.3079
  342MPD2    C1 5126   2.813   4.067  17.439 -0.1216  0.0257 -0.5374
  342MPD2    C2 5127   2.898   4.168  17.408 -0.3926  0.3310  0.3389
  342MPD2    C3 5128   2.872   4.300  17.433  0.1820  0.2146 -0.3148
  342MPD2    C4 5129   2.755   4.323  17.498 -0.3330  0.0310  0.5004
  342MPD2    C5 5130   2.664   4.222  17.530  0.3587  0.0019 -0.5243
  342MPD2     H 5131   2.994   4.141  17.365  0.9768  0.6305  3.1865
  342MPD2    H1 5132   2.720   4.424  17.515 -1.2094 -0.3693  1.1024
  342MPD2    H2 5133   2.634   4.011  17.540 -1.3240  0.6344 -0.8163
  342MPD2    H3 5134   2.569   4.252  17.573  0.6133  1.5123 -1.0065
  342MPD2     N 5135   2.964   4.406  17.405  0.0732 -0.9777  0.0633
  342MPD2    H5 5136   2.941   4.496  17.445  3.9167 -0.1890  0.4483
  342MPD2    N1 5137   2.868   3.936  17.406  0.2246 -0.2242 -0.0536
  342MPD2    H7 5138   2.967   3.926  17.387 -0.1299 -1.3914 -1.2759
  343TMC3    C1 5139   2.861   3.714  17.360 -0.6236 -0.3334  0.2756
  343TMC3    C2 5140   2.953   3.733  17.259  0.4160  0.1582 -0.1879
  343TMC3    C3 5141   2.962   3.634  17.162  0.2871 -0.6026 -0.2982
  343TMC3    C4 5142   2.781   3.604  17.367 -0.3635  0.3896  0.3746
  343TMC3    C5 5143   2.785   3.519  17.259  0.0617  0.0589  0.3082
  343TMC3    C6 5144   2.874   3.528  17.158 -0.5361  0.3458  0.0309
  343TMC3     C 5145   2.806   3.823  17.428  0.4722  0.2901  0.0358
  343TMC3     O 5146   2.695   3.810  17.476  0.8147  0.8020  0.2574
  343TMC3     H 5147   3.033   3.806  17.255  1.5011 -1.0729 -1.0457
  343TMC3    H1 5148   2.709   3.588  17.447 -0.3599  1.5119  0.6093
  343TMC3    H2 5149   2.866   3.471  17.067  2.0200  1.3682 -0.8374
  343TMC3    C7 5150   2.704   3.394  17.270 -1.0146 -0.5992  0.8163
  343TMC3    C8 5151   3.033   3.660  17.043 -1.2005  0.0219 -0.2049
  343TMC3    O1 5152   2.678   3.338  17.164 -0.4881  0.0666  0.0213
  343TMC3    O2 5153   3.043   3.775  16.998 -0.7749  0.0189 -0.4100
  344MPD2     C 5154   4.012   3.726  10.263  0.1109  0.3046  0.2103
  344MPD2    C1 5155   3.944   3.780  10.157  0.1127  0.1644  0.3555
  344MPD2    C2 5156   3.980   3.905  10.106  0.4330 -0.4194  0.4946
  344MPD2    C3 5157   4.090   3.972  10.160  0.8716  0.3525 -0.2533
  344MPD2    C4 5158   4.151   3.916  10.270  0.3589 -0.5438  0.1298
  344MPD2    C5 5159   4.115   3.797  10.320 -0.0185 -0.0877  0.1489
  344MPD2     H 5160   3.932   3.952  10.021  0.9270  0.2507  0.5856
  344MPD2    H1 5161   4.239   3.965  10.310 -1.1343  1.3146  1.1209
  344MPD2    H2 5162   3.984   3.638  10.320  3.0755  0.0062  1.2508
  344MPD2    H3 5163   4.165   3.763  10.410  1.6415  0.4100 -0.5889
  344MPD2     N 5164   4.138   4.101  10.113  0.0880 -0.1030  0.0115
  344MPD2    H5 5165   4.216   4.144  10.162 -0.4274  0.8556 -0.0110
  344MPD2    N1 5166   3.827   3.717  10.108  0.2727  0.2881  0.0244
  344MPD2    H7 5167   3.773   3.767  10.038  0.3810 -0.6285 -0.7113
  345TMC3    C1 5168   4.128   4.314  10.004  0.4670 -0.2694 -0.4098
  345TMC3    C2 5169   4.158   4.373  10.120 -0.6352 -0.4368  0.4354
  345TMC3    C3 5170   4.132   4.507  10.132  0.4674  0.6226 -0.1434
  345TMC3    C4 5171   4.086   4.386   9.895 -0.2040  0.5270  0.4485
  345TMC3    C5 5172   4.055   4.522   9.916  0.4826 -0.1522  0.3062
  345TMC3    C6 5173   4.093   4.584  10.032  0.0550 -0.1250  0.6867
  345TMC3     C 5174   4.087   4.177  10.014  0.5375 -0.2195 -0.4974
  345TMC3     O 5175   4.008   4.150   9.926 -0.2888 -0.2866 -0.2314
  345TMC3     H 5176   4.181   4.317  10.210 -2.1221 -1.0076  0.4592
  345TMC3    H1 5177   4.048   4.330   9.811  0.0304  0.3038  0.4923
  345TMC3    H2 5178   4.077   4.691  10.028  2.4277  0.1691 -0.4026
  345TMC3    C7 5179   3.980   4.599   9.816 -0.5797  0.1424  1.1620
  345TMC3    C8 5180   4.116   4.547  10.269 -0.2609  0.0444 -0.6574
  345TMC3    O1 5181   3.945   4.712   9.838 -0.3000 -0.2787 -0.0122
  345TMC3    O2 5182   4.156   4.477  10.361  0.0893  0.2679  0.2681
  346MPD2     C 5183   2.930   0.583  13.933  0.4334  0.7281 -0.3438
  346MPD2    C1 5184   3.040   0.498  13.930 -0.1712  0.4264 -0.1269
  346MPD2    C2 5185   3.153   0.537  14.001  0.2936  0.1632  0.2635
  346MPD2    C3 5186   3.152   0.657  14.074 -0.5681  0.2682 -0.0413
  346MPD2    C4 5187   3.039   0.738  14.083 -0.0831 -0.6781 -0.8873
  346MPD2    C5 5188   2.941   0.707  13.995 -0.1013  1.1498  0.3142
  346MPD2     H 5189   3.244   0.479  13.994 -0.1983 -0.5888  0.0768
  346MPD2    H1 5190   3.024   0.826  14.144  0.0314 -0.7312 -0.7816
  346MPD2    H2 5191   2.837   0.560  13.882  0.5280 -0.0587 -0.1656
  346MPD2    H3 5192   2.856   0.774  13.992 -0.0042  1.1568 -1.9743
  346MPD2     N 5193   3.268   0.695  14.136  0.4882  0.6287 -0.0439
  346MPD2    H5 5194   3.352   0.645  14.110  1.0836 -0.0230  3.2039
  346MPD2    N1 5195   3.049   0.387  13.847  0.0896 -0.3737  0.1672
  346MPD2    H7 5196   3.141   0.346  13.840 -1.1486 -3.2052  0.6563
  347TMC3    C1 5197   3.417   0.802  14.289 -0.0774 -0.2189 -0.1248
  347TMC3    C2 5198   3.517   0.787  14.196 -0.6592 -0.0300 -0.2062
  347TMC3    C3 5199   3.641   0.830  14.226  0.1447 -0.8284 -0.1264
  347TMC3    C4 5200   3.449   0.852  14.413 -0.4807  0.2598  0.6960
  347TMC3    C5 5201   3.578   0.888  14.442 -0.7920 -0.9204 -0.6133
  347TMC3    C6 5202   3.681   0.883  14.353 -0.0036 -0.0753  0.1369
  347TMC3     C 5203   3.275   0.794  14.237 -0.0322  0.3087  0.1991
  347TMC3     O 5204   3.194   0.869  14.289  0.6330 -0.4123 -0.3293
  347TMC3     H 5205   3.505   0.760  14.091 -1.7806 -0.5263  0.0456
  347TMC3    H1 5206   3.360   0.867  14.473 -0.7718 -2.2607  0.9107
  347TMC3    H2 5207   3.782   0.916  14.374 -0.2732  1.7971 -1.4755
  347TMC3    C7 5208   3.618   0.882  14.588 -0.0456 -0.2315  0.4347
  347TMC3    C8 5209   3.745   0.765  14.154  0.4255 -0.8351 -0.5587
  347TMC3    O1 5210   3.521   0.850  14.654 -0.2287  0.1636 -0.6173
  347TMC3    O2 5211   3.729   0.662  14.087  0.3532  0.0708 -0.1405
  348MPD2     C 5212   2.301   0.180  11.979  0.5632 -0.1750  0.0828
  348MPD2    C1 5213   2.321   0.145  11.846 -0.3667  0.8334 -0.1913
  348MPD2    C2 5214   2.265   0.213  11.743 -0.1363 -0.2431  0.4413
  348MPD2    C3 5215   2.180   0.317  11.765  0.7271 -0.0617  0.8282
  348MPD2    C4 5216   2.163   0.356  11.897  0.7383  0.7163  0.1587
  348MPD2    C5 5217   2.219   0.291  11.999  0.5737  0.6073 -0.0895
  348MPD2     H 5218   2.273   0.174  11.642 -2.0765 -0.3843  0.3396
  348MPD2    H1 5219   2.093   0.435  11.924 -1.2157  0.2118 -3.4616
  348MPD2    H2 5220   2.345   0.135  12.067 -0.6395 -1.1673  0.1669
  348MPD2    H3 5221   2.189   0.334  12.093  0.2777 -1.5210  0.7936
  348MPD2     N 5222   2.122   0.391  11.656  0.0459  0.8485 -0.1375
  348MPD2    H5 5223   2.152   0.363  11.563  4.5582  0.1871  1.5101
  348MPD2    N1 5224   2.398   0.033  11.805  0.3579  0.1830 -0.2840
  348MPD2    H7 5225   2.419   0.031  11.706 -1.4141  2.3744 -0.6878
  349TMC3    C1 5226   2.506   4.554  11.796 -0.6235  0.0139 -0.2550
  349TMC3    C2 5227   2.563   4.447  11.860  0.5453 -0.7599  0.2193
  349TMC3    C3 5228   2.612   4.344  11.787 -0.0750 -0.1995  1.2262
  349TMC3    C4 5229   2.477   4.552  11.666 -0.2561  0.3863 -0.3644
  349TMC3    C5 5230   2.511   4.433  11.605 -0.7952 -0.0248 -0.3277
  349TMC3    C6 5231   2.592   4.337  11.653  0.0165  0.2501  0.1839
  349TMC3     C 5232   2.438   4.649  11.877 -0.2939 -0.1060  0.4784
  349TMC3     O 5233   2.402   4.621  11.992  0.0250  0.6879  0.0515
  349TMC3     H 5234   2.597   4.468  11.961  2.0777  1.0582 -0.6546
  349TMC3    H1 5235   2.417   4.623  11.610 -0.0649 -0.0756 -1.1387
  349TMC3    H2 5236   2.623   4.253  11.592 -1.1124  0.6293 -0.9134
  349TMC3    C7 5237   2.448   4.402  11.481 -0.6403 -0.5459  0.5347
  349TMC3    C8 5238   2.723   4.268  11.849  0.1226  0.2768  0.1095
  349TMC3    O1 5239   2.428   4.283  11.457 -0.0127  0.2307 -0.1255
  349TMC3    O2 5240   2.724   4.253  11.967 -0.0894  0.4230  0.5304
  350MPD2     C 5241   0.962   3.142   9.984 -0.3266  0.2081  0.2454
  350MPD2    C1 5242   0.944   3.010   9.986  0.2782 -0.2786  0.5180
  350MPD2    C2 5243   0.995   2.939  10.094 -0.0922  0.2538  0.1598
  350MPD2    C3 5244   1.045   3.004  10.207 -0.3568 -0.2448 -0.2306
  350MPD2    C4 5245   1.053   3.141  10.200 -0.2583 -0.0018 -0.1493
  350MPD2    C5 5246   1.020   3.211  10.085 -0.3837 -0.5361 -0.0468
  350MPD2     H 5247   0.994   2.830  10.091  0.0524  0.2900 -1.3287
  350MPD2    H1 5248   1.107   3.189  10.281 -0.6794 -1.0184  0.7246
  350MPD2    H2 5249   0.918   3.203   9.906 -0.9007 -2.3861 -1.4859
  350MPD2    H3 5250   1.026   3.319  10.075  0.2361 -0.6549 -0.9963
  350MPD2     N 5251   1.069   2.925  10.321  0.1369  0.4165  0.0562
  350MPD2    H5 5252   1.040   2.829  10.306  0.6548  0.2886 -0.1220
  350MPD2    N1 5253   0.870   2.938   9.886 -0.3817 -0.2708  0.5002
  350MPD2    H7 5254   0.864   2.839   9.906 -0.1625 -0.6467 -1.3107
  351TMC3    C1 5255   0.756   2.864   9.683 -0.6217 -0.2693 -0.1315
  351TMC3    C2 5256   0.781   2.735   9.711 -0.2794  0.0984  0.3237
  351TMC3    C3 5257   0.692   2.645   9.664 -0.2275 -0.1101 -0.2401
  351TMC3    C4 5258   0.663   2.905   9.591 -0.3965 -0.1235  0.0171
  351TMC3    C5 5259   0.588   2.808   9.532 -0.4490  0.2791 -0.3772
  351TMC3    C6 5260   0.596   2.675   9.568  0.1896 -0.4207  0.1249
  351TMC3     C 5261   0.822   2.968   9.760  0.3547  0.3374  0.8042
  351TMC3     O 5262   0.830   3.081   9.715 -0.1652 -0.2993 -0.2553
  351TMC3     H 5263   0.864   2.703   9.773 -0.8030 -1.0847  0.4258
  351TMC3    H1 5264   0.643   3.009   9.568  0.4967  0.4624  1.8468
  351TMC3    H2 5265   0.536   2.597   9.521  0.7578  0.4929 -2.1221
  351TMC3    C7 5266   0.500   2.832   9.423 -0.1539  0.3125  0.5660
  351TMC3    C8 5267   0.700   2.511   9.709  0.1811 -0.6301  0.3309
  351TMC3    O1 5268   0.402   2.758   9.412 -0.3773  0.9440  0.2782
  351TMC3    O2 5269   0.806   2.473   9.758 -0.0396 -0.2275 -0.1465
  352MPD2     C 5270   0.166   4.678   1.372 -0.4108  0.7372 -0.0033
  352MPD2    C1 5271   0.035   4.696   1.424 -0.3006 -0.8016  0.2271
  352MPD2    C2 5272   4.699   4.594   1.494 -0.5249  0.4440  0.1997
  352MPD2    C3 5273   0.041   4.474   1.506  0.7933  0.1818 -0.7612
  352MPD2    C4 5274   0.173   4.473   1.462  0.0450 -0.7908  0.0976
  352MPD2    C5 5275   0.232   4.564   1.386 -0.2444 -0.0462 -0.0167
  352MPD2     H 5276   4.598   4.610   1.530 -0.6097 -1.2827  0.7203
  352MPD2    H1 5277   0.232   4.382   1.473  2.6472  0.6959 -1.4067
  352MPD2    H2 5278   0.210   0.031   1.310  0.0220 -0.2169 -0.8725
  352MPD2    H3 5279   0.318   4.536   1.326  1.3546 -0.4759  2.4533
  352MPD2     N 5280   4.714   4.356   1.559  0.0326  0.1809 -0.4479
  352MPD2    H5 5281   0.060   4.287   1.578 -0.4274  0.1315  1.0986
  352MPD2    N1 5282   4.677   0.086   1.390 -0.3101 -0.0186  0.1529
  352MPD2    H7 5283   4.586   0.088   1.435 -0.6262  0.6974 -0.5222
  353TMC3    C1 5284   4.547   4.208   1.641 -0.3624  0.7001  0.7687
  353TMC3    C2 5285   4.646   4.142   1.702 -0.0562  0.3291 -0.6383
  353TMC3    C3 5286   4.635   4.006   1.713  0.0755 -0.7481  0.3024
  353TMC3    C4 5287   4.441   4.140   1.579 -0.0799 -0.5730 -0.3341
  353TMC3    C5 5288   4.435   4.002   1.586 -0.4874  0.7244 -0.3831
  353TMC3    C6 5289   4.540   3.932   1.648 -0.6908  0.6284 -0.1956
  353TMC3     C 5290   4.576   4.340   1.583 -0.1416  0.1552  0.3012
  353TMC3     O 5291   4.475   4.400   1.543 -0.2358  0.5160  0.0990
  353TMC3     H 5292   4.720   4.195   1.761 -1.5815 -0.3225  1.8592
  353TMC3    H1 5293   4.365   4.201   1.533 -1.5891 -1.4584  0.9899
  353TMC3    H2 5294   4.523   3.825   1.653 -1.9480  0.7529 -1.8805
  353TMC3    C7 5295   4.393   3.944   1.458 -0.1032  0.4908 -0.2013
  353TMC3    C8 5296   0.006   3.930   1.791 -0.6619  0.4545  0.0118
  353TMC3    O1 5297   4.436   4.007   1.361  0.1219 -0.7290 -0.2606
  353TMC3    O2 5298   0.058   3.995   1.878  0.1464  0.7649  0.1455
  354TMC3    C1 5299   1.942   1.571  13.418 -0.3981  0.0940  0.3593
  354TMC3    C2 5300   2.008   1.684  13.387 -0.0836  0.0335 -0.0251
  354TMC3    C3 5301   2.003   1.730  13.258 -0.4957 -0.1032  0.4967
  354TMC3    C4 5302   1.868   1.502  13.324 -0.2626 -0.1171  0.4083
  354TMC3    C5 5303   1.874   1.535  13.192 -0.1353 -0.3245 -0.0619
  354TMC3    C6 5304   1.929   1.664  13.160 -0.0887  0.7196 -0.3688
  354TMC3     C 5305   1.869   1.563  13.547 -0.3861 -0.5719  0.0755
  354TMC3     O 5306   1.753   1.523  13.540  0.7039 -0.0288 -0.5189
  354TMC3     H 5307   2.041   1.759  13.458  0.8268  1.3946 -1.8726
  354TMC3    H1 5308   1.831   1.404  13.352 -0.0849  0.1932  1.7046
  354TMC3    H2 5309   1.930   1.695  13.056  0.7066 -3.1559 -1.4873
  354TMC3    C7 5310   1.852   1.434  13.093 -0.6925 -0.1836  0.7676
  354TMC3    C8 5311   2.078   1.849  13.221  0.0224 -0.4515  0.1004
  354TMC3    O1 5312   1.797   1.337  13.144 -0.6270  0.1629 -0.4297
  354TMC3    O2 5313   2.174   1.879  13.288  0.5975  0.1836 -0.2100
  355MPD2     C 5314   2.314   1.779  12.313  0.2880  0.4188 -0.5857
  355MPD2    C1 5315   2.233   1.848  12.225 -0.2440 -0.6341 -0.9050
  355MPD2    C2 5316   2.301   1.932  12.137 -0.1304  0.5625  0.5486
  355MPD2    C3 5317   2.436   1.942  12.141 -0.3741 -0.3517  0.3927
  355MPD2    C4 5318   2.514   1.873  12.234 -0.1975  0.5068 -0.2976
  355MPD2    C5 5319   2.449   1.795  12.321 -0.0853 -0.4368 -0.1441
  355MPD2     H 5320   2.245   1.993  12.067 -1.3117  3.7118  4.2319
  355MPD2    H1 5321   2.621   1.891  12.234 -0.3853  1.6296 -0.0848
  355MPD2    H2 5322   2.272   1.695  12.367  0.6784  0.2396 -0.5576
  355MPD2    H3 5323   2.509   1.728  12.380 -1.5433 -1.2822  0.3842
  355MPD2     N 5324   2.510   2.022  12.058 -0.4958 -0.2903 -0.1812
  355MPD2    H5 5325   2.610   2.031  12.075 -0.1017 -4.6831 -0.0812
  355MPD2    N1 5326   2.090   1.828  12.245  0.1978 -0.2132 -0.6050
  355MPD2    H7 5327   2.063   1.753  12.307 -0.8703  2.6974  2.4688
  356TMC3    C1 5328   2.566   2.207  11.928  0.6426 -0.2914  0.6587
  356TMC3    C2 5329   2.536   2.284  11.820 -0.9935 -0.3310  0.0696
  356TMC3    C3 5330   2.629   2.380  11.792  0.0297  0.3992 -0.1912
  356TMC3    C4 5331   2.671   2.235  12.013  0.1992 -0.3426  0.4687
  356TMC3    C5 5332   2.742   2.349  11.984 -0.0486  0.3973 -0.0779
  356TMC3    C6 5333   2.729   2.419  11.873 -0.5361 -0.1850  0.2990
  356TMC3     C 5334   2.471   2.110  11.965 -0.5226  0.2784 -0.6386
  356TMC3     O 5335   2.363   2.126  11.913 -0.1976 -0.2874 -0.6166
  356TMC3     H 5336   2.457   2.267  11.748 -1.8453  1.6512  0.5536
  356TMC3    H1 5337   2.690   2.186  12.108  0.1982 -1.7596 -0.2673
  356TMC3    H2 5338   2.811   2.484  11.848  0.4277 -2.0173 -1.3075
  356TMC3    C7 5339   2.871   2.367  12.043  0.0244  0.5586 -0.0850
  356TMC3    C8 5340   2.618   2.456  11.667 -0.0015  0.6171 -0.4569
  356TMC3    O1 5341   2.924   2.263  12.084 -0.2891  0.2472 -0.0598
  356TMC3    O2 5342   2.563   2.401  11.571 -0.4372 -0.0537  0.0673
  357MPD2     C 5343   1.502   2.084   1.069  0.1161  0.8732  0.6787
  357MPD2    C1 5344   1.505   1.994   1.173 -0.1299 -0.3663  0.2121
  357MPD2    C2 5345   1.384   1.958   1.229 -1.1265  0.1996 -0.7825
  357MPD2    C3 5346   1.266   1.993   1.165 -0.2801 -1.2228  0.3142
  357MPD2    C4 5347   1.266   2.084   1.059 -0.0779 -0.7254 -0.7546
  357MPD2    C5 5348   1.387   2.131   1.016 -0.5079  0.9188 -0.2673
  357MPD2     H 5349   1.395   1.885   1.308  1.4257  0.4763 -0.8871
  357MPD2    H1 5350   1.177   2.120   1.010 -0.2326  0.4118  0.3573
  357MPD2    H2 5351   1.601   2.109   1.032  0.2187 -0.3846  0.1088
  357MPD2    H3 5352   1.382   2.203   0.935  0.6329  1.9040  0.5369
  357MPD2     N 5353   1.142   1.949   1.214  0.0844 -0.0304  0.0578
  357MPD2    H5 5354   1.062   1.986   1.163  1.8509  0.7973 -2.0865
  357MPD2    N1 5355   1.631   1.953   1.226 -0.1282 -0.2948  0.5121
  357MPD2    H7 5356   1.710   1.981   1.169  0.7988  1.1302  2.4981
  358TMC3    C1 5357   1.785   1.828   1.342 -0.3452  0.4449  0.0935
  358TMC3    C2 5358   1.855   1.794   1.232  0.4783 -0.2512 -0.6981
  358TMC3    C3 5359   1.949   1.697   1.237 -0.0785 -0.1627 -0.4044
  358TMC3    C4 5360   1.796   1.745   1.460 -0.7262 -0.6914 -0.0473
  358TMC3    C5 5361   1.889   1.639   1.455  0.1858 -0.2930  0.1396
  358TMC3    C6 5362   1.966   1.617   1.346 -0.4172  0.8659  0.1165
  358TMC3     C 5363   1.645   1.874   1.336 -0.3443  0.3995  0.3228
  358TMC3     O 5364   1.563   1.814   1.404 -0.4988 -0.0029 -0.0022
  358TMC3     H 5365   1.831   1.841   1.137 -0.4288 -0.3219 -0.5018
  358TMC3    H1 5366   1.743   1.754   1.554 -0.0465  1.5828  0.1177
  358TMC3    H2 5367   2.028   1.528   1.342 -1.1606  0.3662 -0.4286
  358TMC3    C7 5368   1.897   1.547   1.567  0.3530 -0.2288  0.0440
  358TMC3    C8 5369   1.944   1.628   1.115  0.2469 -0.5453 -0.0225
  358TMC3    O1 5370   1.995   1.468   1.575  0.4180 -0.2402 -0.0725
  358TMC3    O2 5371   2.006   1.676   1.019 -1.2131 -0.0871 -0.3030
  359MPD2     C 5372   1.697   0.416  12.527 -0.3537 -1.0647  0.7233
  359MPD2    C1 5373   1.742   0.531  12.473 -0.3530 -0.3042 -0.3056
  359MPD2    C2 5374   1.750   0.643  12.553  0.4881  0.1939 -0.7765
  359MPD2    C3 5375   1.698   0.652  12.677  0.1611  0.1913 -0.3246
  359MPD2    C4 5376   1.653   0.538  12.738 -0.4849  0.0084  0.4532
  359MPD2    C5 5377   1.651   0.420  12.662  0.0222  0.6710  0.2208
  359MPD2     H 5378   1.790   0.731  12.504 -0.1145  0.8984  0.0112
  359MPD2    H1 5379   1.635   0.534  12.844 -2.9494  0.5227  0.0603
  359MPD2    H2 5380   1.707   0.321  12.476 -0.3568 -0.7146  0.0738
  359MPD2    H3 5381   1.637   0.325  12.712 -1.3295 -0.0015 -1.4455
  359MPD2     N 5382   1.683   0.774  12.752 -0.8852 -0.4363 -0.2719
  359MPD2    H5 5383   1.645   0.764  12.846 -2.7282  0.0007 -0.9602
  359MPD2    N1 5384   1.801   0.533  12.345 -0.0995 -0.4585 -0.0447
  359MPD2    H7 5385   1.832   0.625  12.317  1.8386 -0.8534  0.8374
  360TMC3    C1 5386   1.879   0.471  12.142 -0.8047 -0.4119  0.6413
  360TMC3    C2 5387   1.983   0.548  12.180 -0.1786 -0.4459  0.3262
  360TMC3    C3 5388   2.025   0.653  12.103 -0.3487  0.1120 -0.3792
  360TMC3    C4 5389   1.802   0.505  12.040  0.0071 -0.6466  0.0605
  360TMC3    C5 5390   1.833   0.616  11.971 -0.4313 -0.2443 -0.6403
  360TMC3    C6 5391   1.945   0.689  11.998  0.1179  0.1039 -0.4196
  360TMC3     C 5392   1.795   0.434  12.257  0.0477 -0.0924  0.0826
  360TMC3     O 5393   1.723   0.334  12.251  0.0004  0.0189  0.8174
  360TMC3     H 5394   2.054   0.508  12.251 -0.0972  0.3970  0.7171
  360TMC3    H1 5395   1.707   0.453  12.026  0.0461 -1.0803  1.3597
  360TMC3    H2 5396   1.962   0.769  11.927  2.4215  0.8986  1.0256
  360TMC3    C7 5397   1.767   0.658  11.849 -0.0692  0.2930  0.3699
  360TMC3    C8 5398   2.164   0.683  12.098 -0.0313  0.0451  0.6107
  360TMC3    O1 5399   1.735   0.777  11.849  0.3105 -0.1607  0.6478
  360TMC3    O2 5400   2.219   0.685  12.208  0.3691 -0.2364 -0.0954
  361MPD2     C 5401   3.358   4.523  17.080  0.5654 -0.2338 -0.6930
  361MPD2    C1 5402   3.471   4.568  17.143 -0.4108  0.4029 -0.3414
  361MPD2    C2 5403   3.578   4.487  17.175 -0.4699  0.1696  0.1028
  361MPD2    C3 5404   3.575   4.352  17.141 -0.2562 -0.1243 -0.2018
  361MPD2    C4 5405   3.460   4.310  17.079  0.2010  0.0627 -0.7933
  361MPD2    C5 5406   3.354   4.393  17.047  0.0421  0.7633  0.6088
  361MPD2     H 5407   3.666   4.530  17.223 -0.0676 -2.4853  1.7496
  361MPD2    H1 5408   3.447   4.211  17.037  0.6587 -0.4490  0.2540
  361MPD2    H2 5409   3.274   4.587  17.057 -0.7078 -1.2058  1.3085
  361MPD2    H3 5410   3.261   4.361  17.002  1.0501 -0.8657 -0.3419
  361MPD2     N 5411   3.679   4.261  17.173  0.2485  0.2507 -0.4600
  361MPD2    H5 5412   3.657   4.164  17.150  3.1266 -1.2216  3.1327
  361MPD2    N1 5413   3.484   4.701  17.186 -0.1516  0.1776 -0.0330
  361MPD2    H7 5414   3.567   4.721  17.241  0.7185 -2.6663 -0.3199
  362TMC3    C1 5415   3.425   0.215  17.200 -0.3037  0.3229  0.0644
  362TMC3    C2 5416   3.488   0.229  17.323 -0.2655  0.0006  0.0846
  362TMC3    C3 5417   3.480   0.349  17.386 -0.4036 -0.2010 -0.5304
  362TMC3    C4 5418   3.348   0.315  17.147  0.0175  0.8124 -0.0077
  362TMC3    C5 5419   3.320   0.422  17.230  1.2880  0.5714 -0.9393
  362TMC3    C6 5420   3.398   0.450  17.342 -0.6538  0.3289  0.1527
  362TMC3     C 5421   3.418   0.085  17.129 -0.2209  0.2847 -0.0346
  362TMC3     O 5422   3.331   0.082  17.045 -0.3706  0.1416 -0.0547
  362TMC3     H 5423   3.553   0.149  17.356 -0.7106  0.4702  2.1103
  362TMC3    H1 5424   3.315   0.308  17.044  1.1008 -1.7401 -0.1848
  362TMC3    H2 5425   3.362   0.536  17.397 -0.3180  0.9071 -0.5297
  362TMC3    C7 5426   3.230   0.513  17.187  0.8212  0.0606 -0.0757
  362TMC3    C8 5427   3.546   0.345  17.514 -0.4752  0.2959 -0.8467
  362TMC3    O1 5428   3.269   0.630  17.175  0.2605 -0.0210 -0.5052
  362TMC3    O2 5429   3.583   0.234  17.555  0.2214 -0.1111 -0.3541
  363TMC3    C1 5430   1.467   2.271   9.444  0.3822 -0.2305  0.0980
  363TMC3    C2 5431   1.547   2.224   9.542  0.1787 -0.6759 -0.1560
  363TMC3    C3 5432   1.603   2.312   9.630  0.1445  0.0183 -0.2096
  363TMC3    C4 5433   1.439   2.405   9.428  0.1162  0.5540 -0.9601
  363TMC3    C5 5434   1.499   2.489   9.517  0.8043 -0.4029 -0.2129
  363TMC3    C6 5435   1.571   2.443   9.622 -0.3311  0.4915 -0.3341
  363TMC3     C 5436   1.398   2.182   9.357  0.0216  0.3334 -0.0597
  363TMC3     O 5437   1.473   2.086   9.329  0.2805  0.0170  0.0006
  363TMC3     H 5438   1.550   2.117   9.561  1.9688 -0.8472 -1.4056
  363TMC3    H1 5439   1.373   2.435   9.347  0.6980  1.8185 -0.9732
  363TMC3    H2 5440   1.610   2.503   9.704  1.0551 -0.5137 -0.2471
  363TMC3    C7 5441   1.459   2.630   9.522 -0.0359 -0.0202  0.2545
  363TMC3    C8 5442   1.691   2.270   9.744 -0.3103 -0.3676  0.0551
  363TMC3    O1 5443   1.533   2.710   9.577 -0.3994  0.5991  0.3159
  363TMC3    O2 5444   1.706   2.343   9.841 -0.1949 -0.1729  0.6336
  364MPD2     C 5445   0.579   1.476  10.162 -0.4890 -0.0763  0.1844
  364MPD2    C1 5446   0.704   1.531  10.134  0.2054 -0.9080 -0.3493
  364MPD2    C2 5447   0.818   1.471  10.167 -0.2016  0.0368 -0.0383
  364MPD2    C3 5448   0.809   1.351  10.232 -0.3233  0.2202  0.0757
  364MPD2    C4 5449   0.690   1.293  10.262  0.3598  0.0330  0.6932
  364MPD2    C5 5450   0.571   1.358  10.221 -0.5197  0.5686 -0.0021
  364MPD2     H 5451   0.914   1.515  10.144 -1.0603  0.2323 -3.2804
  364MPD2    H1 5452   0.687   1.196  10.310  0.3113 -1.0889 -1.5825
  364MPD2    H2 5453   0.481   1.515  10.136  0.0754  0.4055 -1.2091
  364MPD2    H3 5454   0.478   1.310  10.250  1.1842 -1.4926  2.0783
  364MPD2     N 5455   0.923   1.284  10.275  0.2077 -0.3781 -0.1209
  364MPD2    H5 5456   0.923   1.194  10.321 -0.8383  0.3773  1.3304
  364MPD2    N1 5457   0.709   1.659  10.068 -0.6308  0.2329  0.1753
  364MPD2    H7 5458   0.624   1.714  10.056 -0.9774  0.4571  3.3832
  365TMC3    C1 5459   0.808   1.858  10.010  0.3556 -0.5806 -0.5023
  365TMC3    C2 5460   0.910   1.911   9.958 -0.2369 -0.4518 -0.6571
  365TMC3    C3 5461   0.945   2.040   9.983  0.4716  0.1836  0.0977
  365TMC3    C4 5462   0.744   1.929  10.115 -0.3394  0.2593  0.5537
  365TMC3    C5 5463   0.786   2.056  10.141  0.1900  1.0164 -0.2847
  365TMC3    C6 5464   0.887   2.116  10.078  0.2475  0.1761  0.1001
  365TMC3     C 5465   0.823   1.721  10.034  0.6272 -0.2767 -0.3844
  365TMC3     O 5466   0.927   1.671  10.007 -0.5542  0.1539 -0.2840
  365TMC3     H 5467   0.951   1.858   9.873 -1.2223 -1.8325 -0.2813
  365TMC3    H1 5468   0.682   1.876  10.187  0.4622 -0.6327  0.5801
  365TMC3    H2 5469   0.916   2.218  10.101  0.3197  0.5141 -1.5396
  365TMC3    C7 5470   0.733   2.135  10.248  0.7583  0.6953  0.0297
  365TMC3    C8 5471   1.095   2.054   9.978  0.5555  0.1535  0.3777
  365TMC3    O1 5472   0.710   2.255  10.227  0.6682  0.4088 -0.4011
  365TMC3    O2 5473   1.133   2.170   9.991  0.4947 -0.2254 -0.4182
  366MPD2     C 5474   4.447   2.089  15.314  0.1063 -0.1764  0.2321
  366MPD2    C1 5475   4.420   2.189  15.409  0.5261 -0.4822  0.1774
  366MPD2    C2 5476   4.533   2.245  15.472  0.2580 -0.6150 -0.7386
  366MPD2    C3 5477   4.656   2.215  15.427 -0.4330 -0.1749  0.6757
  366MPD2    C4 5478   4.676   2.120  15.331 -0.0042 -0.3300 -0.2161
  366MPD2    C5 5479   4.570   2.056  15.274  0.1522  0.5415  0.5790
  366MPD2     H 5480   4.520   2.329  15.538  1.9335 -1.2429  0.4033
  366MPD2    H1 5481   0.051   2.085  15.306  0.0883  0.1725 -0.5546
  366MPD2    H2 5482   4.367   2.042  15.259 -0.7619  1.2784  0.2388
  366MPD2    H3 5483   4.592   1.978  15.202 -1.1990 -1.5507  2.4372
  366MPD2     N 5484   0.030   2.308  15.468 -0.7268 -0.0391 -0.3702
  366MPD2    H5 5485   0.023   2.369  15.549  2.0391  1.1827 -1.0807
  366MPD2    N1 5486   4.300   2.255  15.438  0.8013 -0.1337 -0.2165
  366MPD2    H7 5487   4.308   2.339  15.494 -0.0500 -1.0935  1.3614
  367TMC3    C1 5488   4.089   2.354  15.417 -0.1939 -0.2842  0.7443
  367TMC3    C2 5489   4.151   2.417  15.521 -0.1960  0.1279 -0.2252
  367TMC3    C3 5490   4.129   2.548  15.527 -0.2230  0.1445 -0.1293
  367TMC3    C4 5491   4.021   2.425  15.318 -0.4166 -0.0940 -0.2002
  367TMC3    C5 5492   4.012   2.563  15.324  0.4133  0.3022 -0.3505
  367TMC3    C6 5493   4.069   2.627  15.436  0.0606 -0.5281  0.0948
  367TMC3     C 5494   4.174   2.242  15.380 -0.5173  0.3916 -0.7385
  367TMC3     O 5495   4.137   2.169  15.290  0.3877  0.2277  0.1066
  367TMC3     H 5496   4.183   2.370  15.613 -0.3330 -1.3545 -0.9479
  367TMC3    H1 5497   4.002   2.368  15.228  3.8762 -1.1241 -0.4513
  367TMC3    H2 5498   4.071   2.735  15.448  0.2681 -0.2054 -2.8810
  367TMC3    C7 5499   3.953   2.643  15.223  0.6655  0.5369 -0.3731
  367TMC3    C8 5500   4.208   2.623  15.628 -0.1445 -0.4871  0.4912
  367TMC3    O1 5501   3.976   2.766  15.218 -0.0958 -0.6438  0.2357
  367TMC3    O2 5502   4.312   2.572  15.654 -0.0673  0.2012 -0.0869
  368MPD2     C 5503   0.109   0.402  13.187  0.4798  0.3754 -0.1201
  368MPD2    C1 5504   0.134   0.465  13.072 -0.1201 -0.1698 -0.5983
  368MPD2    C2 5505   0.241   0.554  13.067 -0.8289  0.1492  0.2274
  368MPD2    C3 5506   0.326   0.559  13.179 -0.1538  0.6367 -0.3784
  368MPD2    C4 5507   0.296   0.487  13.295 -0.5011  0.2050  0.2913
  368MPD2    C5 5508   0.192   0.406  13.295  0.1453 -0.1939 -0.0646
  368MPD2     H 5509   0.260   0.616  12.980 -1.2510  0.6087  0.4618
  368MPD2    H1 5510   0.364   0.506  13.378  0.0072  0.2872 -0.1459
  368MPD2    H2 5511   0.023   0.336  13.195 -1.2845  2.5561 -1.3219
  368MPD2    H3 5512   0.164   0.346  13.381  0.6568 -0.2311  0.0783
  368MPD2     N 5513   0.437   0.647  13.183  0.0988  0.2450  0.4713
  368MPD2    H5 5514   0.493   0.645  13.267  1.0505 -2.9488 -0.2484
  368MPD2    N1 5515   0.046   0.449  12.959 -0.5594  0.0082 -0.6869
  368MPD2    H7 5516   4.707   0.370  12.967  1.7653 -1.8291 -0.3286
  369TMC3    C1 5517   4.662   0.494  12.741  0.5653  0.6257  0.0635
  369TMC3    C2 5518   4.629   0.590  12.648  0.0570 -0.7532  0.6209
  369TMC3    C3 5519   4.519   0.566  12.574  0.5059 -0.3109  0.5829
  369TMC3    C4 5520   4.577   0.390  12.772  0.4894 -0.3014 -0.0744
  369TMC3    C5 5521   4.464   0.372  12.697 -0.2743  0.6771  1.4244
  369TMC3    C6 5522   4.428   0.460  12.601 -0.1775 -0.4422  0.4189
  369TMC3     C 5523   0.030   0.535  12.846 -0.2816 -0.2442 -0.3067
  369TMC3     O 5524   0.088   0.638  12.822 -0.2381  0.6765 -0.2331
  369TMC3     H 5525   4.704   0.665  12.626  0.6752 -0.6182  3.2110
  369TMC3    H1 5526   4.585   0.318  12.853 -0.4127  0.4846  0.7064
  369TMC3    H2 5527   4.349   0.447  12.528  1.0788  1.1208 -1.2212
  369TMC3    C7 5528   4.352   0.337  12.778  0.1207  0.2728 -0.2139
  369TMC3    C8 5529   4.510   0.633  12.446 -0.0336 -0.3292  0.1273
  369TMC3    O1 5530   4.369   0.340  12.899  0.0909  0.1669  0.1372
  369TMC3    O2 5531   4.435   0.586  12.359 -0.0163  0.2260 -0.6301
  370TMC3    C1 5532   4.577   0.468  16.197  0.1041  0.0139 -0.6514
  370TMC3    C2 5533   4.512   0.410  16.300  0.4433 -0.3095 -0.2293
  370TMC3    C3 5534   4.504   0.274  16.313 -0.1086  0.6117  0.1953
  370TMC3    C4 5535   4.636   0.391  16.107  0.1643 -0.6927 -0.0683
  370TMC3    C5 5536   4.638   0.255  16.128  0.6362  0.7540 -0.3853
  370TMC3    C6 5537   4.568   0.196  16.227  0.4191 -0.0538  0.3992
  370TMC3     C 5538   4.637   0.600  16.233 -0.7548  0.3909  0.0467
  370TMC3     O 5539   4.602   0.639  16.344 -0.8554 -0.2167 -0.0116
  370TMC3     H 5540   4.453   0.476  16.362 -2.3516 -1.6888 -1.4331
  370TMC3    H1 5541   4.686   0.431  16.020 -0.8732  0.4209 -0.1662
  370TMC3    H2 5542   4.571   0.088  16.232 -0.2662 -0.0747  0.3065
  370TMC3    C7 5543   4.670   0.185  15.998 -0.4214  0.1677  0.4246
  370TMC3    C8 5544   4.469   0.211  16.438 -0.2602 -0.1438 -0.2241
  370TMC3    O1 5545   4.652   0.247  15.897 -0.4878 -0.1134  0.0170
  370TMC3    O2 5546   4.450   0.091  16.432  0.2797  0.4299 -0.0218
  371TMC3    C1 5547   1.048   3.289  15.469  0.6337  1.3358 -0.5297
  371TMC3    C2 5548   0.932   3.324  15.530 -0.2398 -0.2968 -0.4942
  371TMC3    C3 5549   0.911   3.453  15.574 -0.2071 -0.1592  0.5693
  371TMC3    C4 5550   1.147   3.379  15.463 -0.0872 -0.0995  0.0235
  371TMC3    C5 5551   1.129   3.502  15.521 -0.1997  0.1381 -0.1946
  371TMC3    C6 5552   1.014   3.546  15.578 -0.3984  0.5885 -0.0692
  371TMC3     C 5553   1.068   3.151  15.437  0.6150  0.0727  0.0472
  371TMC3     O 5554   0.967   3.084  15.434  0.6320  0.6793  0.3020
  371TMC3     H 5555   0.842   3.264  15.531 -0.5416  0.1927  1.0671
  371TMC3    H1 5556   1.236   3.353  15.406  0.8318  1.1794  0.8737
  371TMC3    H2 5557   0.998   3.648  15.609 -0.6525 -0.0788  1.9947
  371TMC3    C7 5558   1.207   3.618  15.463 -0.1658 -0.2847  0.4236
  371TMC3    C8 5559   0.782   3.484  15.637  0.7681  0.3569  0.1426
  371TMC3    O1 5560   1.143   3.721  15.454  0.0456 -0.0716 -0.0736
  371TMC3    O2 5561   0.690   3.408  15.611  0.1514 -0.6309  0.6086
  372MPD2     C 5562   0.690   0.282  13.241 -0.2485 -0.2826 -0.1595
  372MPD2    C1 5563   0.757   0.248  13.359 -0.7552  0.0327  0.9770
  372MPD2    C2 5564   0.687   0.182  13.458  0.2744 -0.8472  0.6178
  372MPD2    C3 5565   0.546   0.157  13.441 -0.5388  0.2094  0.3288
  372MPD2    C4 5566   0.479   0.223  13.337 -0.7760 -0.1481 -0.0626
  372MPD2    C5 5567   0.551   0.282  13.237 -0.4753 -0.3522  0.3616
  372MPD2     H 5568   0.735   0.145  13.548  1.1101 -2.8762 -0.6797
  372MPD2    H1 5569   0.372   0.227  13.325 -0.5425 -0.6532 -2.4139
  372MPD2    H2 5570   0.727   0.326  13.149  0.5260 -1.2098 -0.2932
  372MPD2    H3 5571   0.502   0.317  13.146  1.7216  0.1230 -0.6460
  372MPD2     N 5572   0.485   0.093  13.556 -0.0845 -0.0643 -0.1934
  372MPD2    H5 5573   0.538   0.053  13.633 -1.2691 -2.8266 -0.8185
  372MPD2    N1 5574   0.900   0.272  13.370 -0.1695 -0.8508 -0.4503
  372MPD2    H7 5575   0.946   0.232  13.451 -0.2736 -0.3315 -0.1328
  373TMC3    C1 5576   0.306   4.717  13.667 -0.1111  0.6309 -0.0943
  373TMC3    C2 5577   0.389   4.707  13.774  0.8093 -0.0769  0.9516
  373TMC3    C3 5578   0.365   4.596  13.852 -0.2016  0.4869 -0.4971
  373TMC3    C4 5579   0.219   4.618  13.632 -0.4399  0.2255 -0.1596
  373TMC3    C5 5580   0.228   4.497  13.689  0.2222  0.0498 -0.0267
  373TMC3    C6 5581   0.310   4.484  13.800  0.5708 -0.6157 -0.1883
  373TMC3     C 5582   0.349   0.081  13.569 -0.3525  0.0421 -0.0484
  373TMC3     O 5583   0.272   0.107  13.478 -0.8158  0.3149  0.3275
  373TMC3     H 5584   0.437   0.073  13.812 -0.8533  0.4534  1.7720
  373TMC3    H1 5585   0.155   4.635  13.547 -2.0160  0.2396  1.0353
  373TMC3    H2 5586   0.324   4.398  13.864 -2.1369 -0.3947  0.7243
  373TMC3    C7 5587   0.216   4.381  13.603  0.6993 -0.2163  0.1641
  373TMC3    C8 5588   0.456   4.579  13.966  0.0216 -0.2232  0.1498
  373TMC3    O1 5589   0.114   4.374  13.531 -0.5960 -0.1124  0.1673
  373TMC3    O2 5590   0.562   4.645  13.960 -0.1598  0.3651 -0.6868
  374TMC3    C1 5591   1.449   0.185   9.276  0.2251  0.7313  0.1360
  374TMC3    C2 5592   1.417   0.231   9.396 -0.0909  0.6998 -0.1561
  374TMC3    C3 5593   1.521   0.293   9.461 -0.1453 -0.0850 -1.0413
  374TMC3    C4 5594   1.570   0.196   9.214  0.0835 -0.5933  0.4639
  374TMC3    C5 5595   1.666   0.273   9.276 -0.1384  0.2492 -0.6471
  374TMC3    C6 5596   1.646   0.312   9.405 -0.3012 -0.7671  0.5693
  374TMC3     C 5597   1.346   0.102   9.214  0.7209 -0.3394 -0.9649
  374TMC3     O 5598   1.241   0.087   9.274 -0.5379  0.1577  0.3084
  374TMC3     H 5599   1.326   0.206   9.449  0.6925  0.5070  1.1116
  374TMC3    H1 5600   1.593   0.158   9.115 -0.3455  2.4299 -0.8022
  374TMC3    H2 5601   1.713   0.377   9.460 -1.2323 -0.4131  1.2947
  374TMC3    C7 5602   1.799   0.293   9.227 -0.4147  0.7204 -0.2273
  374TMC3    C8 5603   1.481   0.391   9.560  0.7636 -0.0887 -0.1976
  374TMC3    O1 5604   1.867   0.373   9.287  0.7343 -0.1325 -0.5540
  374TMC3    O2 5605   1.376   0.451   9.536  0.3352 -0.4308  0.0487
  375MPD2     C 5606   1.589   0.857  17.010 -0.6115 -0.2233  0.0754
  375MPD2    C1 5607   1.497   0.820  16.920 -0.0164  0.2929  0.0106
  375MPD2    C2 5608   1.517   0.698  16.847  0.4499 -0.2890  0.3460
  375MPD2    C3 5609   1.631   0.615  16.858  0.8582  0.2756 -1.0628
  375MPD2    C4 5610   1.720   0.659  16.958  0.0674 -1.0324  0.2374
  375MPD2    C5 5611   1.703   0.777  17.025  0.2275 -0.3945 -0.6309
  375MPD2     H 5612   1.443   0.667  16.774 -0.5757  0.8398  0.9041
  375MPD2    H1 5613   1.812   0.608  16.983  1.1717  1.2497  0.7749
  375MPD2    H2 5614   1.597   0.949  17.066  0.6079 -1.5984  2.1839
  375MPD2    H3 5615   1.779   0.797  17.100  1.1387 -0.4491 -1.5517
  375MPD2     N 5616   1.659   0.501  16.791  0.0038 -0.5590  0.2908
  375MPD2    H5 5617   1.738   0.445  16.823  0.2762 -0.6200 -0.4969
  375MPD2    N1 5618   1.378   0.890  16.899  0.3239 -0.5311 -0.4282
  375MPD2    H7 5619   1.328   0.849  16.821  0.6718 -0.5343 -0.6497
  376TMC3    C1 5620   1.656   0.364  16.597 -0.6999  0.9140 -0.5367
  376TMC3    C2 5621   1.790   0.346  16.613  0.4225  0.7404 -0.0555
  376TMC3    C3 5622   1.860   0.299  16.506 -0.2679 -0.1893 -0.3529
  376TMC3    C4 5623   1.590   0.327  16.477 -0.2443  0.3332  0.2058
  376TMC3    C5 5624   1.662   0.292  16.371 -0.1250 -0.0020  0.7290
  376TMC3    C6 5625   1.799   0.289  16.383 -0.5192 -0.4785  0.5750
  376TMC3     C 5626   1.590   0.459  16.675 -0.6457  0.0931  0.3180
  376TMC3     O 5627   1.491   0.510  16.626 -0.3622  0.1032  0.1669
  376TMC3     H 5628   1.851   0.385  16.694 -0.1489  1.4513  0.0315
  376TMC3    H1 5629   1.482   0.336  16.465 -0.5110 -1.5042  1.2405
  376TMC3    H2 5630   1.862   0.260  16.299  0.8578  0.3278  1.3239
  376TMC3    C7 5631   1.620   0.329  16.240 -0.3236  0.4916  0.7586
  376TMC3    C8 5632   2.003   0.315  16.496 -0.8849  0.3387 -0.1263
  376TMC3    O1 5633   1.710   0.345  16.155  0.2936 -0.1105 -0.0936
  376TMC3    O2 5634   2.050   0.370  16.399  0.3804  0.1499 -0.7067
  377MPD2     C 5635   3.968   0.324  12.059 -0.3441 -0.1633  0.2632
  377MPD2    C1 5636   4.040   0.247  12.149 -0.3711  0.5024 -0.1361
  377MPD2    C2 5637   3.974   0.158  12.226 -0.3900 -0.2582  0.5093
  377MPD2    C3 5638   3.840   0.146  12.225 -0.2908 -0.1801  0.3945
  377MPD2    C4 5639   3.771   0.213  12.125 -0.0225 -0.6252 -0.2138
  377MPD2    C5 5640   3.834   0.302  12.045 -0.3579  0.4954 -0.1750
  377MPD2     H 5641   4.038   0.106  12.296  0.6262 -1.2693 -1.1683
  377MPD2    H1 5642   3.665   0.197  12.114  0.0831 -1.5978  0.1756
  377MPD2    H2 5643   4.020   0.386  11.986 -0.7276  0.7526  0.7698
  377MPD2    H3 5644   3.778   0.354  11.968 -0.0209  1.4397  0.2214
  377MPD2     N 5645   3.767   0.069  12.320  0.9032  0.4331 -0.0657
  377MPD2    H5 5646   3.667   0.085  12.328  0.3625 -2.9809  0.1842
  377MPD2    N1 5647   4.179   0.266  12.149  0.0692  0.6005  1.2841
  377MPD2    H7 5648   4.220   0.323  12.076  1.4857 -0.9136  0.8836
  378TMC3    C1 5649   4.563   0.247  12.030 -0.1094  0.2736  0.3331
  378TMC3    C2 5650   4.431   0.238  12.062  0.1123 -0.3158 -0.5463
  378TMC3    C3 5651   4.401   0.234  12.200 -0.3484 -0.1759  0.9735
  378TMC3    C4 5652   4.656   0.274  12.122  0.2331  0.4351 -0.3966
  378TMC3    C5 5653   4.622   0.274  12.256  0.9757  0.8542 -0.3142
  378TMC3    C6 5654   4.490   0.254  12.299  0.2255  0.1378 -1.1260
  378TMC3     C 5655   4.586   0.259  11.881 -1.0731  0.9221 -0.8348
  378TMC3     O 5656   4.493   0.236  11.805  0.4072 -0.2052 -0.3456
  378TMC3     H 5657   4.353   0.216  11.990 -2.3505  1.5635  1.5547
  378TMC3    H1 5658   0.033   0.276  12.083  0.2765  1.6568 -0.2201
  378TMC3    H2 5659   4.450   0.227  12.396 -0.7936 -1.6911 -2.0657
  378TMC3    C7 5660   4.714   0.286  12.368  0.3785 -0.2134 -0.6812
  378TMC3    C8 5661   4.262   0.227  12.245 -0.3239  0.4857  0.1553
  378TMC3    O1 5662   4.669   0.287  12.481  0.0318  0.7989  0.7247
  378TMC3    O2 5663   4.232   0.191  12.360 -0.0864  0.2713  0.4444
  379MPD2     C 5664   0.677   3.222  16.068  0.3090  0.0331  0.1449
  379MPD2    C1 5665   0.565   3.161  16.124  0.7733  0.5414  0.2022
  379MPD2    C2 5666   0.572   3.136  16.261 -0.2153 -0.4646 -0.3780
  379MPD2    C3 5667   0.685   3.170  16.329  1.6096 -0.9179  0.6334
  379MPD2    C4 5668   0.788   3.228  16.263 -0.4068  0.3703 -0.5007
  379MPD2    C5 5669   0.785   3.258  16.135 -0.5420  0.0321 -0.2259
  379MPD2     H 5670   0.486   3.112  16.323  0.5123 -2.0035  0.0404
  379MPD2    H1 5671   0.878   3.258  16.316  0.7500 -1.1734 -1.5808
  379MPD2    H2 5672   0.677   3.244  15.961 -0.0488 -1.6845 -0.2024
  379MPD2    H3 5673   0.866   3.306  16.081  1.1457 -0.1405  2.1629
  379MPD2     N 5674   0.708   3.145  16.464  0.4117 -0.1914  0.1642
  379MPD2    H5 5675   0.807   3.155  16.483  0.1917  0.1061  1.1331
  379MPD2    N1 5676   0.455   3.140  16.039  0.3030 -0.5118  0.2442
  379MPD2    H7 5677   0.471   3.141  15.939  0.3079 -0.2296  0.2487
  380TMC3    C1 5678   0.239   3.059  15.983 -0.0868  0.0202 -0.4423
  380TMC3    C2 5679   0.278   3.038  15.852  0.3917 -0.1170 -0.6111
  380TMC3    C3 5680   0.179   3.029  15.753  0.0762  0.5966  0.5315
  380TMC3    C4 5681   0.105   3.060  16.019  0.5277  0.1303  0.1574
  380TMC3    C5 5682   0.019   3.042  15.921  0.0386  0.0754 -0.7499
  380TMC3    C6 5683   0.054   3.013  15.791  1.0080 -0.3736 -0.0343
  380TMC3     C 5684   0.328   3.108  16.087 -0.1283 -0.0079 -0.0483
  380TMC3     O 5685   0.277   3.114  16.200 -0.7189 -0.0207 -0.7107
  380TMC3     H 5686   0.383   3.039  15.827  0.4482 -0.0503 -0.3705
  380TMC3    H1 5687   0.078   3.095  16.118 -0.7212  0.0304 -0.1451
  380TMC3    H2 5688   4.699   3.030  15.718  1.3363  0.9332 -0.0896
  380TMC3    C7 5689   4.607   3.019  15.965 -0.1740 -0.6035  0.0860
  380TMC3    C8 5690   0.214   3.061  15.619  0.0582 -0.1596  0.0527
  380TMC3    O1 5691   4.570   3.085  16.063  0.3425 -0.2268 -0.4372
  380TMC3    O2 5692   0.125   3.071  15.534  0.3701 -0.3288  0.6339
  381TMC3    C1 5693   4.588   4.206  16.360 -0.1692  0.4018 -0.6217
  381TMC3    C2 5694   4.659   4.320  16.332 -0.0312  0.1295  0.3153
  381TMC3    C3 5695   4.628   4.429  16.398  0.4409 -0.6869  0.2819
  381TMC3    C4 5696   4.495   4.197  16.460 -0.2883 -0.1197 -0.9177
  381TMC3    C5 5697   4.471   4.309  16.528  0.7421  0.0460 -0.0687
  381TMC3    C6 5698   4.535   4.426  16.496 -0.2943  0.3736 -0.5191
  381TMC3     C 5699   4.639   4.074  16.317 -0.5456  0.2813 -1.3735
  381TMC3     O 5700   4.586   3.974  16.371 -0.1763  0.1724  0.0329
  381TMC3     H 5701   0.008   4.323  16.253 -0.7932 -2.9881 -0.4756
  381TMC3    H1 5702   4.438   4.106  16.477  0.9205 -0.6299  0.3469
  381TMC3    H2 5703   4.523   4.515  16.557 -0.1478 -1.6985  2.5069
  381TMC3    C7 5704   4.414   4.284  16.661 -0.6495 -0.0276 -0.6896
  381TMC3    C8 5705   4.705   4.551  16.359 -0.1811  0.2719 -0.8327
  381TMC3    O1 5706   4.414   4.167  16.698 -0.2281 -0.0474  0.1257
  381TMC3    O2 5707   0.035   4.545  16.251  0.2756  0.0346  0.0601
  382MPD2     C 5708   3.859   2.185  17.402  0.2451  0.1217 -0.3224
  382MPD2    C1 5709   3.975   2.106  17.401  0.5245  0.8993 -0.1585
  382MPD2    C2 5710   3.976   1.973  17.357 -0.4297  0.0696  0.2424
  382MPD2    C3 5711   3.854   1.915  17.312  0.4782  0.0808  0.3881
  382MPD2    C4 5712   3.744   1.995  17.312  0.1858 -0.1684  0.5272
  382MPD2    C5 5713   3.742   2.124  17.362  0.2352  0.3547 -0.4333
  382MPD2     H 5714   4.071   1.923  17.343 -1.4372 -1.7700 -0.0216
  382MPD2    H1 5715   3.647   1.952  17.288  1.1453 -2.7813  1.3208
  382MPD2    H2 5716   3.861   2.281  17.451 -2.4755  0.2624 -0.4790
  382MPD2    H3 5717   3.642   2.164  17.359  0.3655  0.4561 -3.8439
  382MPD2     N 5718   3.834   1.787  17.265 -0.0840 -0.5411  0.4831
  382MPD2    H5 5719   3.744   1.759  17.227 -0.0618  0.5948 -0.4014
  382MPD2    N1 5720   4.102   2.152  17.449  0.3363  0.1974 -0.5971
  382MPD2    H7 5721   4.179   2.087  17.440 -0.9064 -1.3952  0.2677
  383TMC3    C1 5722   3.870   1.550  17.252 -0.0195  0.3081 -0.4907
  383TMC3    C2 5723   3.746   1.538  17.196 -0.3178  0.8029 -0.2266
  383TMC3    C3 5724   3.694   1.415  17.163  0.5340 -0.2110  0.3838
  383TMC3    C4 5725   3.942   1.443  17.283 -0.0816  0.5405  0.1442
  383TMC3    C5 5726   3.889   1.319  17.253  0.3058  0.2903  0.6217
  383TMC3    C6 5727   3.764   1.301  17.187  0.3929 -0.1192  0.1304
  383TMC3     C 5728   3.920   1.684  17.288 -0.4367 -0.3397  0.3128
  383TMC3     O 5729   4.034   1.687  17.332 -0.0105 -0.3026  0.0124
  383TMC3     H 5730   3.689   1.622  17.159 -1.2921 -0.1118 -0.8057
  383TMC3    H1 5731   4.046   1.445  17.313 -0.1671 -3.5893  0.5951
  383TMC3    H2 5732   3.725   1.202  17.166  1.8896 -0.7283  0.2267
  383TMC3    C7 5733   3.933   1.199  17.317 -0.5099 -0.1946  0.0805
  383TMC3    C8 5734   3.551   1.402  17.195  0.0185 -0.3004 -0.2385
  383TMC3    O1 5735   3.909   1.093  17.260 -0.5416  0.5030  0.1694
  383TMC3    O2 5736   3.498   1.495  17.258  0.1065 -0.1863  0.0023
  384MPD2     C 5737   0.850   3.285  11.575  0.0897 -0.3092 -0.3195
  384MPD2    C1 5738   0.781   3.193  11.644 -0.5731 -0.2908  0.2250
  384MPD2    C2 5739   0.801   3.057  11.621  0.5252  0.2381 -0.1339
  384MPD2    C3 5740   0.890   3.014  11.528 -0.5211  0.6675  0.3826
  384MPD2    C4 5741   0.958   3.113  11.461 -0.0577 -0.3162  0.6245
  384MPD2    C5 5742   0.939   3.252  11.477 -0.7002  0.3333 -0.4515
  384MPD2     H 5743   0.744   2.986  11.679 -0.1188 -0.5137 -1.6802
  384MPD2    H1 5744   1.038   3.071  11.401  1.6390  1.2227  1.8047
  384MPD2    H2 5745   0.849   3.390  11.599 -1.4342 -0.2396 -0.6862
  384MPD2    H3 5746   0.999   3.330  11.431 -1.5765  1.8426  0.9825
  384MPD2     N 5747   0.926   2.876  11.516 -0.6437 -0.2416 -0.2837
  384MPD2    H5 5748   0.987   2.856  11.438 -0.5234 -0.5289 -0.1143
  384MPD2    N1 5749   0.710   3.246  11.752 -0.3229 -0.2481  0.3078
  384MPD2    H7 5750   0.717   3.343  11.779 -0.2089 -0.5080  1.2015
  385TMC3    C1 5751   0.954   2.649  11.588  0.2301  0.4330 -0.0007
  385TMC3    C2 5752   0.893   2.532  11.639  0.0845  0.1155  0.4231
  385TMC3    C3 5753   0.965   2.449  11.717 -0.6841  0.6049 -0.1015
  385TMC3    C4 5754   1.087   2.670  11.619 -0.3651 -0.0411  0.2909
  385TMC3    C5 5755   1.155   2.584  11.708  0.2877 -0.6197 -0.2572
  385TMC3    C6 5756   1.093   2.470  11.750 -0.4690 -0.3456 -0.1231
  385TMC3     C 5757   0.883   2.774  11.601 -0.4454  0.7596 -0.2665
  385TMC3     O 5758   0.786   2.766  11.677 -0.3986  0.2557 -0.3370
  385TMC3     H 5759   0.787   2.522  11.620  0.2890 -1.5125  0.2027
  385TMC3    H1 5760   1.140   2.758  11.583 -1.3697  0.2964 -0.3811
  385TMC3    H2 5761   1.146   2.404  11.818 -0.0053  1.7486  1.5206
  385TMC3    C7 5762   1.197   2.650  11.826  0.4738 -0.3144  0.0476
  385TMC3    C8 5763   0.918   2.318  11.744 -0.0264 -0.0020 -0.0311
  385TMC3    O1 5764   1.297   2.600  11.880 -1.0362 -0.3828  0.0885
  385TMC3    O2 5765   0.938   2.279  11.858  0.7335 -0.2594 -0.3140
  386TMC3    C1 5766   1.056   0.583  11.693  0.2553 -0.0730 -0.2051
  386TMC3    C2 5767   1.136   0.542  11.583  0.8453  0.3301  0.7351
  386TMC3    C3 5768   1.067   0.525  11.466  0.0946 -0.1045 -0.4400
  386TMC3    C4 5769   0.917   0.592  11.686  0.0137 -0.0978  0.5103
  386TMC3    C5 5770   0.855   0.561  11.567  0.0954 -0.3991 -0.1177
  386TMC3    C6 5771   0.932   0.531  11.457 -0.1618  0.3857  0.0681
  386TMC3     C 5772   1.115   0.586  11.822 -0.6393  0.2200  0.1868
  386TMC3     O 5773   1.056   0.643  11.912 -0.2226  0.8776 -0.0029
  386TMC3     H 5774   1.244   0.549  11.588  0.9673  1.2481 -2.7694
  386TMC3    H1 5775   0.873   0.627  11.780 -1.4100  1.2226 -0.6287
  386TMC3    H2 5776   0.880   0.518  11.363 -1.3045 -0.9623  0.8691
  386TMC3    C7 5777   0.716   0.608  11.549  0.2261  0.4329  0.5180
  386TMC3    C8 5778   1.126   0.556  11.333  0.9343 -0.3911 -0.6132
  386TMC3    O1 5779   0.652   0.639  11.650  0.0425  0.1001 -0.6228
  386TMC3    O2 5780   1.067   0.499  11.240 -0.1058 -0.1918 -0.2093
  387MPD2     C 5781   2.882   0.860   9.159  0.3235  0.5484 -0.4628
  387MPD2    C1 5782   2.967   0.918   9.246  0.2770  0.2337 -0.1316
  387MPD2    C2 5783   3.089   0.864   9.280 -0.7711  0.7832  0.2101
  387MPD2    C3 5784   3.115   0.731   9.240  0.4825 -0.2144  0.5403
  387MPD2    C4 5785   3.027   0.671   9.152  0.4678 -0.5917  0.6587
  387MPD2    C5 5786   2.909   0.735   9.116  0.5219  0.3788  0.1186
  387MPD2     H 5787   3.150   0.920   9.350  0.0880  1.1785 -0.8518
  387MPD2    H1 5788   3.049   0.573   9.111 -1.1299 -0.7759  0.2312
  387MPD2    H2 5789   2.791   0.906   9.123 -0.3222  1.4662  2.3748
  387MPD2    H3 5790   2.851   0.679   9.044 -0.4547 -0.4676  1.5578
  387MPD2     N 5791   3.229   0.659   9.296 -0.7863 -0.5192 -0.1065
  387MPD2    H5 5792   3.292   0.708   9.360 -1.7482 -1.6745  1.7293
  387MPD2    N1 5793   2.930   1.021   9.336  0.2772 -0.6601  0.3555
  387MPD2    H7 5794   2.991   1.046   9.414 -0.2392 -1.7899  1.1222
  388TMC3    C1 5795   2.788   1.128   9.475  0.0011  0.2017  0.0242
  388TMC3    C2 5796   2.748   1.261   9.488 -0.5612 -0.1721  0.1283
  388TMC3    C3 5797   2.759   1.313   9.614 -0.9747 -0.4859  0.3940
  388TMC3    C4 5798   2.845   1.061   9.582 -0.3555 -0.1427 -0.3706
  388TMC3    C5 5799   2.845   1.110   9.707  0.7501  0.0692 -0.4342
  388TMC3    C6 5800   2.811   1.241   9.724  1.4468  0.2312 -0.4420
  388TMC3     C 5801   2.807   1.076   9.343 -0.2591  0.0414  0.4323
  388TMC3     O 5802   2.724   1.103   9.253  0.4417 -0.4111  0.1756
  388TMC3     H 5803   2.710   1.309   9.399 -1.2673  0.7003  0.8921
  388TMC3    H1 5804   2.881   0.961   9.561  0.7495  0.3309 -0.7197
  388TMC3    H2 5805   2.825   1.286   9.822 -0.6238  0.0102 -0.0359
  388TMC3    C7 5806   2.952   1.066   9.794 -0.0747 -0.2029  0.6315
  388TMC3    C8 5807   2.738   1.461   9.622  0.1840 -0.3104  0.0369
  388TMC3    O1 5808   3.017   1.165   9.825  0.0919  0.0584  0.3689
  388TMC3    O2 5809   2.688   1.517   9.528 -0.3836  0.2137 -0.1019
  389MPD2     C 5810   2.932   3.445  11.784 -0.3892 -0.7692  0.2393
  389MPD2    C1 5811   2.924   3.424  11.647 -0.5115 -0.3418 -0.8541
  389MPD2    C2 5812   2.839   3.326  11.595  0.1764 -0.7927  0.7718
  389MPD2    C3 5813   2.738   3.276  11.675  0.2250 -0.7199 -0.2198
  389MPD2    C4 5814   2.733   3.307  11.808 -0.4014 -0.1552 -0.0581
  389MPD2    C5 5815   2.839   3.375  11.861  0.0492 -0.3351 -0.1275
  389MPD2     H 5816   2.857   3.294  11.493  3.5031  3.1504  0.0838
  389MPD2    H1 5817   2.654   3.267  11.871  2.2991 -0.7031  3.0030
  389MPD2    H2 5818   2.997   3.518  11.829 -0.8089  0.4240 -1.1041
  389MPD2    H3 5819   2.851   3.388  11.968  1.7788 -0.5941 -0.2946
  389MPD2     N 5820   2.640   3.190  11.624 -0.3908  0.2649 -0.3356
  389MPD2    H5 5821   2.569   3.169  11.694 -0.3550  0.8490 -0.1254
  389MPD2    N1 5822   3.025   3.490  11.578  0.4130 -0.2854  0.3800
  389MPD2    H7 5823   3.075   3.561  11.629 -0.3051  1.1317 -0.8931
  390TMC3    C1 5824   2.500   3.057  11.494  0.0635  0.0830 -0.1161
  390TMC3    C2 5825   2.490   2.959  11.591 -0.1696 -0.2606 -0.1204
  390TMC3    C3 5826   2.384   2.867  11.579 -0.3424  0.0648  0.0858
  390TMC3    C4 5827   2.428   3.049  11.379 -0.1459 -1.2420  0.0102
  390TMC3    C5 5828   2.343   2.951  11.366  0.1814 -0.8651 -0.1518
  390TMC3    C6 5829   2.311   2.859  11.466  0.2724 -0.3639  0.0844
  390TMC3     C 5830   2.609   3.147  11.498 -0.2598  0.3197  0.4450
  390TMC3     O 5831   2.643   3.189  11.390 -0.2122  0.3753  0.2464
  390TMC3     H 5832   2.547   2.958  11.684 -0.9971  0.5920  0.3983
  390TMC3    H1 5833   2.449   3.123  11.302  1.3974 -0.3207  1.3268
  390TMC3    H2 5834   2.238   2.782  11.449  1.3213 -1.3292 -0.0344
  390TMC3    C7 5835   2.238   2.961  11.270 -0.1753  0.0184 -0.0192
  390TMC3    C8 5836   2.342   2.774  11.683  0.0429 -0.3346 -0.3420
  390TMC3    O1 5837   2.259   2.919  11.158 -0.2323  0.3952 -0.0656
  390TMC3    O2 5838   2.276   2.680  11.638 -0.0501 -0.0146 -0.0355
  391MPD2     C 5839   1.957   0.157  11.067  0.3415  0.0713  0.0366
  391MPD2    C1 5840   1.964   0.296  11.060 -0.8812  0.2668 -0.0544
  391MPD2    C2 5841   1.964   0.353  10.937  0.2064 -0.0471  0.3232
  391MPD2    C3 5842   1.960   0.282  10.822  0.2072 -0.2302 -0.6027
  391MPD2    C4 5843   1.943   0.145  10.829  0.9927 -0.9160 -0.3929
  391MPD2    C5 5844   1.947   0.081  10.951 -0.3610  0.2921 -0.5373
  391MPD2     H 5845   1.953   0.461  10.926  2.6820  0.0383 -1.3446
  391MPD2    H1 5846   1.941   0.073  10.749  0.7235  1.4096 -2.4793
  391MPD2    H2 5847   1.956   0.101  11.160  1.4370 -1.5644 -0.9383
  391MPD2    H3 5848   1.943   4.697  10.951  1.3450  0.2300 -0.7337
  391MPD2     N 5849   1.960   0.349  10.698  0.4248 -0.0354 -0.4134
  391MPD2    H5 5850   1.977   0.449  10.706  1.1095  0.0642 -2.9731
  391MPD2    N1 5851   1.967   0.373  11.174  0.3886  0.6601  0.1745
  391MPD2    H7 5852   1.945   0.318  11.256 -0.3567  2.6499  1.3259
  392TMC3    C1 5853   1.934   0.393  10.466  0.4353 -0.5034 -0.0166
  392TMC3    C2 5854   1.842   0.383  10.366  0.2238 -0.7859 -0.7693
  392TMC3    C3 5855   1.846   0.478  10.268 -0.0134  0.0158  0.3480
  392TMC3    C4 5856   2.033   0.483  10.461  0.1633 -0.6888 -0.7755
  392TMC3    C5 5857   2.033   0.575  10.359  0.0139  0.8340 -0.0681
  392TMC3    C6 5858   1.943   0.578  10.259 -0.2606  0.5136 -0.3391
  392TMC3     C 5859   1.939   0.296  10.570 -0.3676 -0.2882  0.6234
  392TMC3     O 5860   1.888   0.185  10.540  0.2590 -0.0296  0.4501
  392TMC3     H 5861   1.764   0.308  10.357 -1.4149  0.8073  0.0564
  392TMC3    H1 5862   2.118   0.491  10.528 -1.6269  1.8254  1.1733
  392TMC3    H2 5863   1.931   0.657  10.185  2.1405  0.6415 -0.6026
  392TMC3    C7 5864   2.099   0.698  10.412  0.0100 -0.2318  0.1354
  392TMC3    C8 5865   1.762   0.451  10.150  0.1576 -0.0865 -0.4348
  392TMC3    O1 5866   2.126   0.703  10.531  0.0701  0.0616 -0.1711
  392TMC3    O2 5867   1.744   0.337  10.110 -0.3966 -0.1427 -0.4185
  393TMC3    C1 5868   0.332   2.992  10.970  0.8413 -0.3997  0.1982
  393TMC3    C2 5869   0.303   3.047  11.090 -1.0086 -0.3839  0.3403
  393TMC3    C3 5870   0.249   2.971  11.193 -0.2494 -0.5525 -0.2792
  393TMC3    C4 5871   0.319   2.856  10.956  0.7508 -0.6661  0.7746
  393TMC3    C5 5872   0.276   2.775  11.060  0.1766  0.3543 -0.4762
  393TMC3    C6 5873   0.236   2.832  11.178 -0.0407  0.6294 -0.3806
  393TMC3     C 5874   0.434   3.044  10.888  0.1961 -0.1250  0.3305
  393TMC3     O 5875   0.482   2.962  10.811  0.1930 -0.3127  0.2691
  393TMC3     H 5876   0.297   3.156  11.096 -0.8435 -0.3888  0.6146
  393TMC3    H1 5877   0.338   2.808  10.862 -0.4229  2.3839 -1.0274
  393TMC3    H2 5878   0.207   2.756  11.250 -0.8320 -0.1818 -1.5458
  393TMC3    C7 5879   0.362   2.662  11.085 -0.4697  0.3531  0.6880
  393TMC3    C8 5880   0.150   3.022  11.288  0.5080 -0.0677  0.5539
  393TMC3    O1 5881   0.325   2.577  11.163 -0.3206 -0.2685 -0.2495
  393TMC3    O2 5882   0.106   3.135  11.269 -0.0024  0.3279  0.4440
  394TMC3    C1 5883   3.094   3.598  11.381 -0.1900 -0.4429  0.2591
  394TMC3    C2 5884   3.038   3.716  11.425 -0.5244  0.4262  0.5440
  394TMC3    C3 5885   3.024   3.814  11.332 -0.1650  0.1256  0.6331
  394TMC3    C4 5886   3.159   3.584  11.257  0.4128  0.1393  0.8514
  394TMC3    C5 5887   3.179   3.697  11.188  0.7565 -0.0872 -0.6297
  394TMC3    C6 5888   3.106   3.810  11.223  0.1536  0.3680  0.4001
  394TMC3     C 5889   3.048   3.477  11.443  0.2584  0.4077  0.0747
  394TMC3     O 5890   3.034   3.384  11.371 -0.0254 -0.7381 -0.6984
  394TMC3     H 5891   2.966   3.707  11.506  0.5918 -1.7781  1.2941
  394TMC3    H1 5892   3.201   3.485  11.240 -1.2388 -0.2009 -1.3458
  394TMC3    H2 5893   3.116   3.903  11.170  1.0129  0.8316  1.3566
  394TMC3    C7 5894   3.234   3.701  11.058  0.3387 -0.9857  0.1931
  394TMC3    C8 5895   2.881   3.826  11.305 -0.7525 -0.3771  0.2647
  394TMC3    O1 5896   3.256   3.811  11.012  0.4878  0.3650  0.0887
  394TMC3    O2 5897   2.802   3.828  11.401 -0.1702  0.5997 -0.2479
  395TMC3    C1 5898   2.412   0.743  15.030 -0.7430  0.8677 -0.6861
  395TMC3    C2 5899   2.295   0.735  14.973 -0.5291 -0.2472 -0.0507
  395TMC3    C3 5900   2.275   0.778  14.852 -0.1869 -0.5639 -0.3959
  395TMC3    C4 5901   2.522   0.794  14.975 -0.0450  0.4029  0.0210
  395TMC3    C5 5902   2.492   0.863  14.863  0.2359 -0.7792  0.0871
  395TMC3    C6 5903   2.376   0.854  14.798 -0.0389  0.3691 -0.0820
  395TMC3     C 5904   2.409   0.709  15.169 -0.2593 -0.3943 -0.2981
  395TMC3     O 5905   2.305   0.739  15.230  0.1701 -0.1624 -0.5361
  395TMC3     H 5906   2.217   0.683  15.028  0.7631  0.7557  2.7247
  395TMC3    H1 5907   2.613   0.813  15.030 -1.8336  0.7759  2.8731
  395TMC3    H2 5908   2.355   0.904  14.704 -2.0556 -0.0876  0.1196
  395TMC3    C7 5909   2.580   0.979  14.825 -0.0800  0.1172  0.0025
  395TMC3    C8 5910   2.139   0.776  14.798 -0.2073  0.1248 -0.4332
  395TMC3    O1 5911   2.645   1.026  14.918 -0.5642  0.1175 -0.0608
  395TMC3    O2 5912   2.108   0.863  14.712  0.2641 -0.0642 -0.1302
  396MPD2     C 5913   2.090   1.838  16.833 -1.1052 -0.4190 -0.0158
  396MPD2    C1 5914   2.205   1.897  16.885  0.7916 -0.0405  0.5073
  396MPD2    C2 5915   2.256   1.995  16.803 -0.3445 -0.6287 -0.5412
  396MPD2    C3 5916   2.193   2.036  16.690  0.7017 -1.2477  0.2369
  396MPD2    C4 5917   2.079   1.974  16.645 -0.1420  0.2781 -0.1049
  396MPD2    C5 5918   2.028   1.869  16.721  0.6089 -0.9079  0.3142
  396MPD2     H 5919   2.353   2.039  16.824 -0.8877  0.2217  0.1804
  396MPD2    H1 5920   2.013   2.004  16.564  0.1321 -2.6746 -1.3897
  396MPD2    H2 5921   2.051   1.756  16.892 -0.4564 -0.2270  0.6788
  396MPD2    H3 5922   1.935   1.817  16.701  0.7964 -0.7151 -1.0927
  396MPD2     N 5923   2.250   2.145  16.620  0.0945 -0.1232 -0.2759
  396MPD2    H5 5924   2.330   2.188  16.664 -0.7742  3.3858 -2.1495
  396MPD2    N1 5925   2.257   1.847  17.004 -0.1077  0.1982  0.2234
  396MPD2    H7 5926   2.204   1.772  17.048 -2.0676  2.7634  2.2917
  397TMC3    C1 5927   2.387   1.837  17.192  0.3062  0.0237  0.1396
  397TMC3    C2 5928   2.491   1.742  17.193 -0.3730  0.6923 -0.1434
  397TMC3    C3 5929   2.468   1.618  17.248 -0.2064  0.6566  0.5713
  397TMC3    C4 5930   2.278   1.814  17.270 -0.0945 -0.5387  0.0478
  397TMC3    C5 5931   2.282   1.711  17.354 -0.3330  0.1999 -0.3061
  397TMC3    C6 5932   2.369   1.611  17.345  0.1986 -0.1402  0.6408
  397TMC3     C 5933   2.367   1.893  17.061 -0.0013 -0.4518 -0.6743
  397TMC3     O 5934   2.456   1.963  17.020 -0.0978 -0.0433  0.4119
  397TMC3     H 5935   2.574   1.757  17.125 -2.5443  1.0786 -2.7319
  397TMC3    H1 5936   2.198   1.887  17.273  1.9618  1.6302  0.6836
  397TMC3    H2 5937   2.368   1.525  17.411  1.0278 -0.7152 -0.0983
  397TMC3    C7 5938   2.162   1.693  17.424  0.4212  0.4840 -0.4686
  397TMC3    C8 5939   2.443   1.527  17.137  0.4016  0.0626 -0.0867
  397TMC3    O1 5940   2.066   1.749  17.374 -0.0788  0.2697 -0.2018
  397TMC3    O2 5941   2.517   1.536  17.039 -0.0342 -0.0785 -0.1895
  398MPD2     C 5942   0.355   2.396  17.511  0.2045 -0.1273 -0.3195
  398MPD2    C1 5943   0.453   2.324  17.582  0.3039  0.1386 -0.1313
  398MPD2    C2 5944   0.531   2.394  17.673  0.5756  0.3141 -0.4157
  398MPD2    C3 5945   0.520   2.531  17.697  0.5712 -0.1434 -0.1116
  398MPD2    C4 5946   0.425   2.601  17.628 -0.4266  0.1205  0.7690
  398MPD2    C5 5947   0.340   2.535  17.540 -0.2444 -0.0786 -0.0742
  398MPD2     H 5948   0.603   2.329   0.024 -0.1953  0.3215  0.6829
  398MPD2    H1 5949   0.414   2.707  17.645  0.2710  0.2508  0.3713
  398MPD2    H2 5950   0.285   2.359  17.437 -1.2681  2.6093 -0.3239
  398MPD2    H3 5951   0.261   2.593  17.494 -1.6918 -0.4633  1.9489
  398MPD2     N 5952   0.603   2.584   0.100  0.4048  0.4749 -0.0650
  398MPD2    H5 5953   0.679   2.525   0.130 -0.0401 -0.1766 -0.1998
  398MPD2    N1 5954   0.499   2.195  17.559  0.2225 -0.1805  0.3756
  398MPD2    H7 5955   0.580   2.170  17.615  0.3180 -1.7642 -0.4552
  399TMC3    C1 5956   0.485   1.967  17.473 -0.2018 -0.4360  0.1173
  399TMC3    C2 5957   0.609   1.943  17.530  0.2973  0.0178 -1.0162
  399TMC3    C3 5958   0.654   1.815  17.543  0.3344  0.1998  0.0320
  399TMC3    C4 5959   0.398   1.864  17.447  0.2323  0.0687 -0.5880
  399TMC3    C5 5960   0.449   1.740  17.479 -0.3038  0.0099 -0.3954
  399TMC3    C6 5961   0.569   1.711  17.537 -0.0997  0.0754  0.4585
  399TMC3     C 5962   0.426   2.100  17.497  0.1192  0.3771 -0.2948
  399TMC3     O 5963   0.313   2.109  17.450 -0.3932  0.0581  0.1653
  399TMC3     H 5964   0.667   2.027  17.567  0.4019 -0.4016 -0.2299
  399TMC3    H1 5965   0.301   1.875  17.401 -0.2551  0.8011  0.6149
  399TMC3    H2 5966   0.587   1.609  17.569  2.8705  0.2714 -0.5619
  399TMC3    C7 5967   0.354   1.628  17.474  0.3428 -1.0162  0.0099
  399TMC3    C8 5968   0.769   1.806  17.634  0.8612 -0.6798  0.2755
  399TMC3    O1 5969   0.362   1.545  17.564 -0.8923  0.9569  0.2061
  399TMC3    O2 5970   0.827   1.909  17.662 -0.7463 -0.4021 -0.3792
  400TMC3    C1 5971   3.886   1.563  16.753 -0.2434 -0.3088  0.0204
  400TMC3    C2 5972   3.755   1.609  16.744 -0.8480 -0.0201  0.3988
  400TMC3    C3 5973   3.722   1.711  16.824  0.0874 -0.6075 -0.1286
  400TMC3    C4 5974   3.974   1.632  16.824  0.6487 -0.0420 -0.1042
  400TMC3    C5 5975   3.945   1.738  16.898 -0.4009  0.0803  0.3533
  400TMC3    C6 5976   3.808   1.770  16.908  0.1870  0.0931 -0.0794
  400TMC3     C 5977   3.884   1.422  16.789 -0.2026 -0.5971 -0.2796
  400TMC3     O 5978   3.776   1.368  16.775 -0.0202 -0.6053 -0.4223
  400TMC3     H 5979   3.679   1.562  16.682 -0.3803  3.3242 -2.7432
  400TMC3    H1 5980   4.080   1.617  16.812  0.5653 -1.3112  0.6512
  400TMC3    H2 5981   3.784   1.845  16.983  0.1427 -0.6951  0.6998
  400TMC3    C7 5982   4.053   1.819  16.950 -0.1766 -0.5257 -1.2136
  400TMC3    C8 5983   3.590   1.720  16.878 -0.0167 -0.5232  0.4080
  400TMC3    O1 5984   4.161   1.763  16.970 -0.3336 -0.5382 -0.2896
  400TMC3    O2 5985   3.572   1.797  16.970  0.4333 -0.0967  0.6547
  401MPD2     C 5986   2.850   0.181   0.086  0.3010  0.7229  0.3087
  401MPD2    C1 5987   2.730   0.112   0.101  0.6119 -0.5023 -0.3545
  401MPD2    C2 5988   2.734   4.700   0.113 -0.0051  0.5743  0.4291
  401MPD2    C3 5989   2.855   4.628   0.103 -0.3118 -0.1080 -0.3895
  401MPD2    C4 5990   2.971   4.695   0.084 -0.1634 -0.0001 -0.3556
  401MPD2    C5 5991   2.972   0.106   0.084 -0.5437 -0.4558  0.0353
  401MPD2     H 5992   2.649   4.644   0.150 -1.8816  0.8777 -3.4144
  401MPD2    H1 5993   3.067   4.648   0.072 -0.4804 -0.3884 -1.3699
  401MPD2    H2 5994   2.854   0.289   0.085 -0.9649  0.7664  0.0353
  401MPD2    H3 5995   3.063   0.162   0.071 -0.5298 -0.5852 -0.4381
  401MPD2     N 5996   2.848   4.485   0.119 -0.1631  0.7797 -0.6008
  401MPD2    H5 5997   2.756   4.444   0.131  0.6907 -0.3760  1.9476
  401MPD2    N1 5998   2.611   0.179   0.145  0.5389 -0.4587 -0.0023
  401MPD2    H7 5999   2.546   0.118   0.195  0.6375  0.5828  1.4084
  402TMC3    C1 6000   2.920   4.259   0.123 -0.6959 -0.0461 -0.4669
  402TMC3    C2 6001   2.818   4.234   0.213  0.2137 -0.1539  0.3166
  402TMC3    C3 6002   2.776   4.106   0.219 -0.1887 -0.6482  0.5440
  402TMC3    C4 6003   2.986   4.163   0.052 -0.8680 -0.7620  0.2604
  402TMC3    C5 6004   2.950   4.032   0.081 -0.2465  0.0236  0.0703
  402TMC3    C6 6005   2.844   4.001   0.160 -0.9787  0.2526  0.6870
  402TMC3     C 6006   2.956   4.400   0.107 -0.6028  0.6042 -0.0520
  402TMC3     O 6007   3.069   4.427   0.069 -0.0042 -0.2080 -0.1470
  402TMC3     H 6008   2.789   4.308   0.287 -1.3554 -1.3138  0.8622
  402TMC3    H1 6009   3.078   4.180  17.697 -0.5886 -0.9154  0.6852
  402TMC3    H2 6010   2.806   3.900   0.167 -1.2181  0.3768  1.1472
  402TMC3    C7 6011   3.042   3.925   0.048  0.1092 -0.4588 -0.6243
  402TMC3    C8 6012   2.685   4.060   0.322  0.6785 -0.5263  0.2667
  402TMC3    O1 6013   3.130   3.959  17.667 -0.5052  0.5450 -0.1302
  402TMC3    O2 6014   2.673   3.942   0.339  0.5037 -0.2576 -0.2996
  403MPD2     C 6015   4.709   3.147  12.941  0.3907  0.5152 -0.2888
  403MPD2    C1 6016   0.028   3.053  13.023 -0.8073 -0.5948  0.5218
  403MPD2    C2 6017   0.136   3.085  13.105  0.0408 -0.3641  0.0967
  403MPD2    C3 6018   0.206   3.204  13.108  1.1264  0.4059 -0.8218
  403MPD2    C4 6019   0.151   3.308  13.029 -0.4400  0.7773  0.3362
  403MPD2    C5 6020   0.043   3.275  12.946 -0.4207  0.0726  0.2702
  403MPD2     H 6021   0.171   3.015  13.180 -2.6720  1.0350  2.6536
  403MPD2    H1 6022   0.187   3.410  13.028 -0.7952  0.9122  0.9120
  403MPD2    H2 6023   4.636   3.117  12.866  0.0830  0.3060  0.0965
  403MPD2    H3 6024   0.005   3.345  12.872 -2.4998 -0.1983  1.0939
  403MPD2     N 6025   0.320   3.223  13.189 -0.1553 -0.8469  0.6790
  403MPD2    H5 6026   0.356   3.143  13.241 -0.5258 -1.0735  0.5865
  403MPD2    N1 6027   4.701   2.923  13.016 -0.1230  0.2055  0.3539
  403MPD2    H7 6028   4.619   2.912  12.957  0.7292 -2.5497 -0.2960
  404TMC3    C1 6029   4.672   2.696  13.060  0.2284 -0.1032 -0.1170
  404TMC3    C2 6030   4.669   2.607  13.162  0.5431  0.7579 -0.4494
  404TMC3    C3 6031   4.674   2.474  13.121  0.7193 -0.3683 -0.1565
  404TMC3    C4 6032   4.661   2.656  12.930  0.3799  0.9308 -0.0134
  404TMC3    C5 6033   4.643   2.525  12.896  0.2682  0.6491  0.0420
  404TMC3    C6 6034   4.653   2.430  12.993 -0.7278  0.3166 -1.1002
  404TMC3     C 6035   0.013   2.820  13.092  0.6512 -0.3066  0.3098
  404TMC3     O 6036   0.079   2.816  13.194 -0.1366  0.2719  0.4628
  404TMC3     H 6037   4.701   2.636  13.261 -0.9020 -0.5107  0.3818
  404TMC3    H1 6038   4.661   2.732  12.853 -1.2588 -0.8717 -1.7895
  404TMC3    H2 6039   4.642   2.325  12.968  0.4098  0.5558 -2.5747
  404TMC3    C7 6040   4.688   2.492  12.762 -0.1286  0.7530 -0.1817
  404TMC3    C8 6041   4.717   2.369  13.215  0.5952  0.3612  0.5734
  404TMC3    O1 6042   0.034   2.575  12.704 -0.5462  0.0870 -0.4842
  404TMC3    O2 6043   0.031   2.261  13.168 -0.7691 -0.2612  0.2283
  405MPD2     C 6044   0.863   3.536  14.114  0.2738 -0.1559 -0.0050
  405MPD2    C1 6045   0.784   3.486  14.018  0.0917  0.6854 -0.6606
  405MPD2    C2 6046   0.693   3.572  13.953 -0.3014  0.2647  0.6428
  405MPD2    C3 6047   0.697   3.704  13.976  0.2675 -0.3284 -0.3453
  405MPD2    C4 6048   0.780   3.759  14.070  0.6563  0.8399 -0.0233
  405MPD2    C5 6049   0.867   3.674  14.140 -0.1382  0.1393  0.4384
  405MPD2     H 6050   0.623   3.533  13.880 -0.1586  2.8846 -0.9111
  405MPD2    H1 6051   0.783   3.867  14.082  2.0878  0.5146  2.5892
  405MPD2    H2 6052   0.920   3.472  14.180 -0.3737 -1.0682 -0.3392
  405MPD2    H3 6053   0.939   3.721  14.206  1.4612  2.8896 -3.3029
  405MPD2     N 6054   0.606   3.778  13.907 -0.6976 -0.3127  0.1829
  405MPD2    H5 6055   0.537   3.720  13.860 -0.8634  0.0747 -0.0504
  405MPD2    N1 6056   0.761   3.343  14.004 -0.2414  0.3504  0.2538
  405MPD2    H7 6057   0.803   3.280  14.071  0.7033  1.5269  0.7577
  406TMC3    C1 6058   0.256   4.027  13.807  0.5774  0.0090 -0.7992
  406TMC3    C2 6059   0.214   3.927  13.721  0.0687 -0.4691  1.0502
  406TMC3    C3 6060   0.311   3.841  13.670  0.0779 -0.0971 -0.6181
  406TMC3    C4 6061   0.386   4.031  13.855 -0.0473 -0.2789  0.2934
  406TMC3    C5 6062   0.469   3.927  13.817 -0.1129  0.5550  0.2605
  406TMC3    C6 6063   0.431   3.834  13.733  0.8960 -0.4134  0.3779
  406TMC3     C 6064   0.158   4.084  13.901  0.0588  0.2279 -0.1924
  406TMC3     O 6065   0.172   4.201  13.923 -0.3340 -0.6666 -1.0183
  406TMC3     H 6066   0.110   3.933  13.692  0.3137  1.8545  0.6710
  406TMC3    H1 6067   0.420   4.101  13.930  1.1529 -0.8521  0.2766
  406TMC3    H2 6068   0.507   3.776  13.682  1.7660 -0.7942  2.0730
  406TMC3    C7 6069   0.584   3.910  13.895  0.1507  0.3811  0.7953
  406TMC3    C8 6070   0.261   3.735  13.584  0.3667  0.3349  0.7244
  406TMC3    O1 6071   0.643   4.007  13.937 -0.5281  0.2585  0.3436
  406TMC3    O2 6072   0.156   3.751  13.524  0.2196 -0.2244 -0.3359
  407MPD2     C 6073   2.627   0.422   9.147  0.6187 -0.5287  0.7522
  407MPD2    C1 6074   2.666   0.321   9.234 -0.3637 -0.1227  0.2987
  407MPD2    C2 6075   2.678   0.355   9.368 -0.4038  0.3713 -0.6840
  407MPD2    C3 6076   2.652   0.483   9.411 -0.4471 -0.1207  0.2983
  407MPD2    C4 6077   2.616   0.583   9.327  0.2649  0.5918 -0.0676
  407MPD2    C5 6078   2.597   0.549   9.198  0.1754 -0.4132 -0.1823
  407MPD2     H 6079   2.706   0.274   9.435  0.4824  2.3288  1.2810
  407MPD2    H1 6080   2.595   0.684   9.362  0.3887  0.1811  1.2026
  407MPD2    H2 6081   2.614   0.404   9.041 -2.5487  1.7304  0.7479
  407MPD2    H3 6082   2.563   0.629   9.133 -0.8046  0.0417  0.8928
  407MPD2     N 6083   2.679   0.516   9.546 -0.4637 -0.4577 -0.1885
  407MPD2    H5 6084   2.684   0.615   9.566  0.5084 -1.1471  3.0887
  407MPD2    N1 6085   2.698   0.192   9.190  0.1734 -0.7621  0.2821
  407MPD2    H7 6086   2.724   0.126   9.262  0.5801  2.5847  3.1843
  408TMC3    C1 6087   2.688   4.714   9.067  0.1659  0.1398  0.2320
  408TMC3    C2 6088   2.808   4.649   9.097  0.9178 -0.3275 -0.0105
  408TMC3    C3 6089   2.812   4.524   9.148  0.0534 -0.6733 -0.0268
  408TMC3    C4 6090   2.574   4.644   9.071 -0.6636  0.1959  0.3630
  408TMC3    C5 6091   2.582   4.513   9.118 -0.0088  0.3682  0.3287
  408TMC3    C6 6092   2.696   4.450   9.165  1.1924 -0.9318  0.1624
  408TMC3     C 6093   2.662   0.135   9.070 -0.7170 -0.8599 -0.2219
  408TMC3     O 6094   2.609   0.187   8.976  0.2976  0.2841 -0.2279
  408TMC3     H 6095   2.897   4.708   9.077 -0.1066  1.3642  0.4351
  408TMC3    H1 6096   2.488   4.686   9.021 -1.3302 -0.8814  0.5920
  408TMC3    H2 6097   2.705   4.353   9.213 -0.8234 -1.5995 -0.8413
  408TMC3    C7 6098   2.463   4.431   9.103  0.3967  0.5747 -0.0253
  408TMC3    C8 6099   2.933   4.446   9.112 -0.2564 -0.0898  0.6984
  408TMC3    O1 6100   2.485   4.310   9.125 -0.1009 -0.0491  0.3002
  408TMC3    O2 6101   2.906   4.341   9.055 -0.3231 -0.1956  0.2153
  409MPD2     C 6102   2.992   1.205   0.510  0.5519 -0.0539 -0.2460
  409MPD2    C1 6103   3.076   1.188   0.409  0.4396 -0.0769  0.8197
  409MPD2    C2 6104   3.040   1.235   0.286  0.0591  0.1175 -0.6214
  409MPD2    C3 6105   2.921   1.306   0.257 -1.0324 -0.0726  0.0405
  409MPD2    C4 6106   2.831   1.308   0.360 -0.0736  0.3550  0.0891
  409MPD2    C5 6107   2.870   1.269   0.483  0.1569  0.4788  0.2232
  409MPD2     H 6108   3.112   1.211   0.209 -0.5211 -3.2579 -0.1241
  409MPD2    H1 6109   2.736   1.358   0.347 -0.5346 -0.3626  0.7012
  409MPD2    H2 6110   3.012   1.177   0.613  1.6507  0.2182 -0.3878
  409MPD2    H3 6111   2.800   1.277   0.565 -0.3287 -1.0890 -0.0452
  409MPD2     N 6112   2.889   1.343   0.125  0.6909  0.3097  0.3641
  409MPD2    H5 6113   2.950   1.302   0.055  0.8134  2.6578 -0.8867
  409MPD2    N1 6114   3.201   1.131   0.422 -0.1570  0.3172  0.0853
  409MPD2    H7 6115   3.249   1.105   0.337 -0.2021  0.8255 -0.0975
  410TMC3    C1 6116   2.827   1.504  17.669  0.2494  0.5280 -1.0298
  410TMC3    C2 6117   2.908   1.446  17.578  1.0498 -0.4865  0.2342
  410TMC3    C3 6118   2.925   1.509  17.452 -0.6498  0.0200  0.2350
  410TMC3    C4 6119   2.770   1.623  17.647  0.5520  0.5815  0.7427
  410TMC3    C5 6120   2.806   1.692  17.528 -0.2021 -0.0334  0.1828
  410TMC3    C6 6121   2.888   1.635  17.430  0.9069  0.2206  0.5770
  410TMC3     C 6122   2.793   1.439   0.094 -0.1437 -0.7020  0.3990
  410TMC3     O 6123   2.710   1.490   0.169 -0.2417  0.2450  0.2481
  410TMC3     H 6124   2.946   1.344  17.586 -0.6804 -1.1985 -0.5456
  410TMC3    H1 6125   2.695   1.659   0.017 -1.3029  0.5386 -1.2279
  410TMC3    H2 6126   2.908   1.695  17.342 -0.3895  3.2799  2.3757
  410TMC3    C7 6127   2.716   1.805  17.496  0.1400  0.0329 -0.6932
  410TMC3    C8 6128   3.043   1.471  17.380  0.0774 -0.1334 -0.0217
  410TMC3    O1 6129   2.625   1.824  17.577 -0.2086  0.0012  0.1332
  410TMC3    O2 6130   3.122   1.558  17.355 -0.1707 -0.0661 -0.1478
  411MPD2     C 6131   2.836   1.977  14.561  0.0251  0.0882  0.1593
  411MPD2    C1 6132   2.774   2.004  14.682 -0.5415  0.1975  0.3559
  411MPD2    C2 6133   2.677   1.912  14.718 -0.0111  0.7870 -0.0475
  411MPD2    C3 6134   2.640   1.799  14.641 -0.3908  0.3962 -0.2748
  411MPD2    C4 6135   2.713   1.768  14.525 -0.9518 -0.0072  0.6496
  411MPD2    C5 6136   2.804   1.865  14.485  0.1815  0.0386 -0.4628
  411MPD2     H 6137   2.635   1.931  14.817 -0.7018 -1.3028  0.0572
  411MPD2    H1 6138   2.695   1.678  14.467  0.6828 -0.9501  1.6096
  411MPD2    H2 6139   2.918   2.042  14.531 -2.2277  3.0842  0.5266
  411MPD2    H3 6140   2.863   1.841  14.398  0.9899  1.3728 -0.2844
  411MPD2     N 6141   2.539   1.705  14.684 -0.1708 -0.0833  0.6884
  411MPD2    H5 6142   2.528   1.621  14.628  0.9564 -0.0450  0.4059
  411MPD2    N1 6143   2.799   2.119  14.749  0.5078  0.6592 -0.0938
  411MPD2    H7 6144   2.855   2.182  14.692  1.2688  0.2566  0.2070
  412TMC3    C1 6145   2.357   1.599  14.783 -0.4209  0.2007 -0.1408
  412TMC3    C2 6146   2.229   1.634  14.782 -0.7008  0.0528 -0.0806
  412TMC3    C3 6147   2.134   1.538  14.762 -0.3013  0.3015 -0.5377
  412TMC3    C4 6148   2.396   1.470  14.775 -0.1418 -0.5632  0.2083
  412TMC3    C5 6149   2.300   1.375  14.758  0.1675  0.0769  0.5109
  412TMC3    C6 6150   2.171   1.405  14.754  0.3408 -0.5684 -0.2326
  412TMC3     C 6151   2.453   1.713  14.790 -0.6657  0.1204 -0.1615
  412TMC3     O 6152   2.427   1.800  14.867  0.3368 -0.2359  0.3338
  412TMC3     H 6153   2.204   1.739  14.785 -0.6315  0.1062 -1.5770
  412TMC3    H1 6154   2.501   1.442  14.771 -0.9395 -3.4601 -0.6798
  412TMC3    H2 6155   2.100   1.323  14.746 -0.3529 -0.0945  0.9885
  412TMC3    C7 6156   2.338   1.258  14.687 -1.0737  0.1917  0.3947
  412TMC3    C8 6157   2.053   1.564  14.637  0.3242  0.2195 -0.3395
  412TMC3    O1 6158   2.315   1.149  14.742  0.3045 -0.1407  0.8824
  412TMC3    O2 6159   2.091   1.662  14.574  0.0562  0.1932 -0.2072
  413MPD2     C 6160   4.233   0.126  15.629  0.5364  0.0913 -0.8078
  413MPD2    C1 6161   4.269   0.094  15.495 -0.3221 -0.5764  0.8637
  413MPD2    C2 6162   4.378   0.010  15.478 -0.0137 -0.1123 -0.7493
  413MPD2    C3 6163   4.453   4.689  15.582  0.0951 -0.2937 -0.1756
  413MPD2    C4 6164   4.427   0.011  15.703  0.3753 -0.5173 -0.1295
  413MPD2    C5 6165   4.316   0.089  15.725 -0.4889  0.1685  0.7485
  413MPD2     H 6166   4.385   4.678  15.385 -3.2324 -0.5312 -0.7199
  413MPD2    H1 6167   4.496   4.710  15.782 -0.4510 -2.9282 -0.1817
  413MPD2    H2 6168   4.156   0.197  15.659 -1.0112 -2.6549  1.7620
  413MPD2    H3 6169   4.293   0.118  15.827 -0.9282  0.4288  0.5755
  413MPD2     N 6170   4.551   4.588  15.556 -0.2693  0.4550  0.0298
  413MPD2    H5 6171   4.586   4.578  15.461  1.8567 -0.3519  0.8840
  413MPD2    N1 6172   4.188   0.145  15.388  0.4789 -0.1848  0.1928
  413MPD2    H7 6173   4.121   0.218  15.410  0.0912 -1.4278  3.1549
  414TMC3    C1 6174   4.619   4.371  15.588  0.5094  0.2771  1.0662
  414TMC3    C2 6175   4.652   4.272  15.672 -0.3288  0.4732  0.2209
  414TMC3    C3 6176   4.618   4.146  15.642  0.5000 -0.4607  0.7756
  414TMC3    C4 6177   4.552   4.349  15.468 -0.1033 -0.0273  0.0316
  414TMC3    C5 6178   4.510   4.217  15.448 -0.0410  0.5482  0.5590
  414TMC3    C6 6179   4.537   4.121  15.539  0.6960 -0.4043 -0.1335
  414TMC3     C 6180   4.595   4.503  15.650  0.4878 -0.3566  0.2175
  414TMC3     O 6181   4.568   4.489  15.766 -0.1861  0.6948  0.4808
  414TMC3     H 6182   4.699   4.300  15.766 -2.0874 -1.5868  1.7258
  414TMC3    H1 6183   4.535   4.415  15.383 -2.2914 -0.0108  0.4892
  414TMC3    H2 6184   4.511   4.017  15.523 -0.4895  0.1324 -1.7344
  414TMC3    C7 6185   4.564   4.169  15.321 -0.2426  0.1040  0.3224
  414TMC3    C8 6186   4.711   4.044  15.661  0.2432 -0.3097  0.1078
  414TMC3    O1 6187   4.498   4.097  15.251 -0.8840 -0.4282 -0.1484
  414TMC3    O2 6188   4.673   3.929  15.651  0.6484  0.2237 -0.4217
  415TMC3    C1 6189   0.234   2.833   9.687 -0.3283 -0.0280 -0.3978
  415TMC3    C2 6190   0.287   2.959   9.658 -0.5268 -0.0440  0.6043
  415TMC3    C3 6191   0.236   3.032   9.554  0.7498 -0.6226  0.0661
  415TMC3    C4 6192   0.125   2.781   9.610  0.0964  0.4132 -0.4237
  415TMC3    C5 6193   0.087   2.851   9.499 -0.0749  0.4913 -0.2268
  415TMC3    C6 6194   0.135   2.978   9.473 -0.7299 -0.6576 -0.7363
  415TMC3     C 6195   0.310   2.738   9.761  0.1588 -0.7534  0.4223
  415TMC3     O 6196   0.327   2.627   9.712 -0.0948 -0.3541  0.5038
  415TMC3     H 6197   0.361   3.004   9.722  0.3899  0.0879 -0.5426
  415TMC3    H1 6198   0.090   2.680   9.628  1.7191 -0.2429 -0.9292
  415TMC3    H2 6199   0.107   3.033   9.384  0.1031  2.7675  1.0880
  415TMC3    C7 6200   0.011   2.795   9.392  0.3411 -0.2079  0.2824
  415TMC3    C8 6201   0.298   3.157   9.509  0.2056  0.1274 -0.3774
  415TMC3    O1 6202   4.710   2.862   9.292 -0.2831  0.2441  0.2924
  415TMC3    O2 6203   0.239   3.207   9.413  0.2370  0.5940 -0.9403
  416MPD2     C 6204   1.739   1.641  11.884 -0.6131  0.5230  0.6841
  416MPD2    C1 6205   1.646   1.650  11.779  0.5688 -0.2639 -0.1066
  416MPD2    C2 6206   1.680   1.574  11.665 -0.0476  0.8611  0.2344
  416MPD2    C3 6207   1.793   1.491  11.668  0.4725  0.0030  0.2971
  416MPD2    C4 6208   1.866   1.471  11.780  0.1561 -0.0551  0.2376
  416MPD2    C5 6209   1.835   1.551  11.888  0.6757  0.0345  0.1252
  416MPD2     H 6210   1.622   1.594  11.575 -1.0671  0.4371  0.7904
  416MPD2    H1 6211   1.957   1.412  11.784  0.3946  0.2612 -0.5418
  416MPD2    H2 6212   1.731   1.691  11.980  1.9826  1.6906  0.2916
  416MPD2    H3 6213   1.897   1.551  11.977  1.1577 -1.3611 -0.2232
  416MPD2     N 6214   1.831   1.418  11.551 -0.2747  0.3700  0.3288
  416MPD2    H5 6215   1.900   1.343  11.552  0.6753  1.2643  1.3459
  416MPD2    N1 6216   1.535   1.737  11.792  0.5903  0.2599 -0.1111
  416MPD2    H7 6217   1.541   1.792  11.878  0.3242 -0.8100  0.5933
  417TMC3    C1 6218   1.327   1.846  11.730  0.0277  0.7976  0.5953
  417TMC3    C2 6219   1.332   1.923  11.843 -0.5377 -0.5505 -0.6337
  417TMC3    C3 6220   1.258   2.032  11.855 -0.0059 -0.4152 -0.2791
  417TMC3    C4 6221   1.243   1.884  11.624 -0.0534  0.1113 -0.5725
  417TMC3    C5 6222   1.179   2.002  11.635 -0.3646 -0.0625  0.3734
  417TMC3    C6 6223   1.192   2.079  11.744  0.2301  0.4113  0.9038
  417TMC3     C 6224   1.432   1.749  11.704 -0.1379 -0.0108  0.2923
  417TMC3     O 6225   1.417   1.674  11.607 -0.4000  0.0079  0.1944
  417TMC3     H 6226   1.377   1.878  11.931  1.6156  0.3546 -1.2802
  417TMC3    H1 6227   1.242   1.825  11.533  0.0764 -1.0717  0.1899
  417TMC3    H2 6228   1.148   2.178  11.745  1.3866  0.9240  1.2962
  417TMC3    C7 6229   1.162   2.077  11.516  0.3767  0.2460 -0.4794
  417TMC3    C8 6230   1.283   2.111  11.976 -0.4023 -0.3452  0.2755
  417TMC3    O1 6231   1.195   2.194  11.514 -0.0035 -0.2525  0.3074
  417TMC3    O2 6232   1.381   2.084  12.050 -0.0108 -1.1613  0.2448
  418TMC3    C1 6233   0.837   2.816   0.395  0.4168 -0.7847 -0.3672
  418TMC3    C2 6234   0.774   2.817   0.277 -0.5277 -0.2140 -0.2865
  418TMC3    C3 6235   0.684   2.719   0.257 -0.3746 -0.4694  0.0660
  418TMC3    C4 6236   0.819   2.720   0.496  0.3238  0.0152 -0.6524
  418TMC3    C5 6237   0.710   2.644   0.476 -0.2468  0.1582  0.1336
  418TMC3    C6 6238   0.640   2.636   0.364  0.1490 -0.2967 -0.1408
  418TMC3     C 6239   0.964   2.896   0.395  0.5597  0.1701 -0.5745
  418TMC3     O 6240   0.954   3.004   0.338  0.3614  0.5466 -0.1690
  418TMC3     H 6241   0.796   2.879   0.191  1.7479  1.1723  1.2893
  418TMC3    H1 6242   0.865   2.729   0.594 -2.9935  1.3895  0.7878
  418TMC3    H2 6243   0.565   2.559   0.351 -0.2019 -0.0191  0.2458
  418TMC3    C7 6244   0.701   2.528   0.559 -0.2813 -0.3003  0.1632
  418TMC3    C8 6245   0.607   2.715   0.140  0.4207 -0.3092 -0.0106
  418TMC3    O1 6246   0.688   2.419   0.505  0.0387  0.4219 -0.0178
  418TMC3    O2 6247   0.529   2.804   0.110  0.2474  0.5154  0.0113
  419MPD2     C 6248   3.837   0.902  12.501  1.3908 -0.5190 -0.1490
  419MPD2    C1 6249   3.727   0.970  12.449  0.4016 -0.4263 -0.3426
  419MPD2    C2 6250   3.634   1.022  12.536 -0.7486  0.7062 -0.2087
  419MPD2    C3 6251   3.649   1.016  12.673 -0.2737 -0.1068 -0.1933
  419MPD2    C4 6252   3.761   0.948  12.720  0.4329 -0.5912 -0.7134
  419MPD2    C5 6253   3.861   0.904  12.636 -0.4144 -0.0749 -0.2201
  419MPD2     H 6254   3.549   1.078  12.498 -1.1062  0.1026 -0.2969
  419MPD2    H1 6255   3.775   0.939  12.827  1.4158 -0.3126 -0.8188
  419MPD2    H2 6256   3.901   0.850  12.431 -0.3908 -1.6155 -0.9511
  419MPD2    H3 6257   3.947   0.854  12.679 -1.2384 -0.4297  1.0206
  419MPD2     N 6258   3.563   1.097  12.751  0.0423  0.5218 -0.1427
  419MPD2    H5 6259   3.489   1.145  12.701 -0.2824  2.6487  2.3996
  419MPD2    N1 6260   3.701   1.007  12.318 -0.1251 -0.2499 -0.3908
  419MPD2    H7 6261   3.610   1.049  12.302 -1.5129 -2.5752  1.4335
  420TMC3    C1 6262   3.513   1.245  12.924 -0.9138  0.1301 -0.2241
  420TMC3    C2 6263   3.463   1.327  12.831  0.1777  0.1655 -0.6476
  420TMC3    C3 6264   3.398   1.442  12.878  0.4929  0.5582  0.9237
  420TMC3    C4 6265   3.530   1.288  13.051 -0.5059  0.3627  0.5832
  420TMC3    C5 6266   3.455   1.392  13.096  0.1113 -0.2552 -0.3960
  420TMC3    C6 6267   3.379   1.466  13.012 -0.2090  0.3742  0.3093
  420TMC3     C 6268   3.585   1.127  12.884 -0.5506 -0.2238 -0.4128
  420TMC3     O 6269   3.652   1.072  12.973  0.0301 -0.7238 -0.1313
  420TMC3     H 6270   3.483   1.321  12.724 -0.4091  1.6778 -0.8520
  420TMC3    H1 6271   3.611   1.241  13.106  1.2942  1.1438 -1.4343
  420TMC3    H2 6272   3.302   1.531  13.052  0.6098  2.1810 -1.0298
  420TMC3    C7 6273   3.445   1.414  13.241  0.4073  0.2289  0.7962
  420TMC3    C8 6274   3.344   1.533  12.777  0.7159  0.6887 -0.3789
  420TMC3    O1 6275   3.506   1.338  13.317  0.0090 -0.5826 -0.1006
  420TMC3    O2 6276   3.328   1.486  12.664 -0.1991 -0.1594  0.3170
  421TMC3    C1 6277   0.497   3.325  13.291 -0.7355  0.5513 -0.9263
  421TMC3    C2 6278   0.552   3.437  13.359 -0.1508 -0.2751  0.2574
  421TMC3    C3 6279   0.667   3.432  13.428 -0.1456  0.0192  0.2061
  421TMC3    C4 6280   0.570   3.217  13.297  0.2960 -0.0956  0.2156
  421TMC3    C5 6281   0.673   3.207  13.386  0.2650  0.0146 -0.0919
  421TMC3    C6 6282   0.726   3.315  13.457 -0.3201  0.4836 -0.3345
  421TMC3     C 6283   0.377   3.341  13.212 -0.1714  0.4623  0.2579
  421TMC3     O 6284   0.334   3.449  13.194  0.8103  0.3365 -0.0853
  421TMC3     H 6285   0.498   3.531  13.355 -0.6657 -0.5252  1.2095
  421TMC3    H1 6286   0.548   3.138  13.225  3.6694 -0.6375 -0.2256
  421TMC3    H2 6287   0.798   3.297  13.537 -1.1003 -0.6388  0.1081
  421TMC3    C7 6288   0.727   3.080  13.422 -0.1822  0.1365 -0.9287
  421TMC3    C8 6289   0.714   3.546  13.499 -0.4624  0.6074 -0.3322
  421TMC3    O1 6290   0.832   3.083  13.485  0.4443  0.1184  0.5636
  421TMC3    O2 6291   0.629   3.623  13.547 -0.5337 -0.1728 -0.1441
  422TMC3    C1 6292   2.800   4.527  12.154 -0.2707  0.2755 -0.2385
  422TMC3    C2 6293   2.703   4.622  12.189  0.0137  0.2798 -0.0317
  422TMC3    C3 6294   2.589   4.574  12.240 -0.1272 -0.0290  0.3676
  422TMC3    C4 6295   2.797   4.398  12.193  0.1272 -0.1562  0.6155
  422TMC3    C5 6296   2.679   4.357  12.250 -0.3150 -0.1910  0.4912
  422TMC3    C6 6297   2.574   4.440  12.270  0.2233  0.2274  0.1392
  422TMC3     C 6298   2.880   4.549  12.037 -0.1114 -0.1162  0.6148
  422TMC3     O 6299   2.833   4.616  11.946 -0.1561 -0.4561 -0.0291
  422TMC3     H 6300   2.705   4.723  12.150  1.2779 -0.2838 -1.4122
  422TMC3    H1 6301   2.879   4.329  12.188 -0.3533 -0.6075 -0.9781
  422TMC3    H2 6302   2.477   4.402  12.299  0.2279  0.6717  0.7510
  422TMC3    C7 6303   2.688   4.228  12.321 -0.0816 -0.6507  0.2730
  422TMC3    C8 6304   2.529   4.664  12.344  0.2798 -0.1332  0.4204
  422TMC3    O1 6305   2.792   4.165  12.304 -0.3174 -0.5162 -0.2963
  422TMC3    O2 6306   2.590   0.041  12.381 -0.4912 -0.7522  0.1404
  423MPD2     C 6307   4.429   0.630   0.778 -0.2733 -0.5341  0.4759
  423MPD2    C1 6308   4.439   0.497   0.803  0.0591 -0.1123  0.9084
  423MPD2    C2 6309   4.443   0.415   0.690  0.5820 -0.3393  0.5306
  423MPD2    C3 6310   4.410   0.456   0.562  1.0111  0.2067 -0.1291
  423MPD2    C4 6311   4.398   0.587   0.538  0.0339 -0.3106  0.0912
  423MPD2    C5 6312   4.419   0.669   0.646  0.6332  0.0931  0.1027
  423MPD2     H 6313   4.463   0.310   0.710  0.8355 -0.0737  1.6857
  423MPD2    H1 6314   4.382   0.638   0.443  2.2373  0.7062  0.2834
  423MPD2    H2 6315   4.440   0.714   0.845 -1.9382  0.5838 -0.6368
  423MPD2    H3 6316   4.426   0.776   0.626  0.5514  0.1297  0.2678
  423MPD2     N 6317   4.434   0.371   0.453  0.0921  0.1240  0.4486
  423MPD2    H5 6318   4.435   0.413   0.360  1.9793 -0.2796  0.2832
  423MPD2    N1 6319   4.474   0.446   0.929 -0.0349  0.1592  0.0520
  423MPD2    H7 6320   4.505   0.350   0.936 -0.4437  0.0970  0.9394
  424TMC3    C1 6321   4.520   0.453   1.163  0.3229  0.0477  0.4935
  424TMC3    C2 6322   4.590   0.335   1.158  0.2586 -0.0387 -0.7235
  424TMC3    C3 6323   4.616   0.283   1.283 -0.0758  0.9059  0.0622
  424TMC3    C4 6324   4.488   0.516   1.283 -0.2981  0.0221  0.4488
  424TMC3    C5 6325   4.531   0.461   1.403  0.8498 -0.8590  0.2661
  424TMC3    C6 6326   4.595   0.338   1.406  0.2770 -0.1383 -0.1211
  424TMC3     C 6327   4.470   0.521   1.043  0.1974  0.5738 -0.6113
  424TMC3     O 6328   4.404   0.622   1.059  0.4325 -0.2050 -0.5005
  424TMC3     H 6329   4.620   0.276   1.072 -0.6565 -1.6751  0.0638
  424TMC3    H1 6330   4.448   0.616   1.276  0.5305  0.3142 -0.0894
  424TMC3    H2 6331   4.624   0.289   1.498  1.3860 -0.1316 -0.4708
  424TMC3    C7 6332   4.464   0.503   1.526  0.2158 -0.1324  0.2210
  424TMC3    C8 6333   4.712   0.172   1.285 -0.2683 -0.2466 -0.7370
  424TMC3    O1 6334   4.398   0.610   1.524 -0.0710 -0.4675  0.0068
  424TMC3    O2 6335   0.060   0.158   1.190 -0.0940 -0.3801  0.4928
  425MPD2     C 6336   3.869   4.186   0.016 -0.4093 -0.1501 -0.2327
  425MPD2    C1 6337   3.771   4.124  17.638 -0.1249 -0.4101  0.1235
  425MPD2    C2 6338   3.664   4.201  17.589 -0.1232 -0.5486  0.8127
  425MPD2    C3 6339   3.657   4.341  17.613 -0.1141 -1.0805  0.2099
  425MPD2    C4 6340   3.766   4.400  17.675 -0.0941  0.0013  0.2510
  425MPD2    C5 6341   3.867   4.319   0.030 -0.3861 -0.0576 -0.1155
  425MPD2     H 6342   3.586   4.153  17.530  0.0821 -0.1359  0.2088
  425MPD2    H1 6343   3.767   4.507  17.687  1.7770  0.0985 -0.6803
  425MPD2    H2 6344   3.946   4.127   0.065  0.5997  0.6069 -0.9152
  425MPD2    H3 6345   3.951   4.376   0.066  0.5676 -0.5254 -1.6135
  425MPD2     N 6346   3.546   4.410  17.550  0.2994  0.2448  0.3233
  425MPD2    H5 6347   3.473   4.350  17.511 -0.0727 -0.5448  2.2355
  425MPD2    N1 6348   3.779   3.987  17.628 -0.1966 -0.2740 -0.6696
  425MPD2    H7 6349   3.834   3.940  17.699 -1.8097 -0.9393  0.1269
  426TMC3    C1 6350   3.734   3.770  17.561 -0.7215  0.2492 -0.0855
  426TMC3    C2 6351   3.736   3.698  17.444  0.0486  0.4490 -0.4497
  426TMC3    C3 6352   3.701   3.568  17.443 -0.4868 -0.0757  0.5324
  426TMC3    C4 6353   3.692   3.709  17.679  0.2439  0.1962  0.8203
  426TMC3    C5 6354   3.655   3.577  17.674  0.5115  0.5900 -0.0473
  426TMC3    C6 6355   3.657   3.501  17.554 -0.4500 -0.4643  0.0075
  426TMC3     C 6356   3.712   3.908  17.543 -0.6476  0.1387  0.7837
  426TMC3     O 6357   3.635   3.935  17.454 -0.1826 -0.0429 -0.1385
  426TMC3     H 6358   3.772   3.741  17.351  0.9937  0.9497  0.1402
  426TMC3    H1 6359   3.715   3.766   0.068  0.2869 -0.4002  1.1954
  426TMC3    H2 6360   3.629   3.397  17.551 -0.2705 -0.5599  1.7239
  426TMC3    C7 6361   3.628   3.505   0.097 -0.1626  0.7629 -0.2198
  426TMC3    C8 6362   3.738   3.495  17.321  0.1079 -0.1685  0.7905
  426TMC3    O1 6363   3.608   3.386   0.082 -0.4551 -0.3216 -0.2134
  426TMC3    O2 6364   3.736   3.556  17.216  0.0444 -0.2780 -0.1779
  427MPD2     C 6365   1.853   1.958  15.471  0.3073 -0.3125  0.3660
  427MPD2    C1 6366   1.874   1.833  15.417  0.1382 -0.2044 -0.2103
  427MPD2    C2 6367   1.788   1.785  15.324 -0.4438  0.5361  0.3508
  427MPD2    C3 6368   1.671   1.863  15.301  0.2050  0.9954 -0.4521
  427MPD2    C4 6369   1.646   1.980  15.369  0.2409  0.3060  0.0310
  427MPD2    C5 6370   1.746   2.040  15.441 -0.1238  0.2958 -0.2032
  427MPD2     H 6371   1.798   1.682  15.290 -1.3883  0.1431  1.2816
  427MPD2    H1 6372   1.553   2.033  15.352 -0.2982  0.1110  2.4046
  427MPD2    H2 6373   1.918   2.015  15.535 -0.0603  0.4052  0.1059
  427MPD2    H3 6374   1.725   2.135  15.488 -0.0167 -0.5628  1.5588
  427MPD2     N 6375   1.573   1.795  15.216  0.4548  0.5070  1.0265
  427MPD2    H5 6376   1.608   1.713  15.166  1.1726  0.1773  2.0508
  427MPD2    N1 6377   1.991   1.764  15.448  0.0172 -0.0521  0.3995
  427MPD2    H7 6378   2.017   1.683  15.393  0.2642  1.0769 -1.1707
  428TMC3    C1 6379   2.194   1.711  15.544 -0.2643  0.2949  0.5631
  428TMC3    C2 6380   2.249   1.665  15.663  0.2685  0.6119 -0.8065
  428TMC3    C3 6381   2.356   1.577  15.650  0.1893  0.0337 -0.1503
  428TMC3    C4 6382   2.250   1.683  15.423  0.6182  0.2481  0.3428
  428TMC3    C5 6383   2.367   1.610  15.415 -0.3858 -0.5327 -0.2094
  428TMC3    C6 6384   2.411   1.543  15.528 -0.2162  0.0628  0.0808
  428TMC3     C 6385   2.069   1.785  15.555 -0.0119 -0.5491  0.0511
  428TMC3     O 6386   2.042   1.860  15.648  0.7369  0.2071 -0.1952
  428TMC3     H 6387   2.199   1.685  15.757  2.4769 -0.7971  0.6764
  428TMC3    H1 6388   2.214   1.720  15.328  0.0686  2.9053  1.5899
  428TMC3    H2 6389   2.488   1.467  15.529 -2.4541 -2.2407 -2.8283
  428TMC3    C7 6390   2.466   1.679  15.340  0.3474 -0.2170  0.0229
  428TMC3    C8 6391   2.376   1.482  15.761 -0.3826  1.2525 -0.7218
  428TMC3    O1 6392   2.450   1.725  15.231 -0.0758  0.7488  0.1983
  428TMC3    O2 6393   2.424   1.376  15.728 -0.0384  0.2571 -0.2545
  429MPD2     C 6394   3.644   2.352   0.183  0.2757 -0.2144  0.4775
  429MPD2    C1 6395   3.776   2.339   0.143  0.7655  0.7747  0.1175
  429MPD2    C2 6396   3.819   2.413   0.038  0.3685 -0.1679  1.0788
  429MPD2    C3 6397   3.734   2.501  17.667  0.2912 -0.0338  0.2437
  429MPD2    C4 6398   3.607   2.512   0.018 -0.0089 -0.5522  0.0925
  429MPD2    C5 6399   3.560   2.443   0.124 -0.7607 -0.6064 -0.6207
  429MPD2     H 6400   3.923   2.412   0.006 -0.3628  1.8927 -1.3896
  429MPD2    H1 6401   3.538   2.575  17.663 -0.9104 -1.0164  0.7005
  429MPD2    H2 6402   3.599   2.293   0.263  0.5621  3.0456  3.0498
  429MPD2    H3 6403   3.454   2.442   0.150 -0.0601  1.1520  2.3362
  429MPD2     N 6404   3.780   2.567  17.548 -0.2214  0.2150  0.0788
  429MPD2    H5 6405   3.869   2.535  17.512 -0.1549  0.4832  0.0037
  429MPD2    N1 6406   3.864   2.246   0.199  0.5314 -0.5132  0.6537
  429MPD2    H7 6407   3.958   2.247   0.160 -0.1332  1.5527 -0.9119
  430TMC3    C1 6408   3.762   2.684  17.348 -0.2667 -0.1899  0.0085
  430TMC3    C2 6409   3.664   2.724  17.261  0.4457 -0.0007  0.1894
  430TMC3    C3 6410   3.678   2.695  17.131  0.6786 -0.0896 -0.2086
  430TMC3    C4 6411   3.864   2.606  17.309  0.4614 -0.3204  0.1103
  430TMC3    C5 6412   3.865   2.565  17.183  0.2139  0.6441  0.6649
  430TMC3    C6 6413   3.770   2.608  17.093  0.0983 -0.2063  0.2684
  430TMC3     C 6414   3.713   2.672  17.485 -0.1234  0.4498  0.5683
  430TMC3     O 6415   3.610   2.730  17.519 -0.4323  0.4422  0.4460
  430TMC3     H 6416   3.578   2.773  17.304  2.4446  3.9046 -0.2249
  430TMC3    H1 6417   3.946   2.581  17.376  1.0358 -0.8518 -0.7956
  430TMC3    H2 6418   3.779   2.573  16.990  1.5776  1.0576 -0.0238
  430TMC3    C7 6419   3.896   2.426  17.159  0.2583 -0.3488 -0.3860
  430TMC3    C8 6420   3.552   2.683  17.065 -0.3386 -0.9716  0.5895
  430TMC3    O1 6421   3.803   2.364  17.111 -0.1643 -0.7992 -0.1946
  430TMC3    O2 6422   3.546   2.584  16.998 -0.1956 -0.2327  0.1044
  431MPD2     C 6423   3.676   1.809  12.221  0.0183  1.0493 -0.5942
  431MPD2    C1 6424   3.793   1.761  12.166  0.4204  0.1781 -0.7775
  431MPD2    C2 6425   3.792   1.634  12.119  0.2509  0.2395 -0.6390
  431MPD2    C3 6426   3.679   1.552  12.128 -0.3434  0.5455 -0.3810
  431MPD2    C4 6427   3.571   1.595  12.199 -0.2083 -0.9482  0.1278
  431MPD2    C5 6428   3.575   1.724  12.245  0.5545  0.4912 -0.2691
  431MPD2     H 6429   3.869   1.599  12.051  1.0094  1.0654 -0.2190
  431MPD2    H1 6430   3.482   1.534  12.210 -0.4997 -0.5957 -0.2707
  431MPD2    H2 6431   3.665   1.910  12.259 -2.5189  0.3759  0.4451
  431MPD2    H3 6432   3.488   1.759  12.300  0.3599  0.6374 -0.6701
  431MPD2     N 6433   3.659   1.432  12.052  0.7005 -0.5641 -0.2849
  431MPD2    H5 6434   3.571   1.385  12.074 -0.6479  2.0922  0.0126
  431MPD2    N1 6435   3.914   1.838  12.159  0.4742  0.4768 -0.5552
  431MPD2    H7 6436   3.994   1.789  12.121  0.7984  0.5048  0.0956
  432TMC3    C1 6437   3.715   1.222  11.965  0.3340  0.2654 -0.1397
  432TMC3    C2 6438   3.744   1.161  11.845 -0.0282  0.9987 -0.5607
  432TMC3    C3 6439   3.780   1.027  11.861 -0.3882 -0.2766  0.0660
  432TMC3    C4 6440   3.705   1.158  12.085 -0.0914 -0.3633 -0.2028
  432TMC3    C5 6441   3.738   1.026  12.093 -0.1695  0.6682 -0.5014
  432TMC3    C6 6442   3.777   0.959  11.984  0.9519  0.2975  0.1545
  432TMC3     C 6443   3.760   1.360  11.979  0.3497 -0.1115  0.7339
  432TMC3     O 6444   3.878   1.385  11.943  0.1786 -0.0161 -0.2233
  432TMC3     H 6445   3.750   1.216  11.752  0.1037 -0.1661 -1.2417
  432TMC3    H1 6446   3.702   1.225  12.170  0.7657 -1.5044  0.7249
  432TMC3    H2 6447   3.839   0.870  11.994 -1.7660 -1.8311 -2.2562
  432TMC3    C7 6448   3.792   0.982  12.215  0.2655 -0.2174 -0.1107
  432TMC3    C8 6449   3.884   0.976  11.774  0.0572 -0.2684 -0.7504
  432TMC3    O1 6450   3.909   0.947  12.219  0.8413 -0.2949 -0.1542
  432TMC3    O2 6451   3.907   0.857  11.774  0.6632 -0.2018 -0.5973
  433MPD2     C 6452   2.474   0.580  10.562 -0.1909  0.0208  0.2091
  433MPD2    C1 6453   2.562   0.497  10.626 -0.1584 -0.0360  1.0393
  433MPD2    C2 6454   2.599   0.532  10.753 -0.4235  0.0798  0.5078
  433MPD2    C3 6455   2.528   0.629  10.826 -0.2927  0.3809  0.0718
  433MPD2    C4 6456   2.436   0.707  10.762  0.2117  0.5634  0.3423
  433MPD2    C5 6457   2.407   0.672  10.633 -0.3437  0.2741  0.2491
  433MPD2     H 6458   2.671   0.478  10.813 -1.1401  0.2261  1.5059
  433MPD2    H1 6459   2.380   0.789  10.804 -0.9548 -0.1857  0.2386
  433MPD2    H2 6460   2.454   0.563  10.457 -1.6459  0.6868  0.3870
  433MPD2    H3 6461   2.350   0.747  10.581  1.1436  0.8700 -0.5231
  433MPD2     N 6462   2.567   0.645  10.961  0.2793  0.0816  0.2101
  433MPD2    H5 6463   2.640   0.583  10.994 -2.0581 -3.2119 -0.7955
  433MPD2    N1 6464   2.633   0.398  10.552 -0.5251 -0.5844  0.3401
  433MPD2    H7 6465   2.621   0.399  10.451  0.6169 -0.6783  0.2041
  434TMC3    C1 6466   2.792   0.235  10.528 -0.8433  0.5594  0.6147
  434TMC3    C2 6467   2.895   0.174  10.595 -0.3765 -0.1421 -0.0988
  434TMC3    C3 6468   3.012   0.163  10.528  0.2087 -0.9744  0.2205
  434TMC3    C4 6469   2.798   0.274  10.396  0.1258 -0.1059  0.2496
  434TMC3    C5 6470   2.918   0.252  10.333  0.1839  0.1718 -0.1722
  434TMC3    C6 6471   3.027   0.207  10.397 -0.4090  0.3486 -0.9832
  434TMC3     C 6472   2.703   0.300  10.618 -0.0200 -0.1811  0.4252
  434TMC3     O 6473   2.707   0.265  10.734  0.2568 -0.0279  0.3767
  434TMC3     H 6474   2.888   0.148  10.700  1.4893 -0.0084  0.0591
  434TMC3    H1 6475   2.713   0.305  10.335 -0.5155  1.6352  1.9936
  434TMC3    H2 6476   3.125   0.221  10.353  0.1745  2.3279  0.8980
  434TMC3    C7 6477   2.911   0.211  10.196  0.0674 -0.6190  0.2098
  434TMC3    C8 6478   3.127   0.172  10.612 -0.3269  0.1122 -1.1489
  434TMC3    O1 6479   2.833   0.269  10.122 -0.5738  0.0988  0.2193
  434TMC3    O2 6480   3.114   0.175  10.735  0.2516 -0.4594 -0.3908
  435MPD2     C 6481   0.079   0.305  15.449  0.0303  0.7316  0.0806
  435MPD2    C1 6482   0.048   0.335  15.577 -0.5893  0.4053  0.1483
  435MPD2    C2 6483   0.146   0.310  15.674  0.1481  0.1005  0.0355
  435MPD2    C3 6484   0.270   0.269  15.646  0.0230  0.0449  0.5336
  435MPD2    C4 6485   0.304   0.247  15.511  0.0257  0.3318 -0.4614
  435MPD2    C5 6486   0.201   0.257  15.418 -0.9995 -0.6431  0.0154
  435MPD2     H 6487   0.126   0.338  15.777  0.2856 -0.8937  0.3333
  435MPD2    H1 6488   0.402   0.222  15.471  0.6415  0.0056  1.2692
  435MPD2    H2 6489   0.014   0.318  15.363 -0.4036 -0.9191  0.1660
  435MPD2    H3 6490   0.227   0.248  15.314  1.7638  1.3223  0.5257
  435MPD2     N 6491   0.353   0.268  15.756 -0.0877  0.2632  0.3078
  435MPD2    H5 6492   0.303   0.275  15.844 -0.6687  2.9983 -0.2227
  435MPD2    N1 6493   4.649   0.393  15.615 -0.5809  1.2102 -0.5805
  435MPD2    H7 6494   4.622   0.395  15.713  0.4442  2.9520 -0.3348
  436TMC3    C1 6495   4.283   0.461  15.790  0.7564  0.1442 -0.7056
  436TMC3    C2 6496   4.405   0.425  15.745  0.5284  0.0166 -0.2115
  436TMC3    C3 6497   4.420   0.438  15.609 -0.5425 -0.3590 -0.0217
  436TMC3    C4 6498   4.188   0.525  15.714  0.2420 -0.5911  0.6270
  436TMC3    C5 6499   4.199   0.526  15.581  0.1459  0.0660  0.3182
  436TMC3    C6 6500   4.314   0.475  15.525 -0.8639  0.4403  0.4418
  436TMC3     C 6501   4.257   0.446  15.934 -0.2961  0.6288 -0.4854
  436TMC3     O 6502   4.312   0.353  15.989 -0.0058 -0.3472  0.8662
  436TMC3     H 6503   4.480   0.377  15.807  1.1580  0.3800 -0.6851
  436TMC3    H1 6504   4.094   0.540  15.766  1.0714 -1.4636  2.4128
  436TMC3    H2 6505   4.336   0.496  15.421 -3.3716  1.4203  0.1193
  436TMC3    C7 6506   4.130   0.625  15.501 -0.0425  0.0069  0.0872
  436TMC3    C8 6507   4.537   0.399  15.536  0.2817  0.3225  0.4748
  436TMC3    O1 6508   4.133   0.605  15.380  0.3818 -0.0566 -0.0995
  436TMC3    O2 6509   4.518   0.371  15.415  0.5876 -0.0803 -0.1600
  437TMC3    C1 6510   3.945   2.498  11.473  0.8168  0.4308  0.0436
  437TMC3    C2 6511   3.875   2.583  11.558 -0.3241 -0.1111  0.0579
  437TMC3    C3 6512   3.897   2.571  11.685  0.3267  0.2981  0.0345
  437TMC3    C4 6513   4.047   2.416  11.511 -0.1786  0.0816  0.0050
  437TMC3    C5 6514   4.072   2.409  11.648 -0.4895  0.1014 -0.0036
  437TMC3    C6 6515   3.994   2.487  11.732  0.2333  0.3060  0.3327
  437TMC3     C 6516   3.925   2.541  11.341 -0.3873 -0.3401 -0.2415
  437TMC3     O 6517   3.893   2.658  11.324 -0.1776  0.0022  0.0043
  437TMC3     H 6518   3.792   2.644  11.526 -1.4338 -1.9531 -0.5294
  437TMC3    H1 6519   4.095   2.351  11.439 -2.0544 -1.9214  0.5419
  437TMC3    H2 6520   4.019   2.504  11.836  1.6011  0.1957  0.0120
  437TMC3    C7 6521   4.199   2.364  11.683 -0.6956 -0.4435 -0.0256
  437TMC3    C8 6522   3.805   2.623  11.791 -0.0862 -0.0023  1.0913
  437TMC3    O1 6523   4.264   2.315  11.591  0.3042 -0.0489  0.1301
  437TMC3    O2 6524   3.764   2.735  11.767 -0.0823  0.3728  0.7024
  438MPD2     C 6525   1.282   3.559  16.440 -0.0422  0.7208  0.2640
  438MPD2    C1 6526   1.374   3.488  16.520  0.7662 -0.2152 -0.0860
  438MPD2    C2 6527   1.372   3.497  16.656  0.1064 -0.4669 -0.0710
  438MPD2    C3 6528   1.263   3.568  16.714  0.8189  0.3698 -0.3726
  438MPD2    C4 6529   1.181   3.646  16.632  0.7211  0.3816 -0.4178
  438MPD2    C5 6530   1.192   3.637  16.498  1.0483  0.6741  0.3317
  438MPD2     H 6531   1.439   3.442  16.722 -0.4331  1.3776  2.0213
  438MPD2    H1 6532   1.109   3.717  16.671 -0.0140  1.5179 -3.8752
  438MPD2    H2 6533   1.287   3.555  16.332 -0.3146 -0.5994  0.2915
  438MPD2    H3 6534   1.132   3.700  16.433 -0.7621  1.4056  2.7017
  438MPD2     N 6535   1.246   3.580  16.853 -0.5167 -0.0851 -0.0799
  438MPD2    H5 6536   1.155   3.612  16.882 -0.2705  0.2712  0.2994
  438MPD2    N1 6537   1.473   3.404  16.476 -0.0126 -0.3853  0.3747
  438MPD2    H7 6538   1.547   3.378  16.540 -0.3632  1.1949  1.4409
  439TMC3    C1 6539   1.594   3.279  16.315  0.7896  0.2635 -0.4393
  439TMC3    C2 6540   1.624   3.254  16.183 -0.6953 -0.0084  0.3153
  439TMC3    C3 6541   1.708   3.153  16.151 -0.4455  0.1388 -0.2900
  439TMC3    C4 6542   1.646   3.191  16.406 -0.0876 -0.2525 -0.3077
  439TMC3    C5 6543   1.729   3.095  16.367 -0.6280 -0.3800 -0.2989
  439TMC3    C6 6544   1.772   3.079  16.239 -0.4177  0.1635 -1.3342
  439TMC3     C 6545   1.486   3.365  16.346  0.7176 -0.1075 -0.2650
  439TMC3     O 6546   1.414   3.388  16.250  0.0724 -0.1602  0.4036
  439TMC3     H 6547   1.576   3.313  16.106  0.8821  0.7463 -0.0887
  439TMC3    H1 6548   1.611   3.195  16.508  0.7834 -3.0277  0.0849
  439TMC3    H2 6549   1.857   3.019  16.209  0.3311  1.1356 -1.1737
  439TMC3    C7 6550   1.773   3.000  16.467 -0.0755 -0.3530  0.4796
  439TMC3    C8 6551   1.755   3.136  16.015  0.5115 -0.1661  0.1701
  439TMC3    O1 6552   1.767   3.034  16.581 -0.3616  0.4449  0.0039
  439TMC3    O2 6553   1.844   3.050  15.993  0.0799 -0.0766  0.0663
  440MPD2     C 6554   4.380   3.536  15.515  0.1936  0.0779  0.2292
  440MPD2    C1 6555   4.479   3.629  15.530 -0.1866  0.4747 -0.0798
  440MPD2    C2 6556   4.569   3.651  15.433  0.1817 -0.1251 -0.0969
  440MPD2    C3 6557   4.563   3.584  15.318 -0.5342 -0.5980 -0.0720
  440MPD2    C4 6558   4.471   3.487  15.300 -0.0549 -0.4178  0.3328
  440MPD2    C5 6559   4.380   3.461  15.395  0.4486  0.1389  0.2929
  440MPD2     H 6560   4.625   3.744  15.441 -0.7855  0.4049  0.4877
  440MPD2    H1 6561   4.468   3.429  15.208  1.8568 -0.7275  0.4508
  440MPD2    H2 6562   4.305   3.529  15.593  0.6230 -1.0865  0.5337
  440MPD2    H3 6563   4.292   3.398  15.386 -0.6981  1.6203  1.1033
  440MPD2     N 6564   4.650   3.603  15.213  0.1952 -0.1630  0.0663
  440MPD2    H5 6565   4.634   3.557  15.124  0.3341  3.1617 -1.6780
  440MPD2    N1 6566   4.498   3.708  15.648 -0.0087 -0.4178 -0.1536
  440MPD2    H7 6567   4.561   3.785  15.634 -1.1197  0.3598 -0.9188
  441TMC3    C1 6568   0.136   3.647  15.125 -0.1710 -0.2950 -0.6996
  441TMC3    C2 6569   0.239   3.743  15.144 -0.4300  0.1306 -0.4938
  441TMC3    C3 6570   0.366   3.702  15.169 -0.6492 -0.1649  0.6823
  441TMC3    C4 6571   0.158   3.511  15.120 -0.0386 -0.4010 -0.6071
  441TMC3    C5 6572   0.288   3.473  15.130 -0.9975  0.0003 -0.1808
  441TMC3    C6 6573   0.390   3.566  15.155 -0.1626 -0.2087  0.4433
  441TMC3     C 6574   0.027   3.697  15.208  0.4241  0.0325 -0.3900
  441TMC3     O 6575   0.061   3.779  15.292 -0.1679  0.3932  0.3079
  441TMC3     H 6576   0.227   3.851  15.143 -1.2876  0.0373 -0.6361
  441TMC3    H1 6577   0.079   3.437  15.112  0.2653 -0.7011 -0.7936
  441TMC3    H2 6578   0.489   3.534  15.185 -1.2549 -2.0363  2.0696
  441TMC3    C7 6579   0.311   3.330  15.157 -0.3624 -0.1655 -0.6663
  441TMC3    C8 6580   0.425   3.751  15.286  0.3341  0.0253  0.3496
  441TMC3    O1 6581   0.216   3.255  15.159  0.7190  0.2332  0.0730
  441TMC3    O2 6582   0.533   3.724  15.328  0.2643  0.4339  0.3356
  442MPD2     C 6583   2.570   4.299  15.988  0.4365 -0.3948 -0.6711
  442MPD2    C1 6584   2.585   4.263  16.118 -0.6888  1.2570 -0.2596
  442MPD2    C2 6585   2.677   4.168  16.159  0.0532  0.5633  0.5728
  442MPD2    C3 6586   2.760   4.106  16.071  0.2546 -0.0213  0.5154
  442MPD2    C4 6587   2.747   4.143  15.939 -0.4936  0.3158  0.7595
  442MPD2    C5 6588   2.665   4.245  15.903 -0.2020 -0.7662  0.1348
  442MPD2     H 6589   2.685   4.142  16.264 -0.5304 -0.4655  0.3649
  442MPD2    H1 6590   2.825   4.108  15.872 -0.7897 -1.6504  1.4303
  442MPD2    H2 6591   2.501   4.376  15.959  0.4765 -0.5858 -1.2733
  442MPD2    H3 6592   2.654   4.271  15.798 -1.3813  0.1969  0.4997
  442MPD2     N 6593   2.870   4.018  16.104 -0.2420 -0.6154  0.0834
  442MPD2    H5 6594   2.932   3.986  16.030 -0.2793 -1.1937  0.2996
  442MPD2    N1 6595   2.481   4.300  16.210  0.3219  0.0234  0.0196
  442MPD2    H7 6596   2.466   4.242  16.292  2.1114  0.2991  0.5450
  443TMC3    C1 6597   2.273   4.388  16.280  0.6906  0.2669 -0.0383
  443TMC3    C2 6598   2.148   4.392  16.224  0.2205 -0.7171 -0.5627
  443TMC3    C3 6599   2.051   4.317  16.282 -0.8389 -0.4010  0.3389
  443TMC3    C4 6600   2.288   4.326  16.406 -0.0755 -0.3117  0.6356
  443TMC3    C5 6601   2.178   4.270  16.468  0.3636 -0.6546  0.1623
  443TMC3    C6 6602   2.054   4.264  16.411 -0.3570 -0.7026 -0.6752
  443TMC3     C 6603   2.379   4.395  16.182 -0.4988  0.3405 -0.2201
  443TMC3     O 6604   2.368   4.475  16.096  0.3827 -0.2647 -0.0782
  443TMC3     H 6605   2.128   4.458  16.141  1.2952 -0.6195 -0.7440
  443TMC3    H1 6606   2.380   4.328  16.462 -0.4809  0.8928  1.2425
  443TMC3    H2 6607   1.968   4.209  16.446  0.3276 -0.2358  1.6958
  443TMC3    C7 6608   2.195   4.262  16.607  0.4111  0.2509 -0.7475
  443TMC3    C8 6609   1.913   4.336  16.236 -0.0356 -0.0832  0.0763
  443TMC3    O1 6610   2.306   4.232  16.652 -0.2922 -0.1238 -0.5306
  443TMC3    O2 6611   1.827   4.355  16.324 -0.2839 -0.0539  0.4880
  444MPD2     C 6612   3.133   3.614  16.758 -0.0771  0.1548 -0.2313
  444MPD2    C1 6613   3.137   3.519  16.865 -0.0437  0.1925  1.4525
  444MPD2    C2 6614   3.188   3.396  16.841  0.6370 -0.3747 -0.0700
  444MPD2    C3 6615   3.233   3.362  16.710  0.0264  0.0286  0.5737
  444MPD2    C4 6616   3.214   3.451  16.603 -0.1215  0.2401  0.7362
  444MPD2    C5 6617   3.164   3.576  16.630  0.7695 -0.0521  0.2824
  444MPD2     H 6618   3.195   3.333  16.929  2.9508  1.0228  0.7375
  444MPD2    H1 6619   3.259   3.416  16.510 -2.1981  0.2991 -0.2892
  444MPD2    H2 6620   3.103   3.718  16.772 -1.0945 -0.0281 -1.1118
  444MPD2    H3 6621   3.150   3.646  16.549  0.5954  2.1793  2.2457
  444MPD2     N 6622   3.296   3.236  16.680 -0.2929  0.0350  0.3350
  444MPD2    H5 6623   3.311   3.213  16.582 -1.4965  0.7434 -0.0209
  444MPD2    N1 6624   3.083   3.542  16.996  0.1626 -0.2235  0.3837
  444MPD2    H7 6625   3.087   3.463  17.061  4.0496 -0.2662  0.0760
  445TMC3    C1 6626   3.374   3.027  16.733  0.6099  1.1300 -0.2791
  445TMC3    C2 6627   3.304   2.977  16.626 -0.5065 -0.0189 -0.1763
  445TMC3    C3 6628   3.351   2.859  16.588 -0.2270 -0.7700 -0.0064
  445TMC3    C4 6629   3.491   2.976  16.785 -0.6759  0.0206 -0.1966
  445TMC3    C5 6630   3.535   2.862  16.733 -0.2341 -0.2430  0.1304
  445TMC3    C6 6631   3.469   2.805  16.629 -0.1114 -0.4448 -0.5336
  445TMC3     C 6632   3.345   3.157  16.780  0.1119 -0.8327  0.2732
  445TMC3     O 6633   3.392   3.196  16.883 -0.3731 -0.0634 -0.0321
  445TMC3     H 6634   3.217   3.021  16.578  0.4056  2.0949  0.1282
  445TMC3    H1 6635   3.547   3.019  16.868 -0.8714 -1.1672  0.5537
  445TMC3    H2 6636   3.516   2.724  16.574 -0.5943 -0.8645 -0.3223
  445TMC3    C7 6637   3.674   2.828  16.753 -0.0499 -0.2991 -0.3439
  445TMC3    C8 6638   3.260   2.798  16.487 -0.1151  0.0250  0.1878
  445TMC3    O1 6639   3.753   2.918  16.773  0.0986 -1.0232 -0.0368
  445TMC3    O2 6640   3.155   2.850  16.457 -0.1558  0.8445 -0.0646
  446MPD2     C 6641   2.949   4.648  11.246  0.4307 -0.6647  0.5257
  446MPD2    C1 6642   2.880   4.682  11.141  0.0542 -0.6874  0.3951
  446MPD2    C2 6643   2.915   0.074  11.083 -0.1581  0.8084 -0.0406
  446MPD2    C3 6644   3.031   0.151  11.114  0.9864 -0.3721  0.1055
  446MPD2    C4 6645   3.108   0.108  11.224 -0.3974  0.2033  0.3082
  446MPD2    C5 6646   3.062   4.721  11.284  0.5498  0.3384 -0.4948
  446MPD2     H 6647   2.870   0.105  10.989  1.0052 -0.8653 -1.1339
  446MPD2    H1 6648   3.192   0.167  11.258  0.2116 -0.9405  0.8072
  446MPD2    H2 6649   2.924   4.558  11.299  0.1655 -0.5733  0.5550
  446MPD2    H3 6650   3.112   4.694  11.377 -0.4021  1.4823  0.3478
  446MPD2     N 6651   3.066   0.269  11.042 -0.1816  0.3371 -0.0013
  446MPD2    H5 6652   3.003   0.288  10.965 -0.6190 -0.0546  0.2608
  446MPD2    N1 6653   2.757   4.622  11.096  0.5974 -0.6994  0.2424
  446MPD2    H7 6654   2.707   4.668  11.021  0.6735 -2.1701 -0.7113
  447TMC3    C1 6655   3.177   0.476  10.998 -0.2065 -0.1132  0.3009
  447TMC3    C2 6656   3.110   0.477  10.880 -0.2437  0.7208  0.3732
  447TMC3    C3 6657   3.147   0.574  10.791  0.1300  0.2442  0.1778
  447TMC3    C4 6658   3.286   0.556  11.010 -0.2555 -0.1598  0.1022
  447TMC3    C5 6659   3.314   0.658  10.931 -1.0207 -0.0460  0.6994
  447TMC3    C6 6660   3.241   0.666  10.820 -0.2812  0.0076  0.6382
  447TMC3     C 6661   3.168   0.355  11.071  0.2132 -0.2718 -0.2697
  447TMC3     O 6662   3.254   0.341  11.159 -0.2594  0.5263  0.5874
  447TMC3     H 6663   3.032   0.408  10.850  0.8678 -1.4841  2.6167
  447TMC3    H1 6664   3.350   0.547  11.097 -1.0006 -1.9970  0.4554
  447TMC3    H2 6665   3.274   0.734  10.742  0.7700 -0.6964  0.4656
  447TMC3    C7 6666   3.451   0.668  10.905 -0.3233  0.2494  0.3814
  447TMC3    C8 6667   3.120   0.557  10.649  0.3853 -0.6977 -0.0945
  447TMC3    O1 6668   3.494   0.650  10.790 -0.2387  0.1681  0.1309
  447TMC3    O2 6669   3.005   0.530  10.616 -0.4808 -0.3994 -0.1049
  448TMC3    C1 6670   0.532   4.041  17.311 -0.4529 -0.1602  0.7025
  448TMC3    C2 6671   0.592   4.076  17.192  0.2676 -0.3878 -0.4855
  448TMC3    C3 6672   0.672   3.998  17.113  0.2435 -0.0823 -0.1732
  448TMC3    C4 6673   0.557   3.915  17.354 -0.7047 -0.1433  0.3371
  448TMC3    C5 6674   0.628   3.824  17.271 -0.4680  0.1081 -1.1219
  448TMC3    C6 6675   0.680   3.867  17.150 -0.6748 -0.0719  0.0840
  448TMC3     C 6676   0.481   4.149  17.395  0.7183 -0.5174  0.3795
  448TMC3     O 6677   0.485   4.264  17.355  0.1758  0.0897 -0.2158
  448TMC3     H 6678   0.575   4.175  17.153 -1.4248  0.0307  1.3192
  448TMC3    H1 6679   0.525   3.886  17.453  0.7540  0.3819  0.9615
  448TMC3    H2 6680   0.733   3.796  17.089 -0.4575  0.0155  0.1700
  448TMC3    C7 6681   0.650   3.684  17.298  0.1132  1.1752  0.6725
  448TMC3    C8 6682   0.772   4.064  17.038 -0.4070 -0.2421 -0.4786
  448TMC3    O1 6683   0.717   3.610  17.224 -0.1781 -0.1396 -0.9515
  448TMC3    O2 6684   0.753   4.182  17.021  0.0566 -0.5127  0.0145
  449MPD2     C 6685   3.058   3.715  13.215  0.8379 -0.1499  0.0564
  449MPD2    C1 6686   2.930   3.716  13.161 -0.3088  0.2804 -0.1958
  449MPD2    C2 6687   2.822   3.751  13.241  0.3217  0.3052 -0.4495
  449MPD2    C3 6688   2.837   3.791  13.371  0.2165 -0.3990  0.4355
  449MPD2    C4 6689   2.964   3.797  13.425 -0.2705 -0.3744 -0.3390
  449MPD2    C5 6690   3.069   3.764  13.343 -0.7505 -0.3122 -0.3443
  449MPD2     H 6691   2.720   3.741  13.205  0.5730  1.1080 -1.3759
  449MPD2    H1 6692   2.982   3.820  13.530  2.2518 -3.8794 -0.0215
  449MPD2    H2 6693   3.153   3.706  13.163  1.1248 -0.5489  0.6563
  449MPD2    H3 6694   3.170   3.752  13.381  0.6451 -1.3952 -4.3918
  449MPD2     N 6695   2.718   3.804  13.440 -1.0817  0.6042  1.2608
  449MPD2    H5 6696   2.633   3.801  13.385 -1.2323  2.4655  1.3818
  449MPD2    N1 6697   2.908   3.679  13.028 -0.3260 -0.7538 -0.0482
  449MPD2    H7 6698   2.815   3.705  12.997  0.7765  1.1018 -1.7963
  450TMC3    C1 6699   2.918   3.594  12.821 -0.0555 -0.4565 -0.4193
  450TMC3    C2 6700   2.927   3.466  12.772  0.2704  0.2395 -0.1787
  450TMC3    C3 6701   2.809   3.411  12.714  0.1298  1.0525 -0.3037
  450TMC3    C4 6702   2.812   3.675  12.805  0.2255  0.0544  0.6586
  450TMC3    C5 6703   2.696   3.621  12.743  0.0336  0.4121 -0.0612
  450TMC3    C6 6704   2.700   3.491  12.698  0.4016  0.7609  0.5091
  450TMC3     C 6705   2.991   3.614  12.943 -0.0063  0.3614  0.3987
  450TMC3     O 6706   3.106   3.580  12.945  0.3004 -0.2220  0.5192
  450TMC3     H 6707   3.012   3.402  12.794  0.3429  0.3397 -0.1694
  450TMC3    H1 6708   2.817   3.781  12.831  0.1947  0.1364  0.3311
  450TMC3    H2 6709   2.615   3.457  12.640  1.7783  0.2554 -1.1868
  450TMC3    C7 6710   2.596   3.648  12.843 -0.1324 -0.3640 -0.4913
  450TMC3    C8 6711   2.830   3.307  12.617 -0.7459 -0.3284  0.1801
  450TMC3    O1 6712   2.645   3.701  12.945  0.0071 -0.3308 -0.0876
  450TMC3    O2 6713   2.800   3.331  12.499  0.0715 -0.2464 -0.2931
  451MPD2     C 6714   4.031   1.441   1.400  0.1110  0.7205  0.4235
  451MPD2    C1 6715   4.140   1.517   1.394  0.0288 -0.4166 -0.6060
  451MPD2    C2 6716   4.254   1.463   1.335 -0.3354  0.0089  0.2896
  451MPD2    C3 6717   4.252   1.335   1.289  0.2715 -0.3122 -0.6084
  451MPD2    C4 6718   4.144   1.253   1.305  0.0167 -0.7660 -0.0811
  451MPD2    C5 6719   4.032   1.312   1.354 -0.4721  1.2566  0.2468
  451MPD2     H 6720   4.346   1.519   1.322  0.2592 -1.3605 -1.3546
  451MPD2    H1 6721   4.142   1.146   1.292 -0.2881 -0.7327 -0.3176
  451MPD2    H2 6722   3.945   1.478   1.455 -0.8862  0.0124 -0.6631
  451MPD2    H3 6723   3.940   1.256   1.370  1.5449 -2.1326 -0.0195
  451MPD2     N 6724   4.376   1.272   1.244  0.0678  0.1109  0.1392
  451MPD2    H5 6725   4.458   1.328   1.270 -0.5759  1.2598 -0.2965
  451MPD2    N1 6726   4.120   1.650   1.440  0.1564 -0.5012 -0.5939
  451MPD2    H7 6727   4.025   1.668   1.471 -0.2985 -3.2369 -0.3559
  452TMC3    C1 6728   4.538   1.124   1.178 -0.0386  0.3433 -0.5383
  452TMC3    C2 6729   4.611   1.125   1.296 -0.7693 -0.4385 -0.1698
  452TMC3    C3 6730   0.006   1.070   1.308 -0.1359  0.1933 -0.1656
  452TMC3    C4 6731   4.577   1.036   1.082  0.1997  0.2740 -0.2990
  452TMC3    C5 6732   4.701   0.987   1.088 -0.5310  0.9463 -0.0550
  452TMC3    C6 6733   0.063   1.005   1.198  1.0279  0.7996  0.4710
  452TMC3     C 6734   4.393   1.147   1.197 -0.1691 -0.6323  0.2669
  452TMC3     O 6735   4.316   1.062   1.156  0.1001 -0.1134  0.6347
  452TMC3     H 6736   4.559   1.175   1.377 -2.1068 -1.2039 -0.5478
  452TMC3    H1 6737   4.526   1.015   0.989 -0.6223 -0.3450  0.2969
  452TMC3    H2 6738   0.152   0.943   1.195  0.3354 -0.1938  0.3451
  452TMC3    C7 6739   0.015   0.881   0.997  0.2449  0.0123  0.0408
  452TMC3    C8 6740   0.080   1.148   1.406  0.1129  0.9341 -0.7802
  452TMC3    O1 6741   0.085   0.788   1.035 -0.0554 -0.0006 -0.8410
  452TMC3    O2 6742   0.031   1.160   1.518  0.0264 -0.3179  0.2952
  453TMC3    C1 6743   0.614   4.100  11.804 -0.2406  0.9866  0.0500
  453TMC3    C2 6744   0.527   3.996  11.839 -0.1206 -0.8108  0.8552
  453TMC3    C3 6745   0.460   3.943  11.729 -0.1550 -0.1983 -0.0807
  453TMC3    C4 6746   0.623   4.153  11.675 -0.3081 -0.1084  0.8256
  453TMC3    C5 6747   0.534   4.104  11.577 -0.4634  0.4922  0.2260
  453TMC3    C6 6748   0.460   3.996  11.600 -0.2447  0.3974 -0.6751
  453TMC3     C 6749   0.670   4.178  11.904 -0.2863  0.1218  0.0060
  453TMC3     O 6750   0.742   4.266  11.870  0.2498 -0.1876  0.0278
  453TMC3     H 6751   0.531   3.938  11.930 -2.2004 -1.6936  0.3872
  453TMC3    H1 6752   0.690   4.231  11.640  1.5776 -1.4186  1.5490
  453TMC3    H2 6753   0.412   3.941  11.520  0.3635 -2.0326  0.6175
  453TMC3    C7 6754   0.556   4.128  11.440 -0.9502 -0.7762 -0.2921
  453TMC3    C8 6755   0.392   3.816  11.738 -0.0417  0.4182 -0.0756
  453TMC3    O1 6756   0.560   4.037  11.359 -0.5098 -0.7366  0.1291
  453TMC3    O2 6757   0.429   3.729  11.663  0.1084 -0.9134  0.7483
  454MPD2     C 6758   3.879   3.274  16.098  0.5876 -0.2969 -0.1018
  454MPD2    C1 6759   3.803   3.352  16.013 -0.4573  0.4524  0.0122
  454MPD2    C2 6760   3.733   3.456  16.067  0.0745 -0.1975 -0.3119
  454MPD2    C3 6761   3.736   3.473  16.206  0.3470  0.0517 -0.4002
  454MPD2    C4 6762   3.824   3.402  16.284 -0.0123 -0.2642 -0.1861
  454MPD2    C5 6763   3.880   3.293  16.229 -0.7792 -0.3257  0.7789
  454MPD2     H 6764   3.662   3.513  16.008 -0.5205 -0.9737 -0.3497
  454MPD2    H1 6765   3.846   3.434  16.386 -1.0541  1.9578 -0.6539
  454MPD2    H2 6766   3.913   3.177  16.064 -0.3452 -1.5792  2.5919
  454MPD2    H3 6767   3.942   3.225  16.286  0.4929  0.4984  0.3566
  454MPD2     N 6768   3.677   3.580  16.275  0.0625  0.0157  0.7736
  454MPD2    H5 6769   3.684   3.671  16.231  2.3210 -1.0656 -1.1789
  454MPD2    N1 6770   3.780   3.338  15.876  0.2318 -0.3639 -0.4672
  454MPD2    H7 6771   3.736   3.419  15.833 -1.1597 -0.0810  1.4843
  455TMC3    C1 6772   3.600   3.450  16.477  0.5510 -0.2581 -0.0695
  455TMC3    C2 6773   3.634   3.455  16.609 -0.1978  0.0506  0.0186
  455TMC3    C3 6774   3.660   3.336  16.676  0.5371 -0.0596 -0.1084
  455TMC3    C4 6775   3.566   3.337  16.422 -0.5694 -0.7683 -0.2524
  455TMC3    C5 6776   3.590   3.219  16.491 -0.4625  0.0191 -0.4424
  455TMC3    C6 6777   3.635   3.217  16.619 -0.1701  0.6566  0.2737
  455TMC3     C 6778   3.626   3.574  16.406 -0.1316 -0.2637  0.6576
  455TMC3     O 6779   3.599   3.672  16.475 -0.4001  0.5450 -0.0656
  455TMC3     H 6780   3.673   3.547  16.653 -2.4100  1.2393 -0.5444
  455TMC3    H1 6781   3.533   3.323  16.320 -1.0523  0.4416 -0.2647
  455TMC3    H2 6782   3.676   3.127  16.664  1.0790  0.4616 -1.2264
  455TMC3    C7 6783   3.580   3.096  16.411  0.0494  0.2539  0.3235
  455TMC3    C8 6784   3.686   3.347  16.813  0.6094 -0.6633 -0.1770
  455TMC3    O1 6785   3.492   3.102  16.326  0.1386 -0.1830  0.4587
  455TMC3    O2 6786   3.650   3.454  16.860  0.0805  0.0663  0.2943
  456MPD2     C 6787   1.855   3.517  16.086  0.3326  0.0995 -0.6974
  456MPD2    C1 6788   1.917   3.462  16.194  0.0767 -0.3650 -0.5108
  456MPD2    C2 6789   1.880   3.493  16.322 -0.1437 -0.2008 -0.1373
  456MPD2    C3 6790   1.785   3.582  16.350  0.4663 -0.1232 -0.2632
  456MPD2    C4 6791   1.720   3.642  16.235 -0.2496  0.1237  0.0582
  456MPD2    C5 6792   1.751   3.611  16.108  0.8687 -1.1079 -0.6299
  456MPD2     H 6793   1.936   3.460  16.409 -0.1262 -1.1394 -0.5134
  456MPD2    H1 6794   1.645   3.719  16.254 -0.5877 -0.3559  0.6769
  456MPD2    H2 6795   1.892   3.491  15.987  1.1054 -0.7819 -0.1778
  456MPD2    H3 6796   1.710   3.656  16.018 -0.4820  2.0203  1.5352
  456MPD2     N 6797   1.759   3.618  16.488  0.2013 -0.6157  0.0543
  456MPD2    H5 6798   1.812   3.565  16.555  2.3112  0.3929 -0.8090
  456MPD2    N1 6799   2.012   3.366  16.161 -0.1081 -0.6944 -1.0406
  456MPD2    H7 6800   2.037   3.366  16.062  0.6909  2.6028 -0.8550
  457TMC3    C1 6801   1.658   3.732  16.668 -0.5662  0.3042  0.5991
  457TMC3    C2 6802   1.547   3.801  16.706 -0.5865 -0.3941  0.3031
  457TMC3    C3 6803   1.527   3.815  16.839  0.4997  0.3075  0.8549
  457TMC3    C4 6804   1.756   3.690  16.758 -0.5979 -0.3359  0.3875
  457TMC3    C5 6805   1.738   3.738  16.888  0.1907 -0.2152 -0.0879
  457TMC3    C6 6806   1.625   3.790  16.933  0.1949 -0.0214  0.2484
  457TMC3     C 6807   1.669   3.710  16.529  0.2122  0.1884 -0.2613
  457TMC3     O 6808   1.586   3.768  16.459  0.5184 -0.4183  0.1455
  457TMC3     H 6809   1.471   3.841  16.640  1.1696  1.1644 -0.7774
  457TMC3    H1 6810   1.847   3.639  16.730 -0.3873 -0.0248  0.5116
  457TMC3    H2 6811   1.618   3.828  17.035 -0.0682 -0.9998  0.5892
  457TMC3    C7 6812   1.834   3.696  16.992 -0.4651 -0.5596  0.1017
  457TMC3    C8 6813   1.404   3.874  16.891  0.2118  0.5383  0.5335
  457TMC3    O1 6814   1.788   3.643  17.096  0.6059  0.0582 -0.0815
  457TMC3    O2 6815   1.378   3.852  17.008 -0.5219 -0.2954  0.2725
  458MPD2     C 6816   4.578   2.435  12.008  0.1935  0.3602  0.9414
  458MPD2    C1 6817   4.456   2.476  12.071 -0.1402 -0.8609 -0.3456
  458MPD2    C2 6818   4.337   2.449  12.006  0.5488  0.6435  0.3699
  458MPD2    C3 6819   4.338   2.385  11.886  0.2262 -0.3003  0.3820
  458MPD2    C4 6820   4.458   2.342  11.828  0.4375 -0.6498  0.5192
  458MPD2    C5 6821   4.577   2.373  11.885  0.2768 -0.6943  0.1986
  458MPD2     H 6822   4.239   2.465  12.050 -0.4477 -4.2771 -0.0740
  458MPD2    H1 6823   4.455   2.302  11.728 -0.7281  1.7120 -0.3869
  458MPD2    H2 6824   4.678   2.461  12.040 -0.1766  0.0227  2.3639
  458MPD2    H3 6825   4.675   2.349  11.844  0.2564  2.1369 -1.4678
  458MPD2     N 6826   4.218   2.380  11.816  0.2797 -0.3489 -0.8269
  458MPD2    H5 6827   4.133   2.414  11.860  0.8857 -0.2312  0.2682
  458MPD2    N1 6828   4.467   2.536  12.197 -0.3169  0.4357  0.4728
  458MPD2    H7 6829   4.561   2.563  12.225 -0.9629  0.7320  2.3197
  459TMC3    C1 6830   4.391   2.638  12.398  1.1979 -0.0025  0.6012
  459TMC3    C2 6831   4.461   2.749  12.372  0.3067 -0.0587 -0.4937
  459TMC3    C3 6832   4.443   2.851  12.459  0.5651 -0.1813  0.1847
  459TMC3    C4 6833   4.316   2.618  12.514  0.5460  0.3144  0.1927
  459TMC3    C5 6834   4.300   2.732  12.587 -1.2390 -0.2216 -0.6565
  459TMC3    C6 6835   4.360   2.851  12.571  0.3822  0.2204 -0.0640
  459TMC3     C 6836   4.357   2.563  12.278  0.2677 -0.4170 -1.0089
  459TMC3     O 6837   4.235   2.544  12.264 -0.4666  0.3919  0.3995
  459TMC3     H 6838   4.510   2.777  12.279  0.3577  0.2182 -0.3851
  459TMC3    H1 6839   4.251   2.532  12.513 -0.6663  1.2117  0.9913
  459TMC3    H2 6840   4.342   2.946  12.620  1.0259  0.8684 -1.0913
  459TMC3    C7 6841   4.222   2.720  12.712  0.3749  0.1513 -0.2731
  459TMC3    C8 6842   4.479   2.988  12.416 -0.3347 -0.4946  0.7769
  459TMC3    O1 6843   4.197   2.828  12.767 -1.0613  0.1694 -0.2791
  459TMC3    O2 6844   4.418   3.084  12.465 -0.1433  0.1858 -0.3677
  460MPD2     C 6845   3.367   0.560  10.378  0.0469  0.1793 -0.8456
  460MPD2    C1 6846   3.242   0.559  10.434 -0.5970 -0.2320  0.2746
  460MPD2    C2 6847   3.133   0.538  10.350  0.3863 -0.2649 -0.0184
  460MPD2    C3 6848   3.149   0.532  10.213  0.4290  0.2298 -0.2615
  460MPD2    C4 6849   3.280   0.529  10.158 -0.0522 -0.0674  0.0886
  460MPD2    C5 6850   3.382   0.553  10.245 -0.0140  0.1265 -0.0370
  460MPD2     H 6851   3.031   0.543  10.385 -0.2195 -1.0423 -1.6883
  460MPD2    H1 6852   3.300   0.531  10.051 -2.3105  0.8328 -0.3195
  460MPD2    H2 6853   3.454   0.570  10.442 -0.1357 -0.7987 -0.4509
  460MPD2    H3 6854   3.484   0.562  10.209 -0.0509  3.4591  0.7013
  460MPD2     N 6855   3.027   0.543  10.137  0.3720  0.9603 -0.1547
  460MPD2    H5 6856   2.949   0.588  10.182 -0.7090 -1.3537  0.2893
  460MPD2    N1 6857   3.237   0.563  10.578 -0.0117  0.7813 -0.0716
  460MPD2    H7 6858   3.325   0.581  10.625  0.0596 -1.3426  0.5999
  461TMC3    C1 6859   2.910   0.566   9.935 -0.7742 -0.2257  0.2281
  461TMC3    C2 6860   2.875   0.484   9.828  0.4357  0.0490  0.9105
  461TMC3    C3 6861   2.760   0.523   9.770  0.4830 -0.2068 -0.0802
  461TMC3    C4 6862   2.837   0.678   9.977  0.0895  0.2862 -0.9841
  461TMC3    C5 6863   2.725   0.708   9.900 -0.1443  0.3729  0.1394
  461TMC3    C6 6864   2.680   0.639   9.796 -0.0530 -0.3195  0.1220
  461TMC3     C 6865   3.024   0.520   9.999  0.1419 -0.0056  0.3820
  461TMC3     O 6866   3.101   0.455   9.935 -0.1287 -0.4221  0.3499
  461TMC3     H 6867   2.921   0.391   9.798 -2.8027 -1.4373  0.4985
  461TMC3    H1 6868   2.873   0.742  10.056 -2.1606  2.7264 -1.9392
  461TMC3    H2 6869   2.583   0.652   9.749  0.6296 -0.0078 -1.2041
  461TMC3    C7 6870   2.683   0.843   9.893  0.2138 -0.2652  0.2004
  461TMC3    C8 6871   2.717   0.438   9.655  0.0451 -0.2788 -0.4937
  461TMC3    O1 6872   2.635   0.877   9.785  0.1347 -0.3336  0.6814
  461TMC3    O2 6873   2.753   0.323   9.661  0.1368 -0.0361 -0.1675
  462TMC3    C1 6874   4.106   1.355   0.433 -0.0833  0.3300 -0.3504
  462TMC3    C2 6875   4.042   1.379   0.314 -0.5910 -0.4213 -0.5493
  462TMC3    C3 6876   3.999   1.271   0.242  0.2739  0.4199 -0.0197
  462TMC3    C4 6877   4.095   1.235   0.494  0.2660 -0.5105 -0.1904
  462TMC3    C5 6878   4.043   1.134   0.421  0.7172 -0.1372 -0.3216
  462TMC3    C6 6879   4.008   1.143   0.288 -0.4209  0.8103  0.1602
  462TMC3     C 6880   4.130   1.470   0.517 -0.0773 -0.2776  0.0211
  462TMC3     O 6881   4.133   1.451   0.639 -0.3643  0.2129 -0.2365
  462TMC3     H 6882   3.997   1.474   0.291 -1.0647 -0.4425  0.2857
  462TMC3    H1 6883   4.158   1.215   0.580  1.1795  1.1724 -0.4852
  462TMC3    H2 6884   3.943   1.066   0.247  0.6176  0.8175 -1.4522
  462TMC3    C7 6885   3.998   1.011   0.485 -0.0181  0.5227  0.1077
  462TMC3    C8 6886   3.904   1.306   0.132  0.1261  0.3900  0.0723
  462TMC3    O1 6887   3.949   0.919   0.417  0.2887  0.1242 -0.6364
  462TMC3    O2 6888   3.893   1.424   0.106 -0.0589 -0.4953  0.1991
  463MPD2     C 6889   4.655   4.427   1.922  0.7547  0.0705 -0.2490
  463MPD2    C1 6890   4.567   4.539   1.902 -0.4693  0.1695  0.4383
  463MPD2    C2 6891   4.628   4.653   1.845  0.5875  0.2694 -0.1711
  463MPD2    C3 6892   0.045   4.659   1.828 -0.3764 -0.5686  0.0486
  463MPD2    C4 6893   0.123   4.552   1.857  0.0470 -0.3057  0.1339
  463MPD2    C5 6894   0.067   4.439   1.906  0.1696  0.0821  0.1724
  463MPD2     H 6895   4.564   0.016   1.833  0.5446  0.1628 -0.7153
  463MPD2    H1 6896   0.230   4.551   1.842 -0.0864 -1.2121 -0.7818
  463MPD2    H2 6897   4.613   4.333   1.956  1.4898 -0.1774 -0.0347
  463MPD2    H3 6898   0.125   4.349   1.922 -0.1452  0.0214  0.9550
  463MPD2     N 6899   0.118   0.048   1.788  0.1315  0.4604 -0.4201
  463MPD2    H5 6900   0.218   0.043   1.802 -0.1891  0.4576  1.7696
  463MPD2    N1 6901   4.430   4.545   1.932  0.3200  0.0331  0.3892
  463MPD2    H7 6902   4.370   4.624   1.912  0.7984  0.5541  0.9758
  464TMC3    C1 6903   4.223   4.472   2.022 -0.0619  0.3712  0.4507
  464TMC3    C2 6904   4.163   4.594   2.008  0.1911 -0.2505 -0.0218
  464TMC3    C3 6905   4.027   4.600   2.023  0.4546 -0.0589  0.3752
  464TMC3    C4 6906   4.148   4.358   2.062 -0.5561  0.4842 -0.4559
  464TMC3    C5 6907   4.011   4.378   2.065 -0.2579  0.1121  0.1128
  464TMC3    C6 6908   3.947   4.492   2.037 -0.0187  0.6426  0.1657
  464TMC3     C 6909   4.371   4.454   2.015 -0.1155 -0.6851 -0.0839
  464TMC3     O 6910   4.422   4.359   2.069 -0.2159  0.2327 -0.0119
  464TMC3     H 6911   4.214   4.690   2.000 -0.8313  0.3115  0.1944
  464TMC3    H1 6912   4.204   4.265   2.071  0.1712  0.9691 -0.0335
  464TMC3    H2 6913   3.840   4.501   2.050 -0.3614  1.2490 -3.1035
  464TMC3    C7 6914   3.943   4.249   2.063 -0.1874 -0.3700 -0.4726
  464TMC3    C8 6915   3.963   0.002   1.967 -0.0796  0.1232  0.7565
  464TMC3    O1 6916   3.998   4.163   2.129 -0.3731  0.3203 -0.0624
  464TMC3    O2 6917   4.033   0.072   1.898  0.1401 -0.2520  0.1195
  465MPD2     C 6918   0.999   3.265  16.823  0.5354 -0.2829 -0.1694
  465MPD2    C1 6919   0.871   3.286  16.875  1.0895  0.3831  0.3858
  465MPD2    C2 6920   0.782   3.350  16.792  0.5895 -0.4345 -0.3303
  465MPD2    C3 6921   0.814   3.405  16.670 -0.2458 -0.3340  0.3694
  465MPD2    C4 6922   0.943   3.400  16.628  0.2825  0.3870 -0.4410
  465MPD2    C5 6923   1.032   3.325  16.703 -1.0738 -0.3434  0.7044
  465MPD2     H 6924   0.678   3.344  16.824  0.6184 -1.4610 -0.4530
  465MPD2    H1 6925   0.960   3.440  16.529  0.6741 -2.6863 -1.6265
  465MPD2    H2 6926   1.070   3.207  16.882  1.2846 -0.7001 -1.4669
  465MPD2    H3 6927   1.136   3.314  16.675 -0.4572 -0.5990  3.0314
  465MPD2     N 6928   0.714   3.456  16.584 -0.1019  0.0533 -0.2964
  465MPD2    H5 6929   0.616   3.449  16.611  0.1837  0.2591  0.7787
  465MPD2    N1 6930   0.810   3.229  16.988  0.4841  0.0933  0.0204
  465MPD2    H7 6931   0.715   3.260  17.004  0.4244 -0.4612  0.7610
  466TMC3    C1 6932   0.381   3.512  16.390 -0.7042  0.0368 -0.5763
  466TMC3    C2 6933   0.360   3.648  16.374  0.4418  0.5246  0.2333
  466TMC3    C3 6934   0.460   3.727  16.341  0.6325  0.6080  0.4837
  466TMC3    C4 6935   0.509   3.470  16.418  0.2862  0.8145  0.4452
  466TMC3    C5 6936   0.605   3.554  16.399  0.1912  0.4831  0.4641
  466TMC3    C6 6937   0.589   3.684  16.359 -0.7614  0.3353 -0.0259
  466TMC3     C 6938   0.269   3.442  16.453 -0.4917  0.2824  0.2498
  466TMC3     O 6939   0.183   3.515  16.492  0.6603  0.2578  0.0383
  466TMC3     H 6940   0.258   3.673  16.346  1.0044 -0.1110 -2.4016
  466TMC3    H1 6941   0.535   3.367  16.440 -0.1836  0.4029 -0.8994
  466TMC3    H2 6942   0.670   3.756  16.362  0.2064 -0.6965 -1.1546
  466TMC3    C7 6943   0.729   3.522  16.461  0.1386 -0.4792  0.0863
  466TMC3    C8 6944   0.433   3.864  16.328 -0.1649  0.3520 -0.2267
  466TMC3    O1 6945   0.822   3.590  16.431 -0.1047 -0.5213  0.1174
  466TMC3    O2 6946   0.513   3.925  16.262 -0.1695  0.3144  0.1718
  467TMC3    C1 6947   1.301   2.027  12.963 -0.2559 -0.9828 -0.3605
  467TMC3    C2 6948   1.328   2.123  12.863 -0.0527 -0.4762  0.1413
  467TMC3    C3 6949   1.249   2.232  12.852 -0.5647  0.7228  0.1900
  467TMC3    C4 6950   1.192   2.036  13.034 -0.5691  0.0303 -0.1548
  467TMC3    C5 6951   1.117   2.151  13.025  0.4883  0.0174 -0.0067
  467TMC3    C6 6952   1.142   2.250  12.935 -0.1278  0.1442  0.4513
  467TMC3     C 6953   1.423   1.984  13.033  0.1057 -0.2105  0.0694
  467TMC3     O 6954   1.526   2.033  12.996  0.5642  0.0518 -0.0771
  467TMC3     H 6955   1.413   2.113  12.796  1.1718  2.2159  1.2719
  467TMC3    H1 6956   1.172   1.960  13.109 -1.7436  0.6987  0.2002
  467TMC3    H2 6957   1.082   2.340  12.921 -0.0051 -0.0379 -1.2401
  467TMC3    C7 6958   0.982   2.164  13.085  0.5923  0.1425  0.2701
  467TMC3    C8 6959   1.322   2.353  12.871  0.1445 -0.1800 -0.1522
  467TMC3    O1 6960   0.900   2.207  13.008 -0.1940  0.1072 -0.0543
  467TMC3    O2 6961   1.274   2.462  12.846  0.5262 -0.0342 -0.0200
  468MPD2     C 6962   0.274   0.461  10.741  0.3999  0.0060  0.1341
  468MPD2    C1 6963   0.407   0.426  10.764  0.4621  0.9128 -0.1758
  468MPD2    C2 6964   0.435   0.289  10.771  0.1238 -0.2911 -0.3858
  468MPD2    C3 6965   0.339   0.194  10.740  0.7360  0.3600 -0.2511
  468MPD2    C4 6966   0.212   0.236  10.723 -0.3505  0.4982  0.8822
  468MPD2    C5 6967   0.179   0.369  10.723 -0.0832  0.3665  0.0015
  468MPD2     H 6968   0.540   0.265  10.776  0.0741 -0.0051  2.2798
  468MPD2    H1 6969   0.131   0.165  10.714 -0.2546  0.4351  0.4896
  468MPD2    H2 6970   0.236   0.563  10.746 -0.1552 -0.2519  1.3830
  468MPD2    H3 6971   0.076   0.398  10.707 -0.8430 -1.7618  1.0271
  468MPD2     N 6972   0.363   0.051  10.733 -0.2102 -0.4660  0.3376
  468MPD2    H5 6973   0.288   4.708  10.727  0.2107 -0.9777  0.8116
  468MPD2    N1 6974   0.519   0.509  10.763  0.1881 -0.4790 -0.1690
  468MPD2    H7 6975   0.615   0.476  10.771 -0.0744 -1.0096  0.8150
  469TMC3    C1 6976   0.632   0.724  10.724  0.3051  0.1558 -1.0528
  469TMC3    C2 6977   0.741   0.693  10.796 -0.1728 -0.5382  0.4926
  469TMC3    C3 6978   0.843   0.787  10.800 -0.1492  0.7070 -0.7682
  469TMC3    C4 6979   0.613   0.841  10.665  0.6333  0.3542  0.4528
  469TMC3    C5 6980   0.717   0.928  10.668  0.1645 -0.6744 -0.2561
  469TMC3    C6 6981   0.834   0.909  10.733 -0.0411  0.5147  0.2150
  469TMC3     C 6982   0.506   0.649  10.743 -0.2565 -0.1444  0.3215
  469TMC3     O 6983   0.404   0.717  10.746  0.4328  0.8539  0.3042
  469TMC3     H 6984   0.755   0.594  10.837  1.3392 -1.7713 -3.0391
  469TMC3    H1 6985   0.535   0.848  10.591  1.4364  1.2369 -0.3168
  469TMC3    H2 6986   0.899   0.994  10.755 -0.4343  0.8986 -0.0958
  469TMC3    C7 6987   0.667   1.064  10.644  0.6438  0.1702  0.1056
  469TMC3    C8 6988   0.945   0.755  10.893  0.5795  0.1741 -0.1929
  469TMC3    O1 6989   0.749   1.145  10.600 -0.1112 -0.0041 -0.4536
  469TMC3    O2 6990   0.943   0.640  10.936 -0.0389 -0.0356  0.5013
  470TMC3    C1 6991   3.549   0.924   1.743 -0.7008 -0.2890  0.2677
  470TMC3    C2 6992   3.527   1.018   1.637 -0.3993 -0.1347 -1.3044
  470TMC3    C3 6993   3.394   1.064   1.616  0.5138 -0.0994  0.1832
  470TMC3    C4 6994   3.446   0.879   1.819  0.1044  0.3170 -0.4957
  470TMC3    C5 6995   3.319   0.930   1.803  0.0303 -0.3058  0.7432
  470TMC3    C6 6996   3.292   1.023   1.703 -0.4637  0.4160  0.0777
  470TMC3     C 6997   3.670   0.844   1.731  0.8364  0.7279 -0.3972
  470TMC3     O 6998   3.738   0.863   1.635 -0.2309  0.5668 -0.1819
  470TMC3     H 6999   3.607   1.052   1.572 -0.5890 -1.4257 -2.2256
  470TMC3    H1 7000   3.456   0.808   1.901 -1.7380  1.2847  0.5457
  470TMC3    H2 7001   3.189   1.040   1.677 -0.5048  2.4316  1.4958
  470TMC3    C7 7002   3.218   0.838   1.850  0.5579  0.0449 -0.1724
  470TMC3    C8 7003   3.370   1.171   1.525  0.2861 -0.8969  0.6106
  470TMC3    O1 7004   3.240   0.721   1.870  0.4624 -0.2684  0.1186
  470TMC3    O2 7005   3.262   1.228   1.531 -0.7698 -0.4497 -0.4665
  471MPD2     C 7006   3.078   2.827  16.943 -0.0986 -0.5076 -0.2560
  471MPD2    C1 7007   3.148   2.714  16.912 -0.5909 -0.0937 -0.2218
  471MPD2    C2 7008   3.274   2.695  16.967 -0.3718 -0.2484 -0.0310
  471MPD2    C3 7009   3.334   2.796  17.029 -0.1509 -0.6274 -0.0452
  471MPD2    C4 7010   3.264   2.912  17.059 -0.5998 -0.0714 -0.0327
  471MPD2    C5 7011   3.136   2.930  17.016 -0.4505 -0.8358 -0.6118
  471MPD2     H 7012   3.328   2.607  16.935 -0.2377 -1.2114  2.8784
  471MPD2    H1 7013   3.308   2.993  17.117 -1.9078  1.1210 -0.6951
  471MPD2    H2 7014   2.979   2.837  16.900  0.2408  2.1818 -0.3800
  471MPD2    H3 7015   3.071   3.012  17.045 -0.2518 -0.4612 -1.2287
  471MPD2     N 7016   3.466   2.789  17.073  0.9035  0.4343 -0.9247
  471MPD2    H5 7017   3.509   2.867  17.123  0.0620  0.6018 -0.4612
  471MPD2    N1 7018   3.092   2.605  16.837 -0.0062 -0.0483  0.0889
  471MPD2    H7 7019   3.137   2.516  16.854 -3.1972 -2.0336 -1.8723
  472TMC3    C1 7020   2.927   2.473  16.763  0.1327 -0.0731 -0.0167
  472TMC3    C2 7021   2.834   2.428  16.665 -0.1441  0.6227  0.6923
  472TMC3    C3 7022   2.737   2.333  16.691  0.3706 -0.0894 -0.2737
  472TMC3    C4 7023   2.922   2.412  16.890  0.1219 -0.1466 -0.2654
  472TMC3    C5 7024   2.827   2.324  16.907 -0.2522  0.2067 -0.0741
  472TMC3    C6 7025   2.724   2.288  16.818 -0.3348 -0.0365  0.0864
  472TMC3     C 7026   2.974   2.611  16.766 -0.4820  0.5098  1.1140
  472TMC3     O 7027   2.911   2.700  16.718  0.3274 -0.0328  0.1151
  472TMC3     H 7028   2.838   2.479  16.569  1.3696 -1.6528 -0.4523
  472TMC3    H1 7029   2.998   2.423  16.967 -1.6054  0.7363  1.3079
  472TMC3    H2 7030   2.653   2.210  16.843 -0.5830  0.9873  2.4885
  472TMC3    C7 7031   2.829   2.244  17.032  0.4609  0.4393  0.0103
  472TMC3    C8 7032   2.660   2.267  16.582 -0.4348  0.1207  0.6372
  472TMC3    O1 7033   2.934   2.215  17.086  0.7191  0.0252 -0.2538
  472TMC3    O2 7034   2.580   2.185  16.626  0.0560  0.2880  0.4197
  473MPD2     C 7035   3.069   4.650  13.727  0.1421 -0.3526 -0.3224
  473MPD2    C1 7036   2.958   4.718  13.768  0.3373 -0.5479  0.6286
  473MPD2    C2 7037   2.956   0.046  13.898  0.1111  0.3126  0.1773
  473MPD2    C3 7038   3.064   0.031  13.981  0.2425  0.2912  1.2467
  473MPD2    C4 7039   3.177   4.684  13.942  0.1587  0.1276 -0.1877
  473MPD2    C5 7040   3.171   4.627  13.817  0.0548 -0.2661  0.7983
  473MPD2     H 7041   2.868   0.107  13.911  1.3644  2.1863  0.0586
  473MPD2    H1 7042   3.264   4.682  14.006  0.0029  2.1919  0.0806
  473MPD2    H2 7043   3.097   4.614  13.629 -0.5073 -1.3920 -0.1298
  473MPD2    H3 7044   3.257   4.569  13.784 -0.1592 -0.3591  0.4134
  473MPD2     N 7045   3.075   0.104  14.102 -0.0302 -0.6226  0.5123
  473MPD2    H5 7046   3.163   0.096  14.152  0.1598  0.8583  0.4185
  473MPD2    N1 7047   2.839   0.015  13.685  0.2727 -0.4918  0.1578
  473MPD2    H7 7048   2.756   0.056  13.726 -0.3456 -1.6559  0.0445
  474TMC3    C1 7049   3.017   0.252  14.269  0.4614  0.3249  0.6351
  474TMC3    C2 7050   2.913   0.276  14.353  0.2511 -0.4772  0.2062
  474TMC3    C3 7051   2.945   0.358  14.459 -0.3074  0.1654  0.3062
  474TMC3    C4 7052   3.143   0.301  14.278  0.1937 -0.3401 -0.0448
  474TMC3    C5 7053   3.170   0.374  14.387 -0.6309  0.1910  0.2601
  474TMC3    C6 7054   3.076   0.400  14.480  0.0366  0.4971  0.1668
  474TMC3     C 7055   2.970   0.170  14.161 -0.5059 -0.8482 -0.2734
  474TMC3     O 7056   2.850   0.155  14.145  0.1126 -0.2391 -0.0553
  474TMC3     H 7057   2.809   0.253  14.335 -0.4867  2.4177  0.7239
  474TMC3    H1 7058   3.208   0.290  14.192  0.4734  1.5555 -0.0822
  474TMC3    H2 7059   3.099   0.473  14.557 -0.7415 -0.3822  1.2269
  474TMC3    C7 7060   3.298   0.437  14.395  0.0831 -0.5698  0.2279
  474TMC3    C8 7061   2.838   0.442  14.488 -0.0801 -0.1001  0.2093
  474TMC3    O1 7062   3.369   0.436  14.299 -0.0993 -0.5972 -0.1462
  474TMC3    O2 7063   2.736   0.377  14.515 -0.6115 -0.5721  0.0949
  475MPD2     C 7064   0.788   2.406  10.954  0.6168 -0.3878  0.5187
  475MPD2    C1 7065   0.784   2.531  10.894  0.0433 -0.4405 -0.4863
  475MPD2    C2 7066   0.672   2.610  10.908  0.6046  0.0914  0.1384
  475MPD2    C3 7067   0.569   2.586  10.993 -0.7290  0.1586 -0.3893
  475MPD2    C4 7068   0.571   2.467  11.055 -0.3335  0.1076 -0.0459
  475MPD2    C5 7069   0.678   2.380  11.034 -0.2591  0.7363 -0.3810
  475MPD2     H 7070   0.681   2.711  10.868  1.4364 -0.0736 -0.0797
  475MPD2    H1 7071   0.495   2.439  11.127 -1.6593  1.7343 -0.8135
  475MPD2    H2 7072   0.866   2.332  10.938  0.6224 -0.1276 -0.6956
  475MPD2    H3 7073   0.679   2.288  11.091 -1.0580 -0.4893 -2.3533
  475MPD2     N 7074   0.472   2.683  11.013 -0.2748  0.9678  0.3764
  475MPD2    H5 7075   0.484   2.773  10.968  2.1892  0.2260 -0.4657
  475MPD2    N1 7076   0.894   2.572  10.818 -0.1529  0.4320 -0.1523
  475MPD2    H7 7077   0.987   2.532  10.824 -0.0092  0.3519 -3.0852
  476TMC3    C1 7078   1.012   2.721  10.691  0.2269 -0.8735  0.3599
  476TMC3    C2 7079   1.034   2.773  10.566 -0.3157 -0.9147 -0.5039
  476TMC3    C3 7080   1.130   2.869  10.550  0.4437 -0.7258  0.3659
  476TMC3    C4 7081   1.099   2.750  10.794  0.0231  0.4675 -0.4502
  476TMC3    C5 7082   1.189   2.851  10.773  0.5740  0.1209 -0.7922
  476TMC3    C6 7083   1.202   2.918  10.653 -0.4762 -0.0630  0.0596
  476TMC3     C 7084   0.884   2.663  10.720 -0.2105  0.1333 -0.1673
  476TMC3     O 7085   0.787   2.711  10.667  0.3731  0.3946  0.3208
  476TMC3     H 7086   0.954   2.753  10.495  0.3716 -0.4805 -1.4133
  476TMC3    H1 7087   1.079   2.704  10.890  0.9403 -0.5490 -0.7478
  476TMC3    H2 7088   1.267   3.004  10.646 -2.4493  1.2443 -2.1837
  476TMC3    C7 7089   1.198   2.937  10.895 -0.6602 -0.4949  0.0132
  476TMC3    C8 7090   1.137   2.963  10.435  0.2555 -0.3865  0.2178
  476TMC3    O1 7091   1.124   2.911  10.990 -0.2774  0.2356  0.4531
  476TMC3    O2 7092   1.200   3.062  10.439 -0.2177  0.1056  0.1527
  477MPD2     C 7093   4.193   0.032  11.381  0.1673  0.5648 -0.2736
  477MPD2    C1 7094   4.063   0.000  11.407 -0.3636  0.0862 -0.6587
  477MPD2    C2 7095   4.037   4.610  11.489 -0.1063  0.5171  0.9564
  477MPD2    C3 7096   4.137   4.528  11.533  0.3385  0.1095  0.5843
  477MPD2    C4 7097   4.265   4.573  11.517 -0.1531 -0.9008  0.1898
  477MPD2    C5 7098   4.292   4.682  11.439 -0.2160 -0.3175 -0.4472
  477MPD2     H 7099   3.937   4.572  11.507 -0.7569  0.9318 -1.8985
  477MPD2    H1 7100   4.354   4.523  11.555 -1.5337 -2.1691  1.7725
  477MPD2    H2 7101   4.224   0.121  11.328 -1.7882 -0.3411 -2.9550
  477MPD2    H3 7102   4.398   4.704  11.434 -0.1439 -0.7121 -0.6220
  477MPD2     N 7103   4.103   4.402  11.594  0.5315 -1.0295  0.0941
  477MPD2    H5 7104   4.004   4.381  11.597 -0.4758  3.7388  0.4243
  477MPD2    N1 7105   3.960   0.087  11.358  0.6605 -0.3471  0.0127
  477MPD2    H7 7106   3.997   0.159  11.297 -0.3895 -0.2290 -0.4890
  478TMC3    C1 7107   3.760   0.176  11.326 -0.5689  0.0141 -0.2417
  478TMC3    C2 7108   3.653   0.240  11.389  0.0031  0.0258 -0.5016
  478TMC3    C3 7109   3.569   0.314  11.320  0.0308  0.2177  0.6415
  478TMC3    C4 7110   3.773   0.176  11.195  0.4179  0.0104 -0.1223
  478TMC3    C5 7111   3.682   0.252  11.125 -0.1347 -0.2512  0.2112
  478TMC3    C6 7112   3.585   0.326  11.182  0.0978  0.1065  0.0103
  478TMC3     C 7113   3.828   0.072  11.390 -0.4500  0.2251  0.0929
  478TMC3     O 7114   3.770   0.002  11.471  0.0186 -0.1058 -0.2782
  478TMC3     H 7115   3.635   0.221  11.494 -1.4282 -1.9075 -1.0942
  478TMC3    H1 7116   3.859   0.134  11.145 -0.2051  1.2291 -2.2112
  478TMC3    H2 7117   3.540   0.416  11.141  1.4764  0.8054  0.0065
  478TMC3    C7 7118   3.683   0.251  10.980  0.7832 -0.2622 -0.1020
  478TMC3    C8 7119   3.533   0.438  11.387 -0.5998  0.4240 -0.1367
  478TMC3    O1 7120   3.780   0.204  10.926 -0.2524  1.0606 -0.1684
  478TMC3    O2 7121   3.621   0.489  11.454 -0.3093  0.0030  0.0617
  479MPD2     C 7122   2.702   1.853  15.304 -0.3833 -0.1096 -0.0154
  479MPD2    C1 7123   2.691   1.751  15.398 -0.0592 -0.5100  0.4486
  479MPD2    C2 7124   2.786   1.734  15.491  0.3780 -0.0640  0.4074
  479MPD2    C3 7125   2.899   1.812  15.485  0.6407 -0.2277  0.5786
  479MPD2    C4 7126   2.918   1.903  15.382 -0.0494  0.1077 -0.5075
  479MPD2    C5 7127   2.816   1.923  15.290  0.3619 -0.3979 -0.6732
  479MPD2     H 7128   2.783   1.658  15.569  2.8790 -1.3952 -0.8001
  479MPD2    H1 7129   3.010   1.959  15.384 -0.2083  0.3787 -0.7728
  479MPD2    H2 7130   2.627   1.880  15.231  1.9925 -0.1329 -2.4732
  479MPD2    H3 7131   2.825   2.011  15.227  0.7824 -0.1208 -0.2250
  479MPD2     N 7132   3.001   1.799  15.587  0.2320 -0.0943  0.1495
  479MPD2    H5 7133   3.089   1.846  15.566  0.7677 -0.1178  2.3893
  479MPD2    N1 7134   2.577   1.679  15.417  0.7199  0.2014  0.6501
  479MPD2    H7 7135   2.562   1.610  15.490  1.9623 -0.8980 -0.1300
  480TMC3    C1 7136   2.735   1.679  15.953 -0.0110 -0.0890  0.4673
  480TMC3    C2 7137   2.643   1.780  15.938  0.1361 -0.1898 -0.3508
  480TMC3    C3 7138   2.673   1.879  15.844 -0.6684 -0.2494 -0.0138
  480TMC3    C4 7139   2.840   1.657  15.868  0.3502 -0.1881 -0.1516
  480TMC3    C5 7140   2.861   1.745  15.772 -0.0429 -0.6171  0.1191
  480TMC3    C6 7141   2.788   1.857  15.767 -0.0773 -0.0175  0.0021
  480TMC3     C 7142   2.691   1.561  16.025 -0.0373  0.3992  0.1574
  480TMC3     O 7143   2.732   1.450  15.980 -0.0939  0.1467 -0.2327
  480TMC3     H 7144   2.546   1.786  15.985 -0.8512  0.2003 -2.4641
  480TMC3    H1 7145   2.908   1.573  15.868  1.2123  0.4920  0.9586
  480TMC3    H2 7146   2.823   1.935  15.701 -2.3102 -0.7071 -1.9799
  480TMC3    C7 7147   2.991   1.754  15.716  0.2177  0.0224  0.1305
  480TMC3    C8 7148   2.551   1.905  15.769 -0.3700 -0.4385 -0.2771
  480TMC3    O1 7149   3.078   1.751  15.801  0.2180  0.3248 -0.1313
  480TMC3    O2 7150   2.449   1.900  15.826 -0.4304  0.0130  0.7558
  481MPD2     C 7151   4.143   1.347  14.159 -0.2627 -0.2676 -0.2670
  481MPD2    C1 7152   4.020   1.301  14.201 -0.2523 -0.0966 -0.5220
  481MPD2    C2 7153   4.004   1.284  14.335  0.3335  0.4055 -0.5419
  481MPD2    C3 7154   4.103   1.306  14.430  0.4801  0.0175  0.7206
  481MPD2    C4 7155   4.231   1.341  14.383 -0.4701 -0.3908  0.3619
  481MPD2    C5 7156   4.249   1.363  14.246 -0.3814  0.3623  0.1112
  481MPD2     H 7157   3.905   1.254  14.367  1.5009 -1.6700  1.1058
  481MPD2    H1 7158   4.319   1.364  14.443 -1.1861  0.3034  1.1412
  481MPD2    H2 7159   4.171   1.358  14.055 -0.6854  0.5938 -0.2861
  481MPD2    H3 7160   4.347   1.390  14.209  0.0493  1.6681  2.1818
  481MPD2     N 7161   4.091   1.295  14.570  0.2966  0.1727  0.4959
  481MPD2    H5 7162   4.173   1.303  14.628  1.4665 -0.7567 -1.0362
  481MPD2    N1 7163   3.918   1.285  14.106 -0.2450  0.3767 -0.0574
  481MPD2    H7 7164   3.940   1.323  14.014 -1.8535  1.0064 -0.1757
  482TMC3    C1 7165   3.694   1.232  14.031  0.0825  0.6679 -0.0986
  482TMC3    C2 7166   3.598   1.132  14.028  0.3090  0.4676  0.5178
  482TMC3    C3 7167   3.488   1.161  13.961 -0.4332 -0.2573  0.1107
  482TMC3    C4 7168   3.680   1.360  13.974 -0.1713  0.3005 -0.2526
  482TMC3    C5 7169   3.566   1.383  13.908 -0.3849 -0.1504 -0.4196
  482TMC3    C6 7170   3.480   1.279  13.895  0.5165  0.2704  0.1286
  482TMC3     C 7171   3.799   1.210  14.128  0.7077  0.2273  0.1666
  482TMC3     O 7172   3.778   1.124  14.214  0.6350 -0.0408 -0.3746
  482TMC3     H 7173   3.611   1.037  14.079  0.1606  0.0636 -0.2070
  482TMC3    H1 7174   3.754   1.439  13.976  0.8575 -0.6179 -1.8792
  482TMC3    H2 7175   3.383   1.289  13.847  0.0224  0.4462  1.1524
  482TMC3    C7 7176   3.536   1.511  13.854  0.8360 -0.4270 -0.0651
  482TMC3    C8 7177   3.407   1.056  13.904 -0.1253 -0.0498 -0.0984
  482TMC3    O1 7178   3.584   1.612  13.908 -0.2677 -0.6578  0.6253
  482TMC3    O2 7179   3.468   0.951  13.885 -0.0551  0.3067 -0.4099
  483TMC3    C1 7180   2.481   0.346   0.247 -0.4635 -0.1130  0.1732
  483TMC3    C2 7181   2.483   0.477   0.287 -0.7144  0.0542  0.2933
  483TMC3    C3 7182   2.392   0.515   0.385  0.3848  0.4214 -0.1189
  483TMC3    C4 7183   2.407   0.247   0.309 -0.7085  0.0126 -0.2666
  483TMC3    C5 7184   2.320   0.290   0.410 -0.0042 -0.4462  0.2414
  483TMC3    C6 7185   2.319   0.417   0.452 -0.1714 -0.4353  0.7328
  483TMC3     C 7186   2.585   0.317   0.152 -0.3104 -0.0484  0.4596
  483TMC3     O 7187   2.660   0.410   0.121  0.2230 -0.4582  0.0925
  483TMC3     H 7188   2.545   0.556   0.248  0.7124 -1.8270 -1.2397
  483TMC3    H1 7189   2.405   0.142   0.284  0.8884 -0.2000  0.4887
  483TMC3    H2 7190   2.280   0.443   0.549 -1.0516 -2.4942  0.9255
  483TMC3    C7 7191   2.251   0.193   0.487 -0.0931 -0.3431 -0.4452
  483TMC3    C8 7192   2.444   0.616   0.476 -0.0861  0.9587 -0.7557
  483TMC3    O1 7193   2.301   0.078   0.494 -0.2573  0.1797  0.2555
  483TMC3    O2 7194   2.373   0.686   0.540  0.5029  0.2098 -0.3397
  484MPD2     C 7195   4.595   3.236  12.275 -0.2781  0.3808 -0.1551
  484MPD2    C1 7196   4.663   3.115  12.302  0.0008  0.7664 -0.4955
  484MPD2    C2 7197   0.076   3.127  12.276 -0.2440 -0.5135  0.1823
  484MPD2    C3 7198   0.136   3.238  12.233 -0.3021 -0.6458 -0.8471
  484MPD2    C4 7199   0.073   3.358  12.230 -0.2848 -0.2755 -0.1060
  484MPD2    C5 7200   4.668   3.354  12.251  0.2470  0.4467 -0.7252
  484MPD2     H 7201   0.127   3.031  12.280  1.4907  0.2942 -3.1695
  484MPD2    H1 7202   0.126   3.451  12.215 -2.0186  0.6357 -0.6234
  484MPD2    H2 7203   4.488   3.235  12.288 -0.2282  0.9974  0.2907
  484MPD2    H3 7204   4.620   3.450  12.238  0.1410  0.7591  1.8813
  484MPD2     N 7205   0.272   3.244  12.196  0.2490  0.2909 -0.7643
  484MPD2    H5 7206   0.292   3.334  12.154 -1.0506  0.9406 -0.0062
  484MPD2    N1 7207   4.597   2.993  12.344 -0.1094  0.4325 -0.2643
  484MPD2    H7 7208   4.649   2.907  12.328 -0.1382  0.7814 -2.2189
  485TMC3    C1 7209   0.490   3.183  12.155 -0.4443  0.7715 -0.6092
  485TMC3    C2 7210   0.606   3.197  12.228 -0.0172 -0.0263 -0.4472
  485TMC3    C3 7211   0.722   3.231  12.161  0.4380  0.2966  0.3821
  485TMC3    C4 7212   0.492   3.205  12.017 -0.2599  0.2090  0.0168
  485TMC3    C5 7213   0.605   3.244  11.951  0.6402  0.2633  0.2341
  485TMC3    C6 7214   0.722   3.250  12.027 -0.5457  0.3990  0.3479
  485TMC3     C 7215   0.371   3.156  12.231  0.0376 -0.4710  0.1945
  485TMC3     O 7216   0.368   3.076  12.323 -0.1917  0.1261  0.5256
  485TMC3     H 7217   0.610   3.173  12.334 -1.5540  1.3469 -0.0791
  485TMC3    H1 7218   0.405   3.191  11.955 -0.9365 -0.5562  1.1482
  485TMC3    H2 7219   0.815   3.274  11.976 -1.9790 -1.0360 -2.9272
  485TMC3    C7 7220   0.617   3.178  11.826 -0.2775  0.2774 -0.2841
  485TMC3    C8 7221   0.836   3.164  12.205 -0.1931  0.8706 -0.1063
  485TMC3    O1 7222   0.582   3.059  11.826  0.0746 -0.6745  0.1083
  485TMC3    O2 7223   0.864   3.152  12.323 -0.0380  0.3258  0.2831
  486MPD2     C 7224   2.481   2.159  13.040  0.3025  0.4591  0.6114
  486MPD2    C1 7225   2.404   2.097  12.943 -0.1569 -0.8048 -0.8983
  486MPD2    C2 7226   2.349   2.174  12.842  0.2973 -0.8486 -0.0905
  486MPD2    C3 7227   2.390   2.304  12.819  0.3817  0.0730  0.5498
  486MPD2    C4 7228   2.480   2.358  12.909  0.5596 -0.6721  0.1285
  486MPD2    C5 7229   2.522   2.284  13.013 -0.0082  0.0410  0.6701
  486MPD2     H 7230   2.282   2.138  12.765 -1.0988 -2.9035  2.0854
  486MPD2    H1 7231   2.514   2.460  12.900  0.2841 -0.4765  1.4160
  486MPD2    H2 7232   2.528   2.107  13.123  2.6071  0.7386 -0.5169
  486MPD2    H3 7233   2.596   2.326  13.081  2.4718 -1.0407 -1.3383
  486MPD2     N 7234   2.340   2.373  12.709 -0.0843 -0.5966  0.3517
  486MPD2    H5 7235   2.276   2.316  12.656  0.6987 -0.7030 -0.4814
  486MPD2    N1 7236   2.387   1.955  12.954 -0.2425  0.2119  0.2590
  486MPD2    H7 7237   2.422   1.919  13.043  1.1528 -1.3796 -0.9469
  487TMC3    C1 7238   2.356   1.738  12.866 -0.0101  0.1309  0.1773
  487TMC3    C2 7239   2.345   1.668  12.750 -0.4906  0.2201 -0.3620
  487TMC3    C3 7240   2.318   1.531  12.755 -0.6377  0.0788  0.0535
  487TMC3    C4 7241   2.342   1.677  12.988 -0.1852 -0.7566 -0.4594
  487TMC3    C5 7242   2.327   1.542  12.985  0.0745 -0.4605 -0.7853
  487TMC3    C6 7243   2.313   1.462  12.874  0.0186 -0.1796  0.2527
  487TMC3     C 7244   2.342   1.877  12.847  0.1996 -0.3563  0.8210
  487TMC3     O 7245   2.316   1.908  12.731  0.6501 -0.5533  0.2713
  487TMC3     H 7246   2.363   1.707  12.650 -0.1410 -2.0414 -1.1936
  487TMC3    H1 7247   2.345   1.733  13.081  1.3261  0.2227 -1.1046
  487TMC3    H2 7248   2.340   1.358  12.885 -0.6533 -0.4266 -0.5161
  487TMC3    C7 7249   2.315   1.479  13.120  0.4217  0.6643 -0.4981
  487TMC3    C8 7250   2.298   1.462  12.625  0.7496 -0.1816  0.5359
  487TMC3    O1 7251   2.352   1.553  13.213 -0.0369 -0.2780  0.2016
  487TMC3    O2 7252   2.368   1.497  12.533  0.0652  0.4466 -0.3218
  488MPD2     C 7253   2.708   3.638  16.597 -0.3583  0.7117 -0.3131
  488MPD2    C1 7254   2.630   3.751  16.579  0.4567 -0.0317 -0.4159
  488MPD2    C2 7255   2.600   3.829  16.690 -0.2175 -0.5067 -0.4622
  488MPD2    C3 7256   2.647   3.793  16.820 -0.0953 -0.2956  0.7266
  488MPD2    C4 7257   2.727   3.681  16.834  0.0435 -0.5999 -0.1099
  488MPD2    C5 7258   2.753   3.607  16.720  0.4990  0.5574 -0.0865
  488MPD2     H 7259   2.524   3.905  16.681 -0.7743 -0.9429  0.5257
  488MPD2    H1 7260   2.778   3.643  16.921 -0.8533 -1.2161  0.1438
  488MPD2    H2 7261   2.738   3.574  16.515  1.5854  0.7708  0.3710
  488MPD2    H3 7262   2.815   3.522  16.743  0.0524 -0.3347 -2.2063
  488MPD2     N 7263   2.614   3.870  16.935 -0.0543 -0.4741  0.4859
  488MPD2    H5 7264   2.567   3.957  16.913  0.6787 -0.3921 -0.7387
  488MPD2    N1 7265   2.579   3.793  16.448 -0.3694 -0.0748 -0.4286
  488MPD2    H7 7266   2.524   3.878  16.443  0.0111  0.1503 -0.8546
  489TMC3    C1 7267   2.562   3.915  17.158  0.4443 -0.4950 -0.1536
  489TMC3    C2 7268   2.538   4.045  17.120 -0.2157  0.0198  0.4536
  489TMC3    C3 7269   2.450   4.121  17.190 -0.3572 -0.6781 -0.0029
  489TMC3    C4 7270   2.493   3.863  17.264  0.4509 -0.2064  0.3327
  489TMC3    C5 7271   2.407   3.949  17.333 -0.1048  0.1723  0.5750
  489TMC3    C6 7272   2.386   4.079  17.300  0.3663  0.5210  0.4953
  489TMC3     C 7273   2.616   3.820  17.065 -0.8258  0.1240  0.0701
  489TMC3     O 7274   2.656   3.714  17.102  0.1166  0.2604  0.1379
  489TMC3     H 7275   2.597   4.091  17.041  0.7130 -2.8655 -0.5084
  489TMC3    H1 7276   2.502   3.757  17.286  0.8489 -0.3309 -0.3935
  489TMC3    H2 7277   2.342   4.148  17.371 -1.4740  0.1533 -0.2641
  489TMC3    C7 7278   2.342   3.900  17.448  0.0346  0.0206 -0.2709
  489TMC3    C8 7279   2.372   4.209  17.104  0.1321 -0.3392 -0.0677
  489TMC3    O1 7280   2.241   3.961  17.496  0.2845  0.1604 -0.4766
  489TMC3    O2 7281   2.429   4.273  17.014 -0.1411 -0.4684  0.1790
  490MPD2     C 7282   3.083   3.121  17.590 -0.2399  0.9812  0.0513
  490MPD2    C1 7283   3.071   2.983  17.611  0.1458  0.0168  0.3800
  490MPD2    C2 7284   3.147   2.923   0.019 -0.6743 -0.7755 -0.1537
  490MPD2    C3 7285   3.225   2.997   0.099 -0.1480  0.1908  0.5142
  490MPD2    C4 7286   3.238   3.133   0.081  0.4145 -0.0387  0.2027
  490MPD2    C5 7287   3.166   3.193  17.679  0.1791 -0.0489 -0.3535
  490MPD2     H 7288   3.121   2.824   0.056 -0.7419 -0.4195  0.7436
  490MPD2    H1 7289   3.314   3.190   0.133 -0.6719  1.0527  0.6254
  490MPD2    H2 7290   3.027   3.174  17.514 -2.1419 -0.2681  0.5665
  490MPD2    H3 7291   3.186   3.298  17.661  2.1348 -0.2363  0.6735
  490MPD2     N 7292   3.299   2.921   0.197  0.4707 -0.5685 -0.3897
  490MPD2    H5 7293   3.299   2.821   0.185 -1.4071 -0.5537 -0.4165
  490MPD2    N1 7294   2.978   2.898  17.548 -0.7254  0.0617  0.6203
  490MPD2    H7 7295   2.977   2.809  17.597 -0.8600 -0.4692 -0.3466
  491TMC3    C1 7296   2.849   2.813  17.376 -0.1623  0.2532  0.5012
  491TMC3    C2 7297   2.810   2.720  17.473  0.2734  0.3383  0.5081
  491TMC3    C3 7298   2.745   2.607  17.425  0.2095 -0.5915  0.1730
  491TMC3    C4 7299   2.853   2.786  17.241 -0.0641  0.2543 -0.5493
  491TMC3    C5 7300   2.780   2.673  17.202 -0.5895  0.6403  0.0169
  491TMC3    C6 7301   2.729   2.587  17.290 -0.1150  0.1054 -0.5099
  491TMC3     C 7302   2.926   2.923  17.424 -0.2636 -0.2947  0.1838
  491TMC3     O 7303   2.950   3.019  17.349 -0.2558 -0.0391 -0.4095
  491TMC3     H 7304   2.803   2.749  17.577 -1.0947  0.3314  0.4173
  491TMC3    H1 7305   2.901   2.848  17.167  2.4375 -0.3359  0.5750
  491TMC3    H2 7306   2.671   2.500  17.259  0.5104  0.1352 -1.7608
  491TMC3    C7 7307   2.713   2.677  17.076 -0.1483 -0.7489 -0.3319
  491TMC3    C8 7308   2.680   2.524  17.522 -0.1293 -0.4215 -0.3940
  491TMC3    O1 7309   2.668   2.569  17.035 -0.2644  0.2782 -0.5339
  491TMC3    O2 7310   2.601   2.575  17.600 -0.3131  0.0206  0.3440
  492MPD2     C 7311   3.052   3.259  10.275  0.3324  0.1154  0.0180
  492MPD2    C1 7312   3.184   3.232  10.299 -0.2098 -0.6100 -0.9662
  492MPD2    C2 7313   3.217   3.140  10.396 -0.2292  0.4713  0.0205
  492MPD2    C3 7314   3.111   3.087  10.478 -0.1714  0.4616  0.3626
  492MPD2    C4 7315   2.977   3.126  10.457  1.1072  0.5618 -0.2731
  492MPD2    C5 7316   2.950   3.210  10.352  0.3753 -0.7068  0.1399
  492MPD2     H 7317   3.319   3.111  10.421 -0.1773  0.8102  0.1874
  492MPD2    H1 7318   2.889   3.096  10.513  1.1417 -0.1716 -0.6111
  492MPD2    H2 7319   3.016   3.322  10.195  0.6519 -0.6741 -0.7513
  492MPD2    H3 7320   2.850   3.250  10.340  0.6852 -0.1871 -0.6917
  492MPD2     N 7321   3.147   2.998  10.578 -0.6453 -0.1908  0.1090
  492MPD2    H5 7322   3.244   2.967  10.576  0.0632  1.9264  1.4942
  492MPD2    N1 7323   3.273   3.299  10.212  0.1533 -0.2670  0.1512
  492MPD2    H7 7324   3.226   3.354  10.141  1.0466 -1.7636 -1.6088
  493TMC3    C1 7325   3.466   3.426  10.137  0.4721 -0.1261 -0.0151
  493TMC3    C2 7326   3.602   3.448  10.144 -0.6932  0.3579 -0.3640
  493TMC3    C3 7327   3.647   3.573  10.112  0.0923 -0.1600 -0.0544
  493TMC3    C4 7328   3.381   3.526  10.103 -0.4594  0.1082 -0.1864
  493TMC3    C5 7329   3.433   3.648  10.079 -0.1136 -0.1298  0.2013
  493TMC3    C6 7330   3.563   3.675  10.076 -0.5783 -0.6528 -0.3572
  493TMC3     C 7331   3.411   3.307  10.213 -0.0402 -0.3387 -0.1031
  493TMC3     O 7332   3.489   3.249  10.280 -0.0102  0.1013 -0.0007
  493TMC3     H 7333   3.664   3.379  10.200  0.7485 -0.6025 -3.1385
  493TMC3    H1 7334   3.274   3.520  10.117 -0.4044  1.0279  0.5840
  493TMC3    H2 7335   3.592   3.773  10.042  0.8620 -0.9963 -0.1013
  493TMC3    C7 7336   3.341   3.745  10.025  0.2471 -0.4168 -0.4114
  493TMC3    C8 7337   3.784   3.591  10.146 -0.4155  0.5022  0.3719
  493TMC3    O1 7338   3.385   3.813   9.932 -0.4390  0.1579 -0.7734
  493TMC3    O2 7339   3.847   3.509  10.210 -0.1951 -0.8456 -0.5121
  494TMC3    C1 7340   4.132   0.087   0.735 -0.1081 -0.6704 -0.3381
  494TMC3    C2 7341   4.170   4.680   0.736 -0.2003 -0.4250 -0.2367
  494TMC3    C3 7342   4.137   4.603   0.632 -0.6774  0.0003  0.3246
  494TMC3    C4 7343   4.061   0.139   0.627 -0.2617  0.7452 -0.1546
  494TMC3    C5 7344   4.057   0.067   0.513  0.8427  0.4185 -0.1331
  494TMC3    C6 7345   4.085   4.659   0.517  1.0091  0.6277 -0.0616
  494TMC3     C 7346   4.110   0.153   0.864 -0.3689  0.5173 -0.0804
  494TMC3     O 7347   4.011   0.219   0.864  0.3863  0.0724  1.0405
  494TMC3     H 7348   4.189   4.632   0.831  1.6272  3.8719  1.5570
  494TMC3    H1 7349   4.014   0.234   0.643  0.9544  1.3935 -0.4101
  494TMC3    H2 7350   4.077   4.604   0.424 -0.5277  0.1543  0.3536
  494TMC3    C7 7351   4.086   0.133   0.384 -0.2270 -0.3732  0.6181
  494TMC3    C8 7352   4.208   4.484   0.618  0.2084 -0.3514 -0.1316
  494TMC3    O1 7353   4.084   0.067   0.278  0.1219  0.3651  0.7620
  494TMC3    O2 7354   4.309   4.467   0.686  0.2886 -0.2965  0.1911
  495TMC3    C1 7355   2.754   2.292  14.895  0.4628 -0.3861 -0.1473
  495TMC3    C2 7356   2.653   2.335  14.813  1.0558  0.0295 -0.7250
  495TMC3    C3 7357   2.549   2.396  14.868 -0.4081  0.6212 -0.0146
  495TMC3    C4 7358   2.751   2.310  15.032  0.1359  0.4037  1.0984
  495TMC3    C5 7359   2.631   2.344  15.087 -0.4114 -0.1244 -0.1317
  495TMC3    C6 7360   2.532   2.402  15.005 -0.7362 -0.5751  0.1732
  495TMC3     C 7361   2.774   2.150  14.881  0.3635 -0.5136 -0.0982
  495TMC3     O 7362   2.762   2.081  14.981 -0.3683 -0.7112  0.2461
  495TMC3     H 7363   2.686   2.330  14.710 -0.6727  0.6976 -1.3130
  495TMC3    H1 7364   2.833   2.270  15.090 -1.7952 -0.8698  2.9567
  495TMC3    H2 7365   2.442   2.439  15.054  0.1618  1.6621  0.1105
  495TMC3    C7 7366   2.610   2.312  15.225  0.0331  0.3936 -0.3140
  495TMC3    C8 7367   2.426   2.378  14.799  0.0590 -1.0501  0.8106
  495TMC3    O1 7368   2.714   2.312  15.292 -0.2543  0.1081 -0.2791
  495TMC3    O2 7369   2.323   2.387  14.865 -0.0820 -0.1114  0.0477
  496MPD2     C 7370   0.387   1.918  15.149  0.2600 -1.0429 -0.4889
  496MPD2    C1 7371   0.294   1.817  15.153  0.0297  1.1522 -0.9230
  496MPD2    C2 7372   0.216   1.806  15.267 -0.3719  0.1267  0.1877
  496MPD2    C3 7373   0.229   1.897  15.373  0.0021 -0.1121 -0.2683
  496MPD2    C4 7374   0.322   1.996  15.361  1.2738 -0.0960 -0.1167
  496MPD2    C5 7375   0.400   2.005  15.247 -0.1351  0.8219 -0.0256
  496MPD2     H 7376   0.150   1.720  15.274  0.1686 -0.2181  1.2173
  496MPD2    H1 7377   0.334   2.067  15.441  2.2967 -0.6663  0.2282
  496MPD2    H2 7378   0.473   1.913  15.083  0.2536 -0.4279 -0.5468
  496MPD2    H3 7379   0.487   2.070  15.256  0.2763 -0.1090  2.9461
  496MPD2     N 7380   0.151   1.899  15.490 -0.4365  0.2617  0.1028
  496MPD2    H5 7381   0.192   1.972  15.546  1.3708 -1.9338  1.6579
  496MPD2    N1 7382   0.308   1.705  15.055 -0.6354  0.1175 -0.5776
  496MPD2    H7 7383   0.380   1.711  14.985  1.7406 -0.9888  1.7589
  497TMC3    C1 7384   4.698   1.864  15.643 -0.7944  0.5619 -0.7663
  497TMC3    C2 7385   4.573   1.899  15.613  0.9384 -0.3330  0.2655
  497TMC3    C3 7386   4.482   1.913  15.714  0.2416  0.2420  0.5543
  497TMC3    C4 7387   0.008   1.827  15.773 -0.5049  0.4422 -0.2313
  497TMC3    C5 7388   4.644   1.851  15.876  0.0256  0.3484 -0.0223
  497TMC3    C6 7389   4.515   1.888  15.847 -0.0145 -0.0068 -0.1922
  497TMC3     C 7390   0.054   1.820  15.527 -0.5869 -0.8863 -0.1318
  497TMC3     O 7391   0.030   1.709  15.479 -0.4187  0.0484 -0.0645
  497TMC3     H 7392   4.545   1.907  15.509 -0.2399  1.0018  0.6837
  497TMC3    H1 7393   0.104   1.779  15.788 -0.0632  1.2465 -0.5050
  497TMC3    H2 7394   4.437   1.886  15.922  0.9001  0.1009  0.7693
  497TMC3    C7 7395   4.675   1.813  16.010 -0.5371  0.4038 -0.6257
  497TMC3    C8 7396   4.343   1.935  15.685  0.1069 -0.3371  0.3392
  497TMC3    O1 7397   4.584   1.812  16.088 -0.3622  0.0214 -0.3478
  497TMC3    O2 7398   4.270   1.991  15.766 -0.0130  0.4364 -0.2249
  498MPD2     C 7399   0.699   3.446   9.428 -0.2050  0.1988 -0.6108
  498MPD2    C1 7400   0.711   3.385   9.548 -0.1600  0.8736 -0.2477
  498MPD2    C2 7401   0.606   3.317   9.602 -0.4603  0.2095 -0.2338
  498MPD2    C3 7402   0.495   3.300   9.536 -0.3788  0.2153 -0.1464
  498MPD2    C4 7403   0.475   3.365   9.417  0.3611 -0.4938 -0.6123
  498MPD2    C5 7404   0.576   3.441   9.371  0.0311 -0.0131 -0.1796
  498MPD2     H 7405   0.625   3.262   9.693 -1.5805  1.0914  0.5305
  498MPD2    H1 7406   0.393   3.360   9.346 -0.4441 -2.3748  0.4722
  498MPD2    H2 7407   0.779   3.506   9.385 -1.0321  0.0744 -2.3543
  498MPD2    H3 7408   0.565   3.482   9.271 -3.7006 -0.9275 -0.1535
  498MPD2     N 7409   0.410   3.191   9.573  0.4127 -0.1622  0.3511
  498MPD2    H5 7410   0.429   3.162   9.668 -0.1973 -0.9745  0.2327
  498MPD2    N1 7411   0.836   3.374   9.623 -0.1321 -0.2445 -0.1985
  498MPD2    H7 7412   0.847   3.314   9.704  3.8963  0.7375 -0.0180
  499TMC3    C1 7413   1.052   3.441   9.692  0.8447 -0.3853  0.0146
  499TMC3    C2 7414   1.085   3.311   9.727 -0.3637  0.0713  0.1824
  499TMC3    C3 7415   1.201   3.280   9.799  1.1787 -0.1964  0.2423
  499TMC3    C4 7416   1.137   3.542   9.724  0.0423 -0.2311 -0.0085
  499TMC3    C5 7417   1.257   3.511   9.788  0.2445 -0.7572  0.1363
  499TMC3    C6 7418   1.290   3.383   9.831  0.6095 -0.3873  0.0586
  499TMC3     C 7419   0.941   3.465   9.604  0.7528 -0.1990  0.0436
  499TMC3     O 7420   0.941   3.572   9.552 -0.3626 -0.0504  0.3557
  499TMC3     H 7421   1.024   3.231   9.688  0.8101 -0.5882 -0.2810
  499TMC3    H1 7422   1.107   3.646   9.726 -0.3649 -0.3507  0.1273
  499TMC3    H2 7423   1.396   3.364   9.847  1.1206 -0.7666 -3.6617
  499TMC3    C7 7424   1.353   3.624   9.797 -0.7268 -0.5427  0.5928
  499TMC3    C8 7425   1.246   3.146   9.827  0.1952 -0.0540 -0.0744
  499TMC3    O1 7426   1.438   3.618   9.885  0.3263  0.0766  0.0963
  499TMC3    O2 7427   1.343   3.144   9.899 -0.0840 -0.3803  0.1764
  500MPD2     C 7428   2.715   4.220  10.464  0.4727  0.3344 -0.1025
  500MPD2    C1 7429   2.727   4.231  10.320 -0.3394  1.0560 -0.1133
  500MPD2    C2 7430   2.615   4.266  10.247  0.6527 -0.1979 -0.1760
  500MPD2    C3 7431   2.487   4.275  10.305 -0.2164 -0.2050 -0.3495
  500MPD2    C4 7432   2.474   4.243  10.436 -0.6454 -0.1211 -0.4296
  500MPD2    C5 7433   2.585   4.222  10.514 -0.5033  0.2701  0.4925
  500MPD2     H 7434   2.629   4.269  10.140  1.2647  2.5316 -0.0368
  500MPD2    H1 7435   2.372   4.231  10.473 -0.4514 -0.6674 -0.0683
  500MPD2    H2 7436   2.793   4.202  10.536  0.6269 -2.3166 -0.9558
  500MPD2    H3 7437   2.567   4.219  10.621 -1.2120  1.4849  0.4031
  500MPD2     N 7438   2.369   4.303  10.230  0.6138 -0.1518 -0.3368
  500MPD2    H5 7439   2.282   4.309  10.282  1.3053  0.9463  0.7025
  500MPD2    N1 7440   2.847   4.197  10.257  0.4960  0.1212 -0.2500
  500MPD2    H7 7441   2.849   4.218  10.158  1.4132 -1.4145 -0.5511
  501TMC3    C1 7442   3.072   4.122  10.235 -0.6248 -0.4841  0.0461
  501TMC3    C2 7443   3.085   4.213  10.131  0.0155 -0.1170 -0.3489
  501TMC3    C3 7444   3.211   4.257  10.101  0.2705  0.1836 -0.7808
  501TMC3    C4 7445   3.178   4.064  10.304  0.3538 -0.1386 -0.3224
  501TMC3    C5 7446   3.298   4.121  10.288  0.0933  0.2158  0.1654
  501TMC3    C6 7447   3.312   4.218  10.187  0.0934  0.1748  0.0158
  501TMC3     C 7448   2.949   4.121  10.314  0.4214  0.1391  0.1992
  501TMC3     O 7449   2.945   4.056  10.419 -0.2245 -0.1181  0.4582
  501TMC3     H 7450   3.008   4.228  10.056  0.5929  2.2979 -0.4539
  501TMC3    H1 7451   3.158   4.012  10.398 -1.8079  0.6382 -0.3692
  501TMC3    H2 7452   3.408   4.265  10.170 -0.8108  2.2339  0.5729
  501TMC3    C7 7453   3.383   4.108  10.401  0.4640 -0.5014 -0.3909
  501TMC3    C8 7454   3.217   4.391  10.051  0.7198 -0.0888 -0.7827
  501TMC3    O1 7455   3.362   4.007  10.464 -0.1071 -0.3648  0.1244
  501TMC3    O2 7456   3.305   4.459  10.099 -0.0728  0.4585 -0.5297
  502TMC3    C1 7457   1.206   2.611  14.983  0.3019 -0.4904  0.9978
  502TMC3    C2 7458   1.265   2.733  14.972 -0.3398 -0.0608  0.3495
  502TMC3    C3 7459   1.207   2.841  15.031  0.3868 -0.1750  0.1311
  502TMC3    C4 7460   1.088   2.596  15.047 -1.2130  0.1899 -0.3739
  502TMC3    C5 7461   1.027   2.708  15.105  0.6821 -0.3056 -0.5321
  502TMC3    C6 7462   1.091   2.833  15.100 -0.2226 -0.3088  0.4541
  502TMC3     C 7463   1.302   2.512  15.019  0.5139 -0.5848 -0.2854
  502TMC3     O 7464   1.252   2.402  15.024  0.0888  0.5762  0.3982
  502TMC3     H 7465   1.345   2.752  14.902 -0.7985 -1.0647 -0.4393
  502TMC3    H1 7466   1.046   2.500  15.074 -2.2934  0.8128  0.1372
  502TMC3    H2 7467   1.040   2.918  15.144  0.1573 -0.8215  1.8991
  502TMC3    C7 7468   0.886   2.701  15.136 -0.4494 -0.3200 -0.2872
  502TMC3    C8 7469   1.293   2.956  15.025  0.5784 -0.2633 -0.5327
  502TMC3    O1 7470   0.839   2.603  15.192  0.2003  0.0893  1.3077
  502TMC3    O2 7471   1.410   2.929  15.028  0.3533 -0.1354  0.1834
  503MPD2     C 7472   4.003   3.571  16.998 -0.0981 -0.0302  0.5174
  503MPD2    C1 7473   4.036   3.605  17.125  0.1153  0.7964 -0.7781
  503MPD2    C2 7474   4.122   3.522  17.196  0.2821  0.1863  0.5468
  503MPD2    C3 7475   4.173   3.408  17.137 -0.3766 -0.9171 -0.1955
  503MPD2    C4 7476   4.116   3.365  17.017 -0.2587 -0.1711 -0.5707
  503MPD2    C5 7477   4.038   3.448  16.945 -0.2249  0.0138 -0.3906
  503MPD2     H 7478   4.167   3.559  17.287 -0.0984 -0.0526  0.8342
  503MPD2    H1 7479   4.136   3.265  16.980 -1.1163 -1.2165  1.7992
  503MPD2    H2 7480   3.935   3.628  16.936  2.1998  2.0451 -0.0756
  503MPD2    H3 7481   4.000   3.414  16.850 -0.2942 -0.4342 -0.2006
  503MPD2     N 7482   4.274   3.340  17.201  0.3480 -0.0151 -0.6728
  503MPD2    H5 7483   4.288   3.358  17.300  3.0903 -1.8136 -0.7266
  503MPD2    N1 7484   4.011   3.726  17.182  0.2387  0.6218  0.7388
  503MPD2    H7 7485   4.046   3.739  17.277  2.0513 -3.4057  0.6243
  504TMC3    C1 7486   4.447   3.175  17.244  0.1950 -0.0789  0.7407
  504TMC3    C2 7487   4.427   3.156  17.377 -0.7601 -0.6115  0.0314
  504TMC3    C3 7488   4.505   3.076  17.457 -0.0461  0.0170 -1.5163
  504TMC3    C4 7489   4.544   3.106  17.178  0.3667  0.2881  0.7609
  504TMC3    C5 7490   4.626   3.031  17.254 -0.8423 -0.3953 -0.8912
  504TMC3    C6 7491   4.605   3.001  17.390  0.5021  0.1603  0.1396
  504TMC3     C 7492   4.348   3.233  17.152 -0.6847  0.1970 -1.3968
  504TMC3     O 7493   4.341   3.194  17.040 -0.2857 -0.6065 -0.3960
  504TMC3     H 7494   4.343   3.211  17.419  0.5340 -0.6959  2.7092
  504TMC3    H1 7495   4.566   3.115  17.072  2.4050 -0.5624  1.1143
  504TMC3    H2 7496   4.670   2.929  17.438  2.4189  1.2271 -0.8382
  504TMC3    C7 7497   0.015   2.973  17.185 -0.5620  0.6390 -0.9490
  504TMC3    C8 7498   4.463   3.042  17.600 -0.1156 -0.7524 -0.6084
  504TMC3    O1 7499   0.036   3.024  17.078  0.1891  0.3406  0.1614
  504TMC3    O2 7500   4.367   3.098  17.648 -0.4563  0.0811 -0.5378
  505MPD2     C 7501   4.403   2.281   9.861 -0.0661 -0.6528  0.5081
  505MPD2    C1 7502   4.461   2.159   9.841 -0.6832 -0.0495 -0.3629
  505MPD2    C2 7503   4.577   2.121   9.918 -0.0769  1.0215 -0.5871
  505MPD2    C3 7504   4.624   2.210  10.016  0.1053  0.7190 -0.5956
  505MPD2    C4 7505   4.565   2.336  10.022  0.2164  0.2201 -0.0914
  505MPD2    C5 7506   4.462   2.371   9.948 -0.1133 -0.1229  0.4631
  505MPD2     H 7507   4.628   2.029   9.895 -1.2815  0.5502 -1.3724
  505MPD2    H1 7508   4.595   2.409  10.097 -0.8155  0.6241 -0.0650
  505MPD2    H2 7509   4.322   2.320   9.801 -1.0834 -2.4807  0.6712
  505MPD2    H3 7510   4.420   2.470   9.962  0.7445  0.0392  1.8632
  505MPD2     N 7511   4.723   2.181  10.115 -0.7506  0.5422 -0.0675
  505MPD2    H5 7512   0.028   2.258  10.175 -0.8504 -0.2187  0.9666
  505MPD2    N1 7513   4.393   2.076   9.742 -0.2575  0.2317 -0.6889
  505MPD2    H7 7514   4.314   2.125   9.700 -1.2492  0.2870  1.2292
  506TMC3    C1 7515   4.413   1.923   9.567 -0.2953  0.3478 -0.2038
  506TMC3    C2 7516   4.414   2.032   9.484  0.4889  0.5358 -1.0488
  506TMC3    C3 7517   4.459   2.006   9.357  0.6226 -0.0649 -0.2529
  506TMC3    C4 7518   4.471   1.810   9.526 -0.0395  0.2187 -0.0699
  506TMC3    C5 7519   4.545   1.799   9.415  0.3584  0.5761 -0.2327
  506TMC3    C6 7520   4.519   1.889   9.315  0.8815 -0.7353  0.6630
  506TMC3     C 7521   4.440   1.956   9.706  0.4056 -0.1029  0.7333
  506TMC3     O 7522   4.517   1.884   9.773 -0.0688 -0.0548  0.0629
  506TMC3     H 7523   4.350   2.118   9.498  1.4209  1.0124  0.2327
  506TMC3    H1 7524   4.480   1.732   9.600  3.0208  0.6767  0.0735
  506TMC3    H2 7525   4.568   1.885   9.219 -0.3740  0.6505 -0.0464
  506TMC3    C7 7526   4.685   1.765   9.442 -0.3742 -0.0720 -0.4351
  506TMC3    C8 7527   4.481   2.121   9.267  0.8269  0.8176 -0.1976
  506TMC3    O1 7528   0.035   1.745   9.345  0.2735 -0.1468  0.0196
  506TMC3    O2 7529   4.463   2.107   9.146 -0.1225  0.4963  0.6355
  507TMC3    C1 7530   0.477   3.036  14.037 -0.2622  0.8342  0.0877
  507TMC3    C2 7531   0.450   2.959  13.926  0.0513 -0.5905  0.4611
  507TMC3    C3 7532   0.516   2.996  13.812 -0.7490 -0.1518 -0.4905
  507TMC3    C4 7533   0.577   3.127  14.042  0.2478 -0.6136 -0.5251
  507TMC3    C5 7534   0.657   3.144  13.929 -0.1347 -0.7657 -0.6392
  507TMC3    C6 7535   0.623   3.079  13.817 -0.1875 -0.3042 -0.1049
  507TMC3     C 7536   0.387   3.050  14.149  0.2758  0.0643 -0.5966
  507TMC3     O 7537   0.371   3.159  14.210  0.0078 -0.1158  0.5567
  507TMC3     H 7538   0.354   2.913  13.908  0.1768  0.5436 -3.0405
  507TMC3    H1 7539   0.599   3.189  14.129 -2.1859 -1.0033  0.3512
  507TMC3    H2 7540   0.693   3.068  13.735 -1.3953  2.2540 -1.4669
  507TMC3    C7 7541   0.682   3.284  13.904  0.2545  0.2115 -0.2174
  507TMC3    C8 7542   0.427   3.043  13.712  0.2898  0.0355  0.9939
  507TMC3    O1 7543   0.642   3.327  13.798  0.0186 -0.1860  0.4060
  507TMC3    O2 7544   0.342   2.968  13.671  0.4877  0.0461 -0.1661
  508MPD2     C 7545   1.286   0.409  16.134 -0.1067  0.2996  0.8478
  508MPD2    C1 7546   1.419   0.402  16.119 -0.0129  1.1882  0.3111
  508MPD2    C2 7547   1.479   0.432  15.993  0.6776  0.4747 -0.0807
  508MPD2    C3 7548   1.402   0.471  15.888 -0.5895 -0.1579 -0.4927
  508MPD2    C4 7549   1.270   0.504  15.910 -0.0919 -0.4166  0.5375
  508MPD2    C5 7550   1.212   0.459  16.026  0.2218 -0.0682 -0.1963
  508MPD2     H 7551   1.585   0.414  15.978  0.1720  0.8219 -4.0552
  508MPD2    H1 7552   1.200   0.519  15.828 -1.6227 -3.4732  1.2784
  508MPD2    H2 7553   1.229   0.389  16.224  0.0239 -0.9425  0.6494
  508MPD2    H3 7554   1.105   0.476  16.035  0.5274  2.8375 -1.8587
  508MPD2     N 7555   1.465   0.495  15.763 -0.2114  0.4237  0.3120
  508MPD2    H5 7556   1.563   0.469  15.761  0.0780  1.7135 -2.1968
  508MPD2    N1 7557   1.488   0.342  16.230  0.8017  0.0214 -0.2019
  508MPD2    H7 7558   1.434   0.306  16.308 -1.6665  0.8809 -1.5097
  509TMC3    C1 7559   1.534   0.713  15.367 -0.2992 -0.3943 -0.6207
  509TMC3    C2 7560   1.649   0.769  15.412  0.7299  0.3123 -0.0947
  509TMC3    C3 7561   1.695   0.714  15.527  0.2078  0.3568  0.2069
  509TMC3    C4 7562   1.462   0.624  15.429 -0.3019  0.1569 -0.9751
  509TMC3    C5 7563   1.513   0.562  15.541 -0.5204 -0.0470  0.0137
  509TMC3    C6 7564   1.634   0.606  15.589  0.3051  0.0051  0.1886
  509TMC3     C 7565   1.491   0.746  15.235 -0.3721  0.6000  0.2229
  509TMC3     O 7566   1.452   0.657  15.167 -0.0999 -0.9409  0.0645
  509TMC3     H 7567   1.700   0.839  15.347  1.7236 -0.6128 -0.3035
  509TMC3    H1 7568   1.361   0.587  15.412 -0.1311 -0.7355 -0.0406
  509TMC3    H2 7569   1.680   0.559  15.674 -1.9568  0.0313  1.4397
  509TMC3    C7 7570   1.408   0.547  15.645  0.8327 -0.7690  0.3961
  509TMC3    C8 7571   1.802   0.785  15.593  0.6938 -0.4240 -0.2428
  509TMC3    O1 7572   1.298   0.598  15.622  0.4127 -0.2079  0.1997
  509TMC3    O2 7573   1.877   0.720  15.662  0.2844  0.2189  0.9430
  510MPD2     C 7574   3.948   2.422  14.329  0.1921  0.5268  0.3737
  510MPD2    C1 7575   4.018   2.364  14.433  0.0493 -0.8992  0.4526
  510MPD2    C2 7576   4.156   2.342  14.418 -0.4391 -0.0754 -0.4154
  510MPD2    C3 7577   4.214   2.390  14.298 -0.4940 -0.5304 -0.2189
  510MPD2    C4 7578   4.140   2.443  14.193 -0.4767 -0.2022 -0.4080
  510MPD2    C5 7579   4.006   2.455  14.209  0.2378 -0.5333 -0.4407
  510MPD2     H 7580   4.210   2.304  14.503 -2.5248  2.5112  2.0946
  510MPD2    H1 7581   4.185   2.480  14.102  0.8201 -0.2260  0.2212
  510MPD2    H2 7582   3.840   2.421  14.325  0.2170  0.6972 -0.3436
  510MPD2    H3 7583   3.942   2.496  14.132  2.7523 -1.1366 -2.8572
  510MPD2     N 7584   4.355   2.368  14.283 -0.4537 -0.1617 -0.2443
  510MPD2    H5 7585   4.412   2.364  14.367  0.9691  2.9103 -1.0806
  510MPD2    N1 7586   3.939   2.321  14.538  0.0489 -0.2280 -0.6581
  510MPD2    H7 7587   3.838   2.315  14.524  0.2329 -0.6119 -1.8733
  511TMC3    C1 7588   3.868   2.218  14.735  0.5820  0.5079  0.6299
  511TMC3    C2 7589   3.855   2.239  14.870 -0.4608  0.6052  0.5968
  511TMC3    C3 7590   3.777   2.150  14.941 -0.5331 -1.0598  0.2333
  511TMC3    C4 7591   3.821   2.103  14.677  0.5956  0.4606  0.6160
  511TMC3    C5 7592   3.741   2.016  14.754 -0.5674  0.6545 -0.1465
  511TMC3    C6 7593   3.718   2.038  14.885 -0.2030 -0.2233  0.9821
  511TMC3     C 7594   3.976   2.279  14.662  0.4144 -0.4393 -0.8318
  511TMC3     O 7595   4.080   2.306  14.718 -0.2904 -0.5477  0.3805
  511TMC3     H 7596   3.908   2.318  14.923  0.7727  0.2368 -0.0967
  511TMC3    H1 7597   3.827   2.088  14.570 -0.3268  2.1566  0.3256
  511TMC3    H2 7598   3.654   1.973  14.944 -2.0326 -0.9628 -1.8221
  511TMC3    C7 7599   3.658   1.926  14.679  0.6522  0.2637 -0.0756
  511TMC3    C8 7600   3.763   2.170  15.085  0.1544 -0.1515  0.3815
  511TMC3    O1 7601   3.695   1.901  14.564 -0.4464  0.6268 -0.6767
  511TMC3    O2 7602   3.788   2.283  15.124 -1.3402 -0.1250 -0.3685
  512TMC3    C1 7603   2.699   1.543  13.033  0.0236 -0.2561  0.3965
  512TMC3    C2 7604   2.746   1.601  13.150 -0.2339  0.7867  0.5547
  512TMC3    C3 7605   2.758   1.513  13.255 -0.1091 -0.0176 -0.8494
  512TMC3    C4 7606   2.654   1.413  13.029  0.0871 -0.9065  0.1712
  512TMC3    C5 7607   2.662   1.333  13.136 -0.0721 -0.0868  0.1562
  512TMC3    C6 7608   2.702   1.386  13.261  0.4203  0.4149 -0.6478
  512TMC3     C 7609   2.712   1.617  12.916 -0.3188 -0.5835  0.0385
  512TMC3     O 7610   2.699   1.543  12.817  0.5421  0.0030  0.5417
  512TMC3     H 7611   2.798   1.696  13.151 -1.7470  1.6304 -0.1083
  512TMC3    H1 7612   2.625   1.358  12.940  1.3752  0.2940 -0.9860
  512TMC3    H2 7613   2.715   1.324  13.349  0.0380  0.1693 -0.7634
  512TMC3    C7 7614   2.592   1.210  13.140  0.2230 -0.6979  0.2665
  512TMC3    C8 7615   2.818   1.561  13.382 -0.2451 -0.7402 -0.0483
  512TMC3    O1 7616   2.599   1.148  13.035 -0.5468  0.2665 -0.3284
  512TMC3    O2 7617   2.799   1.681  13.395  0.1925  0.1070  0.0247
  513MPD2     C 7618   3.580   1.981  13.041 -0.7341  0.2121  0.4895
  513MPD2    C1 7619   3.627   1.856  12.996 -0.2368  0.6377 -0.1883
  513MPD2    C2 7620   3.652   1.760  13.091 -0.0623  0.1932  0.3209
  513MPD2    C3 7621   3.666   1.792  13.224 -0.5079  0.1293  0.1397
  513MPD2    C4 7622   3.628   1.910  13.266  1.0302 -0.8134 -0.2961
  513MPD2    C5 7623   3.581   2.000  13.177  0.7307  0.1927 -0.3753
  513MPD2     H 7624   3.687   1.660  13.068  2.1017  1.0493 -0.1718
  513MPD2    H1 7625   3.618   1.938  13.371  0.3918 -1.3061 -0.2245
  513MPD2    H2 7626   3.546   2.059  12.973  0.9723 -0.0946 -0.7246
  513MPD2    H3 7627   3.549   2.097  13.215  1.7666  0.6106 -0.5668
  513MPD2     N 7628   3.710   1.696  13.314  0.6479 -0.2693 -0.5677
  513MPD2    H5 7629   3.722   1.608  13.265 -2.1852 -0.7287 -0.4416
  513MPD2    N1 7630   3.627   1.811  12.862 -0.0036 -0.4087  0.3342
  513MPD2    H7 7631   3.642   1.712  12.848 -0.4569 -0.4641  0.2302
  514TMC3    C1 7632   3.692   1.825  12.640  0.1628 -0.5278  0.9263
  514TMC3    C2 7633   3.807   1.873  12.593  0.0134 -0.4100 -0.1538
  514TMC3    C3 7634   3.904   1.775  12.561 -0.2589 -0.0274 -0.0335
  514TMC3    C4 7635   3.661   1.691  12.636  0.2092 -0.3028 -0.1225
  514TMC3    C5 7636   3.760   1.606  12.609  0.1414  0.5172 -0.5842
  514TMC3    C6 7637   3.880   1.643  12.562  0.4578 -0.5972 -0.3634
  514TMC3     C 7638   3.647   1.899  12.759 -0.0966 -0.1191 -0.4513
  514TMC3     O 7639   3.673   2.016  12.763 -0.1869 -0.7238 -0.5563
  514TMC3     H 7640   3.845   1.974  12.597  0.8967 -0.8320  1.9660
  514TMC3    H1 7641   3.570   1.659  12.687  0.1738  0.3948  0.2578
  514TMC3    H2 7642   3.965   1.579  12.539  0.8988  0.2680 -1.1314
  514TMC3    C7 7643   3.767   1.517  12.715 -0.0434  1.0459 -0.0859
  514TMC3    C8 7644   4.036   1.829  12.552 -0.7441 -0.7219 -0.2827
  514TMC3    O1 7645   3.687   1.538  12.803  0.2282  0.3358 -0.1829
  514TMC3    O2 7646   4.064   1.916  12.633  0.3837 -0.7546  0.5237
  515MPD2     C 7647   2.899   3.390  15.288  0.5797  0.5184  0.3826
  515MPD2    C1 7648   2.927   3.340  15.161 -0.1130 -0.2639 -0.0829
  515MPD2    C2 7649   3.062   3.344  15.116  0.2187 -0.1509  0.7296
  515MPD2    C3 7650   3.162   3.398  15.197  0.1077 -0.2160  1.4027
  515MPD2    C4 7651   3.122   3.456  15.320 -0.1770  0.1015  0.1994
  515MPD2    C5 7652   2.996   3.453  15.370 -0.9366 -0.4672  0.5942
  515MPD2     H 7653   3.093   3.285  15.030 -0.4154 -0.9972  1.0807
  515MPD2    H1 7654   3.192   3.492  15.394  0.9487  1.9844 -1.7749
  515MPD2    H2 7655   2.800   3.377  15.330  0.5832  2.2500  0.9150
  515MPD2    H3 7656   2.982   3.478  15.474  0.5552 -0.2591  0.7302
  515MPD2     N 7657   3.298   3.391  15.162  0.0826 -0.5414  0.3339
  515MPD2    H5 7658   3.365   3.415  15.234  0.4436  0.3238 -0.2887
  515MPD2    N1 7659   2.819   3.289  15.089 -0.3316 -0.3537  0.5664
  515MPD2    H7 7660   2.727   3.299  15.131 -0.7486  1.4147 -0.7537
  516TMC3    C1 7661   2.692   3.180  14.929  0.0765 -0.1830 -0.4206
  516TMC3    C2 7662   2.656   3.170  14.797 -0.2293  0.9044 -0.0008
  516TMC3    C3 7663   2.560   3.084  14.757  0.2252 -0.5915 -0.7997
  516TMC3    C4 7664   2.628   3.102  15.022 -0.5208  0.1228  0.3313
  516TMC3    C5 7665   2.526   3.013  14.978 -0.2987 -0.3139 -0.4858
  516TMC3    C6 7666   2.493   3.005  14.845  0.0167 -0.0801  0.4123
  516TMC3     C 7667   2.818   3.231  14.966  0.4950 -0.9123 -0.4304
  516TMC3     O 7668   2.913   3.211  14.895  0.3594  0.0955  0.0417
  516TMC3     H 7669   2.699   3.232  14.719  0.3812 -1.0763 -1.2514
  516TMC3    H1 7670   2.665   3.098  15.124 -0.0610  2.7396  0.2479
  516TMC3    H2 7671   2.405   2.958  14.802  0.6429 -0.4237 -0.5043
  516TMC3    C7 7672   2.458   2.929  15.074  0.3129 -0.5188  0.8021
  516TMC3    C8 7673   2.530   3.073  14.617  0.5189  0.1174  0.5534
  516TMC3    O1 7674   2.509   2.933  15.185 -0.5929 -0.0815 -0.3850
  516TMC3    O2 7675   2.530   3.177  14.549 -0.1479 -0.5937 -0.4219
  517MPD2     C 7676   3.086   0.425  17.534  0.2607 -0.7583 -0.1767
  517MPD2    C1 7677   3.163   0.335  17.610 -0.6901 -0.2274  0.3614
  517MPD2    C2 7678   3.225   0.371   0.026  0.0802 -0.6249  0.5180
  517MPD2    C3 7679   3.212   0.501   0.074  0.0218  0.5258  0.4471
  517MPD2    C4 7680   3.141   0.591   0.003 -0.6024 -0.3778 -0.2032
  517MPD2    C5 7681   3.074   0.551  17.587 -0.3886 -0.2243 -0.5906
  517MPD2     H 7682   3.297   0.302   0.068  0.2430 -2.0251 -2.0255
  517MPD2    H1 7683   3.139   0.697   0.025  0.5769 -0.4544  0.2644
  517MPD2    H2 7684   3.029   0.408  17.443  3.5378  1.2284 -2.6047
  517MPD2    H3 7685   3.033   0.629  17.524 -2.5738  1.0293  2.3843
  517MPD2     N 7686   3.286   0.554   0.181 -0.0867  0.3679  0.5309
  517MPD2    H5 7687   3.258   0.648   0.208  1.3670  1.5034 -1.8640
  517MPD2    N1 7688   3.202   0.205  17.563  0.2470  0.0468 -0.1751
  517MPD2    H7 7689   3.263   0.151  17.623 -1.0768 -1.3955 -0.1180
  518TMC3    C1 7690   3.210   0.004  17.438  0.2530 -0.5249  0.5119
  518TMC3    C2 7691   3.131   4.630  17.384 -0.1255 -0.2064 -0.9982
  518TMC3    C3 7692   3.181   4.503  17.368  0.6744  0.3971 -0.2369
  518TMC3    C4 7693   3.336   4.699  17.480  0.1485 -0.1101  0.6717
  518TMC3    C5 7694   3.385   4.568  17.474 -1.0609  0.2331  1.1463
  518TMC3    C6 7695   3.308   4.474  17.409  0.2828 -0.4801 -0.0260
  518TMC3     C 7696   3.169   0.143  17.447  0.0677 -0.7660  0.4152
  518TMC3     O 7697   3.121   0.199  17.348  0.2417 -0.9155  0.2560
  518TMC3     H 7698   3.032   4.650  17.343  1.2771  3.0921 -2.7489
  518TMC3    H1 7699   3.408   0.041  17.525 -0.6907  0.5436  1.0537
  518TMC3    H2 7700   3.344   4.372  17.403 -0.2526 -0.7001  0.5035
  518TMC3    C7 7701   3.516   4.542  17.536 -0.2659  0.5812  0.5713
  518TMC3    C8 7702   3.090   4.390  17.352  0.5042 -0.5537  0.0983
  518TMC3    O1 7703   3.582   4.634  17.588 -0.4388 -0.0601  0.2227
  518TMC3    O2 7704   3.145   4.291  17.309 -0.4044 -0.7327  0.9495
  519MPD2     C 7705   4.565   3.623  13.940 -0.3095 -0.3486 -0.4874
  519MPD2    C1 7706   4.508   3.503  13.981  0.0448  0.1557 -0.0023
  519MPD2    C2 7707   4.582   3.392  13.951  0.0104  0.2847 -0.4420
  519MPD2    C3 7708   4.698   3.389  13.876  0.3118 -0.0847  0.0481
  519MPD2    C4 7709   0.027   3.508  13.833 -0.0974 -0.0016 -0.9637
  519MPD2    C5 7710   4.685   3.623  13.872  0.4781 -0.1609  0.0493
  519MPD2     H 7711   4.546   3.297  13.988 -0.1863 -0.5988 -2.9256
  519MPD2    H1 7712   0.120   3.525  13.780  1.1162  1.8738  1.7213
  519MPD2    H2 7713   4.520   3.719  13.962 -0.6063 -0.9839  1.6814
  519MPD2    H3 7714   4.722   3.720  13.841 -0.2068 -0.1019 -0.5913
  519MPD2     N 7715   0.034   3.264  13.850 -0.2596  1.2059  0.2848
  519MPD2    H5 7716   0.089   3.255  13.765 -1.2650 -0.6302 -0.1667
  519MPD2    N1 7717   4.382   3.513  14.038  0.5107  0.2040  0.3037
  519MPD2    H7 7718   4.344   3.605  14.056  0.5098  0.4057 -0.7696
  520TMC3    C1 7719   0.013   3.032  13.845  0.0287 -0.6306 -0.1586
  520TMC3    C2 7720   4.697   3.036  13.714 -0.0040 -0.1448  0.0042
  520TMC3    C3 7721   4.718   2.923  13.645 -0.4808  0.7404 -0.2469
  520TMC3    C4 7722   0.057   2.917  13.906 -0.8329 -0.1880 -0.4097
  520TMC3    C5 7723   0.085   2.806  13.827  0.7044  0.6374 -0.0759
  520TMC3    C6 7724   0.048   2.805  13.698  0.4983  0.3342 -0.3221
  520TMC3     C 7725   0.015   3.149  13.926  0.4152 -0.5091  0.5294
  520TMC3     O 7726   4.693   3.132  14.035  0.2867  0.1532 -0.2554
  520TMC3     H 7727   4.654   3.125  13.670  1.2228 -0.7648 -2.4572
  520TMC3    H1 7728   0.082   2.914  14.012 -2.5335 -0.9849 -0.0271
  520TMC3    H2 7729   0.029   2.712  13.645  0.4032  0.0273  0.2463
  520TMC3    C7 7730   0.179   2.708  13.876 -0.1800 -0.1853  0.3899
  520TMC3    C8 7731   4.636   2.906  13.524  0.1972  0.3781 -0.6300
  520TMC3    O1 7732   0.191   2.687  13.995  0.2155  0.2020 -0.0171
  520TMC3    O2 7733   4.660   2.802  13.468  0.3407 -0.0191  0.0003
  521MPD2     C 7734   0.572   1.479  17.159 -0.4748  0.3545  0.3988
  521MPD2    C1 7735   0.538   1.357  17.101  0.2502  0.5116 -0.3739
  521MPD2    C2 7736   0.641   1.296  17.017  0.2475 -0.1010 -0.5228
  521MPD2    C3 7737   0.763   1.361  17.004 -0.1044  0.4182 -0.5769
  521MPD2    C4 7738   0.790   1.479  17.060  0.1215  0.0357  0.1866
  521MPD2    C5 7739   0.690   1.534  17.134  0.5265  0.3697 -0.3090
  521MPD2     H 7740   0.630   1.196  16.978 -1.8079 -0.8364  1.9296
  521MPD2    H1 7741   0.884   1.532  17.050  0.3840  0.1721  3.5665
  521MPD2    H2 7742   0.499   1.532  17.219 -0.2775  0.0293  0.9292
  521MPD2    H3 7743   0.703   1.637  17.164 -0.4608 -0.1480  1.8112
  521MPD2     N 7744   0.864   1.304  16.922  0.4873 -0.2045 -0.4358
  521MPD2    H5 7745   0.838   1.236  16.852 -2.4620 -0.4740  0.9138
  521MPD2    N1 7746   0.421   1.295  17.133 -0.9643 -0.3547 -0.8478
  521MPD2    H7 7747   0.358   1.339  17.200  1.1405  0.0767  0.8711
  522TMC3    C1 7748   1.087   1.243  16.863 -0.1705  0.2227  0.5073
  522TMC3    C2 7749   1.188   1.180  16.927  0.6232 -0.2712 -0.1545
  522TMC3    C3 7750   1.254   1.076  16.874 -0.6157 -0.6359  0.3092
  522TMC3    C4 7751   1.049   1.207  16.735  0.4211 -0.5097  0.1511
  522TMC3    C5 7752   1.122   1.103  16.676  0.0304  0.6734 -0.0456
  522TMC3    C6 7753   1.227   1.042  16.741  0.3971  0.0750  0.6353
  522TMC3     C 7754   0.997   1.312  16.950 -0.2682 -0.2112 -0.1926
  522TMC3     O 7755   1.048   1.360  17.048  0.0747 -0.6856 -0.2638
  522TMC3     H 7756   1.213   1.208  17.028 -2.4039 -2.1611  1.1091
  522TMC3    H1 7757   0.973   1.257  16.678 -0.4880  0.9748  2.6784
  522TMC3    H2 7758   1.274   0.959  16.689  1.9967  1.0391  0.5447
  522TMC3    C7 7759   1.098   1.064  16.540  0.5647  0.3069  0.0916
  522TMC3    C8 7760   1.347   1.006  16.960 -0.0083  0.1309 -0.4100
  522TMC3    O1 7761   1.189   1.011  16.479  0.7271  0.4931 -0.4354
  522TMC3    O2 7762   1.387   1.061  17.066 -0.2431  0.1921 -0.1525
  523MPD2     C 7763   2.724   1.113  10.131 -0.6312 -0.7001 -0.5752
  523MPD2    C1 7764   2.673   1.050  10.025  0.2828 -0.0505 -0.0788
  523MPD2    C2 7765   2.576   1.118   9.946  0.1484 -0.5947 -0.5623
  523MPD2    C3 7766   2.539   1.249   9.975  0.7750  0.1028 -0.8902
  523MPD2    C4 7767   2.602   1.307  10.078 -0.0812 -0.2122  0.0657
  523MPD2    C5 7768   2.694   1.241  10.156 -0.5765 -0.5397 -0.4470
  523MPD2     H 7769   2.521   1.058   9.875  0.3659 -1.2920 -0.1476
  523MPD2    H1 7770   2.583   1.407  10.116 -1.3914  0.7189 -3.0534
  523MPD2    H2 7771   2.803   1.067  10.188  1.4461  0.8257 -2.2282
  523MPD2    H3 7772   2.741   1.285  10.243 -0.6321 -1.5942  0.1241
  523MPD2     N 7773   2.444   1.323   9.903 -0.0160 -0.0764  0.3655
  523MPD2    H5 7774   2.416   1.412   9.943 -0.6074 -0.0225 -0.1855
  523MPD2    N1 7775   2.706   0.917  10.004 -0.6260 -0.2376 -0.5488
  523MPD2    H7 7776   2.745   0.864  10.081  0.1354  3.2968  1.4712
  524TMC3    C1 7777   2.317   1.395   9.711  0.1308  0.0245  0.5156
  524TMC3    C2 7778   2.376   1.432   9.590  0.1515  0.2038 -0.3070
  524TMC3    C3 7779   2.361   1.564   9.563 -0.2915  0.4936 -0.1450
  524TMC3    C4 7780   2.242   1.481   9.791 -0.1877  0.6812 -0.7577
  524TMC3    C5 7781   2.226   1.615   9.752  0.3662 -0.0206 -0.7897
  524TMC3    C6 7782   2.290   1.655   9.641  0.4405  0.7517  0.1662
  524TMC3     C 7783   2.404   1.291   9.774  0.2362 -0.0066 -0.3521
  524TMC3     O 7784   2.437   1.201   9.703 -0.1551  0.5482 -0.1451
  524TMC3     H 7785   2.471   1.391   9.560 -0.5373  0.1266 -2.3860
  524TMC3    H1 7786   2.181   1.446   9.873 -0.5116  0.5126 -1.0697
  524TMC3    H2 7787   2.294   1.760   9.613  1.8077  0.6022 -0.2066
  524TMC3    C7 7788   2.133   1.697   9.840  0.4793 -0.0242 -0.1771
  524TMC3    C8 7789   2.389   1.612   9.432 -0.7852  0.0994  0.0576
  524TMC3    O1 7790   2.090   1.647   9.943  0.3504 -0.1711 -0.1360
  524TMC3    O2 7791   2.378   1.735   9.410 -0.1350 -0.1053 -0.5896
  525MPD2     C 7792   0.784   2.591  14.057  0.2371 -0.7385  0.0790
  525MPD2    C1 7793   0.883   2.644  14.136  0.0437 -0.6086 -0.3858
  525MPD2    C2 7794   0.973   2.733  14.085  0.3995  0.3885  0.3146
  525MPD2    C3 7795   0.957   2.785  13.960 -0.2682 -0.0558 -0.1842
  525MPD2    C4 7796   0.852   2.747  13.885 -0.1099 -0.4173 -0.9392
  525MPD2    C5 7797   0.774   2.641  13.929  0.4667 -0.3005 -0.2886
  525MPD2     H 7798   1.056   2.764  14.147  1.6535 -1.5142 -0.3949
  525MPD2    H1 7799   0.831   2.784  13.785 -2.4855 -1.2279 -0.7335
  525MPD2    H2 7800   0.719   2.507  14.081 -0.7239 -0.4168 -1.3760
  525MPD2    H3 7801   0.688   2.612  13.871 -0.3273 -2.3595  1.9117
  525MPD2     N 7802   1.040   2.887  13.912  0.3174  0.0764  0.1480
  525MPD2    H5 7803   1.019   2.940  13.829 -2.8091 -1.1480  0.1665
  525MPD2    N1 7804   0.902   2.598  14.271 -0.0635  0.3539  0.2947
  525MPD2    H7 7805   0.986   2.636  14.314  0.4629  1.9010 -2.0784
  526TMC3    C1 7806   0.895   2.453  14.456  0.7134  0.5324  0.3195
  526TMC3    C2 7807   0.825   2.391  14.556  0.4766  0.1976 -0.2246
  526TMC3    C3 7808   0.888   2.319  14.654  0.7015  0.6497 -0.5240
  526TMC3    C4 7809   1.028   2.443  14.457  0.2522  0.2997 -0.4416
  526TMC3    C5 7810   1.088   2.370  14.560 -0.2961 -0.1366  0.8273
  526TMC3    C6 7811   1.024   2.296  14.658 -0.4453  0.5509  1.3736
  526TMC3     C 7812   0.834   2.496  14.333  0.0237 -0.4016 -0.0880
  526TMC3     O 7813   0.723   2.448  14.312  0.6156  0.8882 -0.2241
  526TMC3     H 7814   0.717   2.405  14.547  0.6436  0.3409 -1.8665
  526TMC3    H1 7815   1.087   2.490  14.379  0.1209 -1.2312 -1.4706
  526TMC3    H2 7816   1.062   2.258  14.752  1.7356 -0.3601  0.1316
  526TMC3    C7 7817   1.220   2.417  14.592 -0.2406 -1.1284 -0.2872
  526TMC3    C8 7818   0.829   2.320  14.785 -0.8308  0.0180 -0.3795
  526TMC3    O1 7819   1.253   2.536  14.565 -0.3818  0.2860  0.6517
  526TMC3    O2 7820   0.908   2.348  14.874  0.1125 -0.4535  0.6952
  527MPD2     C 7821   4.306   0.485   2.009  0.6553  0.5529 -0.1131
  527MPD2    C1 7822   4.320   0.591   1.921  0.6400  0.2292  0.9531
  527MPD2    C2 7823   4.385   0.565   1.802  0.4258  0.3414 -0.0869
  527MPD2    C3 7824   4.434   0.441   1.766  0.4371  0.1545  0.1979
  527MPD2    C4 7825   4.428   0.346   1.860  0.3051 -0.0087 -0.1226
  527MPD2    C5 7826   4.373   0.368   1.984 -0.0984 -0.6921  0.0207
  527MPD2     H 7827   4.389   0.647   1.730 -2.5941 -0.8773 -1.6386
  527MPD2    H1 7828   4.443   0.242   1.830  0.1920 -0.1435  0.2892
  527MPD2    H2 7829   4.257   0.496   2.105  2.0016  0.6978  0.5509
  527MPD2    H3 7830   4.369   0.288   2.057 -0.8684 -0.9181 -0.2753
  527MPD2     N 7831   4.478   0.409   1.633 -1.2717  0.5444 -0.4550
  527MPD2    H5 7832   4.511   0.316   1.613  0.3648  0.1935  3.7518
  527MPD2    N1 7833   4.253   0.720   1.934  0.1580 -0.8171 -0.7596
  527MPD2    H7 7834   4.244   0.776   1.850  0.6077  0.6551  0.1855
  528TMC3    C1 7835   4.115   0.885   2.024  0.3672  0.3422  0.3643
  528TMC3    C2 7836   4.190   0.990   1.977  0.4128  0.4699  0.3417
  528TMC3    C3 7837   4.139   1.118   1.985 -0.5292 -0.3840  0.1164
  528TMC3    C4 7838   3.978   0.903   2.042 -0.4294 -0.2703 -0.2719
  528TMC3    C5 7839   3.922   1.025   2.040  0.2927 -0.4603  0.6295
  528TMC3    C6 7840   4.004   1.132   2.023  0.3388 -1.0154  0.4600
  528TMC3     C 7841   4.180   0.762   2.045  0.5899  0.5574  0.1122
  528TMC3     O 7842   4.142   0.702   2.147 -0.1705  0.9571 -0.3638
  528TMC3     H 7843   4.296   0.972   1.968  0.4053  0.3093  0.5584
  528TMC3    H1 7844   3.927   0.811   2.070 -1.6777  1.5004  3.2917
  528TMC3    H2 7845   3.967   1.234   2.021 -0.3078 -1.2083  2.5786
  528TMC3    C7 7846   3.780   1.028   2.062 -0.0027  0.1017  0.5875
  528TMC3    C8 7847   4.227   1.229   2.008  0.3203 -0.5500 -0.1039
  528TMC3    O1 7848   3.722   0.918   2.064  0.1911 -0.2728 -0.2452
  528TMC3    O2 7849   4.338   1.235   1.953 -0.2588  0.1616  0.7377
  529MPD2     C 7850   0.674   3.387   1.237 -0.3539 -0.2986 -0.5908
  529MPD2    C1 7851   0.760   3.360   1.131  0.0993 -0.3568  1.5967
  529MPD2    C2 7852   0.716   3.405   1.005 -0.6627  1.0194 -0.2001
  529MPD2    C3 7853   0.583   3.455   0.977 -0.5575  0.2183  0.1290
  529MPD2    C4 7854   0.508   3.486   1.084 -0.6744  0.0471 -0.5393
  529MPD2    C5 7855   0.556   3.461   1.213 -0.2269 -0.2553 -0.2259
  529MPD2     H 7856   0.787   3.394   0.924  0.1264  1.4354  0.4340
  529MPD2    H1 7857   0.411   3.533   1.066  0.3218  1.4991 -2.1422
  529MPD2    H2 7858   0.715   3.367   1.336 -0.3058 -0.6105 -0.6750
  529MPD2    H3 7859   0.493   3.488   1.297 -3.2454 -2.6838 -1.6968
  529MPD2     N 7860   0.543   3.500   0.844 -0.1143  0.0377 -0.0863
  529MPD2    H5 7861   0.447   3.532   0.831 -1.5243 -4.2776 -0.2389
  529MPD2    N1 7862   0.889   3.304   1.147  0.7300 -0.2284  0.2549
  529MPD2    H7 7863   0.958   3.318   1.073  0.5157 -1.2258 -0.1350
  530TMC3    C1 7864   1.052   3.155   1.209 -0.0578 -0.6559 -0.3871
  530TMC3    C2 7865   1.151   3.237   1.167 -0.3297  0.5170  0.1638
  530TMC3    C3 7866   1.273   3.176   1.129 -0.4954  0.2873  0.1293
  530TMC3    C4 7867   1.070   3.020   1.231 -0.7305  0.7462 -0.6488
  530TMC3    C5 7868   1.187   2.966   1.180 -0.2142 -0.3575 -0.7362
  530TMC3    C6 7869   1.292   3.040   1.133 -1.3185  0.3152  0.6638
  530TMC3     C 7870   0.924   3.216   1.244 -0.0872  0.5613  0.3571
  530TMC3     O 7871   0.852   3.168   1.328  0.6893 -0.0901 -0.7803
  530TMC3     H 7872   1.130   3.343   1.172  0.4982  0.6465  0.9290
  530TMC3    H1 7873   0.976   2.972   1.253 -0.9355  1.6803  0.5350
  530TMC3    H2 7874   1.381   2.990   1.098 -0.1131  2.3105  0.9106
  530TMC3    C7 7875   1.193   2.827   1.160  0.4017 -0.2768 -0.2305
  530TMC3    C8 7876   1.389   3.256   1.094 -0.4775  0.0015  0.1640
  530TMC3    O1 7877   1.272   2.792   1.071  0.1972 -0.2138  0.0286
  530TMC3    O2 7878   1.365   3.372   1.067  0.3716 -0.6042  0.3559
  531MPD2     C 7879   4.032   1.169  12.972 -0.7903 -0.4331  0.2362
  531MPD2    C1 7880   3.962   1.274  13.020 -0.1952  0.0794  0.0239
  531MPD2    C2 7881   3.907   1.371  12.930  0.3583  0.9987 -0.5001
  531MPD2    C3 7882   3.905   1.333  12.791 -0.1824 -0.1682 -0.4200
  531MPD2    C4 7883   3.975   1.222  12.749 -0.7855 -0.9590 -0.0719
  531MPD2    C5 7884   4.043   1.140  12.835  0.6206  0.1789  0.2031
  531MPD2     H 7885   3.867   1.468  12.958  0.2498  1.2148 -1.4169
  531MPD2    H1 7886   3.986   1.205  12.642  2.1016  0.2557  0.0282
  531MPD2    H2 7887   4.074   1.094  13.039  1.2592  0.4131 -0.1093
  531MPD2    H3 7888   4.113   1.066  12.797 -1.3169 -1.4418 -0.2241
  531MPD2     N 7889   3.856   1.412  12.685 -0.3883 -0.0233 -0.2432
  531MPD2    H5 7890   3.886   1.387  12.592 -0.8830 -0.3156 -0.3205
  531MPD2    N1 7891   3.952   1.298  13.162  0.4293 -0.2662 -0.0672
  531MPD2    H7 7892   4.001   1.234  13.224  1.3854  2.3255  1.8666
  532TMC3    C1 7893   3.890   1.420  13.364 -0.0311 -0.8354 -0.4303
  532TMC3    C2 7894   3.787   1.493  13.413 -0.1850  0.1739  0.0907
  532TMC3    C3 7895   3.822   1.601  13.489  0.9015  0.8484 -0.4367
  532TMC3    C4 7896   4.025   1.438  13.400 -0.5645 -0.1521 -0.0147
  532TMC3    C5 7897   4.050   1.541  13.487 -1.1415 -0.4059  0.8514
  532TMC3    C6 7898   3.950   1.621  13.531 -0.5766 -0.6920  0.5053
  532TMC3     C 7899   3.874   1.405  13.221  0.3919 -0.6688  0.0123
  532TMC3     O 7900   3.793   1.481  13.167 -0.4984  0.0767  0.0390
  532TMC3     H 7901   3.689   1.470  13.374 -0.3336  0.7192  0.1375
  532TMC3    H1 7902   4.104   1.374  13.363 -0.5013  1.0117 -1.9174
  532TMC3    H2 7903   3.969   1.703  13.598 -0.8667 -1.9777  2.1599
  532TMC3    C7 7904   4.182   1.566  13.525 -0.3147  0.5307 -0.4804
  532TMC3    C8 7905   3.763   1.718  13.439  0.0436  0.0492 -0.4563
  532TMC3    O1 7906   4.205   1.559  13.642 -0.1821  0.4778  0.8882
  532TMC3    O2 7907   3.782   1.819  13.500 -0.0842 -0.7238  0.2077
  533TMC3    C1 7908   1.217   3.028  13.949  0.3493  0.9428 -0.3180
  533TMC3    C2 7909   1.350   3.038  13.985 -0.0718  0.1668 -0.1944
  533TMC3    C3 7910   1.383   3.145  14.062 -0.2269  0.7632 -0.3562
  533TMC3    C4 7911   1.121   3.119  13.985 -0.3891 -0.0784  0.6299
  533TMC3    C5 7912   1.152   3.229  14.057 -0.2632 -0.2297  0.5925
  533TMC3    C6 7913   1.286   3.240  14.091 -0.0036 -0.0950 -0.0757
  533TMC3     C 7914   1.168   2.895  13.963 -0.3816 -0.1838  0.0577
  533TMC3     O 7915   1.225   2.824  14.042 -0.0524 -0.3244 -0.2358
  533TMC3     H 7916   1.411   2.951  13.970 -0.3391 -0.5579  2.8369
  533TMC3    H1 7917   1.018   3.121  13.951 -0.0843  1.0523 -0.2453
  533TMC3    H2 7918   1.318   3.336  14.130 -1.9530 -0.0604  1.4482
  533TMC3    C7 7919   1.063   3.241  14.175  0.2001 -0.2202  0.2758
  533TMC3    C8 7920   1.518   3.156  14.116 -0.0154 -0.1249  0.0524
  533TMC3    O1 7921   0.953   3.192  14.158 -0.3864  0.0948  0.0567
  533TMC3    O2 7922   1.552   3.269  14.151 -0.2025  0.0322 -0.5028
  534MPD2     C 7923   3.731   4.046   2.119 -0.2377  0.6599  0.1506
  534MPD2    C1 7924   3.723   4.142   2.024  0.0591 -0.1907 -0.1475
  534MPD2    C2 7925   3.609   4.144   1.940 -0.2023 -0.0126  0.0380
  534MPD2    C3 7926   3.521   4.042   1.936 -0.1670 -0.0370 -0.4222
  534MPD2    C4 7927   3.519   3.960   2.047 -0.0765 -0.1268  0.0113
  534MPD2    C5 7928   3.625   3.955   2.138  0.0869  0.1770  0.1903
  534MPD2     H 7929   3.599   4.224   1.869  1.7138  0.2802  0.0804
  534MPD2    H1 7930   3.440   3.886   2.045 -0.5670  0.4824 -3.4323
  534MPD2    H2 7931   3.801   4.059   2.201 -0.3529  0.4319  0.2855
  534MPD2    H3 7932   3.628   3.890   2.225  1.1469 -1.5427 -1.1036
  534MPD2     N 7933   3.427   4.023   1.830  0.0249  0.1762  0.7673
  534MPD2    H5 7934   3.358   3.948   1.834  1.1673 -0.8895  0.5843
  534MPD2    N1 7935   3.814   4.244   2.008  0.0099  0.3921  0.0086
  534MPD2    H7 7936   3.796   4.315   1.938 -1.6875  0.7376  0.7824
  535TMC3    C1 7937   3.373   4.020   1.601  0.1729  0.2810 -0.4741
  535TMC3    C2 7938   3.272   3.925   1.631 -0.0453 -0.2960  0.2301
  535TMC3    C3 7939   3.261   3.813   1.557 -0.3118  0.2741  0.8878
  535TMC3    C4 7940   3.433   4.014   1.479  0.0760  0.1931  0.8739
  535TMC3    C5 7941   3.406   3.899   1.408  1.5643  0.3079 -0.0642
  535TMC3    C6 7942   3.338   3.785   1.449  0.0146 -0.7978  0.5548
  535TMC3     C 7943   3.440   4.086   1.708 -0.3672 -0.5835 -0.3264
  535TMC3     O 7944   3.519   4.170   1.668 -0.0765 -0.0642  0.4569
  535TMC3     H 7945   3.209   3.937   1.718  0.3403 -2.2564  0.7655
  535TMC3    H1 7946   3.520   4.069   1.446 -1.0260  0.9356 -0.7709
  535TMC3    H2 7947   3.311   3.702   1.384 -0.1473  0.4000 -0.9010
  535TMC3    C7 7948   3.478   3.886   1.285 -0.2422  0.2624 -0.5859
  535TMC3    C8 7949   3.139   3.721   1.564 -0.0128  0.8669 -0.5211
  535TMC3    O1 7950   3.504   3.770   1.253  0.0568  0.0009  0.4646
  535TMC3    O2 7951   3.122   3.631   1.483 -0.3150  0.2469 -0.1978
  536MPD2     C 7952   2.564   2.712  16.001 -0.4827  0.0643  0.5621
  536MPD2    C1 7953   2.435   2.664  16.013 -0.1392 -0.0070 -0.0627
  536MPD2    C2 7954   2.347   2.686  15.905  0.4845  0.7421  0.2144
  536MPD2    C3 7955   2.384   2.757  15.789  0.8499  0.7213 -0.1504
  536MPD2    C4 7956   2.515   2.789  15.779  0.3144 -0.4621  0.0860
  536MPD2    C5 7957   2.603   2.760  15.879  0.0514 -0.2502 -0.1752
  536MPD2     H 7958   2.251   2.636  15.912  1.4975 -1.1360  0.8318
  536MPD2    H1 7959   2.560   2.825  15.687 -1.6474 -0.0141 -0.6964
  536MPD2    H2 7960   2.636   2.725  16.081 -1.0025 -0.6305  1.1385
  536MPD2    H3 7961   2.704   2.798  15.868  0.4825 -0.8233  1.7169
  536MPD2     N 7962   2.302   2.776  15.679 -0.1179  0.1733 -0.6469
  536MPD2    H5 7963   2.342   2.819  15.596 -1.1718  1.4145 -0.5062
  536MPD2    N1 7964   2.412   2.598  16.137 -0.7198 -0.0964  0.0592
  536MPD2    H7 7965   2.493   2.604  16.198  0.4694  0.8617 -1.6238
  537TMC3    C1 7966   2.293   2.480  16.300  0.1646  0.1781 -0.1606
  537TMC3    C2 7967   2.352   2.561  16.394  0.0137 -0.2863 -0.4221
  537TMC3    C3 7968   2.387   2.510  16.516 -0.9098  0.2608  0.1277
  537TMC3    C4 7969   2.248   2.353  16.329  0.1462 -0.0271 -0.1227
  537TMC3    C5 7970   2.274   2.310  16.454  0.2865  0.0458 -0.1209
  537TMC3    C6 7971   2.348   2.382  16.546 -0.2549 -0.3623  0.2165
  537TMC3     C 7972   2.298   2.525  16.164  1.2312 -0.6602  0.1765
  537TMC3     O 7973   2.204   2.498  16.089 -0.7440 -0.5598 -0.6235
  537TMC3     H 7974   2.382   2.659  16.359  0.7508 -0.4641 -0.2942
  537TMC3    H1 7975   2.186   2.296  16.261 -1.3382 -0.8555  1.9430
  537TMC3    H2 7976   2.391   2.335  16.634 -0.4108  0.9959  1.0078
  537TMC3    C7 7977   2.223   2.180  16.493  0.5476  0.9177 -0.2095
  537TMC3    C8 7978   2.431   2.591  16.631 -0.6833  0.3485 -0.6951
  537TMC3    O1 7979   2.171   2.111  16.408 -0.1550 -0.1896 -0.1424
  537TMC3    O2 7980   2.427   2.537  16.739 -0.5853 -0.3531 -0.2413
  538TMC3    C1 7981   3.741   0.956  10.785  0.0420  1.0193 -0.4626
  538TMC3    C2 7982   3.810   0.948  10.664  0.2531  0.4435  0.0127
  538TMC3    C3 7983   3.744   0.968  10.543  1.5942  0.4153  0.1330
  538TMC3    C4 7984   3.608   0.984  10.791  0.3309  0.2760 -0.3158
  538TMC3    C5 7985   3.552   1.019  10.675  1.2254 -0.4618  0.8276
  538TMC3    C6 7986   3.611   1.003  10.548  0.5330  0.0502 -0.4073
  538TMC3     C 7987   3.822   0.979  10.901 -0.1426  0.1334  0.3432
  538TMC3     O 7988   3.790   1.070  10.972  0.0893  0.3091  0.4131
  538TMC3     H 7989   3.918   0.941  10.662  0.3500  1.7068  1.4937
  538TMC3    H1 7990   3.574   1.015  10.889 -0.6672  0.4009 -0.7054
  538TMC3    H2 7991   3.563   1.021  10.452  0.6649 -0.7934 -0.6273
  538TMC3    C7 7992   3.417   1.054  10.681 -0.4189 -0.0184 -0.5737
  538TMC3    C8 7993   3.814   0.994  10.423  0.2903  0.5530  0.2846
  538TMC3    O1 7994   3.341   0.986  10.749  0.3167 -0.4481 -0.0914
  538TMC3    O2 7995   3.775   1.090  10.359 -0.0460  0.0879 -0.1084
  539MPD2     C 7996   3.372   0.635  11.545  0.9305  0.2576  0.0268
  539MPD2    C1 7997   3.324   0.559  11.440 -0.1281  0.0692  0.0030
  539MPD2    C2 7998   3.190   0.576  11.402  0.2413 -0.4250 -0.3861
  539MPD2    C3 7999   3.111   0.671  11.472 -0.1510 -0.3838 -0.3367
  539MPD2    C4 8000   3.167   0.739  11.578  0.5422  0.1725  0.0135
  539MPD2    C5 8001   3.295   0.722  11.615  0.0705  0.0339  0.3894
  539MPD2     H 8002   3.154   0.501  11.333  1.4056 -0.9565 -0.4158
  539MPD2    H1 8003   3.102   0.807  11.633 -1.1300 -2.8026  1.6967
  539MPD2    H2 8004   3.472   0.617  11.583 -0.5130 -2.1004  2.6302
  539MPD2    H3 8005   3.334   0.782  11.697  1.3805 -0.9249  0.4628
  539MPD2     N 8006   2.973   0.698  11.448  0.0934  0.2200  0.6024
  539MPD2    H5 8007   2.918   0.761  11.505 -0.2379 -1.0364  1.6674
  539MPD2    N1 8008   3.396   0.456  11.372  0.2726 -0.3939 -0.1707
  539MPD2    H7 8009   3.349   0.401  11.301  1.4878 -0.2293 -1.0837
  540TMC3    C1 8010   2.769   0.697  11.320 -0.1175  0.1294 -0.0855
  540TMC3    C2 8011   2.703   0.724  11.197  0.1976  0.2135 -0.2286
  540TMC3    C3 8012   2.567   0.721  11.187 -0.5508 -0.7159 -0.2188
  540TMC3    C4 8013   2.691   0.679  11.435 -0.0909 -0.3172 -0.1188
  540TMC3    C5 8014   2.555   0.693  11.420  0.2144  0.0496  0.4505
  540TMC3    C6 8015   2.495   0.706  11.298  0.3588 -0.4330 -0.0688
  540TMC3     C 8016   2.911   0.660  11.325 -0.6762 -0.2583 -0.3968
  540TMC3     O 8017   2.961   0.610  11.223 -0.3614  0.8939 -0.3049
  540TMC3     H 8018   2.774   0.750  11.120  0.7777 -1.4244 -0.2458
  540TMC3    H1 8019   2.724   0.627  11.525 -2.6986  0.5461  1.3276
  540TMC3    H2 8020   2.393   0.741  11.299  0.1122 -1.1567 -0.5403
  540TMC3    C7 8021   2.474   0.720  11.538 -0.3998 -0.4864  0.8706
  540TMC3    C8 8022   2.503   0.724  11.053  0.1617  0.5946 -1.0254
  540TMC3    O1 8023   2.359   0.685  11.533  0.5015  0.3093 -0.0387
  540TMC3    O2 8024   2.396   0.784  11.044  0.1936  0.7244 -0.2619
  541MPD2     C 8025   2.150   2.121  13.131 -0.1364 -0.2043  0.4326
  541MPD2    C1 8026   2.054   2.047  13.071  0.1539  0.5290  0.2398
  541MPD2    C2 8027   1.978   2.099  12.967 -0.3600  0.2002  0.0485
  541MPD2    C3 8028   2.004   2.224  12.917  0.1698 -0.5085  0.0120
  541MPD2    C4 8029   2.094   2.303  12.987  0.0780  0.6038 -0.0496
  541MPD2    C5 8030   2.170   2.246  13.083  0.7793 -0.3335 -0.6100
  541MPD2     H 8031   1.890   2.043  12.937  0.4877 -0.6235 -0.8774
  541MPD2    H1 8032   2.122   2.403  12.957 -0.2675  1.3263  2.0608
  541MPD2    H2 8033   2.206   2.079  13.214  1.5582 -0.5679 -0.9008
  541MPD2    H3 8034   2.248   2.302  13.133 -0.3368  2.5743 -2.1446
  541MPD2     N 8035   1.929   2.290  12.824  0.5184 -0.7229  0.9188
  541MPD2    H5 8036   1.953   2.388  12.811 -0.7479 -0.6478 -0.8430
  541MPD2    N1 8037   2.016   1.919  13.121  0.3544 -0.0071 -0.2714
  541MPD2    H7 8038   1.929   1.884  13.081  0.1327  0.9898 -0.6628
  542TMC3    C1 8039   1.750   2.325  12.671  0.4641 -0.6574  0.3371
  542TMC3    C2 8040   1.641   2.272  12.606  0.0231 -0.3699 -0.2239
  542TMC3    C3 8041   1.539   2.361  12.568 -0.1047  0.8029 -0.0371
  542TMC3    C4 8042   1.788   2.455  12.673 -0.3318 -0.2903 -0.2480
  542TMC3    C5 8043   1.686   2.538  12.632 -0.5941  1.2638 -0.0403
  542TMC3    C6 8044   1.572   2.496  12.577 -0.0301  0.0225 -0.2175
  542TMC3     C 8045   1.824   2.234  12.758  0.5766  0.0145 -0.3959
  542TMC3     O 8046   1.780   2.119  12.761  0.3221 -0.4520 -0.2347
  542TMC3     H 8047   1.616   2.166  12.602  0.5415 -0.3949 -2.9358
  542TMC3    H1 8048   1.873   2.499  12.724 -1.4291  0.1459  1.2294
  542TMC3    H2 8049   1.512   2.561  12.514 -0.2372  1.4911  1.5042
  542TMC3    C7 8050   1.710   2.678  12.659  0.3929  0.1918  1.2832
  542TMC3    C8 8051   1.457   2.306  12.461 -0.1017  0.2390  0.7952
  542TMC3    O1 8052   1.826   2.714  12.693 -0.2595  0.6867  0.2251
  542TMC3    O2 8053   1.483   2.194  12.423 -0.6590 -0.0837 -0.4145
  543TMC3    C1 8054   1.262   3.529  17.082  0.1662 -0.2563 -0.2452
  543TMC3    C2 8055   1.271   3.414  17.155 -0.9360 -0.5459 -0.4120
  543TMC3    C3 8056   1.197   3.403  17.268 -0.5762  0.3986 -0.9162
  543TMC3    C4 8057   1.168   3.622  17.111  0.0727 -0.0319  1.1774
  543TMC3    C5 8058   1.106   3.614  17.235 -0.3950 -0.0238 -0.6202
  543TMC3    C6 8059   1.106   3.502  17.313 -0.0409 -0.2004  0.0889
  543TMC3     C 8060   1.318   3.512  16.950  0.7701 -0.5364 -0.1311
  543TMC3     O 8061   1.419   3.443  16.939 -0.3175 -0.6273  0.6074
  543TMC3     H 8062   1.349   3.343  17.127  0.1094  0.4488  0.0007
  543TMC3    H1 8063   1.170   3.709  17.046 -0.5270 -1.2123 -0.4093
  543TMC3    H2 8064   1.039   3.483  17.396  0.0012  0.4885  0.2761
  543TMC3    C7 8065   1.039   3.740  17.277 -0.2754 -0.3276  0.5798
  543TMC3    C8 8066   1.209   3.278  17.340  0.5392  0.7270 -0.1663
  543TMC3    O1 8067   1.020   3.824  17.188  0.0679  0.2071  0.0141
  543TMC3    O2 8068   1.289   3.196  17.296 -0.6255 -0.5896 -0.6670
  544MPD2     C 8069   1.163   2.979   0.044 -0.1104  0.3653  0.5301
  544MPD2    C1 8070   1.211   2.950  17.617 -0.0039 -0.0852  0.6446
  544MPD2    C2 8071   1.188   3.047  17.523  0.3922  0.0034 -0.3832
  544MPD2    C3 8072   1.138   3.172  17.551  0.6142  0.0792  0.3454
  544MPD2    C4 8073   1.093   3.204  17.676  0.3328  0.3991  0.9491
  544MPD2    C5 8074   1.105   3.103   0.071  0.0277 -0.0731  0.7794
  544MPD2     H 8075   1.219   3.026  17.421  0.0642 -2.0440 -0.0683
  544MPD2    H1 8076   1.051   3.302  17.693  0.6979  1.0233 -1.7766
  544MPD2    H2 8077   1.156   2.909   0.126  0.2046 -0.3123 -0.0285
  544MPD2    H3 8078   1.056   3.118   0.166 -0.0028 -1.9021  1.0500
  544MPD2     N 8079   1.138   3.276  17.455  0.1263  0.5649  0.1657
  544MPD2    H5 8080   1.099   3.363  17.489  1.3883  2.0522 -2.1657
  544MPD2    N1 8081   1.268   2.825  17.595 -0.1790  0.9307 -0.2260
  544MPD2    H7 8082   1.275   2.766  17.677 -1.1104  0.7911 -0.2524
  545TMC3    C1 8083   1.368   2.651  17.483 -0.2618  0.0364  0.5861
  545TMC3    C2 8084   1.403   2.593  17.368  0.1631 -0.9825 -0.0940
  545TMC3    C3 8085   1.432   2.457  17.365  0.0959 -0.2718  0.0689
  545TMC3    C4 8086   1.352   2.571  17.598  0.5226 -0.5895  0.3842
  545TMC3    C5 8087   1.382   2.444  17.590 -0.1931  0.4633  0.2471
  545TMC3    C6 8088   1.439   2.383  17.481 -0.3791 -0.0648 -0.5798
  545TMC3     C 8089   1.332   2.791  17.482  0.8750  0.0787  0.1495
  545TMC3     O 8090   1.372   2.860  17.391 -0.3442  0.2776  0.7376
  545TMC3     H 8091   1.386   2.645  17.274 -0.6674  2.0989  1.7419
  545TMC3    H1 8092   1.304   2.601  17.691 -0.5034  1.0543 -0.6847
  545TMC3    H2 8093   1.445   2.275  17.471 -2.1069 -0.3532  1.5596
  545TMC3    C7 8094   1.342   2.364   0.004 -0.0505 -0.3423 -0.3835
  545TMC3    C8 8095   1.413   2.387  17.236 -0.6672  0.4329  0.0220
  545TMC3    O1 8096   1.262   2.408   0.082 -0.0705 -0.2341  0.0970
  545TMC3    O2 8097   1.326   2.437  17.165  0.4714 -0.2739 -0.2737
  546MPD2     C 8098   2.536   2.976  17.528 -0.6549 -0.1806  0.4397
  546MPD2    C1 8099   2.519   3.020  17.397  0.2746 -0.4308  0.0215
  546MPD2    C2 8100   2.583   3.136  17.352  0.0683  0.8538 -0.2457
  546MPD2    C3 8101   2.661   3.214  17.437  0.0171 -0.3514  0.4893
  546MPD2    C4 8102   2.689   3.167  17.564  0.3768  0.3461  0.3424
  546MPD2    C5 8103   2.616   3.058  17.611  0.7263 -0.2034 -0.3530
  546MPD2     H 8104   2.549   3.174  17.257  0.0897 -0.1874 -0.6644
  546MPD2    H1 8105   2.751   3.221  17.635  1.1908 -0.8832  0.5637
  546MPD2    H2 8106   2.488   2.888  17.567 -1.1864  0.9536  2.3607
  546MPD2    H3 8107   2.636   3.029   0.014  0.0670  0.0025 -0.1699
  546MPD2     N 8108   2.710   3.339  17.396  0.0920 -0.4389  0.4144
  546MPD2    H5 8109   2.750   3.392  17.472  1.5217 -0.3349 -0.4104
  546MPD2    N1 8110   2.443   2.937  17.308 -0.5090 -0.0540  0.1620
  546MPD2    H7 8111   2.418   2.844  17.339 -2.5853  1.1928  2.2480
  547TMC3    C1 8112   2.363   2.837  17.106 -0.1409 -0.1133  0.2458
  547TMC3    C2 8113   2.271   2.865  17.008 -0.7305 -0.3493  0.1180
  547TMC3    C3 8114   2.181   2.767  16.971  0.0203  0.1702 -0.5196
  547TMC3    C4 8115   2.369   2.716  17.164  0.3513 -0.4087 -0.5083
  547TMC3    C5 8116   2.282   2.616  17.117 -0.0637  0.1738  0.4787
  547TMC3    C6 8117   2.184   2.642  17.028  0.5595 -0.1140  0.3021
  547TMC3     C 8118   2.431   2.955  17.172  0.0128  0.4202  0.5564
  547TMC3     O 8119   2.431   3.059  17.112  0.0709 -0.2943  0.0887
  547TMC3     H 8120   2.290   2.950  16.943 -0.5914 -0.1096  0.4716
  547TMC3    H1 8121   2.452   2.691  17.230 -0.8565  0.2396  1.2725
  547TMC3    H2 8122   2.106   2.568  17.016 -0.8039  1.5338 -0.9267
  547TMC3    C7 8123   2.265   2.501  17.201  0.3338 -0.6197  0.0531
  547TMC3    C8 8124   2.083   2.798  16.866 -0.0845 -0.4822 -0.3613
  547TMC3    O1 8125   2.306   2.523  17.313 -0.3447 -0.0940 -0.2908
  547TMC3    O2 8126   2.063   2.919  16.841  0.2064  0.2251 -0.0024
  548MPD2     C 8127   2.675   3.838  12.253 -0.3947  0.1701 -0.1537
  548MPD2    C1 8128   2.631   3.741  12.343  0.4680 -0.7970 -0.5168
  548MPD2    C2 8129   2.714   3.632  12.377  0.5452 -0.9114 -0.0988
  548MPD2    C3 8130   2.823   3.615  12.292 -0.0150 -0.4114  0.1438
  548MPD2    C4 8131   2.857   3.707  12.183  0.2653  0.3680  0.0595
  548MPD2    C5 8132   2.787   3.825  12.178  0.5300 -0.7411 -0.1794
  548MPD2     H 8133   2.683   3.554  12.445 -0.5546  0.9264  1.5176
  548MPD2    H1 8134   2.934   3.696  12.107 -1.8258  1.4583 -2.2238
  548MPD2    H2 8135   2.615   3.923  12.224  0.0929  1.0689  1.4734
  548MPD2    H3 8136   2.806   3.897  12.099  1.2572 -2.8233 -1.9115
  548MPD2     N 8137   2.911   3.506  12.312  0.3407  0.1895 -0.5467
  548MPD2    H5 8138   2.884   3.438  12.382  0.7963  0.5822  0.0070
  548MPD2    N1 8139   2.505   3.770  12.400 -0.2149 -0.3605 -0.0744
  548MPD2    H7 8140   2.453   3.854  12.377  1.2170  0.6713  0.4093
  549TMC3    C1 8141   2.297   3.715  12.502 -0.3375 -0.4208 -0.3762
  549TMC3    C2 8142   2.252   3.843  12.482 -0.0454  0.2597  0.3813
  549TMC3    C3 8143   2.119   3.867  12.497  0.1136 -0.5639  1.1745
  549TMC3    C4 8144   2.214   3.615  12.525  0.0508  0.5700  0.3898
  549TMC3    C5 8145   2.082   3.640  12.539 -0.3844  0.5753  1.4285
  549TMC3    C6 8146   2.028   3.770  12.527 -0.2760  0.1941 -0.0407
  549TMC3     C 8147   2.432   3.673  12.463 -0.0309  0.9615 -0.2745
  549TMC3     O 8148   2.463   3.555  12.475 -0.2379 -0.0288  0.0731
  549TMC3     H 8149   2.314   3.931  12.493  0.3907 -0.1895  1.4745
  549TMC3    H1 8150   2.248   3.513  12.538 -0.8265  0.2647  0.3017
  549TMC3    H2 8151   1.924   3.789  12.550  0.0190  0.6299  0.9539
  549TMC3    C7 8152   1.988   3.536  12.544  0.4089 -0.1700 -0.7679
  549TMC3    C8 8153   2.086   4.004  12.538 -0.4538  0.0391  0.2252
  549TMC3    O1 8154   1.869   3.572  12.560 -0.0259 -0.1123 -0.0884
  549TMC3    O2 8155   2.161   4.064  12.617  0.6381 -0.2965  0.1001
  550TMC3    C1 8156   0.393   1.798  12.675 -0.7531  0.7211  0.3410
  550TMC3    C2 8157   0.350   1.920  12.718 -0.2229  0.3422  0.4675
  550TMC3    C3 8158   0.386   2.027  12.646  0.1687  0.4157  0.3628
  550TMC3    C4 8159   0.452   1.783  12.553  0.0311 -0.2591  0.5000
  550TMC3    C5 8160   0.465   1.895  12.471 -0.1503  0.4114  0.4778
  550TMC3    C6 8161   0.424   2.018  12.516 -0.3612 -0.0671  0.8049
  550TMC3     C 8162   0.315   1.681  12.712 -0.2302  0.2469  0.5523
  550TMC3     O 8163   0.269   1.671  12.825  0.2222  0.0398  0.2203
  550TMC3     H 8164   0.289   1.927  12.807  0.0507  2.1400  0.5078
  550TMC3    H1 8165   0.499   1.696  12.508  2.9331  1.1487  0.7818
  550TMC3    H2 8166   0.451   2.111  12.466 -1.1428 -1.5744 -2.4456
  550TMC3    C7 8167   0.418   1.856  12.344 -0.1707 -0.6709  0.3117
  550TMC3    C8 8168   0.365   2.160  12.698  0.2897  0.7752 -0.7401
  550TMC3    O1 8169   0.345   1.761  12.347  0.0724  0.0784 -0.4056
  550TMC3    O2 8170   0.342   2.258  12.625 -0.1088  0.0795  0.2640
  551TMC3    C1 8171   3.501   3.892  13.228  0.7211 -0.8444 -0.3973
  551TMC3    C2 8172   3.632   3.922  13.204 -0.1265  0.9025 -0.6712
  551TMC3    C3 8173   3.705   3.962  13.315 -0.3400 -1.1563  0.4357
  551TMC3    C4 8174   3.436   3.916  13.350  0.3097 -0.0858 -0.4732
  551TMC3    C5 8175   3.525   3.947  13.456  0.2759  0.0088 -0.1999
  551TMC3    C6 8176   3.660   3.954  13.442  0.0020  0.2660 -0.9493
  551TMC3     C 8177   3.429   3.865  13.107  0.4091 -0.6269  0.3857
  551TMC3     O 8178   3.490   3.801  13.025  0.6927  0.3852  0.4768
  551TMC3     H 8179   3.674   3.916  13.105 -1.6132  1.3902 -1.3202
  551TMC3    H1 8180   3.331   3.890  13.360  0.7800 -1.4166  0.9919
  551TMC3    H2 8181   3.725   3.961  13.528 -1.4920  0.7806  0.1400
  551TMC3    C7 8182   3.465   3.973  13.588 -0.1425 -0.8801  0.6482
  551TMC3    C8 8183   3.828   4.032  13.298 -0.5701  0.5628 -0.7663
  551TMC3    O1 8184   3.527   3.943  13.690 -0.0460  0.8469  0.0975
  551TMC3    O2 8185   3.918   4.015  13.374  0.0683  0.0501 -0.2764
  552MPD2     C 8186   0.224   1.069  14.413  0.1169 -0.0421  0.3712
  552MPD2    C1 8187   0.315   1.155  14.366  0.6254 -0.1355  0.4714
  552MPD2    C2 8188   0.442   1.176  14.423 -0.2461  0.0628  0.5632
  552MPD2    C3 8189   0.472   1.113  14.539 -0.2132 -0.3151  0.7858
  552MPD2    C4 8190   0.376   1.037  14.597 -0.2792  0.3896  0.3593
  552MPD2    C5 8191   0.252   1.016  14.533 -0.0111  0.5336  0.0142
  552MPD2     H 8192   0.509   1.234  14.361 -1.5761  0.5455 -0.4233
  552MPD2    H1 8193   0.393   0.993  14.694 -4.5885  0.1286  1.0204
  552MPD2    H2 8194   0.130   1.045  14.366  0.4704 -1.8094  0.5646
  552MPD2    H3 8195   0.173   0.958  14.579  1.0520 -1.0205 -0.1288
  552MPD2     N 8196   0.597   1.123  14.600 -0.0007  0.0161 -0.0623
  552MPD2    H5 8197   0.607   1.085  14.694 -0.3720 -0.8533 -0.3763
  552MPD2    N1 8198   0.294   1.217  14.241  0.2653 -0.1512 -0.8584
  552MPD2    H7 8199   0.372   1.275  14.209 -0.6449  0.1259 -2.5575
  553TMC3    C1 8200   0.228   1.224  14.022 -0.5149 -0.0463  1.0133
  553TMC3    C2 8201   0.129   1.247  13.927  0.4167 -0.3711  0.2370
  553TMC3    C3 8202   0.160   1.233  13.796  0.3158  0.5432  0.1779
  553TMC3    C4 8203   0.356   1.196  13.986 -0.3243  0.0119 -0.4240
  553TMC3    C5 8204   0.380   1.187  13.854  0.8730  0.3911 -0.3445
  553TMC3    C6 8205   0.290   1.215  13.756 -0.7928  0.1809  0.2934
  553TMC3     C 8206   0.189   1.185  14.157 -0.8252 -0.4006  0.4502
  553TMC3     O 8207   0.070   1.166  14.184 -0.2236 -0.4953 -0.7085
  553TMC3     H 8208   0.030   1.279  13.957  0.4318  2.9159 -3.2267
  553TMC3    H1 8209   0.431   1.148  14.048 -1.0390  0.0288  0.4497
  553TMC3    H2 8210   0.316   1.185  13.655 -1.9085  1.3246 -0.3274
  553TMC3    C7 8211   0.515   1.217  13.826  0.6397 -0.4945 -0.0443
  553TMC3    C8 8212   0.079   1.275  13.692  0.0613 -0.3796 -0.2019
  553TMC3    O1 8213   0.602   1.164  13.900  0.2389 -0.0531 -0.7138
  553TMC3    O2 8214   0.138   1.328  13.601 -0.3133  0.2945  0.2722
  554TMC3    C1 8215   2.064   0.579  11.528 -0.0236  0.3012 -0.4285
  554TMC3    C2 8216   2.036   0.500  11.419 -0.3440  0.5846  0.3266
  554TMC3    C3 8217   1.998   0.571  11.309 -0.5841  0.4781 -0.1682
  554TMC3    C4 8218   2.059   0.718  11.529 -0.6632 -0.7722  0.4213
  554TMC3    C5 8219   2.022   0.780  11.411 -0.2507  0.0813  0.5354
  554TMC3    C6 8220   1.997   0.705  11.299  0.7186 -0.5299  1.0929
  554TMC3     C 8221   2.063   0.520  11.658  0.2045  0.2151 -0.3171
  554TMC3     O 8222   2.060   0.596  11.753 -0.6000 -0.2090  0.7635
  554TMC3     H 8223   2.028   0.392  11.424 -3.7261  0.6783 -2.6255
  554TMC3    H1 8224   2.089   0.780  11.613 -1.7615  2.6333 -1.7328
  554TMC3    H2 8225   1.969   0.754  11.206 -1.0909 -2.0722  0.8082
  554TMC3    C7 8226   2.096   0.903  11.375  0.5432 -0.0421 -0.4482
  554TMC3    C8 8227   1.999   0.510  11.180  0.5340 -0.1519  0.4130
  554TMC3    O1 8228   2.062   0.957  11.272  0.7488 -0.1686  0.3749
  554TMC3    O2 8229   2.020   0.588  11.087 -0.9343  0.5171 -0.2577
  555TMC3    C1 8230   1.252   4.399  15.094  0.3991 -0.2443  0.0422
  555TMC3    C2 8231   1.188   4.500  15.165  0.3438  0.2407 -0.2303
  555TMC3    C3 8232   1.170   4.467  15.301 -0.5973  0.1612 -0.1819
  555TMC3    C4 8233   1.310   4.281  15.138  0.1222  0.0588  0.2635
  555TMC3    C5 8234   1.295   4.265  15.269 -0.4281 -1.0056  0.5186
  555TMC3    C6 8235   1.219   4.349  15.349  0.3492 -0.4844 -0.4427
  555TMC3     C 8236   1.277   4.438  14.956 -0.1957 -0.6082  0.8242
  555TMC3     O 8237   1.373   4.385  14.911 -0.7120 -0.7228 -0.2407
  555TMC3     H 8238   1.150   4.588  15.115  0.2326  0.5133  0.3383
  555TMC3    H1 8239   1.346   4.207  15.068  0.3491 -0.4935  0.9564
  555TMC3    H2 8240   1.223   4.344  15.457  0.2503  1.4768 -0.3558
  555TMC3    C7 8241   1.323   4.129  15.312  0.2599  0.0166 -0.0177
  555TMC3    C8 8242   1.182   4.581  15.394 -0.2127 -0.0927  0.3088
  555TMC3    O1 8243   1.257   4.092  15.407  0.3430  0.1130 -0.3219
  555TMC3    O2 8244   1.094   4.665  15.396 -0.3758 -0.6388  0.2124
  556MPD2     C 8245   0.187   0.862  10.485  0.3458 -0.3842 -0.2455
  556MPD2    C1 8246   0.054   0.879  10.507  0.5598 -0.6846 -0.3305
  556MPD2    C2 8247   4.687   0.786  10.449  0.0500 -0.5780  0.0293
  556MPD2    C3 8248   0.011   0.686  10.363  0.2207 -0.4780 -0.4848
  556MPD2    C4 8249   0.150   0.664  10.362  0.4457  0.1878  0.1168
  556MPD2    C5 8250   0.234   0.749  10.426 -0.2847  0.0491 -0.5313
  556MPD2     H 8251   4.580   0.788  10.469  0.2356 -1.0426  1.0345
  556MPD2    H1 8252   0.190   0.581  10.306 -0.6301  1.5100 -2.6084
  556MPD2    H2 8253   0.255   0.938  10.522 -2.0698  0.4381  2.5015
  556MPD2    H3 8254   0.339   0.723  10.423 -0.4663 -0.6363 -0.8825
  556MPD2     N 8255   4.647   0.613  10.287 -0.5487  0.2738  0.4050
  556MPD2    H5 8256   4.554   0.652  10.273  0.0333  1.8935  1.0870
  556MPD2    N1 8257   4.724   0.993  10.571 -0.3813  0.4496 -0.3932
  556MPD2    H7 8258   4.623   0.992  10.583 -0.4355 -0.0990 -0.9031
  557TMC3    C1 8259   4.572   0.473  10.114  0.0109 -0.6977  0.0960
  557TMC3    C2 8260   4.581   0.358  10.036  0.3563 -0.5325  0.1644
  557TMC3    C3 8261   4.494   0.343   9.928  0.9956 -0.9882 -0.0571
  557TMC3    C4 8262   4.464   0.558  10.114 -0.6668 -0.1850 -0.2829
  557TMC3    C5 8263   4.376   0.528  10.017  0.2810  0.0454  0.7681
  557TMC3    C6 8264   4.384   0.424   9.926  0.7661 -0.4326  0.0804
  557TMC3     C 8265   4.682   0.510  10.201  0.6737  0.0867 -0.2398
  557TMC3     O 8266   0.059   0.439  10.192  0.7675 -0.5756  0.0518
  557TMC3     H 8267   4.653   0.278  10.052  1.0904 -0.1601 -1.3039
  557TMC3    H1 8268   4.449   0.655  10.161  0.6758 -0.1637  0.1035
  557TMC3    H2 8269   4.301   0.407   9.859 -0.1483  0.6968  0.9312
  557TMC3    C7 8270   4.272   0.622  10.003  1.2584 -0.3980  0.4858
  557TMC3    C8 8271   4.488   0.205   9.872 -0.0451 -0.1992  0.0956
  557TMC3    O1 8272   4.231   0.643   9.885 -0.7207  0.5100 -0.1523
  557TMC3    O2 8273   4.578   0.123   9.889  0.5046  0.7730 -0.2441
  558TMC3    C1 8274   2.236   4.353  10.061  0.0333  0.5682 -0.1270
  558TMC3    C2 8275   2.140   4.262  10.093 -0.5389 -0.1240  0.3078
  558TMC3    C3 8276   2.014   4.269  10.028  0.6481  0.3587  0.2162
  558TMC3    C4 8277   2.214   4.427   9.948 -0.9309 -0.2424 -1.1913
  558TMC3    C5 8278   2.096   4.438   9.887  0.2765  0.1892 -0.1954
  558TMC3    C6 8279   1.989   4.360   9.930 -0.5020  0.0293  0.0535
  558TMC3     C 8280   2.368   4.326  10.091  0.6040 -0.3894 -0.3478
  558TMC3     O 8281   2.450   4.298  10.006  0.1051 -0.2529 -0.3713
  558TMC3     H 8282   2.168   4.190  10.169  0.4070  0.2292  0.2902
  558TMC3    H1 8283   2.301   4.469   9.898 -2.0036  0.2369 -2.6627
  558TMC3    H2 8284   1.890   4.363   9.885 -0.3243  2.4124 -0.2115
  558TMC3    C7 8285   2.086   4.531   9.785  0.2196 -0.2203 -0.4721
  558TMC3    C8 8286   1.939   4.139  10.022  0.4514 -0.6745 -0.4894
  558TMC3    O1 8287   2.173   4.615   9.768 -0.5447 -0.0934 -0.1004
  558TMC3    O2 8288   1.893   4.117   9.912  0.7884  0.4085  0.5907
  559MPD2     C 8289   2.097   4.573  10.359 -0.2889  0.1120 -0.5294
  559MPD2    C1 8290   2.040   4.555  10.483 -0.5157 -0.3489 -0.8787
  559MPD2    C2 8291   2.124   4.530  10.594  0.0361  0.1696  0.6388
  559MPD2    C3 8292   2.260   4.519  10.582 -0.2027 -0.3145  0.1609
  559MPD2    C4 8293   2.318   4.547  10.460  0.4112 -0.3036 -0.0668
  559MPD2    C5 8294   2.236   4.571  10.353 -0.3327 -0.2934  0.1586
  559MPD2     H 8295   2.081   4.506  10.691  0.7936 -1.0554  0.6737
  559MPD2    H1 8296   2.425   4.534  10.451  0.4196  0.8523 -1.5682
  559MPD2    H2 8297   2.031   4.578  10.273  0.0090 -0.0077 -0.7634
  559MPD2    H3 8298   2.290   4.583  10.259 -0.9703 -0.6143 -0.2470
  559MPD2     N 8299   2.338   4.488  10.697  0.9619  0.1991 -0.3730
  559MPD2    H5 8300   2.289   4.447  10.776  1.0701  0.5637 -0.1163
  559MPD2    N1 8301   1.898   4.572  10.498 -0.1387 -0.0110 -0.2761
  559MPD2    H7 8302   1.845   4.577  10.411 -0.3704  0.5530 -0.0985
  560TMC3    C1 8303   2.513   4.446  10.830  0.0805 -1.0249  0.7466
  560TMC3    C2 8304   2.448   4.325  10.869 -0.1662  0.1510  0.3371
  560TMC3    C3 8305   2.462   4.274  10.991  0.2416 -0.5373  0.3183
  560TMC3    C4 8306   2.589   4.503  10.928  0.2469  0.0364  1.2308
  560TMC3    C5 8307   2.595   4.455  11.058 -0.0654 -0.2321  0.0287
  560TMC3    C6 8308   2.534   4.337  11.090 -0.4231  0.1651 -0.5657
  560TMC3     C 8309   2.472   4.516  10.714  0.1634  0.2636  0.5981
  560TMC3     O 8310   2.543   4.595  10.653  0.1806  0.4049 -0.4455
  560TMC3     H 8311   2.419   4.255  10.792  1.0995 -0.0199  0.0165
  560TMC3    H1 8312   2.641   4.595  10.903 -2.3533  1.6809  1.9711
  560TMC3    H2 8313   2.536   4.301  11.192 -0.9037 -0.5748 -0.8121
  560TMC3    C7 8314   2.703   4.506  11.143  0.7226  0.1855  0.2503
  560TMC3    C8 8315   2.391   4.150  11.016 -0.5389 -0.1349  0.2552
  560TMC3    O1 8316   2.757   4.425  11.212 -0.0522 -0.0250 -0.2736
  560TMC3    O2 8317   2.338   4.101  10.918  0.5582 -0.2451  0.3940
  561TMC3    C1 8318   0.180   3.560  11.265  0.3791 -0.6329 -0.4169
  561TMC3    C2 8319   0.111   3.486  11.356  0.0219 -0.3114  0.1424
  561TMC3    C3 8320   0.063   3.557  11.459  0.7672 -0.1547 -0.8237
  561TMC3    C4 8321   0.212   3.692  11.281 -0.0381 -0.2788 -0.6323
  561TMC3    C5 8322   0.179   3.752  11.396  0.7215  0.1555  0.3106
  561TMC3    C6 8323   0.093   3.685  11.488 -0.8881 -0.0451 -0.2636
  561TMC3     C 8324   0.241   3.500  11.139 -0.2974 -0.2006  0.0100
  561TMC3     O 8325   0.353   3.523  11.111  0.2485 -0.2185  0.0476
  561TMC3     H 8326   0.089   3.380  11.344  1.6007 -0.7352  0.9339
  561TMC3    H1 8327   0.283   3.735  11.211  0.0316  1.7002  0.6506
  561TMC3    H2 8328   0.052   3.739  11.573 -0.7017  0.5747 -0.5605
  561TMC3    C7 8329   0.192   3.899  11.412  0.9160 -0.0633 -0.6723
  561TMC3    C8 8330   4.663   3.503  11.519 -0.3056 -0.1460  0.0881
  561TMC3    O1 8331   0.163   3.943  11.526  0.5987  0.2030  0.1013
  561TMC3    O2 8332   4.648   3.387  11.546  0.5470  0.1580  0.0737
  562TMC3    C1 8333   1.666   0.016  15.955  0.1257 -0.1833 -0.8275
  562TMC3    C2 8334   1.564   0.024  16.045  0.0273  0.2971  0.3737
  562TMC3    C3 8335   1.443   4.696  15.999  0.6602 -0.0637 -0.2009
  562TMC3    C4 8336   1.659   4.666  15.842  0.9936 -0.5691 -0.1626
  562TMC3    C5 8337   1.546   4.603  15.809 -0.4801  0.3494 -0.7151
  562TMC3    C6 8338   1.432   4.614  15.885  0.5234 -0.1557  0.8995
  562TMC3     C 8339   1.794   0.062  15.994 -0.0862 -0.3776  0.1775
  562TMC3     O 8340   1.871   0.077  15.901  0.3479  0.2276  0.1528
  562TMC3     H 8341   1.574   0.076  16.139 -1.1536  2.0439 -0.4642
  562TMC3    H1 8342   1.735   4.669  15.766  1.1786  2.8298  0.1644
  562TMC3    H2 8343   1.341   4.562  15.856  2.7672 -3.2069 -0.6529
  562TMC3    C7 8344   1.547   4.494  15.710 -0.2750  0.6434  0.2400
  562TMC3    C8 8345   1.325   0.024  16.059  0.5325 -0.5054 -0.6576
  562TMC3    O1 8346   1.442   4.439  15.688  0.5491  0.0380 -0.1510
  562TMC3    O2 8347   1.336   0.069  16.172  0.1600 -0.9368  0.3325
  563MPD2     C 8348   3.363   1.672  15.675  0.3783 -0.0262 -0.3608
  563MPD2    C1 8349   3.425   1.702  15.796  0.1382 -0.5367 -0.4295
  563MPD2    C2 8350   3.550   1.663  15.826 -0.0665  0.2029 -0.7937
  563MPD2    C3 8351   3.619   1.595  15.732 -0.1087  0.4473 -0.1570
  563MPD2    C4 8352   3.555   1.554  15.615 -0.4283 -0.1452 -0.2219
  563MPD2    C5 8353   3.432   1.603  15.580 -0.4151  0.3310 -0.1826
  563MPD2     H 8354   3.597   1.687  15.921  1.1209 -1.5672 -0.9409
  563MPD2    H1 8355   3.608   1.500  15.537  0.7264 -1.5870  1.5657
  563MPD2    H2 8356   3.269   1.720  15.648  0.5187  0.8404  0.6990
  563MPD2    H3 8357   3.387   1.586  15.483  0.8899 -0.0437 -0.7202
  563MPD2     N 8358   3.740   1.550  15.774  0.0675 -0.1842  0.1589
  563MPD2    H5 8359   3.780   1.578  15.864 -0.2771 -0.0799  0.2783
  563MPD2    N1 8360   3.355   1.796  15.877 -0.1337 -0.4087  1.1336
  563MPD2    H7 8361   3.254   1.790  15.867 -0.1121  1.1524  0.1536
  564TMC3    C1 8362   3.329   1.910  16.085  1.0417  0.3084  0.2727
  564TMC3    C2 8363   3.208   1.852  16.085  0.8072 -0.2675  0.8937
  564TMC3    C3 8364   3.139   1.821  16.203  0.3335  0.0948 -0.1429
  564TMC3    C4 8365   3.403   1.928  16.199  0.4143  0.0611  0.1414
  564TMC3    C5 8366   3.336   1.893  16.316  0.3517  0.0832  0.1640
  564TMC3    C6 8367   3.204   1.854  16.312 -0.2571  0.5735  0.1006
  564TMC3     C 8368   3.415   1.872  15.975 -0.2977  0.2591 -0.6246
  564TMC3     O 8369   3.530   1.910  15.981  0.1242  0.3024 -0.1403
  564TMC3     H 8370   3.150   1.860  15.994  0.3497  1.2997  1.3116
  564TMC3    H1 8371   3.493   1.987  16.194 -0.0817  0.8179  0.2382
  564TMC3    H2 8372   3.151   1.849  16.407  0.1488  0.7482  0.3399
  564TMC3    C7 8373   3.412   1.797  16.387  0.4891  0.0197 -0.4732
  564TMC3    C8 8374   3.056   1.705  16.225 -0.3097  0.3983 -0.3744
  564TMC3    O1 8375   3.533   1.808  16.386 -0.3956  0.1922  0.0012
  564TMC3    O2 8376   3.020   1.683  16.340  0.1904 -0.6691 -0.3912
  565TMC3    C1 8377   3.771   2.539   9.711 -0.3909  0.0056 -0.9296
  565TMC3    C2 8378   3.874   2.469   9.761  0.1227  1.0061  0.4287
  565TMC3    C3 8379   3.857   2.338   9.800 -0.3083  0.4165 -0.5735
  565TMC3    C4 8380   3.648   2.479   9.709 -0.6041  0.4841 -0.0599
  565TMC3    C5 8381   3.629   2.350   9.753  0.2280 -0.7998  0.5400
  565TMC3    C6 8382   3.731   2.283   9.807 -0.6712 -0.4639 -0.2017
  565TMC3     C 8383   3.794   2.679   9.681 -0.5955 -0.2912 -0.1238
  565TMC3     O 8384   3.909   2.713   9.692  0.6168 -0.2473 -0.0045
  565TMC3     H 8385   3.968   2.522   9.772  1.2972 -0.8021 -0.7863
  565TMC3    H1 8386   3.559   2.531   9.677  0.4391  1.6980 -0.9906
  565TMC3    H2 8387   3.718   2.176   9.821  2.3196 -1.1660 -2.5973
  565TMC3    C7 8388   3.497   2.280   9.757 -0.9873 -0.4585 -0.8476
  565TMC3    C8 8389   3.971   2.271   9.848  0.2164 -0.1550 -0.8137
  565TMC3    O1 8390   3.484   2.177   9.825 -0.4254  0.0887 -0.5984
  565TMC3    O2 8391   4.075   2.333   9.856  0.1433 -0.1396 -0.5401
  566MPD2     C 8392   0.621   4.274  14.349  0.1132  0.5187 -0.6793
  566MPD2    C1 8393   0.685   4.379  14.282  0.4704 -0.7082  0.1378
  566MPD2    C2 8394   0.616   4.445  14.186 -0.1425  0.1630  0.7834
  566MPD2    C3 8395   0.493   4.408  14.147  0.0703  0.5547 -0.6650
  566MPD2    C4 8396   0.430   4.300  14.212  0.0178 -0.4908 -0.2098
  566MPD2    C5 8397   0.492   4.238  14.316 -0.7831 -0.3987  0.3815
  566MPD2     H 8398   0.661   4.536  14.146 -0.6554 -0.2267 -0.6864
  566MPD2    H1 8399   0.329   4.272  14.181 -0.1535 -1.6646  1.4258
  566MPD2    H2 8400   0.664   4.221  14.433 -0.0533  2.0372  0.3639
  566MPD2    H3 8401   0.439   4.163  14.373  3.1009 -2.1292  1.7535
  566MPD2     N 8402   0.421   4.476  14.044 -0.4917  0.1103 -0.0834
  566MPD2    H5 8403   0.326   4.440  14.039 -0.8405  1.0356 -0.0254
  566MPD2    N1 8404   0.820   4.398  14.310  0.2849 -0.1197 -0.1143
  566MPD2    H7 8405   0.860   4.317  14.356 -1.6415 -1.3656 -0.6083
  567TMC3    C1 8406   1.037   4.490  14.299  0.1787 -0.4425 -0.6404
  567TMC3    C2 8407   1.130   4.565  14.227  1.3225  0.6725 -0.2330
  567TMC3    C3 8408   1.264   4.552  14.258 -1.3344  0.5316 -0.1737
  567TMC3    C4 8409   1.088   4.415  14.401 -0.1562  0.2327 -0.0857
  567TMC3    C5 8410   1.224   4.394  14.416  0.1957  0.5391  0.5989
  567TMC3    C6 8411   1.318   4.467  14.349 -0.3577  0.7313  0.3437
  567TMC3     C 8412   0.900   4.494  14.253 -0.6078 -0.6798  0.0689
  567TMC3     O 8413   0.872   4.582  14.176 -0.2600  0.1663  0.2264
  567TMC3     H 8414   1.102   4.631  14.147 -0.0170  0.7829  0.3360
  567TMC3    H1 8415   1.027   4.342  14.453  1.1411 -1.0149 -0.3147
  567TMC3    H2 8416   1.423   4.443  14.360 -0.5162  0.5340  1.5026
  567TMC3    C7 8417   1.273   4.293  14.508 -0.0738 -0.1916 -0.1532
  567TMC3    C8 8418   1.360   4.652  14.206  0.2348  0.3297 -0.1703
  567TMC3    O1 8419   1.395   4.262  14.500  0.5642 -0.0745  0.7360
  567TMC3    O2 8420   1.449   4.692  14.281  0.0425 -0.2337  0.4544
  568MPD2     C 8421   2.900   0.420  17.069  0.2988  0.2816  0.1173
  568MPD2    C1 8422   3.008   0.506  17.080  0.1462 -0.0421 -0.6375
  568MPD2    C2 8423   3.016   0.617  17.000 -1.0056  0.5701  0.1699
  568MPD2    C3 8424   2.906   0.658  16.936  0.1833 -0.1532  0.9708
  568MPD2    C4 8425   2.793   0.583  16.934 -0.0700  0.5393 -0.5385
  568MPD2    C5 8426   2.791   0.463  16.998 -0.0018  0.2695 -0.3677
  568MPD2     H 8427   3.107   0.676  16.997  0.2864 -1.3772  1.0750
  568MPD2    H1 8428   2.698   0.609  16.890 -0.5842 -0.6762 -0.1271
  568MPD2    H2 8429   2.894   0.329  17.127  0.6888  0.1961  0.0218
  568MPD2    H3 8430   2.697   0.409  16.990  0.2176 -0.6747  3.3788
  568MPD2     N 8431   2.921   0.778  16.870 -0.1391  0.1684 -0.3619
  568MPD2    H5 8432   3.007   0.833  16.874  0.6764 -1.0895 -0.3521
  568MPD2    N1 8433   3.114   0.453  17.158  0.2597  0.3038 -0.6405
  568MPD2    H7 8434   3.112   0.362  17.204 -0.6843  0.2429 -0.7938
  569TMC3    C1 8435   2.861   0.961  16.731  0.3041  0.2498  0.0875
  569TMC3    C2 8436   2.894   1.061  16.815 -0.4013 -0.1578  0.2161
  569TMC3    C3 8437   2.951   1.166  16.758 -0.2633 -0.1294  0.6692
  569TMC3    C4 8438   2.885   0.970  16.598 -0.2944 -0.5173  0.3910
  569TMC3    C5 8439   2.941   1.081  16.553 -0.4448 -0.2948  0.3779
  569TMC3    C6 8440   2.981   1.185  16.630  0.6708 -0.8677 -0.7072
  569TMC3     C 8441   2.825   0.830  16.788  0.4988 -0.4819  0.5439
  569TMC3     O 8442   2.733   0.770  16.728 -0.0335 -0.3231 -0.2118
  569TMC3     H 8443   2.868   1.062  16.921  0.3082 -2.9828  0.4203
  569TMC3    H1 8444   2.862   0.882  16.538 -1.1460  0.9696 -1.4741
  569TMC3    H2 8445   3.010   1.286  16.605  1.1281 -0.7984  0.0875
  569TMC3    C7 8446   2.949   1.098  16.409  0.7308  0.5587 -0.0680
  569TMC3    C8 8447   3.001   1.273  16.847  0.1643 -0.6200  0.6456
  569TMC3    O1 8448   2.929   0.993  16.341  0.0592  1.0473 -0.3570
  569TMC3    O2 8449   2.910   1.316  16.924  0.1264  0.1164  0.5988
  570TMC3    C1 8450   2.568   3.787  16.206  0.1269  0.1161 -0.0091
  570TMC3    C2 8451   2.625   3.732  16.099  0.1495 -0.1143 -0.1581
  570TMC3    C3 8452   2.576   3.787  15.983  0.7014  0.4162  0.1092
  570TMC3    C4 8453   2.479   3.894  16.210 -0.3558  0.0320  0.5840
  570TMC3    C5 8454   2.436   3.936  16.084 -0.6035  0.0213  0.1215
  570TMC3    C6 8455   2.475   3.881  15.969 -0.5654  0.0169  1.0460
  570TMC3     C 8456   2.613   3.722  16.335 -0.8750  0.2898  0.1174
  570TMC3     O 8457   2.685   3.629  16.313  0.3674 -0.1443 -0.3583
  570TMC3     H 8458   2.716   3.672  16.097  0.9833  1.1172  0.6873
  570TMC3    H1 8459   2.426   3.928  16.298 -1.0988 -0.3675  0.2867
  570TMC3    H2 8460   2.423   3.902  15.876  0.3879 -0.0390  0.4939
  570TMC3    C7 8461   2.328   4.031  16.081  0.3221 -0.3768  0.0143
  570TMC3    C8 8462   2.664   3.756  15.865  0.2157  0.0125 -0.3447
  570TMC3    O1 8463   2.281   4.050  16.192 -0.1066  0.6533  0.3895
  570TMC3    O2 8464   2.784   3.762  15.890  0.2341 -0.1966  0.4107
  571MPD2     C 8465   1.359   0.698  17.277 -0.7871  0.4069  0.0402
  571MPD2    C1 8466   1.265   0.677  17.177 -1.3279  0.2121  0.2190
  571MPD2    C2 8467   1.163   0.767  17.172  0.3303 -0.4223  0.3153
  571MPD2    C3 8468   1.152   0.867  17.269 -0.0838  0.4764 -0.1967
  571MPD2    C4 8469   1.254   0.889  17.353  0.7677 -0.1241  0.3675
  571MPD2    C5 8470   1.359   0.808  17.356 -0.3754  0.1297  0.3927
  571MPD2     H 8471   1.083   0.766  17.099 -0.5655 -1.0794  1.3282
  571MPD2    H1 8472   1.263   0.969  17.426 -0.9566 -0.5784  1.0624
  571MPD2    H2 8473   1.453   0.645  17.270 -0.3203  1.1044  0.9302
  571MPD2    H3 8474   1.440   0.829  17.425 -0.9101 -0.4596  1.1949
  571MPD2     N 8475   1.041   0.946  17.289 -0.7324  0.3133 -0.2388
  571MPD2    H5 8476   1.043   1.003  17.374  0.9168  1.0275 -0.7599
  571MPD2    N1 8477   1.274   0.565  17.091 -0.5542 -0.1744  0.6771
  571MPD2    H7 8478   1.358   0.508  17.085  0.4474  1.2812  0.9167
  572TMC3    C1 8479   0.825   1.026  17.283  0.2545 -0.2231 -0.8966
  572TMC3    C2 8480   0.706   0.973  17.328 -0.0513 -0.8783 -0.3538
  572TMC3    C3 8481   0.650   1.030  17.434 -0.3070 -0.6857  0.4922
  572TMC3    C4 8482   0.865   1.147  17.325  0.6754 -0.1119 -0.1143
  572TMC3    C5 8483   0.798   1.211  17.425  0.1095  0.1899 -0.1634
  572TMC3    C6 8484   0.684   1.154  17.481 -0.4278 -0.6374  0.4066
  572TMC3     C 8485   0.918   0.942  17.218 -0.4239 -0.3030  0.4868
  572TMC3     O 8486   0.879   0.871  17.130  0.0811 -0.3783  0.4040
  572TMC3     H 8487   0.684   0.868  17.311 -0.0251 -1.0383  0.5704
  572TMC3    H1 8488   0.955   1.191  17.283  0.1548  0.9591 -0.1004
  572TMC3    H2 8489   0.629   1.209  17.556  1.9564  1.7918  0.3988
  572TMC3    C7 8490   0.823   1.358  17.428  1.0724  0.2161  0.4103
  572TMC3    C8 8491   0.566   0.940  17.515 -0.0361  0.5532  0.3392
  572TMC3    O1 8492   0.726   1.428  17.457  0.3464 -0.2927  0.5247
  572TMC3    O2 8493   0.495   0.860  17.454  0.2024 -0.2297 -0.3938
  573MPD2     C 8494   1.703   1.351   1.063  0.2188  0.9390  0.2486
  573MPD2    C1 8495   1.796   1.450   1.026 -0.1065  0.8638  0.2806
  573MPD2    C2 8496   1.821   1.475   0.893 -1.4011 -0.4186  0.5765
  573MPD2    C3 8497   1.736   1.427   0.798 -0.4791  0.0732  0.4117
  573MPD2    C4 8498   1.634   1.343   0.833 -0.2076 -1.2169  0.1036
  573MPD2    C5 8499   1.622   1.301   0.967 -0.3709  0.2897  0.1363
  573MPD2     H 8500   1.898   1.546   0.863 -0.8255 -0.6158  1.5807
  573MPD2    H1 8501   1.563   1.293   0.768  1.0922 -2.6832 -0.1767
  573MPD2    H2 8502   1.678   1.328   1.166 -1.5791 -0.4102 -0.4876
  573MPD2    H3 8503   1.542   1.232   0.988  0.1609 -0.1691  0.6563
  573MPD2     N 8504   1.747   1.458   0.659  0.2861 -0.4080 -0.3268
  573MPD2    H5 8505   1.668   1.434   0.600 -0.9006  2.3688  0.0932
  573MPD2    N1 8506   1.858   1.521   1.128  0.2379  0.0770  0.6805
  573MPD2    H7 8507   1.832   1.501   1.224 -0.3446 -0.0086  0.5028
  574TMC3    C1 8508   1.806   1.600   0.474 -0.0598  0.9541  0.2468
  574TMC3    C2 8509   1.673   1.606   0.443  0.7047 -0.0100  0.5601
  574TMC3    C3 8510   1.640   1.655   0.317 -0.3215  1.1754 -0.6799
  574TMC3    C4 8511   1.906   1.644   0.395  0.0430  0.1326  0.0946
  574TMC3    C5 8512   1.867   1.695   0.268 -0.0444  0.2672  0.0680
  574TMC3    C6 8513   1.737   1.692   0.234 -0.0829  0.0903 -0.2033
  574TMC3     C 8514   1.847   1.533   0.599 -0.3501  0.1188  0.1003
  574TMC3     O 8515   1.964   1.536   0.630 -0.3665 -0.2983  0.4038
  574TMC3     H 8516   1.589   1.578   0.506  1.1619 -1.4556  0.5278
  574TMC3    H1 8517   2.012   1.641   0.419  0.0653  2.2678  0.2838
  574TMC3    H2 8518   1.706   1.736   0.140  4.0427 -0.7264 -1.9395
  574TMC3    C7 8519   1.957   1.778   0.186 -0.1379  0.2639  0.5666
  574TMC3    C8 8520   1.510   1.722   0.313  0.1744 -0.3093  0.0100
  574TMC3    O1 8521   1.897   1.841   0.105  0.1432  0.6799  0.3216
  574TMC3    O2 8522   1.419   1.682   0.383 -0.5976  0.4906  0.1207
  575TMC3    C1 8523   4.594   2.182  10.457 -0.2431 -0.5656  0.0033
  575TMC3    C2 8524   4.586   2.071  10.547  1.0007  0.0607 -0.3807
  575TMC3    C3 8525   4.491   1.973  10.534  0.3536  0.2515  0.4453
  575TMC3    C4 8526   4.512   2.198  10.354  0.2973  0.5398 -0.3417
  575TMC3    C5 8527   4.428   2.088  10.334  0.2871 -0.6662  0.1715
  575TMC3    C6 8528   4.409   1.983  10.423  0.0452 -0.0323  0.6826
  575TMC3     C 8529   4.701   2.278  10.457  0.3527  0.6011  0.0490
  575TMC3     O 8530   0.017   2.331  10.357 -0.3188  0.9678 -0.1580
  575TMC3     H 8531   4.661   2.053  10.623  0.0721 -0.8611  0.3204
  575TMC3    H1 8532   4.531   2.273  10.278 -2.5673  1.4574 -0.1457
  575TMC3    H2 8533   4.339   1.905  10.396 -0.9720  0.2979  2.3658
  575TMC3    C7 8534   4.326   2.109  10.231  0.2710 -0.5382 -0.5989
  575TMC3    C8 8535   4.461   1.882  10.645 -0.6938 -0.1523 -0.2433
  575TMC3    O1 8536   4.286   2.223  10.218 -0.2936 -0.3540  0.5492
  575TMC3    O2 8537   4.390   1.787  10.622 -0.1392  0.0996 -0.7028
  576MPD2     C 8538   3.516   4.229  11.991  0.3543  0.2933 -0.7478
  576MPD2    C1 8539   3.622   4.173  12.059  0.0377  0.0849 -0.4902
  576MPD2    C2 8540   3.597   4.118  12.185  0.2897 -0.2694  0.2960
  576MPD2    C3 8541   3.469   4.125  12.237  0.0213  0.0211 -0.3896
  576MPD2    C4 8542   3.373   4.191  12.168 -0.1389  1.0563 -0.1743
  576MPD2    C5 8543   3.389   4.224  12.038  0.3317  0.1080  0.6030
  576MPD2     H 8544   3.677   4.064  12.234  1.7535 -0.1122 -1.9231
  576MPD2    H1 8545   3.272   4.215  12.200 -0.3124 -0.3963  0.3510
  576MPD2    H2 8546   3.530   4.266  11.890  1.1518  0.0452 -0.7271
  576MPD2    H3 8547   3.315   4.282  11.983  1.4167 -0.3267 -1.3229
  576MPD2     N 8548   3.448   4.074  12.371 -0.4019  0.2619  0.4973
  576MPD2    H5 8549   3.524   4.018  12.408 -1.7294 -2.1775 -0.4369
  576MPD2    N1 8550   3.755   4.169  12.008  0.2738  0.1812  0.2336
  576MPD2    H7 8551   3.817   4.104  12.054  2.1070  0.8843 -1.2613
  577TMC3    C1 8552   3.921   4.189  11.851 -0.3777 -0.3343  0.5107
  577TMC3    C2 8553   3.965   4.058  11.872  0.0900  0.4362  0.5102
  577TMC3    C3 8554   4.086   4.021  11.818 -0.1038 -0.0831 -0.1943
  577TMC3    C4 8555   3.990   4.276  11.787 -1.0866 -0.0486  0.5802
  577TMC3    C5 8556   4.114   4.232  11.737 -0.3428 -0.4075 -0.1264
  577TMC3    C6 8557   4.168   4.108  11.754 -0.6660  0.6089 -0.5550
  577TMC3     C 8558   3.793   4.234  11.896 -0.1807 -0.1737  0.4360
  577TMC3     O 8559   3.736   4.313  11.822  0.2791  0.0977  0.6344
  577TMC3     H 8560   3.908   3.981  11.923  0.3503 -0.7848 -1.0431
  577TMC3    H1 8561   3.940   4.370  11.770  0.3188  1.2817  3.8566
  577TMC3    H2 8562   4.263   4.081  11.710  0.8378  1.7336  2.0234
  577TMC3    C7 8563   4.195   4.323  11.656 -0.2230  0.6527 -0.4575
  577TMC3    C8 8564   4.117   3.879  11.835 -0.0726  0.2247 -0.7155
  577TMC3    O1 8565   4.318   4.320  11.640  0.0115  0.1286 -0.7053
  577TMC3    O2 8566   4.059   3.815  11.923  0.0034 -0.2355  0.0456
  578MPD2     C 8567   2.438   4.259   0.503 -0.5068 -0.0750 -0.7329
  578MPD2    C1 8568   2.521   4.155   0.481  0.3010 -1.1703  0.0462
  578MPD2    C2 8569   2.523   4.056   0.576  0.5741  0.5076  0.1009
  578MPD2    C3 8570   2.443   4.054   0.687 -0.3733 -0.6253 -0.8353
  578MPD2    C4 8571   2.356   4.157   0.704 -0.7170 -0.2417 -0.0980
  578MPD2    C5 8572   2.367   4.262   0.614  0.2981 -0.1986 -0.8760
  578MPD2     H 8573   2.599   3.980   0.562  1.3752  1.1923  0.7153
  578MPD2    H1 8574   2.292   4.171   0.791  2.2426  0.4476  1.9854
  578MPD2    H2 8575   2.426   4.345   0.439 -0.9922 -1.3105 -2.2866
  578MPD2    H3 8576   2.307   4.349   0.637  1.0134  0.1612 -0.3552
  578MPD2     N 8577   2.457   3.948   0.780  0.2602  0.0129 -1.1272
  578MPD2    H5 8578   2.513   3.868   0.752 -0.0515  0.4825 -3.0949
  578MPD2    N1 8579   2.607   4.162   0.367  0.1743  0.2108  0.2533
  578MPD2    H7 8580   2.587   4.244   0.311  0.9895  0.7331  0.7288
  579TMC3    C1 8581   2.453   3.831   0.983 -0.6700 -0.0281 -0.0358
  579TMC3    C2 8582   2.454   3.839   1.119 -0.2825  0.0541 -0.9467
  579TMC3    C3 8583   2.509   3.742   1.199 -0.0723 -0.6795 -0.9754
  579TMC3    C4 8584   2.511   3.721   0.924 -0.6689  0.4655  0.5995
  579TMC3    C5 8585   2.575   3.621   1.003  1.3270  0.0213 -0.4243
  579TMC3    C6 8586   2.575   3.630   1.140  0.3790  0.3954  0.1593
  579TMC3     C 8587   2.404   3.946   0.911  0.0778 -0.1716 -0.7564
  579TMC3     O 8588   2.324   4.023   0.971 -0.3355 -0.0744 -0.6299
  579TMC3     H 8589   2.417   3.927   1.171 -0.1233 -0.9438  0.8593
  579TMC3    H1 8590   2.511   3.707   0.816  1.7941  0.9561  0.5314
  579TMC3    H2 8591   2.606   3.544   1.199 -1.5730 -2.3946 -2.8758
  579TMC3    C7 8592   2.581   3.484   0.956 -0.0673  0.3473  0.3046
  579TMC3    C8 8593   2.540   3.782   1.337  0.0902  0.8000 -0.3062
  579TMC3    O1 8594   2.677   3.415   0.987  0.2734 -0.1112  0.0945
  579TMC3    O2 8595   2.466   3.870   1.379  0.7472  0.5806 -0.0011
  580TMC3    C1 8596   1.538   3.087  11.853  0.0852  0.4171 -0.1563
  580TMC3    C2 8597   1.553   3.054  11.722 -0.0862 -0.0602 -0.3678
  580TMC3    C3 8598   1.539   2.923  11.688 -0.4878  0.1449 -0.2393
  580TMC3    C4 8599   1.530   2.995  11.949 -0.4553  0.2415 -0.0426
  580TMC3    C5 8600   1.519   2.867  11.918  0.2343 -0.4635 -0.4910
  580TMC3    C6 8601   1.527   2.829  11.785  0.9484 -0.2941  0.1312
  580TMC3     C 8602   1.565   3.226  11.887  0.0854  0.5877 -0.7275
  580TMC3     O 8603   1.630   3.281  11.800 -0.5144 -0.5594  0.2150
  580TMC3     H 8604   1.561   3.129  11.644 -2.5537 -2.2339 -2.7369
  580TMC3    H1 8605   1.540   3.024  12.053 -2.9506 -1.6187  0.7166
  580TMC3    H2 8606   1.504   2.726  11.759 -4.6904  0.8445  0.6415
  580TMC3    C7 8607   1.578   2.787  12.021  0.2092  0.3247 -0.3957
  580TMC3    C8 8608   1.608   2.876  11.575  0.6186 -0.7547 -0.1511
  580TMC3    O1 8609   1.627   2.840  12.123  0.4718  0.7174 -0.0299
  580TMC3    O2 8610   1.580   2.768  11.533 -0.2552 -0.4377  0.0431
  581MPD2     C 8611   4.402   2.401  15.140  0.3102  0.3304  0.0191
  581MPD2    C1 8612   4.441   2.535  15.144  0.3360 -0.4905 -0.3773
  581MPD2    C2 8613   4.355   2.633  15.086 -0.9886  1.0677 -0.0401
  581MPD2    C3 8614   4.245   2.592  15.011 -0.7203  0.0715 -0.1209
  581MPD2    C4 8615   4.205   2.460  15.020 -0.1237  0.3801  0.2601
  581MPD2    C5 8616   4.286   2.364  15.077 -0.4335  0.3727 -0.6141
  581MPD2     H 8617   4.378   2.739  15.090 -1.0913  1.0570  0.9013
  581MPD2    H1 8618   4.110   2.420  14.988  0.0649 -1.7598  2.3968
  581MPD2    H2 8619   4.462   2.328  15.193 -1.4927  0.3873  2.1239
  581MPD2    H3 8620   4.251   2.262  15.086 -1.2798  0.8027  0.9815
  581MPD2     N 8621   4.164   2.694  14.949  0.4618 -0.5667 -0.6559
  581MPD2    H5 8622   4.198   2.790  14.953 -0.6911 -0.2876  1.8547
  581MPD2    N1 8623   4.564   2.561  15.210 -0.3782  0.7516 -0.0753
  581MPD2    H7 8624   4.612   2.480  15.246 -2.9058  0.3337  2.3576
  582TMC3    C1 8625   4.721   2.671  15.327  0.2518 -0.0755  0.1163
  582TMC3    C2 8626   4.708   2.715  15.457  0.1055  0.1958 -0.1920
  582TMC3    C3 8627   0.053   2.649  15.558 -0.3360  0.2117  0.0345
  582TMC3    C4 8628   0.074   2.559  15.301  0.4857  0.2570  0.2696
  582TMC3    C5 8629   0.133   2.490  15.404  0.3077 -0.7619 -0.7767
  582TMC3    C6 8630   0.116   2.530  15.530  0.5389 -0.2445  0.1168
  582TMC3     C 8631   4.598   2.683  15.256  0.7512  0.7244 -0.2192
  582TMC3     O 8632   4.543   2.794  15.253 -0.3423  0.5511  0.4085
  582TMC3     H 8633   4.649   2.804  15.473 -0.4857 -0.4039  0.9230
  582TMC3    H1 8634   0.076   2.523  15.199 -1.7629  0.0509  0.2931
  582TMC3    H2 8635   0.150   2.472  15.616 -1.2933 -0.0411  0.9779
  582TMC3    C7 8636   0.128   2.347  15.381 -0.1593 -0.3191  0.7056
  582TMC3    C8 8637   0.015   2.679  15.694 -0.3263  0.0546  0.1915
  582TMC3    O1 8638   0.155   2.313  15.265 -0.5848  0.4995 -0.5349
  582TMC3    O2 8639   4.633   2.738  15.717 -0.3583  0.1397  0.3789
  583MPD2     C 8640   4.220   4.283  16.892 -0.1379  0.5754 -0.1469
  583MPD2    C1 8641   4.270   4.397  16.830  0.5887  0.0101 -0.2737
  583MPD2    C2 8642   4.235   4.524  16.880  0.5668 -0.3133  0.0616
  583MPD2    C3 8643   4.172   4.536  17.002  0.0470 -0.3737 -0.1648
  583MPD2    C4 8644   4.127   4.422  17.058 -0.5046 -0.4739 -0.3092
  583MPD2    C5 8645   4.142   4.296  17.004 -0.9027 -0.0236  0.6683
  583MPD2     H 8646   4.280   4.613  16.836 -0.2070 -0.2655 -0.6316
  583MPD2    H1 8647   4.067   4.424  17.149 -0.9094 -3.6212 -0.4902
  583MPD2    H2 8648   4.233   4.185  16.847  0.6866  1.1144 -1.0759
  583MPD2    H3 8649   4.107   4.207  17.056  1.0668 -1.0290  0.3078
  583MPD2     N 8650   4.162   4.663  17.067 -0.3987 -0.0323 -0.3873
  583MPD2    H5 8651   4.195   0.021  17.018  2.7682 -0.7105  0.6200
  583MPD2    N1 8652   4.353   4.395  16.712  0.6914  0.2940 -0.0709
  583MPD2    H7 8653   4.367   4.485  16.666  0.5507 -0.5733 -1.8311
  584TMC3    C1 8654   4.161   0.102  17.241 -0.1659 -0.3965 -0.3414
  584TMC3    C2 8655   4.156   0.210  17.155  0.7241  0.1703 -0.2783
  584TMC3    C3 8656   4.160   0.331  17.215  0.3371  0.3826  0.3295
  584TMC3    C4 8657   4.199   0.119  17.376 -0.7713 -0.0375 -0.1966
  584TMC3    C5 8658   4.209   0.251  17.432  0.1991  0.1737  0.0211
  584TMC3    C6 8659   4.186   0.358  17.350 -0.2394 -0.6183 -0.0132
  584TMC3     C 8660   4.140   4.687  17.203  0.0622 -0.6581  0.4513
  584TMC3     O 8661   4.125   4.607  17.292  0.5097 -0.1633 -0.4236
  584TMC3     H 8662   4.108   0.206  17.057  2.5120  1.5141 -1.2029
  584TMC3    H1 8663   4.210   0.038  17.447 -1.1332  0.3362  0.2862
  584TMC3    H2 8664   4.163   0.455  17.392  0.0089 -0.7174  0.3483
  584TMC3    C7 8665   4.180   0.262  17.574 -0.3339  0.2805 -0.5603
  584TMC3    C8 8666   4.178   0.438  17.116  1.1346  0.2347 -0.2215
  584TMC3    O1 8667   4.131   0.160  17.620 -0.0168 -0.2382 -0.3185
  584TMC3    O2 8668   4.142   0.409  17.003  0.2869  0.3318 -0.6093
  585MPD2     C 8669   3.548   3.287   0.944 -0.2594 -0.2769  0.2351
  585MPD2    C1 8670   3.656   3.268   0.860 -0.1542  0.6079  0.4388
  585MPD2    C2 8671   3.672   3.148   0.795 -0.3013 -0.3799  0.0880
  585MPD2    C3 8672   3.570   3.053   0.803 -1.2310 -0.3445  0.2435
  585MPD2    C4 8673   3.458   3.075   0.886 -0.2186  0.0847  0.5289
  585MPD2    C5 8674   3.453   3.195   0.949  0.3869 -0.0326 -0.4188
  585MPD2     H 8675   3.758   3.122   0.734 -1.1344 -0.3074 -1.1056
  585MPD2    H1 8676   3.382   2.999   0.900  0.0096 -0.2655 -0.1084
  585MPD2    H2 8677   3.527   3.382   0.991 -1.2348  0.0743 -0.8855
  585MPD2    H3 8678   3.372   3.215   1.018  0.7820 -3.5419  1.0842
  585MPD2     N 8679   3.580   2.934   0.734  0.3948 -0.3943 -0.0067
  585MPD2    H5 8680   3.501   2.870   0.741  0.1193 -0.0674 -0.1694
  585MPD2    N1 8681   3.730   3.385   0.820 -0.2202 -0.2676 -0.0696
  585MPD2    H7 8682   3.692   3.477   0.838  1.8607  0.7220 -0.7196
  586TMC3    C1 8683   3.613   2.844   0.526  0.4935  0.2320  0.5747
  586TMC3    C2 8684   3.697   2.774   0.447 -0.0092  0.1674 -0.5813
  586TMC3    C3 8685   3.671   2.768   0.314 -0.9681 -0.4473  0.2131
  586TMC3    C4 8686   3.495   2.897   0.476 -0.6585  0.3448 -0.2981
  586TMC3    C5 8687   3.464   2.880   0.347  0.3861 -0.7101 -0.3985
  586TMC3    C6 8688   3.555   2.822   0.260 -0.3796  0.6653 -0.1356
  586TMC3     C 8689   3.678   2.905   0.645  0.0700  0.1075 -0.6514
  586TMC3     O 8690   3.800   2.916   0.653  0.0112 -0.1228  0.2947
  586TMC3     H 8691   3.789   2.728   0.481 -0.3783 -1.5719 -1.9165
  586TMC3    H1 8692   3.430   2.963   0.533  3.0200  4.2079 -0.6223
  586TMC3    H2 8693   3.544   2.833   0.153 -4.1654  1.0709  0.2773
  586TMC3    C7 8694   3.380   2.981   0.289  0.4506  0.0151  0.4485
  586TMC3    C8 8695   3.788   2.751   0.234 -0.3863  0.2541  0.4923
  586TMC3    O1 8696   3.361   3.089   0.338  0.2467  0.8181  0.1592
  586TMC3    O2 8697   3.886   2.685   0.275 -0.5973 -0.6270  0.1009
  587TMC3    C1 8698   1.749   2.281  16.671  0.1325  0.7712  0.4649
  587TMC3    C2 8699   1.678   2.375  16.602 -0.4716 -0.4089 -0.4691
  587TMC3    C3 8700   1.661   2.501  16.652 -0.5231 -0.4915 -0.2307
  587TMC3    C4 8701   1.798   2.306  16.794 -0.5449  0.4975  0.8023
  587TMC3    C5 8702   1.771   2.436  16.847 -0.0936 -0.3393 -0.1741
  587TMC3    C6 8703   1.701   2.532  16.780  0.0575  0.1574  0.2993
  587TMC3     C 8704   1.711   2.146  16.646  0.5111  0.5515 -0.2089
  587TMC3     O 8705   1.779   2.059  16.696  0.1675 -0.1291  0.0427
  587TMC3     H 8706   1.658   2.345  16.500  0.4895  1.0765 -1.0988
  587TMC3    H1 8707   1.834   2.224  16.855 -1.1316 -0.9533 -0.8378
  587TMC3    H2 8708   1.704   2.638  16.805  0.4396  0.3847 -0.7482
  587TMC3    C7 8709   1.844   2.476  16.967 -0.4666  0.5865  0.0640
  587TMC3    C8 8710   1.583   2.591  16.567  0.0531 -0.7845 -0.1184
  587TMC3    O1 8711   1.929   2.393  17.003 -0.1130  0.0426 -0.4257
  587TMC3    O2 8712   1.581   2.565  16.442 -0.0367 -0.4655 -0.7228
  588TMC3    C1 8713   3.373   0.490   9.349  0.1884 -0.0001 -0.3431
  588TMC3    C2 8714   3.392   0.352   9.345  0.8672  0.1030 -0.2996
  588TMC3    C3 8715   3.454   0.286   9.452  0.3116 -0.1163  0.1132
  588TMC3    C4 8716   3.417   0.552   9.462  0.3632 -0.3871 -0.0473
  588TMC3    C5 8717   3.473   0.484   9.568 -0.2105 -0.2762  0.5898
  588TMC3    C6 8718   3.492   0.351   9.568 -0.0738  0.2254 -0.8724
  588TMC3     C 8719   3.255   0.526   9.276 -0.2561 -0.6509 -0.1486
  588TMC3     O 8720   3.179   0.450   9.215  0.0186  0.4470  0.0011
  588TMC3     H 8721   3.357   0.288   9.265 -0.0834 -1.3797  1.3044
  588TMC3    H1 8722   3.407   0.660   9.463 -0.8670 -0.5066  0.7718
  588TMC3    H2 8723   3.496   0.298   9.662 -3.6295 -0.6004 -1.2185
  588TMC3    C7 8724   3.431   0.541   9.693  0.4493 -0.2426 -0.2888
  588TMC3    C8 8725   3.489   0.144   9.447  0.4117  0.6239  0.1119
  588TMC3    O1 8726   3.498   0.507   9.790  0.5898 -0.3198  0.1119
  588TMC3    O2 8727   3.452   0.084   9.349 -0.3152  0.1238 -0.3541
  589TMC3    C1 8728   3.002   1.880   1.253 -0.2983  0.2470 -0.2048
  589TMC3    C2 8729   3.073   1.972   1.331  0.0522 -0.3143  0.0052
  589TMC3    C3 8730   3.200   1.933   1.364 -0.9125  0.2185  0.0719
  589TMC3    C4 8731   3.044   1.762   1.199  0.8125  0.1772 -0.0500
  589TMC3    C5 8732   3.174   1.737   1.223 -0.0609 -0.5395 -0.0311
  589TMC3    C6 8733   3.253   1.825   1.298  0.0699 -0.2511 -0.1293
  589TMC3     C 8734   2.866   1.905   1.213 -0.2001  0.5346 -0.4143
  589TMC3     O 8735   2.804   1.815   1.154  0.7611  0.5007  0.6757
  589TMC3     H 8736   3.024   2.055   1.380  0.8899 -0.3460  0.9096
  589TMC3    H1 8737   2.994   1.690   1.135  2.1798 -0.8667  0.0431
  589TMC3    H2 8738   3.349   1.796   1.339  0.3145 -0.9106 -1.1815
  589TMC3    C7 8739   3.219   1.607   1.229 -0.1332  0.6091 -0.7862
  589TMC3    C8 8740   3.266   2.000   1.477  0.1781  0.3108  0.4025
  589TMC3    O1 8741   3.146   1.515   1.265  0.4785  0.9168 -0.8012
  589TMC3    O2 8742   3.196   2.080   1.538  0.0415  0.3155  0.3441
  590MPD2     C 8743   2.264   0.259  16.741  0.6703 -0.6643 -0.3315
  590MPD2    C1 8744   2.191   0.335  16.652  0.4206 -0.7617 -0.4835
  590MPD2    C2 8745   2.249   0.440  16.588 -0.2358  0.1114 -0.3576
  590MPD2    C3 8746   2.381   0.468  16.613  0.3928  0.3004 -0.0776
  590MPD2    C4 8747   2.455   0.391  16.706 -0.1738  0.1569  0.1150
  590MPD2    C5 8748   2.395   0.291  16.768 -0.1931 -0.5566  0.3213
  590MPD2     H 8749   2.202   0.506  16.516  1.1253  0.7528 -0.6578
  590MPD2    H1 8750   2.558   0.414  16.733  0.6143 -1.6676 -1.3518
  590MPD2    H2 8751   2.229   0.169  16.792  0.1461 -0.7681 -0.8764
  590MPD2    H3 8752   2.444   0.222  16.834 -1.6357 -0.9145  1.0184
  590MPD2     N 8753   2.436   0.581  16.543  0.3572  0.1344  0.0569
  590MPD2    H5 8754   2.366   0.633  16.492 -0.5725  0.6223  1.8216
  590MPD2    N1 8755   2.060   0.289  16.614 -0.0594  0.1386 -0.2038
  590MPD2    H7 8756   2.029   0.206  16.664 -0.5482  1.0702  1.0566
  591TMC3    C1 8757   2.587   0.709  16.428 -0.1579  0.4804  0.5533
  591TMC3    C2 8758   2.673   0.683  16.327 -0.3601  0.2887  0.4235
  591TMC3    C3 8759   2.698   0.782  16.235  0.1750  0.1942 -0.3361
  591TMC3    C4 8760   2.535   0.831  16.446 -0.3177 -0.4145 -0.6060
  591TMC3    C5 8761   2.571   0.927  16.358  0.4789  0.3077  0.3720
  591TMC3    C6 8762   2.649   0.909  16.250 -0.3568 -0.0188  0.4094
  591TMC3     C 8763   2.570   0.602  16.524  0.1050  0.4019 -0.1329
  591TMC3     O 8764   2.662   0.526  16.539  0.2436  0.3360  0.3302
  591TMC3     H 8765   2.705   0.580  16.314  3.3043  1.7067 -1.9213
  591TMC3    H1 8766   2.462   0.855  16.522  1.1440  1.0938  0.3066
  591TMC3    H2 8767   2.670   0.989  16.179 -0.5699 -0.1590  0.1879
  591TMC3    C7 8768   2.549   1.061  16.407 -0.2125 -0.4011 -0.2150
  591TMC3    C8 8769   2.759   0.744  16.107  0.0045 -0.1218  0.0327
  591TMC3    O1 8770   2.499   1.075  16.516 -0.3013  0.0082 -0.4256
  591TMC3    O2 8771   2.787   0.625  16.089  0.1610  0.2103 -0.7829
  592MPD2     C 8772   2.752   2.852  11.394  0.1065  0.6905  0.8658
  592MPD2    C1 8773   2.808   2.864  11.522  0.5997  0.1968  0.0272
  592MPD2    C2 8774   2.775   2.772  11.616  0.1848  0.2168  0.0426
  592MPD2    C3 8775   2.699   2.665  11.578 -0.1687 -0.3380 -0.5818
  592MPD2    C4 8776   2.643   2.649  11.449 -0.2289 -0.1526 -0.2725
  592MPD2    C5 8777   2.670   2.749  11.356 -0.6299 -0.3039 -0.3558
  592MPD2     H 8778   2.809   2.774  11.719  0.2571  0.9152  0.0044
  592MPD2    H1 8779   2.590   2.560  11.418  1.8283 -0.9830 -1.3610
  592MPD2    H2 8780   2.785   2.918  11.314 -0.8747 -0.3271 -0.3868
  592MPD2    H3 8781   2.646   2.734  11.251  1.6406 -0.5861 -0.8318
  592MPD2     N 8782   2.676   2.574  11.683  0.1312 -0.1503  0.1745
  592MPD2    H5 8783   2.689   2.606  11.779  0.9439 -1.2496  0.4225
  592MPD2    N1 8784   2.903   2.963  11.546 -0.3164  0.2243  0.4081
  592MPD2    H7 8785   2.933   3.016  11.466 -0.7016 -1.4071 -0.8240
  593TMC3    C1 8786   3.085   3.066  11.669  0.3290 -1.2108  0.3621
  593TMC3    C2 8787   3.131   3.104  11.789  0.3127  0.2056  0.1956
  593TMC3    C3 8788   3.260   3.131  11.804  1.3506  0.7890 -0.0633
  593TMC3    C4 8789   3.169   3.063  11.560  0.3023 -0.3287  0.4783
  593TMC3    C5 8790   3.297   3.105  11.579  0.2716  0.0874  0.1736
  593TMC3    C6 8791   3.345   3.134  11.708  0.1032 -0.2267 -0.2086
  593TMC3     C 8792   2.959   2.992  11.670  0.1911 -0.0032  0.5689
  593TMC3     O 8793   2.924   2.958  11.782 -0.2440  0.1023 -0.1522
  593TMC3     H 8794   3.072   3.096  11.879  1.6430  0.8090  1.1234
  593TMC3    H1 8795   3.145   3.004  11.472  0.8233 -1.0437  0.8169
  593TMC3    H2 8796   3.450   3.160  11.719  0.0923 -0.7012  1.0215
  593TMC3    C7 8797   3.370   3.177  11.473  0.6717 -0.2009 -0.6555
  593TMC3    C8 8798   3.298   3.178  11.934 -0.0752  0.1497  0.4773
  593TMC3    O1 8799   3.472   3.243  11.496  0.3354  0.3570  0.1895
  593TMC3    O2 8800   3.214   3.231  11.998 -0.3146  0.3018  0.0450
  594MPD2     C 8801   1.247   1.534  14.373  1.0387  0.3569 -0.7145
  594MPD2    C1 8802   1.271   1.467  14.488 -0.2680 -0.0566  0.1412
  594MPD2    C2 8803   1.383   1.496  14.564  0.0426 -0.2734 -0.1695
  594MPD2    C3 8804   1.467   1.600  14.529  0.4090  0.1343 -0.1686
  594MPD2    C4 8805   1.441   1.667  14.415 -0.2236 -0.1146  0.0871
  594MPD2    C5 8806   1.325   1.650  14.350  0.0340  0.8064  0.7052
  594MPD2     H 8807   1.396   1.456  14.664  1.6520  3.7909  1.2422
  594MPD2    H1 8808   1.500   1.753  14.386  1.6639 -1.6808 -0.7707
  594MPD2    H2 8809   1.153   1.516  14.323  0.0879  1.4278  0.6940
  594MPD2    H3 8810   1.300   1.721  14.272  0.1219 -0.1209 -0.1641
  594MPD2     N 8811   1.574   1.634  14.606  0.4994 -0.3360  0.4085
  594MPD2    H5 8812   1.581   1.590  14.697 -0.9308  1.0021  1.1673
  594MPD2    N1 8813   1.175   1.360  14.518 -0.1284  0.3670  0.1884
  594MPD2    H7 8814   1.110   1.329  14.447 -2.1533  0.8038  1.8722
  595TMC3    C1 8815   1.895   1.938  14.761  0.1314  0.9069 -0.0919
  595TMC3    C2 8816   1.857   1.851  14.661  0.6166  0.5477  0.6585
  595TMC3    C3 8817   1.745   1.781  14.690 -0.4075 -0.7463  0.5921
  595TMC3    C4 8818   1.826   1.949  14.877  0.5903 -0.4627 -0.0258
  595TMC3    C5 8819   1.707   1.888  14.896 -0.2882 -0.3997 -0.2318
  595TMC3    C6 8820   1.675   1.792  14.808 -0.5907  0.3770  1.0327
  595TMC3     C 8821   2.002   2.029  14.748  0.0777  0.1299 -0.5413
  595TMC3     O 8822   2.011   2.122  14.822 -0.4496 -0.0989 -0.2721
  595TMC3     H 8823   1.900   1.851  14.562  2.4950  0.3905  1.4656
  595TMC3    H1 8824   1.874   2.012  14.951  2.2495  0.7483 -2.1209
  595TMC3    H2 8825   1.579   1.745  14.821 -2.1063  2.8765 -1.1390
  595TMC3    C7 8826   1.600   1.985  14.900  0.2288 -0.6617  0.4816
  595TMC3    C8 8827   1.663   1.733  14.574 -0.5255  0.9139  0.1375
  595TMC3    O1 8828   1.487   1.946  14.880  0.2123 -0.1703  0.3055
  595TMC3    O2 8829   1.710   1.763  14.465 -0.2295 -0.2829 -0.8530
  596MPD2     C 8830   0.508   4.145  16.827 -0.5965 -0.3266  0.6719
  596MPD2    C1 8831   0.509   4.274  16.773  0.3646 -0.7605  0.1552
  596MPD2    C2 8832   0.576   4.294  16.652  0.5194 -0.8456 -0.2907
  596MPD2    C3 8833   0.617   4.185  16.572  0.4816 -0.0021 -0.4321
  596MPD2    C4 8834   0.606   4.058  16.624  0.3637  0.2195 -0.6132
  596MPD2    C5 8835   0.555   4.042  16.753 -0.2782  0.2422 -0.8152
  596MPD2     H 8836   0.586   4.395  16.615 -1.2171 -0.2029  1.0289
  596MPD2    H1 8837   0.620   3.972  16.560  0.1905 -0.9422  0.9064
  596MPD2    H2 8838   0.471   4.111  16.923 -1.6361 -2.0540 -0.3507
  596MPD2    H3 8839   0.545   3.947  16.804  0.9047 -0.0374 -1.1131
  596MPD2     N 8840   0.659   4.203  16.438 -0.7805 -1.1816  0.1090
  596MPD2    H5 8841   0.699   4.126  16.387  1.3112 -0.7116  1.0440
  596MPD2    N1 8842   0.466   4.380  16.848  0.1393  0.0114 -0.0474
  596MPD2    H7 8843   0.505   4.470  16.821 -0.7297  1.2596  2.8609
  597TMC3    C1 8844   0.372   4.511  17.010  0.1271 -0.4867  0.1497
  597TMC3    C2 8845   0.476   4.601  17.003 -0.1587 -0.3568  0.9755
  597TMC3    C3 8846   0.448   0.009  17.039 -0.2993 -0.3042 -0.3236
  597TMC3    C4 8847   0.248   4.546  17.055  0.7784 -0.2856  0.1778
  597TMC3    C5 8848   0.228   4.677  17.093  0.4466  0.1785  0.0643
  597TMC3    C6 8849   0.323   0.049  17.079 -0.7603  0.7223  0.5397
  597TMC3     C 8850   0.390   4.378  16.962 -0.5085  0.5015  0.6121
  597TMC3     O 8851   0.319   4.287  17.006  0.2194  0.1836 -0.2162
  597TMC3     H 8852   0.571   4.576  16.957 -0.3655  1.2934 -0.3613
  597TMC3    H1 8853   0.168   4.474  17.069  0.6161 -0.4776 -1.8298
  597TMC3    H2 8854   0.306   0.155  17.094 -1.3466  0.9073 -1.4392
  597TMC3    C7 8855   0.114   4.709  17.176 -0.6552 -0.0303 -0.2491
  597TMC3    C8 8856   0.550   0.104  17.081 -0.0603  0.0724  0.0475
  597TMC3    O1 8857   0.062   4.615  17.232 -0.1589  0.2493  0.3621
  597TMC3    O2 8858   0.532   0.168  17.189  0.2250 -0.4169 -0.2868
  598TMC3    C1 8859   3.215   1.279  15.196 -0.3986  0.8405  0.2604
  598TMC3    C2 8860   3.108   1.197  15.203  0.3632 -0.6313  0.3525
  598TMC3    C3 8861   3.013   1.196  15.098  0.4434 -0.3724 -0.3446
  598TMC3    C4 8862   3.241   1.348  15.085 -0.1764 -0.2584  0.6274
  598TMC3    C5 8863   3.148   1.340  14.982  0.2083  0.2702 -0.2744
  598TMC3    C6 8864   3.039   1.259  14.984 -1.0392  0.2776  0.3284
  598TMC3     C 8865   3.320   1.277  15.294 -0.4432  0.3040  0.2193
  598TMC3     O 8866   3.393   1.374  15.288  0.2351  0.1160 -0.4926
  598TMC3     H 8867   3.070   1.158  15.296  0.3702 -0.6748  0.3371
  598TMC3    H1 8868   3.333   1.405  15.078  1.0995 -2.3081  0.6942
  598TMC3    H2 8869   2.966   1.277  14.906 -0.9571  2.0308  0.6476
  598TMC3    C7 8870   3.178   1.415  14.859 -0.7987  0.5167  0.6057
  598TMC3    C8 8871   2.874   1.154  15.124  0.6389 -0.5313 -0.5158
  598TMC3    O1 8872   3.136   1.373  14.755 -0.1445  0.2159  0.4469
  598TMC3    O2 8873   2.792   1.222  15.068  0.3054  0.4683 -0.2410
  599MPD2     C 8874   3.356   3.662  15.527  0.3442 -0.5437  0.2752
  599MPD2    C1 8875   3.378   3.585  15.637 -0.1204  0.0621  0.0987
  599MPD2    C2 8876   3.344   3.632  15.766 -0.1460 -0.0825  0.1287
  599MPD2    C3 8877   3.287   3.759  15.785  0.0032 -0.3581 -0.2673
  599MPD2    C4 8878   3.273   3.837  15.668  0.3467  0.5646  0.0708
  599MPD2    C5 8879   3.315   3.789  15.547 -0.2008 -0.1399 -0.5251
  599MPD2     H 8880   3.365   3.561  15.846 -1.1688 -1.7629 -1.0817
  599MPD2    H1 8881   3.230   3.936  15.669 -1.4256 -0.1975 -0.0405
  599MPD2    H2 8882   3.387   3.632  15.427  2.5647  1.5313  0.3645
  599MPD2    H3 8883   3.310   3.858  15.463  2.7052 -0.3607 -0.8915
  599MPD2     N 8884   3.247   3.801  15.904  0.6700  0.4233  0.8974
  599MPD2    H5 8885   3.169   3.866  15.899 -0.6143 -1.1662  0.0784
  599MPD2    N1 8886   3.443   3.455  15.627  0.9156 -0.1920 -0.2578
  599MPD2    H7 8887   3.469   3.414  15.716 -1.5090  0.4113  0.7148
  600TMC3    C1 8888   3.213   3.785  16.136 -0.3564  0.0444  0.0139
  600TMC3    C2 8889   3.205   3.664  16.205 -0.1163  0.6195 -0.5054
  600TMC3    C3 8890   3.087   3.641  16.273  0.0599 -0.0011  0.0993
  600TMC3    C4 8891   3.115   3.885  16.138  0.8339 -0.8344  0.1849
  600TMC3    C5 8892   3.005   3.854  16.209  0.0248  0.1834 -0.8046
  600TMC3    C6 8893   2.988   3.739  16.281 -0.3646  0.0294 -0.3193
  600TMC3     C 8894   3.298   3.752  16.021 -0.3925 -0.1758  0.6763
  600TMC3     O 8895   3.405   3.693  16.040  0.5884 -0.1177  1.1308
  600TMC3     H 8896   3.282   3.589  16.188 -3.5654 -2.6912 -1.6520
  600TMC3    H1 8897   3.129   3.973  16.077 -1.0483 -2.4425 -2.5718
  600TMC3    H2 8898   2.886   3.720  16.312 -0.0478  0.7568  1.1995
  600TMC3    C7 8899   2.894   3.956  16.227  0.5296  0.1147  0.1152
  600TMC3    C8 8900   3.064   3.501  16.291  0.7617  0.0134  0.2070
  600TMC3    O1 8901   2.826   3.960  16.331  0.4785  0.0266  0.0942
  600TMC3    O2 8902   3.159   3.425  16.294 -0.4552 -0.1280  0.1035
  601MPD2     C 8903   1.169   1.744  17.400 -0.1980 -0.3864 -0.0360
  601MPD2    C1 8904   1.041   1.741  17.348 -0.3889  0.0985 -0.2170
  601MPD2    C2 8905   0.965   1.627  17.365 -0.0497  0.3769 -0.4558
  601MPD2    C3 8906   1.022   1.508  17.412  0.1330  0.1678 -0.0355
  601MPD2    C4 8907   1.151   1.519  17.461  0.7248 -0.3981  0.0617
  601MPD2    C5 8908   1.222   1.637  17.462  0.7017 -0.4095 -0.8823
  601MPD2     H 8909   0.860   1.622  17.338 -0.3483  1.0976  0.5883
  601MPD2    H1 8910   1.200   1.441  17.518 -2.2729 -0.8405  2.0473
  601MPD2    H2 8911   1.236   1.829  17.392 -1.0974  0.4510  1.3443
  601MPD2    H3 8912   1.324   1.648  17.498 -0.2201  0.4620  1.4402
  601MPD2     N 8913   0.958   1.385  17.429  0.4467 -0.2028 -0.6628
  601MPD2    H5 8914   1.015   1.304  17.448  0.0691  0.0758  1.6160
  601MPD2    N1 8915   0.978   1.850  17.277  0.4298 -0.1436 -0.0908
  601MPD2    H7 8916   0.885   1.834  17.240  0.2760 -0.5294  0.4611
  602TMC3    C1 8917   0.963   2.030  17.127  0.4216 -0.8308  0.1529
  602TMC3    C2 8918   1.023   2.138  17.064  0.1802  0.2358 -0.3063
  602TMC3    C3 8919   0.948   2.220  16.989 -0.4147  0.0358  0.0120
  602TMC3    C4 8920   0.826   2.018  17.127 -0.7258 -0.3692  0.2944
  602TMC3    C5 8921   0.756   2.105  17.053  0.1418 -0.2677  0.0578
  602TMC3    C6 8922   0.813   2.200  16.977  0.2037 -0.8366 -0.0964
  602TMC3     C 8923   1.049   1.951  17.218  0.3526  0.3758  0.0177
  602TMC3     O 8924   1.171   1.972  17.208  0.4715 -0.2800  0.7594
  602TMC3     H 8925   1.130   2.149  17.063  0.1343  0.7025 -0.1474
  602TMC3    H1 8926   0.771   1.965  17.203 -0.0698  0.2172  1.1744
  602TMC3    H2 8927   0.756   2.246  16.897  1.7028 -0.8585 -1.1577
  602TMC3    C7 8928   0.615   2.091  17.061  0.0376  0.4757 -0.3780
  602TMC3    C8 8929   1.011   2.313  16.898 -0.8678  0.6514 -0.0348
  602TMC3    O1 8930   0.565   1.982  17.090  0.5060 -0.8484 -0.0183
  602TMC3    O2 8931   1.134   2.311  16.877  0.2916  0.1627  0.0534
  603TMC3    C1 8932   3.872   1.921  10.260 -0.1466  0.1337 -0.0521
  603TMC3    C2 8933   3.946   1.899  10.375 -0.2562 -0.4292 -0.2663
  603TMC3    C3 8934   4.005   2.005  10.441 -0.5552 -0.2432 -0.1302
  603TMC3    C4 8935   3.872   2.043  10.196 -0.0785 -0.1483 -0.3180
  603TMC3    C5 8936   3.942   2.147  10.256  0.3687  0.3890  0.3557
  603TMC3    C6 8937   4.003   2.128  10.380 -0.3201  0.2677 -0.1013
  603TMC3     C 8938   3.827   1.804  10.187 -0.2008 -0.5044 -0.0560
  603TMC3     O 8939   3.864   1.692  10.218 -0.2063 -0.2789  0.1686
  603TMC3     H 8940   3.951   1.802  10.423  1.1836  0.8301  2.1182
  603TMC3    H1 8941   3.838   2.055  10.094  0.6874  0.3440 -0.5154
  603TMC3    H2 8942   4.011   2.212  10.449 -0.4287  0.3195 -0.1514
  603TMC3    C7 8943   3.916   2.290  10.227  0.2993 -0.4230 -0.5566
  603TMC3    C8 8944   4.046   1.989  10.580  0.3828 -0.4031  0.3444
  603TMC3    O1 8945   4.005   2.364  10.266 -0.3171  0.5523 -0.3430
  603TMC3    O2 8946   4.029   1.881  10.638  0.3515 -1.0687  0.1477
  604MPD2     C 8947   4.063   0.637  16.373  0.1730  0.2323  0.1542
  604MPD2    C1 8948   4.045   0.728  16.270  0.1703 -0.2966 -0.1525
  604MPD2    C2 8949   4.092   0.705  16.145  0.0049  0.5662 -0.6152
  604MPD2    C3 8950   4.142   0.574  16.118 -0.1827 -0.6429 -0.1549
  604MPD2    C4 8951   4.144   0.476  16.214  0.3480  0.8628  0.4247
  604MPD2    C5 8952   4.113   0.509  16.342 -0.3070  0.8149 -0.1391
  604MPD2     H 8953   4.081   0.781  16.068  0.7096 -0.7475 -2.0069
  604MPD2    H1 8954   4.177   0.378  16.183 -0.2050  0.9632 -0.5154
  604MPD2    H2 8955   4.019   0.660  16.469  3.6743 -2.4669  2.3782
  604MPD2    H3 8956   4.133   0.447  16.429  1.0883  0.2294 -0.8896
  604MPD2     N 8957   4.183   0.555  15.988  1.0683 -0.1246 -0.0875
  604MPD2    H5 8958   4.171   0.641  15.936  0.5966 -0.7792 -1.0635
  604MPD2    N1 8959   4.004   0.857  16.321  0.3630 -0.1340 -0.3799
  604MPD2    H7 8960   4.021   0.871  16.420 -3.6997 -0.5244  0.3893
  605TMC3    C1 8961   3.969   1.071  16.314 -0.4984 -0.0476 -0.2730
  605TMC3    C2 8962   4.096   1.082  16.372 -0.2977  0.2199 -0.1706
  605TMC3    C3 8963   4.117   1.197  16.445 -0.1859  0.6527  0.4798
  605TMC3    C4 8964   3.868   1.164  16.336 -0.1268 -0.1722 -0.5535
  605TMC3    C5 8965   3.907   1.278  16.396 -0.7811  0.4806  0.1831
  605TMC3    C6 8966   4.027   1.297  16.452 -0.0232  0.1403  0.0958
  605TMC3     C 8967   3.943   0.947  16.249 -1.0536  0.2276 -0.2557
  605TMC3     O 8968   3.887   0.932  16.143  0.3300  0.0675  0.1957
  605TMC3     H 8969   4.174   1.010  16.349  0.3189  0.9550 -0.3629
  605TMC3    H1 8970   3.775   1.143  16.284 -0.5478 -1.1688  0.6018
  605TMC3    H2 8971   4.036   1.379  16.521  2.0120 -0.7841  0.9445
  605TMC3    C7 8972   3.804   1.382  16.411  0.2481  0.2669  0.3482
  605TMC3    C8 8973   4.256   1.217  16.484 -0.4634  0.1033  0.3663
  605TMC3    O1 8974   3.826   1.502  16.384 -0.1739 -1.2866  0.1988
  605TMC3    O2 8975   4.303   1.327  16.455 -0.0308  0.6580 -0.1553
  606TMC3    C1 8976   0.032   4.469   0.122 -0.3289 -0.5117 -0.3252
  606TMC3    C2 8977   0.020   4.375   0.222  0.0911 -0.5754 -0.0858
  606TMC3    C3 8978   0.001   4.241   0.189 -0.3744  0.2467  0.3615
  606TMC3    C4 8979   0.028   4.424  17.695  0.3356 -0.4120  0.3027
  606TMC3    C5 8980   0.015   4.292  17.665  0.1950  0.2275  0.2822
  606TMC3    C6 8981   4.721   4.196   0.061  0.2502  0.4719  0.1385
  606TMC3     C 8982   0.043   4.609   0.147 -0.9412 -1.0083 -0.1659
  606TMC3     O 8983   4.724   4.685   0.061 -0.1560 -0.3157 -0.4316
  606TMC3     H 8984   0.020   4.408   0.325  0.3453  4.7491 -1.7834
  606TMC3    H1 8985   0.044   4.494  17.614  0.4521 -0.7878  0.0033
  606TMC3    H2 8986   4.699   4.092   0.038  0.6663  0.7638 -1.6134
  606TMC3    C7 8987   0.032   4.258  17.527 -0.2417 -0.3872 -0.6464
  606TMC3    C8 8988   4.719   4.129   0.283  0.0298 -0.2907  0.8311
  606TMC3    O1 8989   0.043   4.350  17.447  0.1145  0.8945 -0.3724
  606TMC3    O2 8990   0.004   4.013   0.244 -0.8459 -0.4308  0.3290
  607MPD2     C 8991   2.887   2.446  11.241 -0.1030 -0.0018 -0.5316
  607MPD2    C1 8992   2.964   2.554  11.252  0.3721  0.5058 -0.0155
  607MPD2    C2 8993   3.020   2.583  11.376  0.0661 -0.1046  0.2951
  607MPD2    C3 8994   2.996   2.511  11.489 -0.6560  0.3518  0.2608
  607MPD2    C4 8995   2.914   2.403  11.476 -0.6085  0.7704  0.4618
  607MPD2    C5 8996   2.863   2.369  11.354 -0.2886 -0.3307 -0.1609
  607MPD2     H 8997   3.097   2.659  11.383 -1.6305  1.6799 -0.1843
  607MPD2    H1 8998   2.882   2.336  11.555 -0.4447 -0.7270 -0.7438
  607MPD2    H2 8999   2.838   2.421  11.148 -0.3345  0.8013 -0.6281
  607MPD2    H3 9000   2.797   2.283  11.353  0.0360 -0.5944  1.2042
  607MPD2     N 9001   3.072   2.538  11.601  0.1214  0.0276 -0.2008
  607MPD2    H5 9002   3.136   2.616  11.605 -0.1167  0.0496  2.7525
  607MPD2    N1 9003   2.994   2.638  11.137 -0.0040  0.1898 -0.4939
  607MPD2    H7 9004   3.052   2.719  11.155  0.9736 -0.4494 -0.7177
  608TMC3    C1 9005   3.070   2.689  10.923  0.5712  0.5057  0.4239
  608TMC3    C2 9006   3.190   2.706  10.974 -0.8513 -0.3028 -0.0212
  608TMC3    C3 9007   3.276   2.801  10.922  0.7671  0.5832 -0.8839
  608TMC3    C4 9008   3.038   2.750  10.809 -0.2262 -0.2269  0.1226
  608TMC3    C5 9009   3.125   2.836  10.741  0.4222 -0.2140 -0.1819
  608TMC3    C6 9010   3.245   2.867  10.806 -0.3764  0.0351 -0.0712
  608TMC3     C 9011   2.971   2.616  11.002  0.2423  0.4685 -0.1208
  608TMC3     O 9012   2.885   2.548  10.950 -0.2151  0.3167  0.0814
  608TMC3     H 9013   3.209   2.646  11.062 -0.1161  1.5979  1.1269
  608TMC3    H1 9014   2.937   2.743  10.771 -0.2583  0.8333  0.0107
  608TMC3    H2 9015   3.318   2.935  10.764  0.0603 -0.3246  0.1021
  608TMC3    C7 9016   3.060   2.923  10.645 -0.1005 -0.3561 -0.0156
  608TMC3    C8 9017   3.398   2.832  10.994  0.4677 -0.2951  0.3873
  608TMC3    O1 9018   2.941   2.904  10.623  0.0144 -0.0626  0.2129
  608TMC3    O2 9019   3.489   2.889  10.940  0.5724  0.2880  0.2986
  609TMC3    C1 9020   0.648   0.933   9.249  0.1198 -0.2090  0.2491
  609TMC3    C2 9021   0.625   0.799   9.273 -0.3340 -0.1678 -0.8358
  609TMC3    C3 9022   0.735   0.712   9.277 -0.2133 -0.0737  0.2204
  609TMC3    C4 9023   0.770   0.978   9.215  0.1038  0.2620  0.3923
  609TMC3    C5 9024   0.871   0.885   9.204 -0.1696 -0.3405 -0.3108
  609TMC3    C6 9025   0.859   0.753   9.241  0.3517 -0.7758  0.0453
  609TMC3     C 9026   0.536   1.013   9.219 -0.2287 -1.1586 -0.2791
  609TMC3     O 9027   0.427   0.971   9.249 -0.0821 -0.4510 -0.3474
  609TMC3     H 9028   0.524   0.767   9.295 -1.4338  2.0645 -2.5628
  609TMC3    H1 9029   0.792   1.080   9.187 -0.4280  0.7970  1.9375
  609TMC3    H2 9030   0.949   0.692   9.244  0.4218 -0.6979 -0.4615
  609TMC3    C7 9031   1.004   0.932   9.156  0.5849  0.8738  0.0920
  609TMC3    C8 9032   0.707   0.605   9.365 -0.0498  0.1240  0.2428
  609TMC3    O1 9033   1.046   1.033   9.209 -0.0716  0.0336  0.2539
  609TMC3    O2 9034   0.606   0.594   9.429 -0.4076  0.1746  0.3197
  610TMC3    C1 9035   3.194   1.745  11.944 -0.2331  0.1350 -0.5678
  610TMC3    C2 9036   3.071   1.796  11.914 -0.0786  0.6551 -0.0975
  610TMC3    C3 9037   2.984   1.826  12.016  0.3669  0.1765 -0.1924
  610TMC3    C4 9038   3.227   1.719  12.075 -0.6903 -0.0083 -0.8156
  610TMC3    C5 9039   3.134   1.749  12.174 -0.0975 -0.8282  0.1700
  610TMC3    C6 9040   3.016   1.806  12.150 -0.1455 -0.0147  1.3550
  610TMC3     C 9041   3.277   1.676  11.840 -0.7466 -0.1869 -0.0126
  610TMC3     O 9042   3.338   1.577  11.882  0.1152 -0.4408 -0.0343
  610TMC3     H 9043   3.046   1.826  11.813  0.1433  0.9813 -0.0552
  610TMC3    H1 9044   3.318   1.670  12.105 -0.4419 -0.8073 -2.9030
  610TMC3    H2 9045   2.941   1.813  12.228 -2.9419 -1.4931 -1.1751
  610TMC3    C7 9046   3.188   1.739  12.306 -0.2950 -0.2468 -0.3568
  610TMC3    C8 9047   2.849   1.819  11.979 -0.5004 -0.1620  0.1425
  610TMC3    O1 9048   3.279   1.657  12.330  0.1255 -0.1949  0.1008
  610TMC3    O2 9049   2.766   1.771  12.051  0.2449 -0.0014 -0.2820
  611MPD2     C 9050   2.819   2.073  10.255 -0.4075  0.2911 -0.0573
  611MPD2    C1 9051   2.745   2.162  10.189  0.0469  0.2553 -0.3903
  611MPD2    C2 9052   2.799   2.283  10.139  0.8982 -0.2666  0.2269
  611MPD2    C3 9053   2.937   2.302  10.143  0.5260 -0.2856  0.2532
  611MPD2    C4 9054   3.012   2.205  10.200 -0.6230 -0.1134 -0.3460
  611MPD2    C5 9055   2.953   2.103  10.263 -0.7038  0.8363  0.0994
  611MPD2     H 9056   2.730   2.356  10.098  0.3268 -0.1920  1.3210
  611MPD2    H1 9057   3.119   2.202  10.220 -0.3986 -0.0712 -1.5874
  611MPD2    H2 9058   2.776   1.992  10.312 -0.9173  2.1001  2.1329
  611MPD2    H3 9059   3.017   2.034  10.318 -0.7887  1.2197  0.6798
  611MPD2     N 9060   3.001   2.415  10.086  0.4922  0.1901  0.0475
  611MPD2    H5 9061   3.103   2.412  10.082  0.4072 -0.7446 -1.4792
  611MPD2    N1 9062   2.603   2.137  10.192 -0.1760  0.0290  0.1343
  611MPD2    H7 9063   2.569   2.052  10.236  0.0271  0.1550  0.5338
  612TMC3    C1 9064   3.024   2.614   9.975 -0.0399 -0.5852 -0.0573
  612TMC3    C2 9065   3.153   2.581   9.959 -0.1169 -0.5752 -0.4083
  612TMC3    C3 9066   3.237   2.675   9.899 -0.4173  0.0433 -0.1836
  612TMC3    C4 9067   2.971   2.743   9.943  0.2384  0.1869  0.7572
  612TMC3    C5 9068   3.057   2.837   9.903 -0.2222  0.1599  0.1111
  612TMC3    C6 9069   3.188   2.801   9.868  0.2287 -0.2922  0.5557
  612TMC3     C 9070   2.932   2.525  10.037 -0.5759  0.7102 -0.6508
  612TMC3     O 9071   2.813   2.555  10.047 -0.5972  0.3088  0.1429
  612TMC3     H 9072   3.191   2.480   9.963 -0.5693 -0.8482 -2.8221
  612TMC3    H1 9073   2.871   2.781   9.959  0.3168  0.2258  1.1415
  612TMC3    H2 9074   3.257   2.877   9.834  0.2867 -0.5077  0.1996
  612TMC3    C7 9075   3.029   2.978   9.929 -0.1379  1.0032 -0.1857
  612TMC3    C8 9076   3.380   2.651   9.897 -0.8859  0.5566 -0.1481
  612TMC3    O1 9077   2.915   3.006   9.967 -0.3652  0.3336 -0.5593
  612TMC3    O2 9078   3.441   2.715   9.817 -0.5239  0.4407 -0.0230
  613MPD2     C 9079   2.432   0.128  15.794  0.1036 -0.1830 -0.1094
  613MPD2    C1 9080   2.372   0.141  15.673  0.2784 -0.0560  0.3701
  613MPD2    C2 9081   2.408   0.048  15.581 -0.1055 -0.2761 -0.5337
  613MPD2    C3 9082   2.467   4.653  15.611 -0.0060 -0.5835 -0.1931
  613MPD2    C4 9083   2.525   4.639  15.734 -0.0178 -0.4667  0.3232
  613MPD2    C5 9084   2.492   0.010  15.826 -0.1700  0.1744  0.0894
  613MPD2     H 9085   2.366   0.060  15.481 -1.4902  0.7254  0.1714
  613MPD2    H1 9086   2.581   4.549  15.758 -0.1862 -0.1859  1.7486
  613MPD2    H2 9087   2.414   0.211  15.862  1.1726  0.1290 -0.2057
  613MPD2    H3 9088   2.520   4.716  15.929 -0.1555 -0.7925 -0.0909
  613MPD2     N 9089   2.454   4.550  15.513 -0.9888  0.4118 -0.4250
  613MPD2    H5 9090   2.421   4.569  15.419 -2.5568  1.9085  0.4303
  613MPD2    N1 9091   2.277   0.237  15.637 -0.0950 -0.2058 -0.1188
  613MPD2    H7 9092   2.250   0.247  15.540 -0.6859  0.6406  0.1426
  614TMC3    C1 9093   2.102   0.371  15.649  0.3760 -0.2554  0.1621
  614TMC3    C2 9094   2.135   0.382  15.519  0.4171 -0.3795  0.2180
  614TMC3    C3 9095   2.047   0.345  15.420  0.2706  0.4312 -0.6357
  614TMC3    C4 9096   1.986   0.317  15.691  0.2452  0.6437  0.7997
  614TMC3    C5 9097   1.898   0.281  15.596  0.1624  0.1835 -0.3299
  614TMC3    C6 9098   1.924   0.294  15.463 -0.5279  0.2922 -0.6056
  614TMC3     C 9099   2.212   0.322  15.727  0.0447  0.8510  0.0952
  614TMC3     O 9100   2.213   0.329  15.850 -0.2340  0.2409 -0.3485
  614TMC3     H 9101   2.228   0.435  15.502  0.0216  0.3606  0.3507
  614TMC3    H1 9102   1.980   0.293  15.796  3.7738 -4.1526 -0.0899
  614TMC3    H2 9103   1.852   0.262  15.388 -1.4878 -1.5789  1.0912
  614TMC3    C7 9104   1.762   0.247  15.645  0.3947  0.1747  0.1793
  614TMC3    C8 9105   2.115   0.265  15.321 -0.3047  0.2283 -0.0726
  614TMC3    O1 9106   1.727   0.309  15.741  0.2661  0.0388  0.3824
  614TMC3    O2 9107   2.224   0.222  15.357  0.4558 -0.5963  0.4306
  615MPD2     C 9108   1.286   1.294  16.062  0.6287 -0.1360  0.5350
  615MPD2    C1 9109   1.249   1.373  15.960  0.2639 -0.8400  0.0037
  615MPD2    C2 9110   1.235   1.329  15.827  0.8417 -0.5868  0.1286
  615MPD2    C3 9111   1.280   1.200  15.800  0.4983  0.0641  0.0913
  615MPD2    C4 9112   1.312   1.115  15.903 -0.1987  0.0084 -0.2002
  615MPD2    C5 9113   1.325   1.165  16.030 -0.3539  0.3510 -0.4847
  615MPD2     H 9114   1.208   1.404  15.754  0.6574  0.6429  1.4715
  615MPD2    H1 9115   1.353   1.020  15.870 -2.0452 -1.0625  0.6015
  615MPD2    H2 9116   1.305   1.327  16.163  0.8064  1.3539  0.0182
  615MPD2    H3 9117   1.348   1.100  16.114 -0.4412  1.0905  0.1217
  615MPD2     N 9118   1.288   1.158  15.668 -0.0763 -0.0978 -0.6042
  615MPD2    H5 9119   1.324   1.067  15.642  1.0843  0.8204 -2.2109
  615MPD2    N1 9120   1.217   1.513  15.976 -0.8340 -0.1443  0.3142
  615MPD2    H7 9121   1.185   1.555  15.890 -1.6457 -0.3673  0.5047
  616TMC3    C1 9122   1.200   1.722  16.096  0.0294  0.1285 -0.1748
  616TMC3    C2 9123   1.295   1.807  16.145 -0.1061 -0.4650  0.1589
  616TMC3    C3 9124   1.280   1.940  16.107 -0.6783  0.3116  0.0531
  616TMC3    C4 9125   1.099   1.755  16.014 -0.1810 -0.5593 -0.3997
  616TMC3    C5 9126   1.094   1.887  15.973  0.4829  0.3788  0.1968
  616TMC3    C6 9127   1.187   1.982  16.017  0.4156  0.2040  0.5066
  616TMC3     C 9128   1.243   1.584  16.092  0.4004 -0.4112 -0.2100
  616TMC3     O 9129   1.296   1.546  16.196 -0.1307  0.1203  0.1659
  616TMC3     H 9130   1.370   1.771  16.214  0.5926 -0.5816 -0.6599
  616TMC3    H1 9131   1.027   1.679  15.986 -0.6764 -0.1478 -0.2478
  616TMC3    H2 9132   1.173   2.086  15.993  0.8637  0.1766  0.1278
  616TMC3    C7 9133   0.987   1.938  15.889  0.3459  0.0612  0.1292
  616TMC3    C8 9134   1.372   2.046  16.153  0.0162  0.3762 -0.4805
  616TMC3    O1 9135   0.967   2.056  15.883  0.3386  0.0966  0.3446
  616TMC3    O2 9136   1.352   2.165  16.154  0.3604 -0.0773  0.2402
  617MPD2     C 9137   3.986   4.159  13.705  0.1824  0.0140  0.7319
  617MPD2    C1 9138   4.031   4.039  13.755  0.1146  0.0371 -0.0538
  617MPD2    C2 9139   3.961   3.967  13.846  0.1028  0.3384 -0.1500
  617MPD2    C3 9140   3.831   4.002  13.881  0.4320 -0.0149  0.1462
  617MPD2    C4 9141   3.785   4.124  13.835 -0.0315  0.8218 -0.4564
  617MPD2    C5 9142   3.860   4.200  13.752  0.4822 -0.9010  0.3577
  617MPD2     H 9143   4.011   3.879  13.885 -1.9792 -0.3288  1.0587
  617MPD2    H1 9144   3.684   4.152  13.862  0.1864 -1.0603  2.3890
  617MPD2    H2 9145   4.041   4.213  13.629  0.0472 -0.0097  0.6195
  617MPD2    H3 9146   3.798   4.279  13.710  1.3901  0.3106  1.2745
  617MPD2     N 9147   3.756   3.934  13.973 -0.4101  0.2271 -0.0462
  617MPD2    H5 9148   3.659   3.963  13.982  0.3085  2.2557  1.0465
  617MPD2    N1 9149   4.160   4.002  13.705  0.0510 -0.2766 -0.3538
  617MPD2    H7 9150   4.193   4.060  13.629  2.8173  1.6322  2.2702
  618TMC3    C1 9151   4.353   3.887  13.675 -1.0607 -0.2123  0.5700
  618TMC3    C2 9152   4.404   3.769  13.628 -0.1529 -0.6819  0.0455
  618TMC3    C3 9153   4.526   3.771  13.562  0.2898  0.1457  0.7475
  618TMC3    C4 9154   4.424   4.001  13.654  0.5973  0.0806 -0.6780
  618TMC3    C5 9155   4.544   4.004  13.588  0.2241  1.1035  0.4980
  618TMC3    C6 9156   4.597   3.890  13.538 -0.4924 -0.3724  0.0412
  618TMC3     C 9157   4.224   3.880  13.731  0.6741  0.7584 -0.3511
  618TMC3     O 9158   4.170   3.775  13.766  0.6473  0.2162  0.3134
  618TMC3     H 9159   4.344   3.679  13.632 -0.7973 -0.2911 -0.9326
  618TMC3    H1 9160   4.386   4.095  13.694  1.0681 -0.0883  0.1475
  618TMC3    H2 9161   4.688   3.898  13.480 -2.5469 -1.6804 -3.3614
  618TMC3    C7 9162   4.607   4.131  13.591  0.5143 -0.1866  0.6980
  618TMC3    C8 9163   4.553   3.658  13.465  0.3008  0.2719  0.1516
  618TMC3    O1 9164   4.587   4.200  13.690  0.0669  0.0514 -0.5487
  618TMC3    O2 9165   4.475   3.561  13.468 -0.6471 -0.0997  0.2407
  619MPD2     C 9166   0.206   0.942  13.373  0.2511 -0.4946 -0.2092
  619MPD2    C1 9167   0.082   0.982  13.336 -0.0066 -0.1588 -0.3162
  619MPD2    C2 9168   4.703   0.945  13.415  0.6942 -0.0775 -0.3548
  619MPD2    C3 9169   4.719   0.868  13.533  0.4303 -0.0828  0.5157
  619MPD2    C4 9170   0.123   0.833  13.568 -0.1737 -0.0526 -0.0947
  619MPD2    C5 9171   0.227   0.868  13.487 -0.5120  0.6730  0.2815
  619MPD2     H 9172   4.600   0.970  13.389  0.8009  1.8409  1.0324
  619MPD2    H1 9173   0.140   0.781  13.662 -1.2542 -2.1120 -1.0404
  619MPD2    H2 9174   0.298   0.957  13.318 -0.0043  2.7283  0.2473
  619MPD2    H3 9175   0.329   0.845  13.515 -0.1959 -0.9756 -2.3010
  619MPD2     N 9176   4.594   0.834  13.601  0.2842  0.1120  0.8394
  619MPD2    H5 9177   4.508   0.873  13.564  0.8584  2.3475  1.8471
  619MPD2    N1 9178   0.054   1.054  13.219 -0.1043 -0.6098  0.1086
  619MPD2    H7 9179   4.682   1.069  13.194  0.0575 -0.6858 -0.5507
  620TMC3    C1 9180   0.091   1.210  13.035  0.4510 -0.2077  0.4982
  620TMC3    C2 9181   4.686   1.168  13.009  0.1745 -0.2923  0.6100
  620TMC3    C3 9182   4.590   1.263  13.012  0.0954 -0.5332  0.3278
  620TMC3    C4 9183   0.122   1.337  13.062  0.2577  1.1831 -0.0080
  620TMC3    C5 9184   0.029   1.436  13.042  0.1319 -0.2813 -0.0781
  620TMC3    C6 9185   4.624   1.396  13.027  0.9525  0.4066 -0.0300
  620TMC3     C 9186   0.147   1.119  13.139  0.1521  0.8764  0.0487
  620TMC3     O 9187   0.268   1.120  13.153  0.1092  0.1299 -0.2144
  620TMC3     H 9188   4.672   1.061  13.005  3.5314 -0.6106 -2.2081
  620TMC3    H1 9189   0.225   1.355  13.091  0.3997  0.3033  0.0299
  620TMC3    H2 9190   4.536   1.457  13.019  0.1213 -0.6859  0.6808
  620TMC3    C7 9191   0.048   1.549  13.117  0.1064  0.3708 -0.1589
  620TMC3    C8 9192   4.506   1.233  13.128  0.8352 -0.0250  0.4970
  620TMC3    O1 9193   0.154   1.555  13.178 -0.2377 -0.0928  0.8633
  620TMC3    O2 9194   4.464   1.118  13.127 -0.2683  0.1915 -0.1732
  621MPD2     C 9195   1.065   0.803  10.197 -0.3738 -0.2215  0.0780
  621MPD2    C1 9196   1.198   0.816  10.239  0.5277  0.9991 -0.4696
  621MPD2    C2 9197   1.286   0.874  10.157  0.1121  0.7362 -0.8359
  621MPD2    C3 9198   1.237   0.921  10.040  0.2378  0.2901  0.3537
  621MPD2    C4 9199   1.107   0.912   9.995 -1.0210  1.1801 -1.0643
  621MPD2    C5 9200   1.021   0.850  10.077  0.0582 -0.0020  0.5776
  621MPD2     H 9201   1.390   0.885  10.186 -0.1106 -1.6367  0.8361
  621MPD2    H1 9202   1.079   0.936   9.894 -0.0371  0.4046 -1.5266
  621MPD2    H2 9203   0.993   0.748  10.258 -0.4478  0.4708  0.6092
  621MPD2    H3 9204   0.916   0.833  10.053 -0.1266  0.8045  0.8250
  621MPD2     N 9205   1.326   1.003   9.969  0.0311 -0.1873  0.7824
  621MPD2    H5 9206   1.404   1.017  10.032  0.5824  0.9516 -0.1415
  621MPD2    N1 9207   1.244   0.779  10.363  0.4071  0.1861  0.3008
  621MPD2    H7 9208   1.345   0.770  10.374  0.2068  1.1267  2.8683
  622TMC3    C1 9209   1.224   0.637  10.552  0.0986 -0.2294  0.5011
  622TMC3    C2 9210   1.141   0.581  10.646  0.6075  0.7458 -0.7375
  622TMC3    C3 9211   1.133   0.455  10.675  1.1078  0.2028  0.3361
  622TMC3    C4 9212   1.327   0.562  10.503 -0.7110  0.3659  0.3326
  622TMC3    C5 9213   1.321   0.427  10.525 -0.1280  0.2666  0.6359
  622TMC3    C6 9214   1.226   0.372  10.611 -0.0948 -0.4180 -0.6946
  622TMC3     C 9215   1.158   0.728  10.458  0.6174  0.5345  0.7673
  622TMC3     O 9216   1.034   0.725  10.465 -0.5065  0.1652 -0.4732
  622TMC3     H 9217   1.069   0.652  10.684  1.5895  0.0405  2.5115
  622TMC3    H1 9218   1.400   0.602  10.434 -1.0664  1.6703  0.7262
  622TMC3    H2 9219   1.217   0.264  10.621  0.8434 -0.5566 -1.3540
  622TMC3    C7 9220   1.410   0.336  10.459  0.2594 -0.2370  0.0491
  622TMC3    C8 9221   0.999   0.395  10.665  0.1715  0.0753 -0.2067
  622TMC3    O1 9222   1.514   0.382  10.417  0.2331 -0.2259  0.1473
  622TMC3    O2 9223   0.987   0.278  10.694  0.9196 -1.0763 -0.2762
  623MPD2     C 9224   4.632   1.483  15.695  0.1132  0.5290  0.0384
  623MPD2    C1 9225   4.564   1.478  15.813 -0.6744 -0.0374  0.4807
  623MPD2    C2 9226   4.640   1.475  15.926 -0.9803  0.2174 -0.1940
  623MPD2    C3 9227   0.055   1.479  15.927  0.2199  0.2825 -0.2289
  623MPD2    C4 9228   0.119   1.492  15.816 -0.0085 -0.2844  0.1535
  623MPD2    C5 9229   0.046   1.494  15.697 -0.6201 -0.3343 -0.3566
  623MPD2     H 9230   4.587   1.471  16.021 -1.1730  1.1319 -0.2616
  623MPD2    H1 9231   0.227   1.498  15.810 -0.0694  1.2381  0.8424
  623MPD2    H2 9232   4.586   1.486  15.597 -2.2751 -1.1149  1.1052
  623MPD2    H3 9233   0.100   1.495  15.603  4.2259  0.0580  2.4566
  623MPD2     N 9234   0.120   1.486  16.051  0.2004 -0.1927 -0.4638
  623MPD2    H5 9235   0.059   1.466  16.130 -0.9254  0.9320 -1.0481
  623MPD2    N1 9236   4.424   1.475  15.824 -0.1637 -0.1655  0.1805
  623MPD2    H7 9237   4.397   1.481  15.922 -2.8072 -0.5610 -0.5113
  624TMC3    C1 9238   0.392   1.313  16.347 -0.3921  0.6573 -0.4261
  624TMC3    C2 9239   0.290   1.306  16.433  1.0604  0.6154 -0.1859
  624TMC3    C3 9240   0.191   1.386  16.408 -0.3760 -0.3775  0.1379
  624TMC3    C4 9241   0.385   1.385  16.229  0.4382 -0.2956  0.7228
  624TMC3    C5 9242   0.283   1.468  16.207  0.5439 -0.3062 -0.0806
  624TMC3    C6 9243   0.180   1.468  16.296  0.4284 -0.6623  1.1739
  624TMC3     C 9244   0.514   1.227  16.375  0.0538 -0.3715  0.3964
  624TMC3     O 9245   0.524   1.184  16.490 -0.2628  0.0792 -0.0955
  624TMC3     H 9246   0.298   1.245  16.522  2.8063 -0.8220 -1.3320
  624TMC3    H1 9247   0.471   1.377  16.163  1.1826  0.2119  1.6194
  624TMC3    H2 9248   0.113   1.553  16.300  0.7828 -0.3112 -0.1099
  624TMC3    C7 9249   0.252   1.486  16.072 -0.7217 -0.0078 -0.1256
  624TMC3    C8 9250   0.067   1.348  16.468  0.3590  0.4852  0.0417
  624TMC3    O1 9251   0.346   1.493  15.996  0.1013  0.5404  0.5172
  624TMC3    O2 9252   4.699   1.426  16.454  0.2213  0.0979  0.6954
  625MPD2     C 9253   0.517   1.961   0.213  0.7730 -0.0176  0.1497
  625MPD2    C1 9254   0.580   2.071   0.277  0.1656 -0.0603 -0.1435
  625MPD2    C2 9255   0.695   2.045   0.348  0.6682 -0.7675  0.0539
  625MPD2    C3 9256   0.745   1.920   0.354  0.0602  0.1855  0.9427
  625MPD2    C4 9257   0.689   1.824   0.280 -0.1223 -0.1983 -0.4247
  625MPD2    C5 9258   0.571   1.839   0.215  0.7532 -0.7198 -0.2160
  625MPD2     H 9259   0.736   2.125   0.407  0.2359 -2.1692  2.2870
  625MPD2    H1 9260   0.730   1.724   0.278 -0.6720 -0.4056 -1.2813
  625MPD2    H2 9261   0.424   1.978   0.159  0.1160  0.3240  1.3791
  625MPD2    H3 9262   0.521   1.754   0.170 -1.2072 -0.4656  1.4455
  625MPD2     N 9263   0.847   1.893   0.442 -0.0835  0.3862  0.9346
  625MPD2    H5 9264   0.891   1.981   0.469 -0.1504 -0.0705  2.4782
  625MPD2    N1 9265   0.521   2.196   0.296 -0.1593 -0.7648 -0.4203
  625MPD2    H7 9266   0.573   2.263   0.351 -0.5462  0.0740 -1.0900
  626TMC3    C1 9267   0.352   2.345   0.313  0.4183  0.4457 -0.9912
  626TMC3    C2 9268   0.271   2.427   0.240 -0.6740  1.2343  0.1450
  626TMC3    C3 9269   0.211   2.525   0.305 -0.3353  0.5007  0.9742
  626TMC3    C4 9270   0.380   2.363   0.446 -0.2077 -0.5975  0.6538
  626TMC3    C5 9271   0.315   2.465   0.510 -0.5678  0.1233  0.1213
  626TMC3    C6 9272   0.238   2.554   0.440 -0.0307  0.0563  0.9502
  626TMC3     C 9273   0.392   2.222   0.253  0.3411 -0.8433  0.4540
  626TMC3     O 9274   0.320   2.167   0.172  0.1103  0.1365  0.0804
  626TMC3     H 9275   0.248   2.398   0.138 -0.6181  0.2664  0.4093
  626TMC3    H1 9276   0.452   2.302   0.499 -1.7197 -1.3427  1.8633
  626TMC3    H2 9277   0.177   2.616   0.504 -0.0867  1.5331 -0.5309
  626TMC3    C7 9278   0.301   2.456   0.654 -0.4243  0.5387 -0.2336
  626TMC3    C8 9279   0.110   2.602   0.230  0.0324  0.6422  0.0315
  626TMC3    O1 9280   0.276   2.557   0.717 -0.2504 -0.0558 -0.3647
  626TMC3    O2 9281   0.136   2.607   0.112 -0.5403  0.0379 -0.0521
  627MPD2     C 9282   3.764   2.717  14.214  0.1621  0.8649 -0.2338
  627MPD2    C1 9283   3.737   2.686  14.346  0.3969  1.0187 -0.0260
  627MPD2    C2 9284   3.625   2.605  14.365 -0.8276 -0.1375  0.7683
  627MPD2    C3 9285   3.548   2.553  14.267 -0.3440  0.1328 -0.5257
  627MPD2    C4 9286   3.575   2.578  14.133  0.4782 -0.2363 -0.3748
  627MPD2    C5 9287   3.687   2.662  14.112 -0.6257  0.2601 -0.4467
  627MPD2     H 9288   3.597   2.582  14.467 -2.7173 -2.1989 -0.2184
  627MPD2    H1 9289   3.525   2.548  14.042 -0.7861 -0.2265  0.3151
  627MPD2    H2 9290   3.858   2.764  14.188  1.2572 -2.6621 -2.5716
  627MPD2    H3 9291   3.718   2.673  14.009  0.3660  3.6746  0.2261
  627MPD2     N 9292   3.442   2.463  14.294 -0.1617  0.0247 -0.2550
  627MPD2    H5 9293   3.418   2.442  14.390  2.2669  0.8413  0.5262
  627MPD2    N1 9294   3.818   2.732  14.457 -0.0074 -0.0299  0.1855
  627MPD2    H7 9295   3.796   2.709  14.553 -0.1773  3.2624  0.9279
  628TMC3    C1 9296   3.998   2.837  14.565  0.3539 -0.3510 -0.9752
  628TMC3    C2 9297   3.978   2.736  14.656  0.6465 -1.0366  0.1984
  628TMC3    C3 9298   4.019   2.776  14.786  0.1232  0.0100  0.4602
  628TMC3    C4 9299   4.026   2.967  14.597  0.4631 -0.9861 -0.5339
  628TMC3    C5 9300   4.061   2.997  14.729 -0.3672 -0.3801  0.1057
  628TMC3    C6 9301   4.065   2.898  14.823  0.4990 -0.2508  0.0545
  628TMC3     C 9302   3.926   2.815  14.436 -0.4235 -0.4603  0.5854
  628TMC3     O 9303   3.941   2.890  14.347 -0.2612 -0.9961 -0.2073
  628TMC3     H 9304   3.974   2.633  14.623 -0.1342 -0.3164 -1.9661
  628TMC3    H1 9305   4.040   3.041  14.519 -0.2869 -0.7020 -0.4049
  628TMC3    H2 9306   4.059   2.935  14.925  0.6649 -1.0080  0.3405
  628TMC3    C7 9307   4.048   3.138  14.766  0.1058  0.4145 -0.3359
  628TMC3    C8 9308   4.052   2.670  14.873  0.0272 -0.0424 -0.4302
  628TMC3    O1 9309   4.138   3.177  14.839  0.1434  0.3138  0.1683
  628TMC3    O2 9310   3.992   2.564  14.852  0.1686  0.0241  0.0142
  629MPD2     C 9311   1.856   2.166  16.309 -0.4448 -0.7826  0.7463
  629MPD2    C1 9312   1.838   2.027  16.294  0.2930 -0.5389 -0.2987
  629MPD2    C2 9313   1.722   1.981  16.240 -1.1777  0.8045 -0.1125
  629MPD2    C3 9314   1.615   2.061  16.210 -0.0935  0.6225  0.2216
  629MPD2    C4 9315   1.630   2.202  16.216 -0.3995  0.9138  0.1190
  629MPD2    C5 9316   1.753   2.250  16.269 -0.1268  0.1501 -0.4995
  629MPD2     H 9317   1.695   1.876  16.233  1.2223  0.2301 -0.9006
  629MPD2    H1 9318   1.562   2.270  16.167 -1.8139 -0.4807  0.1471
  629MPD2    H2 9319   1.955   2.206  16.331 -0.2151 -1.0762  0.2629
  629MPD2    H3 9320   1.773   2.357  16.269 -0.5964  0.2411  1.0722
  629MPD2     N 9321   1.502   1.987  16.163 -0.4455  0.1523  0.0531
  629MPD2    H5 9322   1.524   1.893  16.133 -0.0639  0.8686 -1.9369
  629MPD2    N1 9323   1.948   1.949  16.321 -0.0630  0.1296 -0.1528
  629MPD2    H7 9324   2.033   1.996  16.348 -0.7338  2.8071 -2.7566
  630TMC3    C1 9325   2.079   1.761  16.369  0.0235  0.1674  0.6719
  630TMC3    C2 9326   2.190   1.821  16.320 -0.0772 -0.3323 -0.6187
  630TMC3    C3 9327   2.312   1.764  16.353 -0.1490 -0.9654 -0.5774
  630TMC3    C4 9328   2.085   1.660  16.464  0.1401 -0.1623  0.2596
  630TMC3    C5 9329   2.210   1.624  16.511  0.8431 -0.2147  0.0050
  630TMC3    C6 9330   2.323   1.655  16.441  0.2004  0.1499  0.1193
  630TMC3     C 9331   1.949   1.813  16.338  0.2383 -0.0477  0.3202
  630TMC3     O 9332   1.856   1.730  16.338  0.4792 -0.1463  0.4822
  630TMC3     H 9333   2.179   1.898  16.245 -3.0198 -0.9160 -0.7919
  630TMC3    H1 9334   2.009   1.659  16.541 -2.1598  3.1123 -1.9560
  630TMC3    H2 9335   2.422   1.626  16.475 -0.2928  0.1230  1.5327
  630TMC3    C7 9336   2.236   1.568  16.641 -0.4269 -0.3777 -0.6882
  630TMC3    C8 9337   2.423   1.860  16.354 -0.3427 -0.6803  0.6853
  630TMC3    O1 9338   2.356   1.553  16.670 -0.1006 -0.2145  0.8724
  630TMC3    O2 9339   2.508   1.839  16.436  0.4391  0.1172  0.2772
  631MPD2     C 9340   0.471   1.013  15.320  0.2355  0.4676 -0.1075
  631MPD2    C1 9341   0.536   1.086  15.220  1.0907 -0.7474 -0.4218
  631MPD2    C2 9342   0.671   1.086  15.217 -0.1975 -0.2925  0.1679
  631MPD2    C3 9343   0.747   1.034  15.318  0.4758 -0.3539  0.0849
  631MPD2    C4 9344   0.682   0.971  15.419 -0.0188  0.0516  0.0682
  631MPD2    C5 9345   0.548   0.945  15.410  0.2105 -0.1180  0.5147
  631MPD2     H 9346   0.724   1.148  15.145  2.2565 -0.7553  1.5616
  631MPD2    H1 9347   0.735   0.918  15.498 -1.1379  1.6464  1.8827
  631MPD2    H2 9348   0.364   1.020  15.332  0.4330  0.0325  1.8928
  631MPD2    H3 9349   0.498   0.895  15.492 -1.7064  0.4936 -0.2892
  631MPD2     N 9350   0.890   1.038  15.297 -1.2693 -0.4554 -0.0594
  631MPD2    H5 9351   0.918   1.067  15.204 -2.3758  0.2120 -0.1807
  631MPD2    N1 9352   0.457   1.150  15.120 -0.1311  0.0677 -0.2038
  631MPD2    H7 9353   0.357   1.162  15.134 -0.1139 -1.0997  0.9036
  632TMC3    C1 9354   0.429   1.302  14.923  0.0219  0.2008  0.0092
  632TMC3    C2 9355   0.333   1.370  14.987  0.7645 -0.6034 -0.1779
  632TMC3    C3 9356   0.303   1.499  14.954 -0.1393  0.3683  0.2272
  632TMC3    C4 9357   0.489   1.351  14.809  0.8390 -0.2599  0.1554
  632TMC3    C5 9358   0.438   1.473  14.769 -0.0567 -0.0730 -0.2231
  632TMC3    C6 9359   0.347   1.550  14.840  0.2616 -0.0511  0.8782
  632TMC3     C 9360   0.510   1.197  15.000 -0.5412 -0.7489  0.3882
  632TMC3     O 9361   0.617   1.172  14.941 -0.6192  0.1695 -0.2141
  632TMC3     H 9362   0.305   1.342  15.089 -0.5020 -0.0249 -0.3763
  632TMC3    H1 9363   0.569   1.300  14.758 -1.1795 -1.5820 -1.6949
  632TMC3    H2 9364   0.306   1.645  14.806  3.3447  0.9459 -0.0101
  632TMC3    C7 9365   0.490   1.525  14.649 -0.2030 -0.0800  0.6236
  632TMC3    C8 9366   0.236   1.583  15.047  0.1238  0.0488  0.1381
  632TMC3    O1 9367   0.415   1.595  14.589  0.8212  0.0747  0.4931
  632TMC3    O2 9368   0.146   1.539  15.121 -0.0537 -0.0345  0.2794
  633MPD2     C 9369   4.474   4.020  17.364  1.5819 -0.7688  0.4539
  633MPD2    C1 9370   4.501   3.986  17.231 -0.5863  0.2995  0.0939
  633MPD2    C2 9371   4.499   3.847  17.197 -0.0447  0.2721  0.2510
  633MPD2    C3 9372   4.478   3.753  17.289  0.0188  0.1429 -0.2432
  633MPD2    C4 9373   4.442   3.789  17.419 -0.3201  0.0659  0.1712
  633MPD2    C5 9374   4.444   3.927  17.457 -0.0928 -0.6938 -1.2202
  633MPD2     H 9375   4.523   3.818  17.096 -0.2980 -0.8191  0.5027
  633MPD2    H1 9376   4.414   3.719  17.497  1.1598  0.6241  1.2095
  633MPD2    H2 9377   4.481   4.124  17.394  1.2792 -0.6003 -0.0642
  633MPD2    H3 9378   4.408   3.956  17.556  2.2172 -1.4451 -0.1705
  633MPD2     N 9379   4.508   3.614  17.268  0.0902 -0.0320 -0.1321
  633MPD2    H5 9380   4.498   3.550  17.346  2.2415 -0.9918 -0.6722
  633MPD2    N1 9381   4.538   4.079  17.134 -0.4773 -0.2858  0.0908
  633MPD2    H7 9382   4.569   4.047  17.043  0.2025 -0.5936  0.4317
  634TMC3    C1 9383   4.568   4.268  17.018 -0.1821  0.1575 -0.2803
  634TMC3    C2 9384   4.684   4.209  16.964 -0.1579  0.1537 -0.5860
  634TMC3    C3 9385   0.032   4.284  16.874 -0.3799  0.2372  0.1175
  634TMC3    C4 9386   4.544   4.401  16.995  0.1047  0.2901  0.2487
  634TMC3    C5 9387   4.629   4.466  16.913 -0.0379  0.2681  0.0539
  634TMC3    C6 9388   0.006   4.410  16.854 -0.3573 -0.3030  0.3924
  634TMC3     C 9389   4.512   4.213  17.139 -0.3267  0.1648  0.1224
  634TMC3     O 9390   4.435   4.270  17.217  0.7900 -0.3324 -0.2124
  634TMC3     H 9391   4.723   4.112  16.991  0.7126  0.6766  0.0462
  634TMC3    H1 9392   4.458   4.456  17.032 -1.3190 -2.3115  0.8372
  634TMC3    H2 9393   0.076   4.473  16.801 -0.4356 -0.7169 -0.2013
  634TMC3    C7 9394   4.588   4.586  16.845 -0.1101  0.2472  0.8594
  634TMC3    C8 9395   0.115   4.203  16.782  0.4959 -0.3245  0.7389
  634TMC3    O1 9396   4.633   4.600  16.734  0.0300  0.3163 -0.3330
  634TMC3    O2 9397   0.101   4.081  16.796 -0.1053 -0.5644 -0.8742
  635TMC3    C1 9398   1.208   0.412  16.906 -0.7181  0.6269 -0.3125
  635TMC3    C2 9399   1.333   0.371  16.883  0.7663  0.2157  0.3925
  635TMC3    C3 9400   1.353   0.265  16.812 -0.1572 -0.6105  0.0540
  635TMC3    C4 9401   1.102   0.359  16.836 -0.1830 -0.7553  0.4480
  635TMC3    C5 9402   1.124   0.244  16.767 -0.0822 -0.3860 -0.4074
  635TMC3    C6 9403   1.253   0.194  16.752  0.3473  0.1106 -0.8353
  635TMC3     C 9404   1.179   0.527  16.998  0.7700  0.6977 -0.4921
  635TMC3     O 9405   1.067   0.573  16.994 -1.0759 -0.1916 -0.1630
  635TMC3     H 9406   1.416   0.437  16.910 -0.1450  2.1869 -1.6451
  635TMC3    H1 9407   1.001   0.398  16.840  0.5965  1.1926  0.8886
  635TMC3    H2 9408   1.269   0.098  16.705  0.3510 -1.3910  2.2943
  635TMC3    C7 9409   1.022   0.192  16.676 -0.3997  0.3427  0.0539
  635TMC3    C8 9410   1.484   0.208  16.827  0.1628 -0.4991 -0.2166
  635TMC3    O1 9411   1.000   0.072  16.686  0.2606  0.0597  0.0012
  635TMC3    O2 9412   1.545   0.228  16.933 -0.4904  0.0495 -0.5614
  636MPD2     C 9413   1.630   4.267  15.545 -0.2564  0.3487  0.6163
  636MPD2    C1 9414   1.712   4.373  15.563  0.2741  0.2084  0.1166
  636MPD2    C2 9415   1.843   4.373  15.510  0.1848 -0.2005 -0.0906
  636MPD2    C3 9416   1.886   4.267  15.436  0.5784 -0.1015 -0.4619
  636MPD2    C4 9417   1.802   4.162  15.412  0.2825  0.1104 -0.9165
  636MPD2    C5 9418   1.675   4.162  15.469  0.9220 -0.2374 -0.3221
  636MPD2     H 9419   1.915   4.453  15.523  0.4858 -0.5140  0.2161
  636MPD2    H1 9420   1.839   4.072  15.364  0.7801 -0.4155  0.4812
  636MPD2    H2 9421   1.532   4.257  15.592 -1.1845  0.5416 -1.2859
  636MPD2    H3 9422   1.610   4.075  15.467  0.0874  0.3635  0.8645
  636MPD2     N 9423   2.024   4.271  15.400 -0.1667 -0.2162  0.0471
  636MPD2    H5 9424   2.071   4.350  15.443 -0.5586  0.0627 -0.0252
  636MPD2    N1 9425   1.668   4.481  15.649 -0.0617  0.8503 -0.4374
  636MPD2    H7 9426   1.745   4.541  15.677  1.2729 -1.7803  1.5490
  637TMC3    C1 9427   2.231   4.214  15.311  0.2795 -0.3385  0.2139
  637TMC3    C2 9428   2.285   4.250  15.434 -0.5790  0.7987 -0.3020
  637TMC3    C3 9429   2.395   4.337  15.434 -0.5853  0.9777 -0.0200
  637TMC3    C4 9430   2.261   4.281  15.194  0.1681 -1.1706  0.4116
  637TMC3    C5 9431   2.362   4.369  15.204  0.1899 -0.1736 -0.0772
  637TMC3    C6 9432   2.440   4.381  15.319  0.0186 -0.0240  0.3456
  637TMC3     C 9433   2.089   4.185  15.317  0.6588  0.1190 -0.0968
  637TMC3     O 9434   2.053   4.080  15.259 -0.4189 -0.4303  0.1724
  637TMC3     H 9435   2.242   4.222  15.530 -1.4887  0.9783 -0.6529
  637TMC3    H1 9436   2.212   4.275  15.098 -0.4280 -2.3659  0.7894
  637TMC3    H2 9437   2.521   4.454  15.314 -0.7528  0.8897  1.2559
  637TMC3    C7 9438   2.323   4.509  15.178 -0.2790 -0.0576  0.0898
  637TMC3    C8 9439   2.424   4.422  15.548  0.3495  0.2514  0.0609
  637TMC3    O1 9440   2.361   4.590  15.257  0.0877  0.1300  0.1188
  637TMC3    O2 9441   2.406   4.383  15.662 -0.4694  0.1251 -0.1252
  638MPD2     C 9442   1.133   3.254  14.545  0.0423  0.0431  0.3184
  638MPD2    C1 9443   1.061   3.258  14.425 -0.5626  0.4880  0.3138
  638MPD2    C2 9444   0.924   3.258  14.441 -0.4612 -0.7998  0.0790
  638MPD2    C3 9445   0.867   3.241  14.568 -0.4470  0.2341  0.8488
  638MPD2    C4 9446   0.946   3.232  14.683  0.5017  0.0717 -0.4614
  638MPD2    C5 9447   1.082   3.238  14.668 -0.2909  0.2107 -0.2028
  638MPD2     H 9448   0.859   3.256  14.354  0.4861  1.7233 -0.6909
  638MPD2    H1 9449   0.899   3.226  14.780 -0.7957 -1.0916 -1.1581
  638MPD2    H2 9450   1.240   3.265  14.536 -0.0987  1.0668 -0.0401
  638MPD2    H3 9451   1.145   3.244  14.756 -2.7032  1.2432  1.4411
  638MPD2     N 9452   0.727   3.220  14.573  0.5791  0.1612 -0.3379
  638MPD2    H5 9453   0.676   3.247  14.490  1.3593  3.1708  0.1686
  638MPD2    N1 9454   1.126   3.255  14.299 -0.4122  0.0898  0.4816
  638MPD2    H7 9455   1.227   3.266  14.297 -0.4734  0.4034 -1.1519
  639TMC3    C1 9456   0.505   3.179  14.655 -0.1696 -0.3203 -0.1201
  639TMC3    C2 9457   0.484   3.085  14.555  0.0797 -0.2959 -0.0500
  639TMC3    C3 9458   0.375   3.012  14.573  0.2628 -0.1798  0.3887
  639TMC3    C4 9459   0.424   3.207  14.761  0.7119  0.2929 -0.1628
  639TMC3    C5 9460   0.313   3.128  14.773 -0.3954  0.0788 -0.5974
  639TMC3    C6 9461   0.283   3.039  14.675  0.5192 -0.5521 -0.4726
  639TMC3     C 9462   0.646   3.202  14.688  0.2832  0.5499  0.7906
  639TMC3     O 9463   0.681   3.163  14.799  0.5339 -0.6554  0.0431
  639TMC3     H 9464   0.563   3.048  14.491  0.7914  4.0580 -1.7132
  639TMC3    H1 9465   0.437   3.291  14.828 -0.8289 -0.0020  0.5228
  639TMC3    H2 9466   0.205   2.965  14.691  1.0932 -1.4114 -1.6512
  639TMC3    C7 9467   0.315   3.065  14.895  0.1980 -0.5842  0.0907
  639TMC3    C8 9468   0.408   2.875  14.551  0.3490 -0.0116  0.0723
  639TMC3    O1 9469   0.221   2.989  14.916 -0.1810 -0.4895 -0.1546
  639TMC3    O2 9470   0.496   2.845  14.470 -0.0114  0.6867  0.0204
  640MPD2     C 9471   0.551   2.042   9.713 -0.1578  0.6023 -1.1298
  640MPD2    C1 9472   0.679   2.093   9.689  0.6103  0.7858 -0.2219
  640MPD2    C2 9473   0.684   2.230   9.679  0.0439  0.1142  0.3268
  640MPD2    C3 9474   0.573   2.308   9.702 -0.5123  0.2747 -0.2327
  640MPD2    C4 9475   0.446   2.255   9.714 -0.1110 -0.2803 -0.5564
  640MPD2    C5 9476   0.438   2.122   9.733  0.3735  0.1352 -0.5023
  640MPD2     H 9477   0.782   2.271   9.658 -0.8239  2.1166  0.1895
  640MPD2    H1 9478   0.356   2.312   9.734  1.2976  1.2865  1.1511
  640MPD2    H2 9479   0.522   1.939   9.724 -1.8991  0.9852 -2.1408
  640MPD2    H3 9480   0.340   2.079   9.749  1.7316 -3.0590 -0.7217
  640MPD2     N 9481   0.581   2.447   9.696  0.0932 -0.2154 -0.0402
  640MPD2    H5 9482   0.495   2.501   9.709 -0.0185 -0.2755 -0.5215
  640MPD2    N1 9483   0.780   1.999   9.655  0.2063 -0.5730  0.0034
  640MPD2    H7 9484   0.754   1.901   9.663  0.6103 -0.6284  0.6156
  641TMC3    C1 9485   0.961   1.921   9.537  0.4393  0.0227 -0.6085
  641TMC3    C2 9486   1.095   1.928   9.514 -0.3626  0.1842 -0.1363
  641TMC3    C3 9487   1.148   1.879   9.400  0.0685  0.2162 -0.0325
  641TMC3    C4 9488   0.883   1.870   9.438 -0.1335  1.1181  0.0941
  641TMC3    C5 9489   0.939   1.828   9.322 -0.6812  0.0407 -0.0084
  641TMC3    C6 9490   1.075   1.832   9.292 -0.2625  0.5575  0.0427
  641TMC3     C 9491   0.909   2.021   9.621 -0.7161  0.2136 -0.0374
  641TMC3     O 9492   0.990   2.102   9.663 -0.4337  0.1630  0.4054
  641TMC3     H 9493   1.159   1.969   9.591 -0.8860 -0.2377  0.5269
  641TMC3    H1 9494   0.775   1.866   9.455 -0.1567 -0.0006 -0.3415
  641TMC3    H2 9495   1.120   1.785   9.205 -2.3720 -2.2582  0.4692
  641TMC3    C7 9496   0.853   1.825   9.204  0.1576  0.6744 -0.7246
  641TMC3    C8 9497   1.276   1.807   9.406 -0.2527  0.8622  0.4829
  641TMC3    O1 9498   0.734   1.860   9.214 -0.3528 -0.3905  0.2846
  641TMC3    O2 9499   1.289   1.717   9.324 -0.2379 -0.0630 -0.6987
  642TMC3    C1 9500   3.059   3.324  12.281 -0.3330  0.0982  0.4044
  642TMC3    C2 9501   3.132   3.332  12.397 -0.6555  0.7796 -0.6090
  642TMC3    C3 9502   3.186   3.217  12.440 -0.0981  0.5346  0.0186
  642TMC3    C4 9503   3.040   3.216  12.202 -0.6027  0.0607 -0.2981
  642TMC3    C5 9504   3.101   3.099  12.244  0.5832  0.1720  0.0096
  642TMC3    C6 9505   3.164   3.101  12.369 -0.3335  0.6471  0.1409
  642TMC3     C 9506   3.013   3.460  12.233  1.0747  0.1023  0.1045
  642TMC3     O 9507   3.069   3.507  12.141  0.2341 -0.0536  0.5490
  642TMC3     H 9508   3.149   3.430  12.440 -1.5506 -0.5008  2.7583
  642TMC3    H1 9509   2.976   3.225  12.115  1.4022  0.4078 -1.7409
  642TMC3    H2 9510   3.193   3.006  12.413 -0.5946  1.0871  1.2740
  642TMC3    C7 9511   3.068   2.972  12.187  0.3059 -0.1223  0.1396
  642TMC3    C8 9512   3.224   3.217  12.580  1.0493 -0.0737  0.2400
  642TMC3    O1 9513   2.972   2.964  12.114 -0.7404 -0.5612 -0.2374
  642TMC3    O2 9514   3.243   3.320  12.639 -0.2568 -0.4559  0.1889
  643TMC3    C1 9515   1.769   2.193   0.169  0.3188  0.4951 -0.1228
  643TMC3    C2 9516   1.705   2.311   0.183 -0.4848 -0.5238  0.0198
  643TMC3    C3 9517   1.746   2.420   0.112  0.3105 -0.0930 -0.2513
  643TMC3    C4 9518   1.865   2.177   0.070  0.5402  0.3937 -0.3048
  643TMC3    C5 9519   1.893   2.289   0.001 -0.0274 -0.2350 -0.6098
  643TMC3    C6 9520   1.836   2.411   0.016 -0.7886 -0.3289  0.4549
  643TMC3     C 9521   1.780   2.114   0.289 -0.6256  0.0543  0.6363
  643TMC3     O 9522   1.680   2.069   0.341  0.0012 -0.0020  0.0890
  643TMC3     H 9523   1.651   2.322   0.276  0.6174 -2.6501  0.9141
  643TMC3    H1 9524   1.923   2.086   0.060  0.8440  0.9676 -4.0565
  643TMC3    H2 9525   1.869   2.489  17.647  0.0664 -0.7718  0.3525
  643TMC3    C7 9526   2.000   2.286  17.604 -0.4864  0.2157 -0.3208
  643TMC3    C8 9527   1.681   2.555   0.124 -1.2916 -0.9371 -1.1725
  643TMC3    O1 9528   2.073   2.383  17.609 -0.2369  0.0890 -0.1341
  643TMC3    O2 9529   1.557   2.557   0.140 -0.0311  0.2984  0.7815
  644MPD2     C 9530   1.160   2.787   9.377  0.3388  0.0251  0.1341
  644MPD2    C1 9531   1.288   2.781   9.433 -0.1956 -0.1100  0.4988
  644MPD2    C2 9532   1.354   2.901   9.451  0.0690  0.1213 -0.8418
  644MPD2    C3 9533   1.290   3.020   9.428  0.1591  0.0717  0.3409
  644MPD2    C4 9534   1.155   3.024   9.397  0.4095  0.7670 -0.3660
  644MPD2    C5 9535   1.096   2.905   9.362  0.7206 -0.7380 -0.7213
  644MPD2     H 9536   1.458   2.904   9.481  0.1457 -1.5185 -0.9269
  644MPD2    H1 9537   1.097   3.114   9.376 -0.9316  0.2215  0.9900
  644MPD2    H2 9538   1.108   2.697   9.348  0.8446 -1.0194  2.4833
  644MPD2    H3 9539   0.998   2.910   9.316  1.7498  0.7953 -2.7239
  644MPD2     N 9540   1.375   3.140   9.442 -0.4054  0.3731  0.0602
  644MPD2    H5 9541   1.473   3.118   9.453 -0.2293  1.2913  0.3223
  644MPD2    N1 9542   1.342   2.649   9.458  0.0502 -0.1759  0.2799
  644MPD2    H7 9543   1.284   2.567   9.442 -1.6851  0.9650  0.6820
  645TMC3    C1 9544   1.443   3.372   9.456  0.3684  0.0872  0.0190
  645TMC3    C2 9545   1.530   3.349   9.557  0.5686  0.1240 -0.8397
  645TMC3    C3 9546   1.603   3.451   9.601 -0.8053 -0.1473  0.6117
  645TMC3    C4 9547   1.444   3.498   9.397 -0.1859 -0.0757 -0.2727
  645TMC3    C5 9548   1.529   3.598   9.439  0.0367  1.0993 -0.1193
  645TMC3    C6 9549   1.614   3.580   9.544 -0.1489  0.0258  0.1706
  645TMC3     C 9550   1.332   3.270   9.440  0.2976  0.2621  0.4007
  645TMC3     O 9551   1.221   3.322   9.417  0.2707 -0.8929 -0.3250
  645TMC3     H 9552   1.526   3.251   9.603 -0.3407  0.7343  0.3949
  645TMC3    H1 9553   1.371   3.517   9.319  1.3000  0.0088 -1.6717
  645TMC3    H2 9554   1.676   3.657   9.587  0.8882  0.9945 -3.0371
  645TMC3    C7 9555   1.546   3.701   9.342 -0.6894  0.1504  0.0075
  645TMC3    C8 9556   1.678   3.412   9.721  0.0273 -0.2452 -0.4443
  645TMC3    O1 9557   1.489   3.675   9.236 -0.0203 -0.2258 -0.4046
  645TMC3    O2 9558   1.644   3.307   9.778  0.4611  0.6866  0.9163
  646MPD2     C 9559   1.350   1.953  14.562  0.3152  0.5174  0.5237
  646MPD2    C1 9560   1.250   1.872  14.618  0.0828  0.0465  0.6198
  646MPD2    C2 9561   1.123   1.885  14.557  0.6742 -1.0423  0.6935
  646MPD2    C3 9562   1.106   1.975  14.456  0.2081 -0.5173  0.0272
  646MPD2    C4 9563   1.211   2.035  14.391 -0.3868  0.7749 -0.8856
  646MPD2    C5 9564   1.331   2.018  14.443 -0.5364 -0.0351 -0.3647
  646MPD2     H 9565   1.038   1.830  14.596  1.2334 -3.0648 -0.9465
  646MPD2    H1 9566   1.200   2.096  14.302  1.1608  1.7884 -0.3844
  646MPD2    H2 9567   1.450   1.971  14.599  0.6603  0.5155 -0.4257
  646MPD2    H3 9568   1.414   2.076  14.404  0.1939 -0.1548  0.9867
  646MPD2     N 9569   0.978   1.992  14.404 -0.1046  0.0617  0.7478
  646MPD2    H5 9570   0.913   1.927  14.447 -0.3272 -0.1615  0.0627
  646MPD2    N1 9571   1.276   1.807  14.734  0.1856 -0.3457 -0.3131
  646MPD2    H7 9572   1.368   1.812  14.775  1.1359  0.3866 -2.5671
  647TMC3    C1 9573   1.258   1.671  14.918 -0.0038  0.7824  0.1848
  647TMC3    C2 9574   1.298   1.541  14.926 -0.7672  0.0314 -0.5844
  647TMC3    C3 9575   1.371   1.504  15.035  0.1376 -0.3905  0.6220
  647TMC3    C4 9576   1.290   1.771  15.004  0.3830 -0.1798  0.3383
  647TMC3    C5 9577   1.373   1.734  15.109 -0.0414 -0.6860 -0.2527
  647TMC3    C6 9578   1.410   1.600  15.133  0.2295 -0.8396 -0.1666
  647TMC3     C 9579   1.194   1.708  14.794 -0.6296  0.0467  0.7109
  647TMC3     O 9580   1.096   1.641  14.760  0.2878 -0.2809  0.0160
  647TMC3     H 9581   1.252   1.463  14.866  1.2848  0.1357 -2.2906
  647TMC3    H1 9582   1.259   1.875  14.992 -0.7325 -0.4153  1.1600
  647TMC3    H2 9583   1.461   1.566  15.223 -1.9490 -2.2459  0.5498
  647TMC3    C7 9584   1.445   1.835  15.180  0.3259  0.8129  0.3332
  647TMC3    C8 9585   1.424   1.367  15.059 -0.3523 -0.1667  0.3509
  647TMC3    O1 9586   1.390   1.941  15.198 -0.3850 -0.5271  0.5940
  647TMC3    O2 9587   1.495   1.346  15.160 -0.0334  0.2862  0.0380
  648TMC3    C1 9588   0.630   4.290  16.222 -0.8907 -0.5866 -0.4969
  648TMC3    C2 9589   0.680   4.171  16.163  0.6298  0.1647  0.1692
  648TMC3    C3 9590   0.696   4.178  16.028 -0.5555  0.3445  0.0067
  648TMC3    C4 9591   0.593   4.401  16.140  0.3175 -0.1394  0.0414
  648TMC3    C5 9592   0.606   4.391  16.006  0.6511 -0.6982  0.3162
  648TMC3    C6 9593   0.665   4.282  15.949  0.5958 -0.4946 -0.3005
  648TMC3     C 9594   0.633   4.320  16.367  0.1897 -0.1420 -0.5843
  648TMC3     O 9595   0.602   4.434  16.403 -0.1580 -0.3198 -0.1860
  648TMC3     H 9596   0.713   4.080  16.212 -2.3463 -0.6987  0.5725
  648TMC3    H1 9597   0.563   4.497  16.182  1.4327  0.5795 -0.8072
  648TMC3    H2 9598   0.673   4.265  15.842 -0.6814 -2.3904 -0.1083
  648TMC3    C7 9599   0.512   4.457  15.921  0.3558 -0.2187  1.0597
  648TMC3    C8 9600   0.721   4.052  15.957 -1.1849 -0.4414  0.6844
  648TMC3    O1 9601   0.528   4.435  15.804 -0.1586  0.1687  0.3100
  648TMC3    O2 9602   0.768   4.054  15.843 -0.3407  0.7661  0.3579
  649TMC3    C1 9603   3.799   0.526  12.736  0.1929  0.0315 -0.3958
  649TMC3    C2 9604   3.925   0.584  12.734  0.7403  0.0830  0.7264
  649TMC3    C3 9605   4.002   0.579  12.856  0.3369 -0.1995  0.2794
  649TMC3    C4 9606   3.737   0.497  12.851 -0.3038 -0.2446  0.1075
  649TMC3    C5 9607   3.806   0.497  12.964  0.0954  0.4077  0.4336
  649TMC3    C6 9608   3.936   0.533  12.968 -0.2350  0.4442  0.4464
  649TMC3     C 9609   3.709   0.527  12.613 -0.3522  0.8669  0.5988
  649TMC3     O 9610   3.588   0.522  12.644 -0.0785 -0.6744  0.2879
  649TMC3     H 9611   3.961   0.630  12.644  0.0715 -0.2052  0.3124
  649TMC3    H1 9612   3.635   0.460  12.838  0.2865 -1.0512 -2.2136
  649TMC3    H2 9613   3.982   0.538  13.065  0.0534  1.9000  0.2395
  649TMC3    C7 9614   3.737   0.457  13.084  0.3684  0.0228 -0.0597
  649TMC3    C8 9615   4.133   0.654  12.863  0.0658 -0.3625  0.2199
  649TMC3    O1 9616   3.614   0.454  13.074 -0.0752  0.4025  0.0210
  649TMC3    O2 9617   4.155   0.733  12.775 -0.4437 -0.6734 -0.0077
  650TMC3    C1 9618   2.267   2.556  12.569  0.8099 -0.2471  0.4373
  650TMC3    C2 9619   2.259   2.697  12.558  0.0341 -0.2510 -0.9363
  650TMC3    C3 9620   2.140   2.751  12.515 -0.6562  0.2284  0.8089
  650TMC3    C4 9621   2.159   2.480  12.531  0.2195 -0.0552  0.6727
  650TMC3    C5 9622   2.050   2.543  12.470 -0.3677 -0.1962  0.1437
  650TMC3    C6 9623   2.038   2.678  12.456 -0.5159  0.0446  0.3170
  650TMC3     C 9624   2.360   2.505  12.669  0.3245 -0.3709  0.9184
  650TMC3     O 9625   2.427   2.593  12.726  0.0187 -0.6881 -0.1764
  650TMC3     H 9626   2.330   2.767  12.603  0.0430 -0.3595 -0.7803
  650TMC3    H1 9627   2.159   2.372  12.538 -1.6625 -0.0753  0.4157
  650TMC3    H2 9628   1.953   2.724  12.406 -0.0551  0.5700  0.0022
  650TMC3    C7 9629   1.970   2.456  12.397 -0.2981  0.3081  0.1691
  650TMC3    C8 9630   2.124   2.893  12.515 -0.1374  0.1234 -0.3393
  650TMC3    O1 9631   1.958   2.348  12.441  0.0978 -0.5238  0.2540
  650TMC3    O2 9632   2.227   2.959  12.524 -0.4412  0.4975 -0.8460
  651MPD2     C 9633   0.928   4.235  10.418  0.7263 -0.3418 -0.4363
  651MPD2    C1 9634   0.909   4.347  10.495  0.2241 -0.9352 -0.2881
  651MPD2    C2 9635   1.018   4.419  10.527 -0.3566  0.1547  0.1692
  651MPD2    C3 9636   1.148   4.386  10.490  0.1838 -0.0380 -0.1120
  651MPD2    C4 9637   1.160   4.280  10.414 -0.3237 -0.3117 -0.4966
  651MPD2    C5 9638   1.056   4.203  10.372  0.8770  0.5056  0.4392
  651MPD2     H 9639   0.986   4.495  10.598 -0.4734  0.2729 -0.0108
  651MPD2    H1 9640   1.256   4.260  10.368 -1.2144 -1.4825 -1.8048
  651MPD2    H2 9641   0.849   4.175  10.374 -0.2960 -0.2617  1.2692
  651MPD2    H3 9642   1.072   4.126  10.298 -0.8758  0.1382  0.4464
  651MPD2     N 9643   1.248   4.471  10.535  0.0865 -0.6623 -0.1982
  651MPD2    H5 9644   1.215   4.552  10.587 -0.7629 -0.9227 -0.3326
  651MPD2    N1 9645   0.787   4.394  10.539 -0.3733  0.1643  0.4744
  651MPD2    H7 9646   0.787   4.489  10.577  2.0414 -0.6176  2.4515
  652TMC3    C1 9647   1.697   4.633  10.594 -0.0595 -0.0351 -0.0567
  652TMC3    C2 9648   1.606   4.554  10.529 -0.6729 -0.2742 -0.0389
  652TMC3    C3 9649   1.469   4.570  10.547  0.1365  0.1798  0.0905
  652TMC3    C4 9650   1.650   0.007  10.676  0.3069 -0.5674  0.0620
  652TMC3    C5 9651   1.515   0.014  10.699  0.4396  0.9708  0.8327
  652TMC3    C6 9652   1.423   4.656  10.643 -0.1093 -0.0061 -0.1695
  652TMC3     C 9653   1.828   4.585  10.619  0.3108  0.2376 -0.1572
  652TMC3     O 9654   1.867   4.590  10.734 -0.1066  0.8105  0.3588
  652TMC3     H 9655   1.644   4.474  10.466 -1.6568 -1.5192  0.9543
  652TMC3    H1 9656   1.729   0.055  10.733  0.7653 -1.0815 -0.1341
  652TMC3    H2 9657   1.321   4.681  10.669 -0.2190 -1.0328  0.3710
  652TMC3    C7 9658   1.458   0.126  10.762  0.0784  0.0640  0.1766
  652TMC3    C8 9659   1.381   4.458  10.503  0.1068  0.0012 -0.4201
  652TMC3    O1 9660   1.342   0.131  10.792 -0.2394 -0.1633 -0.2573
  652TMC3    O2 9661   1.437   4.356  10.457  0.2156 -0.3684 -0.3862
  653MPD2     C 9662   4.404   4.230   0.183 -0.1169  0.9339 -0.3560
  653MPD2    C1 9663   4.368   4.339   0.102 -0.3780 -0.7082 -0.6448
  653MPD2    C2 9664   4.295   4.307  17.687  0.2567  0.2276  0.1181
  653MPD2    C3 9665   4.254   4.178  17.654 -0.6137 -0.2831  0.3158
  653MPD2    C4 9666   4.288   4.072   0.044 -0.1671 -0.7457  0.2377
  653MPD2    C5 9667   4.363   4.100   0.153  0.0452 -0.0401  0.3043
  653MPD2     H 9668   4.261   4.391  17.627 -0.9066 -1.2673 -1.3149
  653MPD2    H1 9669   4.257   3.970   0.027  1.2771 -1.3212  1.1321
  653MPD2    H2 9670   4.460   4.249   0.274 -0.6114 -1.4472  0.4624
  653MPD2    H3 9671   4.386   4.027   0.231 -1.3322 -0.9927 -0.1791
  653MPD2     N 9672   4.175   4.167  17.545  0.5691  0.0313  0.1978
  653MPD2    H5 9673   4.176   4.247  17.482  3.8617 -0.5831 -0.5502
  653MPD2    N1 9674   4.401   4.474   0.123  0.0705  0.5035 -0.1189
  653MPD2    H7 9675   4.375   4.538   0.049  1.2542  1.1840  0.0565
  654TMC3    C1 9676   4.053   4.068  17.378 -0.4831  0.6551 -0.1281
  654TMC3    C2 9677   3.967   4.173  17.363  0.4677  0.4852 -0.6014
  654TMC3    C3 9678   3.871   4.165  17.266 -1.0160 -0.6952  0.6825
  654TMC3    C4 9679   4.048   3.959  17.296 -0.0709 -1.2594  0.0696
  654TMC3    C5 9680   3.953   3.956  17.196 -0.1785  0.7790 -0.0301
  654TMC3    C6 9681   3.862   4.053  17.177  0.2242  0.2540  0.0030
  654TMC3     C 9682   4.115   4.045  17.503  0.2117  0.5493 -0.4423
  654TMC3     O 9683   4.116   3.934  17.551 -0.4242  0.3123 -0.3436
  654TMC3     H 9684   3.969   4.251  17.438 -1.9555  0.7485 -0.7911
  654TMC3    H1 9685   4.127   3.885  17.305 -0.3407 -1.6802 -1.1082
  654TMC3    H2 9686   3.796   4.046  17.091  1.3395  0.3591 -0.8608
  654TMC3    C7 9687   3.947   3.834  17.120  0.0222  0.8572  0.1064
  654TMC3    C8 9688   3.798   4.286  17.236 -0.3571  0.5081  0.8398
  654TMC3    O1 9689   3.900   3.846  17.010 -0.0199 -0.0826  0.6460
  654TMC3    O2 9690   3.844   4.394  17.276  0.6208  0.0580 -0.1013
  655MPD2     C 9691   0.982   4.446  15.920 -0.4394 -0.1876  0.2866
  655MPD2    C1 9692   0.908   4.507  15.822 -0.5513 -0.5627 -0.0779
  655MPD2    C2 9693   0.906   4.461  15.693 -0.3408  0.2248 -0.3319
  655MPD2    C3 9694   0.975   4.342  15.661  0.6130  0.5608  0.1368
  655MPD2    C4 9695   1.037   4.271  15.763 -0.7785  0.2217  0.0686
  655MPD2    C5 9696   1.040   4.323  15.892 -0.0340 -0.8293 -0.4532
  655MPD2     H 9697   0.850   4.520  15.622 -3.5931  1.0168  2.9400
  655MPD2    H1 9698   1.090   4.180  15.737  0.6470  1.4455 -1.3597
  655MPD2    H2 9699   0.991   4.473  16.025 -2.8965  0.0714  0.4266
  655MPD2    H3 9700   1.085   4.257  15.965  1.4266 -0.3596 -0.9358
  655MPD2     N 9701   0.961   4.268  15.544 -0.0237 -0.2584 -0.8045
  655MPD2    H5 9702   0.996   4.173  15.533 -1.5077 -0.9404  0.3427
  655MPD2    N1 9703   0.825   4.618  15.849 -0.3057 -0.1750 -0.8533
  655MPD2    H7 9704   0.776   4.654  15.768  1.8794 -0.8846 -2.4615
  656TMC3    C1 9705   0.695   0.045  15.987  0.5478  0.0895  0.0062
  656TMC3    C2 9706   0.634   0.055  16.107  0.0088  0.6651 -0.1875
  656TMC3    C3 9707   0.519   0.134  16.109  0.0105  0.3093  0.5465
  656TMC3    C4 9708   0.659   0.117  15.877 -0.3719 -0.2149  0.1183
  656TMC3    C5 9709   0.539   0.187  15.880  0.0160 -0.3325  0.7504
  656TMC3    C6 9710   0.467   0.198  15.993  0.5402 -0.7234  0.0757
  656TMC3     C 9711   0.795   4.663  15.975  0.3485 -1.0519  0.6651
  656TMC3     O 9712   0.837   4.614  16.077 -0.2347 -0.3083 -0.2041
  656TMC3     H 9713   0.668   0.006  16.197 -0.0704 -1.7603 -1.4663
  656TMC3    H1 9714   0.715   0.108  15.784 -0.3056 -0.8642  0.2160
  656TMC3    H2 9715   0.382   0.266  15.998 -0.1392 -1.4596 -1.5244
  656TMC3    C7 9716   0.481   0.221  15.748  0.8855  0.1496  0.1901
  656TMC3    C8 9717   0.422   0.095  16.207 -0.4676  0.1706 -0.1935
  656TMC3    O1 9718   0.546   0.209  15.649  0.6487 -0.2142 -0.2341
  656TMC3    O2 9719   0.432   4.707  16.260 -0.3071  0.3431  0.8876
  657TMC3    C1 9720   4.498   3.736  15.887 -0.1821 -1.0623  0.4043
  657TMC3    C2 9721   4.488   3.661  16.004  0.1966 -0.2782 -1.1537
  657TMC3    C3 9722   4.454   3.716  16.122 -0.2557  0.1692 -0.1303
  657TMC3    C4 9723   4.452   3.864  15.884  0.4200 -0.2029 -0.9287
  657TMC3    C5 9724   4.429   3.918  16.011  0.4718 -0.4172 -0.4339
  657TMC3    C6 9725   4.425   3.848  16.133 -0.4798 -0.0878  0.1370
  657TMC3     C 9726   4.478   3.649  15.774 -0.3684 -0.3257 -0.1636
  657TMC3     O 9727   4.430   3.540  15.799 -0.1444 -0.0111 -0.1957
  657TMC3     H 9728   4.532   3.563  15.997  0.5359 -0.0924 -1.6345
  657TMC3    H1 9729   4.434   3.922  15.794 -1.6897 -1.5840 -1.4132
  657TMC3    H2 9730   4.401   3.895  16.228 -1.7376  1.6911 -1.0665
  657TMC3    C7 9731   4.417   4.059  16.005  1.3017 -0.3315  0.8075
  657TMC3    C8 9732   4.478   3.631  16.243  0.1853  0.4241  0.2103
  657TMC3    O1 9733   4.479   4.114  15.918  0.0131  0.0598 -0.8152
  657TMC3    O2 9734   4.503   3.513  16.214 -0.1738  0.0462 -0.3178
  658MPD2     C 9735   1.239   4.026  14.941 -0.6097 -0.1825  0.3782
  658MPD2    C1 9736   1.110   4.080  14.918  0.4083 -1.1324  0.5792
  658MPD2    C2 9737   1.096   4.158  14.804 -0.3550 -0.8539  0.4918
  658MPD2    C3 9738   1.204   4.166  14.716 -0.2491  0.0272 -0.8485
  658MPD2    C4 9739   1.317   4.093  14.730  0.3164 -0.4189 -0.2468
  658MPD2    C5 9740   1.328   4.013  14.836  0.0074  0.1358 -0.5603
  658MPD2     H 9741   1.000   4.206  14.788  0.3016  0.8205  1.5984
  658MPD2    H1 9742   1.397   4.084  14.658 -1.1556  0.4659 -2.0010
  658MPD2    H2 9743   1.259   3.974  15.034 -1.8176  1.0705  1.3365
  658MPD2    H3 9744   1.421   3.961  14.860  1.2821  2.0812 -1.3090
  658MPD2     N 9745   1.180   4.252  14.602  0.1617 -0.9749  0.3066
  658MPD2    H5 9746   1.084   4.283  14.615  1.1164  1.9247  0.3081
  658MPD2    N1 9747   1.021   4.061  15.024  0.6034  0.1707  0.2396
  658MPD2    H7 9748   1.051   4.003  15.102 -0.4711 -0.7320 -0.0128
  659TMC3    C1 9749   0.832   4.103  15.158  0.6494 -0.1980 -0.5567
  659TMC3    C2 9750   0.908   4.146  15.263 -0.4590 -0.1361 -0.3633
  659TMC3    C3 9751   0.841   4.188  15.371  0.0455 -0.1644  0.1029
  659TMC3    C4 9752   0.697   4.113  15.159 -0.3739 -0.4211 -0.1282
  659TMC3    C5 9753   0.633   4.169  15.266 -0.2157  0.1736 -1.1147
  659TMC3    C6 9754   0.704   4.196  15.379  0.1687 -0.4646  0.5123
  659TMC3     C 9755   0.888   4.105  15.021  1.1509  1.3854 -0.3995
  659TMC3     O 9756   0.819   4.103  14.919  0.1450 -0.1338 -0.1722
  659TMC3     H 9757   1.016   4.145  15.257 -0.4122 -0.2746  0.4709
  659TMC3    H1 9758   0.639   4.099  15.069  0.8801 -0.1868 -0.9707
  659TMC3    H2 9759   0.656   4.237  15.467 -4.3352 -1.9938 -1.2290
  659TMC3    C7 9760   0.487   4.171  15.273  0.2082 -0.3517  0.6141
  659TMC3    C8 9761   0.886   4.299  15.439  0.0089 -0.3729  0.3294
  659TMC3    O1 9762   0.444   4.240  15.363  0.1533 -0.1767 -0.3859
  659TMC3    O2 9763   0.822   4.399  15.408  0.2461 -0.5939 -0.3991
  660MPD2     C 9764   3.959   2.378  12.464 -0.3401 -0.6262  0.3073
  660MPD2    C1 9765   3.906   2.503  12.470 -0.2613  0.9404 -0.2397
  660MPD2    C2 9766   3.785   2.531  12.538  0.1411 -0.7284 -0.4609
  660MPD2    C3 9767   3.720   2.425  12.607  0.1571 -0.3012 -0.8853
  660MPD2    C4 9768   3.779   2.298  12.603 -0.1304  0.4875  0.5494
  660MPD2    C5 9769   3.892   2.280  12.528  0.3865  0.5722  0.0853
  660MPD2     H 9770   3.735   2.627  12.540  1.5273  0.0044 -0.6694
  660MPD2    H1 9771   3.732   2.213  12.652  0.4074  0.0292  0.2671
  660MPD2    H2 9772   4.053   2.353  12.415 -0.2686 -1.2937  0.7773
  660MPD2    H3 9773   3.923   2.176  12.518 -1.3762  0.0032  0.5507
  660MPD2     N 9774   3.589   2.443  12.675  0.2887  0.2708 -0.4856
  660MPD2    H5 9775   3.540   2.366  12.719  0.4546  0.5333  0.1643
  660MPD2    N1 9776   3.988   2.606  12.405  0.1152 -0.2019  0.0751
  660MPD2    H7 9777   4.073   2.572  12.361  0.3529  0.1623  0.2537
  661TMC3    C1 9778   4.045   2.829  12.326 -0.4641  0.5703  0.0707
  661TMC3    C2 9779   4.052   2.793  12.194 -0.3009  0.6502 -0.0346
  661TMC3    C3 9780   4.028   2.895  12.098 -0.2861 -0.1850 -0.2730
  661TMC3    C4 9781   4.020   2.960  12.367 -1.1191 -0.2097 -0.9731
  661TMC3    C5 9782   4.009   3.051  12.266 -0.5813  0.8002 -0.4988
  661TMC3    C6 9783   4.026   3.023  12.129 -0.2799  0.4910  0.3556
  661TMC3     C 9784   3.965   2.739  12.412 -0.1273 -0.4446  0.5623
  661TMC3     O 9785   3.894   2.801  12.490  0.1740  0.4815 -0.0747
  661TMC3     H 9786   4.063   2.686  12.178 -1.1602  0.1103  3.0326
  661TMC3    H1 9787   4.027   2.990  12.471  0.5908  2.5616 -1.8972
  661TMC3    H2 9788   4.043   3.101  12.056  0.3851 -0.7921 -0.8553
  661TMC3    C7 9789   3.909   3.141  12.306  0.0776  0.5907 -0.6532
  661TMC3    C8 9790   4.044   2.860  11.957 -0.1243 -0.6472 -0.2885
  661TMC3    O1 9791   3.883   3.156  12.420 -0.0948  0.6459 -0.4504
  661TMC3    O2 9792   4.081   2.744  11.932  0.2313  0.0347 -0.2890
  662MPD2     C 9793   4.130   2.874  17.571 -0.0321 -0.7909  0.4796
  662MPD2    C1 9794   4.117   2.765  17.651 -0.1070 -0.0281 -0.0734
  662MPD2    C2 9795   4.001   2.743   0.024 -0.1988 -0.0795 -0.2285
  662MPD2    C3 9796   3.900   2.835   0.031  0.1951 -0.7165 -0.1085
  662MPD2    C4 9797   3.908   2.948  17.654 -0.1525  0.4519  0.2124
  662MPD2    C5 9798   4.022   2.962  17.576 -0.4890 -0.1895  0.6544
  662MPD2     H 9799   3.996   2.649   0.078  0.3261 -0.4431 -0.8054
  662MPD2    H1 9800   3.825   3.018  17.646 -2.2491 -1.8650  1.6917
  662MPD2    H2 9801   4.221   2.893  17.515 -3.0477  1.1696 -3.7551
  662MPD2    H3 9802   4.030   3.056  17.522 -0.2261 -0.6153 -0.0396
  662MPD2     N 9803   3.786   2.827   0.118  0.1878 -0.1341  0.2906
  662MPD2    H5 9804   3.713   2.892   0.092  1.8082  1.9119  0.8119
  662MPD2    N1 9805   4.205   2.652  17.652 -0.0437  0.2582  0.3020
  662MPD2    H7 9806   4.182   2.570   0.007 -0.7687 -0.9066 -1.7528
  663TMC3    C1 9807   4.366   2.510  17.586  0.4006  0.0216  0.1570
  663TMC3    C2 9808   4.380   2.474   0.018 -0.0692  0.2283 -0.0047
  663TMC3    C3 9809   4.340   2.351   0.057  0.8265 -0.1118  0.1270
  663TMC3    C4 9810   4.311   2.429  17.493 -0.7361 -0.3759 -0.3858
  663TMC3    C5 9811   4.267   2.309  17.533 -0.7390 -0.2496 -0.2880
  663TMC3    C6 9812   4.285   2.267  17.659  0.0225 -0.0698  0.2866
  663TMC3     C 9813   4.307   2.638  17.560 -0.2008 -0.2240 -0.1376
  663TMC3     O 9814   4.362   2.707  17.475 -0.2027 -0.3697  0.2598
  663TMC3     H 9815   4.402   2.557   0.084  0.0963 -0.2719  0.5642
  663TMC3    H1 9816   4.276   2.464  17.397 -0.1241  0.2172 -0.3951
  663TMC3    H2 9817   4.221   2.184  17.690  0.4571  0.6046  2.9798
  663TMC3    C7 9818   4.131   2.286  17.485  0.0832  0.1200 -0.0882
  663TMC3    C8 9819   4.242   2.372   0.159 -0.0354 -0.8053 -0.9675
  663TMC3    O1 9820   4.052   2.379  17.512 -0.0544  0.1022 -0.0786
  663TMC3    O2 9821   4.126   2.342   0.135 -0.1224 -0.0067 -0.6075
  664MPD2     C 9822   1.944   1.571  17.578  0.1706 -0.3321  0.2356
  664MPD2    C1 9823   2.074   1.567  17.616 -0.6446 -0.2559 -0.3356
  664MPD2    C2 9824   2.108   1.509   0.036  0.2870 -0.1899 -0.7741
  664MPD2    C3 9825   2.025   1.447   0.117  0.2317  0.2527  0.4933
  664MPD2    C4 9826   1.894   1.440   0.064 -0.0214 -0.1585 -0.3066
  664MPD2    C5 9827   1.853   1.506  17.652  0.2385 -0.1745 -0.0954
  664MPD2     H 9828   2.215   1.511   0.053 -0.0224  0.4645  1.1368
  664MPD2    H1 9829   1.809   1.398   0.117  0.9020 -1.4860  0.1381
  664MPD2    H2 9830   1.908   1.622  17.490  0.6675 -3.9359 -2.0445
  664MPD2    H3 9831   1.747   1.508  17.631  0.3377 -1.9442 -0.7738
  664MPD2     N 9832   2.068   1.388   0.233  0.0971  0.1417 -0.8271
  664MPD2    H5 9833   2.164   1.406   0.260  0.5192 -0.8240 -1.7044
  664MPD2    N1 9834   2.178   1.613  17.535 -0.0986  0.1071  0.1329
  664MPD2    H7 9835   2.273   1.605  17.572 -0.6511  0.7413  1.6699
  665TMC3    C1 9836   2.070   1.301   0.443 -0.3234  0.7225 -0.2736
  665TMC3    C2 9837   2.001   1.246   0.549 -0.7107 -0.4771 -0.7713
  665TMC3    C3 9838   2.071   1.216   0.667 -0.2147  0.1474  1.0039
  665TMC3    C4 9839   2.198   1.338   0.454 -0.1635 -0.2791  0.2197
  665TMC3    C5 9840   2.261   1.302   0.570 -0.3473  1.1039  0.5240
  665TMC3    C6 9841   2.203   1.242   0.679  0.4728  0.2123 -0.4805
  665TMC3     C 9842   1.990   1.332   0.325  0.0745 -0.1042 -0.1502
  665TMC3     O 9843   1.869   1.323   0.327 -0.5607  0.9302 -0.3012
  665TMC3     H 9844   1.894   1.226   0.548 -1.0149  0.7404  2.9469
  665TMC3    H1 9845   2.254   1.399   0.384  0.6457 -1.4752 -0.1606
  665TMC3    H2 9846   2.251   1.225   0.775  2.6427  1.7328 -1.2779
  665TMC3    C7 9847   2.395   1.354   0.585  0.1260 -0.7116 -0.5669
  665TMC3    C8 9848   2.003   1.138   0.771 -0.1641 -0.3023  0.6699
  665TMC3    O1 9849   2.474   1.354   0.491  0.2893 -0.3234 -0.1660
  665TMC3    O2 9850   2.061   1.134   0.880  0.2333  0.4257 -0.5346
  666TMC3    C1 9851   1.438   1.163   9.831 -0.5655 -0.8405  0.4008
  666TMC3    C2 9852   1.551   1.118   9.895 -0.3220  0.2428 -0.3463
  666TMC3    C3 9853   1.633   1.215   9.939  0.2588  0.1310 -0.4933
  666TMC3    C4 9854   1.411   1.298   9.809  0.3370 -0.1226 -0.0278
  666TMC3    C5 9855   1.498   1.389   9.857 -0.4250 -0.8844 -0.2046
  666TMC3    C6 9856   1.604   1.348   9.929  0.0943  0.4604 -0.3759
  666TMC3     C 9857   1.316   1.091   9.854 -0.6053  0.6644 -0.0186
  666TMC3     O 9858   1.218   1.114   9.786 -0.2752 -0.2559 -0.1971
  666TMC3     H 9859   1.572   1.012   9.908  1.2986  0.8547  2.0381
  666TMC3    H1 9860   1.315   1.324   9.766 -0.4467 -0.7079  1.3899
  666TMC3    H2 9861   1.666   1.422   9.978  0.0201  0.0515  0.3417
  666TMC3    C7 9862   1.445   1.522   9.870 -0.4267  0.1790 -0.1959
  666TMC3    C8 9863   1.725   1.171  10.041 -0.0964 -0.6909 -0.2119
  666TMC3    O1 9864   1.333   1.531   9.830 -0.5604  0.4595 -0.0946
  666TMC3    O2 9865   1.704   1.061  10.092 -0.3344 -0.5496  0.2053
  667MPD2     C 9866   2.723   1.341  14.499 -0.2796  0.4969  0.2728
  667MPD2    C1 9867   2.736   1.336  14.634  0.6077 -1.0906  0.1451
  667MPD2    C2 9868   2.695   1.219  14.701 -0.0248  0.2118  0.4955
  667MPD2    C3 9869   2.638   1.114  14.629 -0.1259  0.0407 -0.1482
  667MPD2    C4 9870   2.628   1.122  14.489  0.0546 -0.3907 -0.1532
  667MPD2    C5 9871   2.674   1.232  14.427  0.2604 -0.6482 -0.4861
  667MPD2     H 9872   2.705   1.217  14.809  0.2499 -3.0603  0.4018
  667MPD2    H1 9873   2.592   1.039  14.430  0.9938 -0.6845 -0.3213
  667MPD2    H2 9874   2.746   1.435  14.450 -3.8541  1.4974  0.4978
  667MPD2    H3 9875   2.658   1.243  14.321  0.1363  1.9064 -0.2140
  667MPD2     N 9876   2.580   1.003  14.696 -0.0197 -0.3421 -0.4650
  667MPD2    H5 9877   2.533   0.937  14.634 -1.9919  2.3310 -1.7859
  667MPD2    N1 9878   2.791   1.433  14.714  0.1798 -0.3358 -0.1155
  667MPD2    H7 9879   2.769   1.425  14.813 -0.0550  1.9105  0.0129
  668TMC3    C1 9880   2.921   1.615  14.764 -0.1383  0.3941 -0.5825
  668TMC3    C2 9881   3.008   1.711  14.716 -0.2279  0.0405 -0.4470
  668TMC3    C3 9882   3.065   1.789  14.818 -0.1171  0.3847  0.6319
  668TMC3    C4 9883   2.897   1.593  14.897 -0.0204 -0.6271 -0.1893
  668TMC3    C5 9884   2.949   1.677  14.990 -0.2605  0.5633  0.1303
  668TMC3    C6 9885   3.030   1.778  14.948 -0.6995 -0.4678 -0.5651
  668TMC3     C 9886   2.872   1.529  14.662  0.5839  0.1346 -0.2509
  668TMC3     O 9887   2.903   1.553  14.546 -0.4177  0.4159 -0.2515
  668TMC3     H 9888   3.036   1.716  14.612 -0.1731  0.9674 -0.3947
  668TMC3    H1 9889   2.847   1.504  14.935 -0.9728 -0.3294 -0.7285
  668TMC3    H2 9890   3.094   1.835  15.014  0.1662 -2.5791  0.4352
  668TMC3    C7 9891   2.997   1.627  15.119 -0.1896 -0.1177  0.4309
  668TMC3    C8 9892   3.138   1.914  14.783  0.2850  0.0720 -0.2414
  668TMC3    O1 9893   3.117   1.623  15.137  0.1274  0.0505 -0.1501
  668TMC3    O2 9894   3.135   1.993  14.879 -0.3078  0.3110  0.3058
  669TMC3    C1 9895   0.952   1.018  14.752  0.3061  0.0007 -0.2865
  669TMC3    C2 9896   0.830   1.034  14.689 -0.3353  0.3197 -0.4852
  669TMC3    C3 9897   0.826   1.146  14.608 -0.4894  0.0818  0.4255
  669TMC3    C4 9898   1.071   1.077  14.714 -0.2708  0.4621  1.2680
  669TMC3    C5 9899   1.060   1.182  14.637 -0.7491 -0.0556 -0.0938
  669TMC3    C6 9900   0.940   1.222  14.589  0.3295 -0.0662  1.0458
  669TMC3     C 9901   0.959   0.934  14.869 -0.9330  0.3840 -0.0888
  669TMC3     O 9902   0.865   0.951  14.947  0.3215 -0.0492 -0.0851
  669TMC3     H 9903   0.745   0.974  14.718 -0.1456  1.8467  3.2176
  669TMC3    H1 9904   1.162   1.061  14.771  0.5081 -1.3390 -0.4782
  669TMC3    H2 9905   0.934   1.313  14.530  0.8978 -0.4440  0.4074
  669TMC3    C7 9906   1.171   1.281  14.632 -0.8396  0.0361 -0.0601
  669TMC3    C8 9907   0.708   1.179  14.542  0.0145  0.8274  0.4160
  669TMC3    O1 9908   1.266   1.275  14.707 -0.2543 -0.3716 -0.1414
  669TMC3    O2 9909   0.732   1.214  14.429  0.3487  0.0696  0.1289
  670MPD2     C 9910   3.762   3.624  13.422  0.0661 -0.3092 -0.6252
  670MPD2    C1 9911   3.899   3.614  13.438 -0.2811 -0.7386  0.0619
  670MPD2    C2 9912   3.944   3.600  13.565 -0.6276 -0.1028 -0.6475
  670MPD2    C3 9913   3.866   3.585  13.675 -0.4911 -0.0393  0.5778
  670MPD2    C4 9914   3.730   3.585  13.659 -0.0556 -0.0650  0.2424
  670MPD2    C5 9915   3.683   3.609  13.531  0.3781  0.3809  0.5847
  670MPD2     H 9916   4.049   3.591  13.588 -0.8343  4.4396  2.1201
  670MPD2    H1 9917   3.663   3.570  13.743 -0.1386  1.3354  0.4260
  670MPD2    H2 9918   3.717   3.637  13.323  0.9731 -1.5724 -1.2044
  670MPD2    H3 9919   3.578   3.625  13.508  0.1439 -0.8373  0.8152
  670MPD2     N 9920   3.936   3.554  13.794  1.0941 -0.5184 -0.1517
  670MPD2    H5 9921   4.035   3.576  13.791  1.5539 -2.8449 -2.0715
  670MPD2    N1 9922   3.987   3.604  13.332 -0.6472 -0.3704  0.6399
  670MPD2    H7 9923   4.082   3.584  13.360  0.1511 -0.6639 -2.2703
  671TMC3    C1 9924   3.968   3.480  14.015  0.1220 -0.0505 -0.3230
  671TMC3    C2 9925   4.103   3.494  14.015  0.3184 -0.4490  0.2164
  671TMC3    C3 9926   4.174   3.437  14.121 -0.3842  0.0180 -0.5698
  671TMC3    C4 9927   3.906   3.424  14.123 -0.1988 -0.2108  0.2262
  671TMC3    C5 9928   3.979   3.351  14.217  0.0674 -0.3865  0.3813
  671TMC3    C6 9929   4.117   3.354  14.210  0.1824 -0.0185  0.3719
  671TMC3     C 9930   3.876   3.515  13.910 -0.1706  0.1665  0.3313
  671TMC3     O 9931   3.756   3.485  13.917 -0.2225 -0.5547  0.0861
  671TMC3     H 9932   4.148   3.569  13.951  0.9860  0.4310  1.7133
  671TMC3    H1 9933   3.801   3.401  14.109  0.3790 -2.8954  0.3015
  671TMC3    H2 9934   4.177   3.278  14.258  1.1037 -0.8661 -2.1343
  671TMC3    C7 9935   3.928   3.212  14.227  0.1422 -0.2516  0.7518
  671TMC3    C8 9936   4.317   3.409  14.097  0.3456  0.4333  0.3963
  671TMC3    O1 9937   3.997   3.126  14.180  0.2288 -0.5433  0.2477
  671TMC3    O2 9938   4.361   3.298  14.128  0.3437  0.3363 -0.3339
  672MPD2     C 9939   4.256   3.542   1.171  0.3258  0.2996 -0.0204
  672MPD2    C1 9940   4.314   3.657   1.134 -0.9895 -1.1880  0.6869
  672MPD2    C2 9941   4.334   3.755   1.232  0.2721  0.4951  0.2008
  672MPD2    C3 9942   4.292   3.740   1.366 -0.7673 -0.0755  0.0003
  672MPD2    C4 9943   4.215   3.624   1.393  0.9420  0.1003 -0.2744
  672MPD2    C5 9944   4.201   3.529   1.294  0.2302  0.2288  0.2971
  672MPD2     H 9945   4.392   3.841   1.198  0.9320 -0.8147 -1.9798
  672MPD2    H1 9946   4.190   3.597   1.495  0.2616 -1.1277 -0.7561
  672MPD2    H2 9947   4.242   3.461   1.100  3.1793  0.4286 -0.7293
  672MPD2    H3 9948   4.154   3.432   1.308  1.1802 -0.1752  0.6668
  672MPD2     N 9949   4.325   3.826   1.474 -0.1241 -0.0112 -0.1015
  672MPD2    H5 9950   4.281   3.811   1.564  1.0241 -0.5165  0.3793
  672MPD2    N1 9951   4.384   3.675   1.004  0.1987 -0.8582 -0.2353
  672MPD2    H7 9952   4.450   3.752   1.004 -2.5480  1.4852  0.5984
  673TMC3    C1 9953   4.445   3.627   0.775  0.4080  0.3979  0.3964
  673TMC3    C2 9954   4.522   3.536   0.708  0.3470  0.0457  0.2430
  673TMC3    C3 9955   4.608   3.578   0.606  0.7922  0.3674  0.1074
  673TMC3    C4 9956   4.452   3.760   0.747 -0.1890 -0.2684 -0.2097
  673TMC3    C5 9957   4.519   3.800   0.632 -0.0022  0.0642  0.3258
  673TMC3    C6 9958   4.599   3.707   0.560 -0.0176  0.0031 -0.9714
  673TMC3     C 9959   4.387   3.576   0.901 -0.2344 -0.3532  0.0439
  673TMC3     O 9960   4.379   3.456   0.908 -0.3681 -0.3979 -0.1210
  673TMC3     H 9961   4.513   3.431   0.733 -0.4943  0.0491 -0.0515
  673TMC3    H1 9962   4.374   3.826   0.784 -1.4448 -1.1157 -1.3264
  673TMC3    H2 9963   4.660   3.746   0.480  0.8396  0.3875 -0.1376
  673TMC3    C7 9964   4.447   3.883   0.539 -0.5646  0.4434  0.0805
  673TMC3    C8 9965   4.716   3.492   0.571 -0.0271 -0.0183 -0.1935
  673TMC3    O1 9966   4.452   3.853   0.422  0.2363  0.1489 -0.0347
  673TMC3    O2 9967   0.063   3.518   0.478  0.5890  0.6815  0.6520
  674MPD2     C 9968   4.452   3.437   0.202 -0.0789 -0.3044 -0.0370
  674MPD2    C1 9969   4.414   3.370   0.311 -0.2464  0.5669  0.0519
  674MPD2    C2 9970   4.304   3.415   0.382 -0.3640 -0.8268  0.2361
  674MPD2    C3 9971   4.229   3.527   0.353  0.6168  0.6524 -0.3585
  674MPD2    C4 9972   4.273   3.596   0.246  0.4938  0.7208  0.4346
  674MPD2    C5 9973   4.379   3.549   0.168 -0.9110  0.1043  0.5177
  674MPD2     H 9974   4.262   3.359   0.465 -0.3104 -1.4937 -0.1909
  674MPD2    H1 9975   4.224   3.689   0.218 -0.0872  1.0505  2.6140
  674MPD2    H2 9976   4.535   3.407   0.139 -0.0843  0.8908 -0.6065
  674MPD2    H3 9977   4.411   3.619   0.092 -1.3815  0.3620  0.5519
  674MPD2     N 9978   4.115   3.562   0.430 -0.0348 -0.0135 -0.5199
  674MPD2    H5 9979   4.095   3.513   0.517 -2.6294 -1.0306 -1.6783
  674MPD2    N1 9980   4.483   3.261   0.370 -0.0566 -0.1539  0.4451
  674MPD2    H7 9981   4.433   3.201   0.435 -1.3499  0.0036 -0.4021
  675TMC3    C1 9982   4.640   3.087   0.396 -0.2575  0.9293  0.3440
  675TMC3    C2 9983   4.586   3.071   0.527  0.8757 -0.3586 -0.3301
  675TMC3    C3 9984   4.670   3.023   0.618 -0.3246 -0.4977  0.0638
  675TMC3    C4 9985   0.043   3.053   0.366  0.7173 -0.4664  0.0678
  675TMC3    C5 9986   0.126   3.004   0.469 -0.0325  0.0360  0.3268
  675TMC3    C6 9987   0.083   3.004   0.596  0.0452  0.5454 -0.4130
  675TMC3     C 9988   4.598   3.204   0.326  0.5736  0.8147  0.6344
  675TMC3     O 9989   4.671   3.250   0.241  0.4064 -0.7530 -0.1518
  675TMC3     H 9990   4.482   3.089   0.551  0.2978 -1.3795 -2.0442
  675TMC3    H1 9991   0.092   3.051   0.269 -0.7803 -0.1193 -0.6888
  675TMC3    H2 9992   0.152   2.981   0.677  0.4141  1.6156 -0.4243
  675TMC3    C7 9993   0.269   2.981   0.442  0.0554  0.7559  0.1968
  675TMC3    C8 9994   4.641   3.065   0.752  0.0588  0.1500  0.5633
  675TMC3    O1 9995   0.313   3.027   0.336  0.4532 -0.1230 -0.2254
  675TMC3    O2 9996   4.544   3.137   0.767 -0.5281 -0.1944  0.1110
  676MPD2     C 9997   1.594   2.148  11.658  0.1801 -0.3295 -0.3375
  676MPD2    C1 9998   1.697   2.059  11.664  0.2993  0.7111  0.0628
  676MPD2    C2 9999   1.720   1.963  11.567  0.1382  1.0356 -0.1845
  676MPD2    C310000   1.636   1.957  11.453  0.1579 -0.1455 -0.2778
  676MPD2    C410001   1.525   2.037  11.457 -0.5356 -0.1676  0.6357
  676MPD2    C510002   1.501   2.130  11.560  0.0098  0.5969  0.0003
  676MPD2     H10003   1.810   1.904  11.584 -0.1166  1.1989  1.8062
  676MPD2    H110004   1.449   2.032  11.380  0.2543  0.4908 -0.1803
  676MPD2    H210005   1.579   2.229  11.728 -0.3275 -0.9897  0.3201
  676MPD2    H310006   1.412   2.191  11.557 -0.1389  0.1463 -4.0975
  676MPD2     N10007   1.664   1.876  11.338 -0.3966 -0.7443  0.1256
  676MPD2    H510008   1.602   1.891  11.259  0.3486 -2.5650 -0.7981
  676MPD2    N110009   1.789   2.069  11.774 -0.1285  0.5298 -0.0356
  676MPD2    H710010   1.868   2.006  11.778  0.6936  1.4245 -2.3884
  677TMC3    C110011   1.905   2.152  11.952  0.2598  0.4543 -0.0454
  677TMC3    C210012   1.910   2.030  12.002  0.2109  0.2671 -0.4786
  677TMC3    C310013   1.991   2.017  12.115 -0.3464  0.2200  0.0877
  677TMC3    C410014   1.975   2.260  12.001  0.5516 -0.3741  0.8356
  677TMC3    C510015   2.051   2.246  12.110 -0.3494 -1.0343  0.0100
  677TMC3    C610016   2.057   2.123  12.173  0.4969  0.0826 -0.4174
  677TMC3     C10017   1.805   2.183  11.851 -0.4441 -0.5872 -0.2053
  677TMC3     O10018   1.776   2.303  11.834  0.2193 -0.2424 -0.1507
  677TMC3     H10019   1.838   1.955  11.973  0.1190 -0.2522  1.1138
  677TMC3    H110020   1.966   2.361  11.962 -1.0288  0.1806  2.6266
  677TMC3    H210021   2.128   2.096  12.251 -2.7349 -2.0795  1.7516
  677TMC3    C710022   2.168   2.327  12.131  0.7447  0.1921 -0.2043
  677TMC3    C810023   1.984   1.887  12.182 -0.2819 -0.4107  0.0566
  677TMC3    O110024   2.234   2.320  12.237 -0.0882  0.1890  0.1684
  677TMC3    O210025   1.873   1.844  12.170 -0.3953 -0.1542  0.0887
  678MPD2     C10026   3.669   2.106   1.777  0.3497 -0.1052  0.2924
  678MPD2    C110027   3.716   2.023   1.679 -0.2773  0.4058  0.5113
  678MPD2    C210028   3.612   1.974   1.588 -0.5429 -0.4873 -0.8479
  678MPD2    C310029   3.483   2.014   1.605  0.3454  0.5312 -1.2487
  678MPD2    C410030   3.444   2.098   1.702  0.0781  0.2527 -0.3221
  678MPD2    C510031   3.537   2.145   1.786 -0.2727  0.1085 -0.1838
  678MPD2     H10032   3.645   1.920   1.501  1.0746 -3.2307  1.4497
  678MPD2    H110033   3.341   2.131   1.707 -0.6672 -1.9475 -1.0884
  678MPD2    H210034   3.730   2.144   1.859 -0.9004  1.7612  0.3464
  678MPD2    H310035   3.510   2.201   1.875  0.5488 -0.2544  0.3038
  678MPD2     N10036   3.389   1.962   1.507  0.2687  0.3910  0.1191
  678MPD2    H510037   3.430   1.909   1.431  0.0079  0.3153  0.0321
  678MPD2    N110038   3.849   1.990   1.659 -0.4583  0.0246  0.1420
  678MPD2    H710039   3.878   1.915   1.597  3.6942 -0.3255  2.5220
  679TMC3    C110040   4.168   1.876   1.482 -0.5669 -0.0606 -0.0475
  679TMC3    C210041   4.094   1.890   1.592  0.3475 -0.2277  0.7528
  679TMC3    C310042   4.087   2.016   1.650  0.3021  0.1604 -0.3103
  679TMC3    C410043   4.250   1.977   1.434 -0.0092 -0.4010  0.0777
  679TMC3    C510044   4.229   2.102   1.488 -0.3798 -0.2661  0.4293
  679TMC3    C610045   4.155   2.126   1.598  0.2347  0.6049 -0.1804
  679TMC3     C10046   4.215   1.744   1.440  0.0929 -0.1954 -0.1980
  679TMC3     O10047   4.324   1.745   1.386  0.0893  0.1143  0.1913
  679TMC3     H10048   4.027   1.812   1.627  0.7573 -1.9178 -2.2369
  679TMC3    H110049   4.301   1.979   1.339  1.1207  2.2772  0.7499
  679TMC3    H210050   4.144   2.229   1.630 -2.8349  0.2511 -0.0973
  679TMC3    C710051   4.323   2.210   1.449 -0.3866  0.2728 -0.0803
  679TMC3    C810052   3.958   2.057   1.712 -0.6666 -0.3411  0.9333
  679TMC3    O110053   4.283   2.326   1.461 -0.2257  0.5169  0.7963
  679TMC3    O210054   3.961   2.165   1.773 -0.1652 -0.3255 -0.4204
  680MPD2     C10055   2.966   0.880  13.679 -0.0498  0.5946  0.1242
  680MPD2    C110056   3.090   0.819  13.691  0.0943 -1.0690 -0.4488
  680MPD2    C210057   3.189   0.881  13.762 -0.3520  0.5194  0.3905
  680MPD2    C310058   3.173   1.007  13.813  0.0666  0.2087  0.2302
  680MPD2    C410059   3.044   1.059  13.807 -0.5770 -0.5979  1.1893
  680MPD2    C510060   2.943   1.003  13.739  0.2708  0.0097  0.3294
  680MPD2     H10061   3.294   0.853  13.762 -0.9091 -1.5904  0.2896
  680MPD2    H110062   3.032   1.160  13.845 -1.1744 -0.3969  0.4607
  680MPD2    H210063   2.880   0.835  13.631  0.2306 -1.6433  1.7493
  680MPD2    H310064   2.849   1.056  13.730  0.0374 -0.7236 -1.5767
  680MPD2     N10065   3.275   1.091  13.874  0.2497  0.1460  0.1869
  680MPD2    H510066   3.245   1.179  13.914  2.3223  0.8161  0.2531
  680MPD2    N110067   3.112   0.696  13.629 -0.5573  0.4177 -0.4384
  680MPD2    H710068   3.204   0.663  13.658 -0.3083  0.3247 -1.3422
  681TMC3    C110069   3.092   0.491  13.511  0.5599 -0.2783  1.0497
  681TMC3    C210070   2.999   0.395  13.542  0.2303 -0.3005  0.4181
  681TMC3    C310071   3.033   0.306  13.638 -1.1200 -0.3647  0.7819
  681TMC3    C410072   3.221   0.470  13.550  0.1263  0.2358  0.5122
  681TMC3    C510073   3.260   0.361  13.621  0.6642 -0.4942 -0.2955
  681TMC3    C610074   3.161   0.282  13.669  0.2126 -0.4276 -0.6379
  681TMC3     C10075   3.032   0.620  13.548 -0.5343 -0.2000  0.4212
  681TMC3     O10076   2.920   0.645  13.509  0.1033  0.1275 -0.3110
  681TMC3     H10077   2.895   0.408  13.517  0.9481 -0.0632 -2.4799
  681TMC3    H110078   3.301   0.537  13.519  1.2144 -0.3152  2.1345
  681TMC3    H210079   3.193   0.201  13.734  1.8998 -0.9873 -2.1807
  681TMC3    C710080   3.382   0.289  13.598  0.2086  0.4192  0.0585
  681TMC3    C810081   2.958   0.337  13.754 -0.0325 -0.2792  0.2997
  681TMC3    O110082   3.406   0.188  13.668 -0.0333  0.0465 -0.4198
  681TMC3    O210083   2.841   0.368  13.755  0.1834 -0.4365 -0.3623
  682MPD2     C10084   0.559   2.231  10.458 -0.3286 -0.0770 -0.8933
  682MPD2    C110085   0.608   2.101  10.457 -0.4066  0.9430  0.3483
  682MPD2    C210086   0.593   2.034  10.571  0.7155  0.2979  0.5516
  682MPD2    C310087   0.534   2.087  10.687  0.2934 -0.6438  0.3316
  682MPD2    C410088   0.483   2.212  10.689  0.8125 -0.3824 -0.2445
  682MPD2    C510089   0.506   2.281  10.571  1.2116  0.8046  0.6644
  682MPD2     H10090   0.658   1.949  10.589  0.3029 -0.2778 -0.7533
  682MPD2    H110091   0.435   2.271  10.766  0.9473  0.4757 -0.8146
  682MPD2    H210092   0.570   2.314  10.389 -0.3929  0.7550  0.1075
  682MPD2    H310093   0.479   2.386  10.567 -0.8478  0.2641  0.1910
  682MPD2     N10094   0.516   2.009  10.800  0.1635  0.1748 -0.9154
  682MPD2    H510095   0.468   2.059  10.874  1.9490  1.6008 -0.7137
  682MPD2    N110096   0.686   2.054  10.351 -0.8996 -0.0950  0.0327
  682MPD2    H710097   0.725   1.962  10.367 -0.7874 -0.0329  0.1150
  683TMC3    C110098   0.562   1.871  11.189 -0.4056  0.3018  1.3927
  683TMC3    C210099   0.531   1.737  11.214 -0.4638 -0.2011 -0.4725
  683TMC3    C310100   0.484   1.660  11.111 -0.0473  0.7720  0.4215
  683TMC3    C410101   0.559   1.922  11.061  0.8964 -0.0730  0.0374
  683TMC3    C510102   0.530   1.832  10.959  0.5044  0.3936 -0.4272
  683TMC3    C610103   0.486   1.703  10.982 -0.2074 -0.0133  0.5231
  683TMC3     C10104   0.621   1.949  11.295  0.1119  0.5388  0.0202
  683TMC3     O10105   0.613   2.067  11.274  0.0348  0.1070 -0.2286
  683TMC3     H10106   0.561   1.677  11.299 -0.3169 -3.0342 -2.5262
  683TMC3    H110107   0.599   2.020  11.037  1.3612 -0.7131 -1.8048
  683TMC3    H210108   0.473   1.635  10.899  1.4746  0.3946 -0.0768
  683TMC3    C710109   0.548   1.874  10.823 -0.1045 -0.0901 -0.3293
  683TMC3    C810110   0.490   1.512  11.131 -0.4391  0.3751 -0.4702
  683TMC3    O110111   0.579   1.791  10.735  0.3603  0.0191  0.3550
  683TMC3    O210112   0.541   1.439  11.048  0.1519  0.1883 -0.8413
  684MPD2     C10113   4.131   1.643  16.360  0.1667 -0.0918  0.7941
  684MPD2    C110114   4.081   1.686  16.238 -0.3771  0.3178  0.3451
  684MPD2    C210115   4.074   1.820  16.216  0.2543 -0.5301 -0.1425
  684MPD2    C310116   4.114   1.918  16.308  0.0774 -0.8561 -0.0907
  684MPD2    C410117   4.178   1.874  16.426  0.1570 -0.5818 -0.1459
  684MPD2    C510118   4.176   1.738  16.449  0.0917  0.2999  0.0679
  684MPD2     H10119   4.047   1.850  16.115 -0.5603 -0.2555  0.1569
  684MPD2    H110120   4.213   1.940  16.504  0.7906  0.2019 -1.0850
  684MPD2    H210121   4.135   1.537  16.384  0.2807  0.1201  1.7073
  684MPD2    H310122   4.227   1.701  16.537 -1.4403 -1.4067  0.2223
  684MPD2     N10123   4.102   2.056  16.275 -0.9634 -0.6620  0.7062
  684MPD2    H510124   4.139   2.119  16.345 -1.1856 -0.2003  0.4046
  684MPD2    N110125   4.039   1.601  16.126  0.5949  0.1339 -0.5202
  684MPD2    H710126   4.000   1.644  16.043  2.8616  2.8589 -0.1900
  685TMC3    C110127   4.064   1.439  15.974 -0.2977 -0.5665 -0.2303
  685TMC3    C210128   3.953   1.483  15.907  0.5617  0.1525  0.0655
  685TMC3    C310129   3.963   1.499  15.775 -0.1538 -0.2374  0.9487
  685TMC3    C410130   4.185   1.415  15.912  0.8343 -0.0684 -0.2858
  685TMC3    C510131   4.195   1.450  15.785  0.1874  0.7710  0.0442
  685TMC3    C610132   4.081   1.488  15.710 -0.6206  0.3138 -0.5387
  685TMC3     C10133   4.074   1.473  16.114 -0.1175  0.9340  1.4343
  685TMC3     O10134   4.134   1.398  16.191 -0.1753 -0.1883  0.5024
  685TMC3     H10135   3.862   1.479  15.965  0.1305  0.7032 -0.5745
  685TMC3    H110136   4.270   1.392  15.975  0.8173 -1.5301 -0.7979
  685TMC3    H210137   4.084   1.519  15.606  0.1816 -0.8029 -0.8454
  685TMC3    C710138   4.324   1.475  15.729 -0.0653  0.2074  0.3429
  685TMC3    C810139   3.839   1.484  15.705 -0.4658  0.3046 -0.4991
  685TMC3    O110140   4.335   1.494  15.607 -0.1533 -0.3451  0.2700
  685TMC3    O210141   3.839   1.444  15.588  0.3460  0.1809  0.1846
  686MPD2     C10142   0.592   1.477  15.253  0.4563  0.5552  0.7834
  686MPD2    C110143   0.646   1.424  15.372 -0.5082 -0.0487  0.3191
  686MPD2    C210144   0.781   1.389  15.372 -0.8462 -0.8268  0.6229
  686MPD2    C310145   0.850   1.392  15.253 -0.9953 -0.0346  0.2086
  686MPD2    C410146   0.801   1.442  15.135 -0.4725  0.2028  0.2302
  686MPD2    C510147   0.676   1.493  15.145  0.3084 -0.3715 -0.7090
  686MPD2     H10148   0.831   1.344  15.457  2.1934  1.3806  0.0127
  686MPD2    H110149   0.849   1.438  15.038 -0.5020  0.0924  0.2201
  686MPD2    H210150   0.487   1.503  15.248  0.5329  0.5599 -0.7708
  686MPD2    H310151   0.629   1.542  15.060  1.0655 -0.5523 -1.2270
  686MPD2     N10152   0.977   1.334  15.264  0.1118 -0.1461 -0.3518
  686MPD2    H510153   1.021   1.334  15.356 -0.9225 -2.3350  0.1384
  686MPD2    N110154   0.555   1.385  15.468 -0.0164  0.8181  0.6475
  686MPD2    H710155   0.454   1.388  15.457 -0.0665  0.1276  0.9002
  687TMC3    C110156   1.153   1.196  15.210  0.4335  0.0342  0.5290
  687TMC3    C210157   1.111   1.062  15.194  0.1963 -0.2699 -1.2586
  687TMC3    C310158   1.123   0.987  15.316  0.4993  0.6528 -0.0002
  687TMC3    C410159   1.212   1.252  15.320 -0.1601  0.5255  1.1259
  687TMC3    C510160   1.241   1.162  15.431 -0.0185 -0.5324 -0.2039
  687TMC3    C610161   1.203   1.030  15.423 -0.0175  0.8041  0.5873
  687TMC3     C10162   1.049   1.284  15.154 -0.3769  0.5475 -0.0149
  687TMC3     O10163   1.018   1.278  15.033  0.2931  0.2449 -0.1263
  687TMC3     H10164   1.056   1.042  15.103 -0.2924  0.6084 -1.1575
  687TMC3    H110165   1.230   1.359  15.322  0.9783  0.3914 -1.2582
  687TMC3    H210166   1.194   0.967  15.511  1.1081  0.2399  0.3039
  687TMC3    C710167   1.235   1.230  15.558  0.1549 -0.6812  0.1769
  687TMC3    C810168   0.985   0.965  15.369  0.7146 -0.6396 -0.4244
  687TMC3    O110169   1.187   1.343  15.548 -0.2799 -0.0477  0.2979
  687TMC3    O210170   0.966   0.922  15.481 -0.2098  0.6035  0.8597
  688MPD2     C10171   4.529   0.311  17.415 -0.2100 -0.3759 -0.0622
  688MPD2    C110172   4.568   0.186  17.455  0.3144  0.6876 -0.8162
  688MPD2    C210173   4.650   0.115  17.369  0.3567 -0.5444  0.3910
  688MPD2    C310174   4.699   0.176  17.255  0.5085  0.6089 -0.0087
  688MPD2    C410175   4.651   0.298  17.210  0.2755 -0.5095 -0.5499
  688MPD2    C510176   4.559   0.362  17.291  0.0363 -0.3474 -0.2406
  688MPD2     H10177   4.691   0.024  17.410 -1.1528 -1.8063 -0.9219
  688MPD2    H110178   4.677   0.351  17.119  1.6445 -0.8563 -0.3517
  688MPD2    H210179   4.463   0.368  17.479  3.1805  0.5970  2.5566
  688MPD2    H310180   4.515   0.457  17.264  0.8948  0.2987  0.6551
  688MPD2     N10181   0.079   0.116  17.182  0.0776 -0.3330 -0.4839
  688MPD2    H510182   0.128   0.178  17.118 -2.5730  2.0840 -0.1990
  688MPD2    N110183   4.545   0.134  17.578  0.5378  0.0141  0.2902
  688MPD2    H710184   4.561   0.035  17.592  4.2557  0.4530 -0.8280
  689TMC3    C110185   4.452   0.143   0.103  0.3877 -0.6845 -0.7617
  689TMC3    C210186   4.443   0.224   0.217 -0.3352 -0.5273 -0.2342
  689TMC3    C310187   4.447   0.164   0.340 -0.4050 -0.2372  0.4224
  689TMC3    C410188   4.438   0.011   0.109  0.2719  0.3388 -0.1276
  689TMC3    C510189   4.438   4.678   0.230 -0.0356  0.5431  0.1953
  689TMC3    C610190   4.450   0.027   0.356 -0.2207  0.4898 -0.4265
  689TMC3     C10191   4.501   0.209  17.685  0.6587  0.2226 -0.0125
  689TMC3     O10192   4.519   0.328  17.689 -1.1368  0.1812  0.2202
  689TMC3     H10193   4.431   0.331   0.201  0.4740 -0.4005  0.0243
  689TMC3    H110194   4.465   4.680   0.019 -2.7252  1.3009 -1.6159
  689TMC3    H210195   4.446   4.699   0.451  1.3188 -1.5199 -1.4620
  689TMC3    C710196   4.434   4.535   0.239  0.1042  0.1176 -0.4804
  689TMC3    C810197   4.439   0.231   0.465 -0.3879 -0.6112 -0.1957
  689TMC3    O110198   4.477   4.484   0.343  0.3014 -0.1673 -0.3985
  689TMC3    O210199   4.429   0.155   0.563  0.3628  0.6981  0.4612
  690MPD2     C10200   1.764   2.199  15.914 -0.6155  0.3501 -0.2742
  690MPD2    C110201   1.864   2.113  15.871 -0.0420 -0.9077 -1.1319
  690MPD2    C210202   1.984   2.169  15.835 -0.4518  0.3913  0.0933
  690MPD2    C310203   2.012   2.302  15.837 -0.4258  0.1139 -0.1376
  690MPD2    C410204   1.908   2.387  15.872  0.1463 -0.6179  0.3893
  690MPD2    C510205   1.790   2.334  15.915  0.5517  0.7948  0.0890
  690MPD2     H10206   2.062   2.112  15.785  0.3792  1.0724  0.6043
  690MPD2    H110207   1.908   2.495  15.861 -1.0279 -0.7326 -0.6397
  690MPD2    H210208   1.668   2.173  15.957  0.9588  0.2672  3.1283
  690MPD2    H310209   1.716   2.397  15.963  0.4789  1.9992 -1.5900
  690MPD2     N10210   2.132   2.357  15.796  0.7808 -0.4213 -0.4211
  690MPD2    H510211   2.134   2.456  15.775  2.4056 -0.0882  1.2434
  690MPD2    N110212   1.838   1.976  15.842 -0.1974 -0.4820 -0.1903
  690MPD2    H710213   1.910   1.920  15.798  0.1119 -0.4004  0.2118
  691TMC3    C110214   1.683   1.797  15.776  0.0067  0.1780 -0.2799
  691TMC3    C210215   1.576   1.781  15.696 -0.2185  0.1188 -0.0257
  691TMC3    C310216   1.569   1.688  15.604  0.4210 -0.1092  0.5460
  691TMC3    C410217   1.788   1.716  15.756  0.1291  0.6699 -0.2349
  691TMC3    C510218   1.781   1.614  15.664 -0.4681 -0.2161  0.6051
  691TMC3    C610219   1.673   1.600  15.580 -0.6189 -0.1736  0.2872
  691TMC3     C10220   1.707   1.929  15.835 -0.1672 -0.4622 -0.5525
  691TMC3     O10221   1.607   1.995  15.847 -0.4804  0.3693  0.4970
  691TMC3     H10222   1.491   1.847  15.707 -1.3528 -1.5401  1.2665
  691TMC3    H110223   1.871   1.720  15.827 -2.1262  0.9263  2.3852
  691TMC3    H210224   1.659   1.510  15.522 -0.2090  1.4276 -2.2737
  691TMC3    C710225   1.882   1.512  15.681 -0.5601 -1.1637  0.3239
  691TMC3    C810226   1.447   1.654  15.539 -0.3616 -0.2930  0.0765
  691TMC3    O110227   1.964   1.531  15.764 -0.1624 -0.2322 -0.3176
  691TMC3    O210228   1.435   1.550  15.476 -0.0159  0.2926 -0.7685
  692TMC3    C110229   3.580   3.275  15.543  0.4035 -0.1996 -0.5163
  692TMC3    C210230   3.672   3.311  15.642  0.0089 -0.2817  0.1802
  692TMC3    C310231   3.783   3.229  15.662 -1.1463 -0.2143  0.7100
  692TMC3    C410232   3.596   3.160  15.468  0.0057 -0.1416  0.0638
  692TMC3    C510233   3.692   3.071  15.519  0.0609 -0.2522  0.1582
  692TMC3    C610234   3.774   3.102  15.617  0.5095 -0.1219  0.0743
  692TMC3     C10235   3.470   3.378  15.517 -0.2752 -0.0122  0.0039
  692TMC3     O10236   3.432   3.402  15.402 -0.2763 -0.2267 -0.2499
  692TMC3     H10237   3.681   3.417  15.663 -1.9858  0.4492 -2.7416
  692TMC3    H110238   3.529   3.131  15.388 -0.7208  2.6635 -0.3452
  692TMC3    H210239   3.866   3.051  15.645 -0.0148 -1.6782 -1.0934
  692TMC3    C710240   3.692   2.926  15.484 -0.2851 -0.5324  0.1446
  692TMC3    C810241   3.823   3.228  15.800  0.2633  0.5295 -0.7737
  692TMC3    O110242   3.635   2.890  15.379  0.0131 -0.3937  0.4029
  692TMC3    O210243   3.868   3.123  15.845  0.0909 -0.6619  0.1968
  693MPD2     C10244   3.057   1.401  10.563 -0.0181 -0.0171 -0.4125
  693MPD2    C110245   3.040   1.283  10.638 -0.5337  0.1113 -0.3920
  693MPD2    C210246   3.154   1.203  10.654 -0.8898  0.0791 -0.9284
  693MPD2    C310247   3.277   1.238  10.603  0.0854  0.0046 -0.3384
  693MPD2    C410248   3.285   1.353  10.526 -0.2717 -0.0445 -0.3823
  693MPD2    C510249   3.180   1.430  10.508 -1.0541 -0.3244 -0.1322
  693MPD2     H10250   3.152   1.105  10.699  0.7200 -0.0873 -1.2207
  693MPD2    H110251   3.382   1.385  10.488 -1.9209  0.6975 -3.9296
  693MPD2    H210252   2.978   1.471  10.537  0.2017  0.4958  0.3093
  693MPD2    H310253   3.194   1.513  10.440  1.8528 -0.4529  0.3188
  693MPD2     N10254   3.396   1.163  10.607  0.1194  0.3339  0.0042
  693MPD2    H510255   3.473   1.216  10.566  1.8647 -2.7628 -0.6720
  693MPD2    N110256   2.918   1.237  10.694 -0.3473 -1.4148  0.3820
  693MPD2    H710257   2.917   1.147  10.740  0.0882 -0.6729  1.8218
  694TMC3    C110258   2.683   1.253  10.740 -0.2046 -0.1095 -0.0848
  694TMC3    C210259   2.564   1.243  10.671  0.2402  0.4629  0.1666
  694TMC3    C310260   2.471   1.160  10.730 -0.1918  0.5622 -0.6362
  694TMC3    C410261   2.706   1.182  10.857 -0.1838 -0.0645 -0.0464
  694TMC3    C510262   2.608   1.111  10.920 -0.2289  0.2514  0.5292
  694TMC3    C610263   2.489   1.097  10.854 -0.2006  0.0781 -0.0493
  694TMC3     C10264   2.800   1.307  10.673 -0.0218  0.1751  1.2256
  694TMC3     O10265   2.777   1.401  10.595  0.1102 -0.5194 -0.0834
  694TMC3     H10266   2.559   1.294  10.576 -0.4431 -1.1406 -0.6533
  694TMC3    H110267   2.792   1.202  10.920  1.8659  0.2136 -2.9465
  694TMC3    H210268   2.419   1.019  10.883 -0.5751  0.9295  1.3361
  694TMC3    C710269   2.620   1.086  11.063 -0.0563  0.0630  0.1565
  694TMC3    C810270   2.356   1.117  10.655  0.5155 -0.1623  0.1153
  694TMC3    O110271   2.734   1.076  11.112 -0.2991  0.1234  0.1331
  694TMC3    O210272   2.287   1.030  10.703 -0.2635 -0.0181  0.4860
  695MPD2     C10273   4.430   2.887  13.316  0.1187  0.0304 -0.3148
  695MPD2    C110274   4.401   2.934  13.444 -0.4908  0.2211  0.5267
  695MPD2    C210275   4.270   2.952  13.491  0.3755  1.2395 -0.0183
  695MPD2    C310276   4.169   2.920  13.402  0.0242 -0.3654 -0.2839
  695MPD2    C410277   4.197   2.876  13.280 -0.3869 -0.3155  0.3591
  695MPD2    C510278   4.327   2.861  13.231 -0.4899 -0.6535 -0.5231
  695MPD2     H10279   4.259   2.970  13.597  0.4503  1.5471 -0.0631
  695MPD2    H110280   4.125   2.845  13.205 -0.1494 -0.0555  0.0264
  695MPD2    H210281   4.533   2.875  13.284  0.2578 -0.9799  0.5081
  695MPD2    H310282   4.328   2.831  13.127  0.1357 -2.1791 -0.0737
  695MPD2     N10283   4.037   2.932  13.448 -0.0812  0.8516 -0.4086
  695MPD2    H510284   4.025   2.986  13.533  1.9419 -0.9749  1.0164
  695MPD2    N110285   4.503   2.937  13.536 -0.7711 -0.5658  0.1651
  695MPD2    H710286   4.477   2.984  13.622  0.6292  0.1508  0.2021
  696TMC3    C110287   3.801   2.917  13.459  0.2313 -0.2328 -0.0098
  696TMC3    C210288   3.814   2.876  13.587  0.0611  0.0085  0.6874
  696TMC3    C310289   3.707   2.895  13.671 -0.0462 -0.5201 -0.1082
  696TMC3    C410290   3.691   2.989  13.413  0.0296  0.1942 -0.6179
  696TMC3    C510291   3.595   3.023  13.507  0.2826 -0.8284  0.0210
  696TMC3    C610292   3.598   2.967  13.627 -0.7919 -0.6840 -0.4615
  696TMC3     C10293   3.918   2.917  13.374 -0.4859 -0.1445 -0.1019
  696TMC3     O10294   3.908   2.912  13.252 -0.0176 -0.0332 -0.6027
  696TMC3     H10295   3.898   2.822  13.628  1.1174  0.5614 -0.7657
  696TMC3    H110296   3.692   3.040  13.317  0.4991  1.9042  0.2788
  696TMC3    H210297   3.503   2.983  13.677  0.0802  0.6359  0.7774
  696TMC3    C710298   3.506   3.133  13.480  0.2545 -0.5180 -0.0235
  696TMC3    C810299   3.738   2.927  13.809  0.0130 -0.3899  1.0382
  696TMC3    O110300   3.491   3.167  13.364  0.7956 -0.2451 -0.2102
  696TMC3    O210301   3.856   2.958  13.832 -0.1488 -0.2700  0.2458
  697MPD2     C10302   3.337   4.547  15.598 -0.5812  0.5949 -1.2025
  697MPD2    C110303   3.311   4.538  15.467 -0.6007 -0.0440 -0.3533
  697MPD2    C210304   3.300   4.649  15.386 -0.1561 -0.1001 -0.0222
  697MPD2    C310305   3.316   0.054  15.438 -0.1247  0.4846  0.3664
  697MPD2    C410306   3.334   0.067  15.567  0.7260 -0.3230  0.0518
  697MPD2    C510307   3.341   4.678  15.645  0.9150  0.3330  0.1938
  697MPD2     H10308   3.271   4.636  15.283 -0.8713  0.6618  0.0755
  697MPD2    H110309   3.344   0.163  15.617  1.9240 -0.3710 -0.1014
  697MPD2    H210310   3.349   4.456  15.654  1.8077  0.8635 -1.2855
  697MPD2    H310311   3.346   4.685  15.753 -0.1156  2.0574  0.1374
  697MPD2     N10312   3.302   0.163  15.351  0.4857 -0.1610  0.0109
  697MPD2    H510313   3.285   0.139  15.253 -2.0196  1.8909 -0.0727
  697MPD2    N110314   3.296   4.414  15.399 -0.4626  0.1553  0.3048
  697MPD2    H710315   3.273   4.423  15.301  0.2992 -2.0176 -0.0815
  698TMC3    C110316   3.352   0.377  15.271  0.3905 -0.6062 -0.2000
  698TMC3    C210317   3.312   0.505  15.272 -0.0276  0.1890 -0.5775
  698TMC3    C310318   3.388   0.590  15.197 -0.7611  0.0610  0.0699
  698TMC3    C410319   3.455   0.339  15.189 -0.1098 -0.4776 -0.6659
  698TMC3    C510320   3.540   0.429  15.127 -0.1493  0.0619  0.0224
  698TMC3    C610321   3.506   0.561  15.125  0.4053 -0.0395 -0.2759
  698TMC3     C10322   3.317   0.294  15.385 -0.4587 -0.6420 -0.0246
  698TMC3     O10323   3.301   0.346  15.495 -0.1041 -0.3518  0.0414
  698TMC3     H10324   3.221   0.534  15.322 -0.3486 -1.6511 -0.1166
  698TMC3    H110325   3.501   0.241  15.199 -1.9685 -1.3335 -0.5688
  698TMC3    H210326   3.571   0.637  15.086 -0.5185  1.4380  1.0373
  698TMC3    C710327   3.556   0.380  14.992  0.3530  0.3870 -0.0609
  698TMC3    C810328   3.320   0.703  15.155  0.4200  0.6298 -0.6297
  698TMC3    O110329   3.491   0.285  14.961  0.2644  0.3049  0.2552
  698TMC3    O210330   3.199   0.705  15.136 -0.0590  0.0529  0.4735
  699TMC3    C110331   3.401   2.546  12.771  0.1188  0.6371 -0.1584
  699TMC3    C210332   3.432   2.507  12.902  0.4058  0.6064  0.5189
  699TMC3    C310333   3.363   2.562  13.007 -0.6039  0.4467  0.0914
  699TMC3    C410334   3.321   2.654  12.761 -0.0331  0.7492 -0.1312
  699TMC3    C510335   3.247   2.697  12.862 -0.2468  0.3849 -0.1037
  699TMC3    C610336   3.268   2.659  12.992  0.1396 -0.3510 -0.0705
  699TMC3     C10337   3.517   2.560  12.675  0.2802  0.0930 -0.3840
  699TMC3     O10338   3.538   2.671  12.619  0.1800 -0.3253 -0.0167
  699TMC3     H10339   3.510   2.432  12.914 -1.5996 -1.6977 -0.8325
  699TMC3    H110340   3.310   2.707  12.667 -1.4633 -0.4184 -0.6255
  699TMC3    H210341   3.210   2.700  13.074  0.6854  0.5097 -0.1116
  699TMC3    C710342   3.142   2.789  12.836  1.0740  0.4161  0.5533
  699TMC3    C810343   3.362   2.494  13.137 -0.6812 -0.2468  0.1142
  699TMC3    O110344   3.106   2.853  12.935  0.4889 -0.6663 -0.4980
  699TMC3    O210345   3.264   2.515  13.204  0.3040 -0.5452 -0.6918
  700TMC3    C110346   3.387   1.030   0.504 -0.4161 -0.0320 -0.3405
  700TMC3    C210347   3.391   0.979   0.377  0.8475  0.1149 -0.3336
  700TMC3    C310348   3.513   0.952   0.339 -0.6377  0.7270 -0.3106
  700TMC3    C410349   3.492   1.086   0.581 -0.0692  0.2841  0.2421
  700TMC3    C510350   3.617   1.073   0.528  0.3578  0.0841  0.2685
  700TMC3    C610351   3.622   0.993   0.419  0.3134  0.7370  0.4692
  700TMC3     C10352   3.260   1.086   0.537  1.0596 -0.3480  1.0868
  700TMC3     O10353   3.237   1.107   0.654 -0.3242  0.0795 -0.2627
  700TMC3     H10354   3.307   0.946   0.317  0.6484 -0.3645  0.2013
  700TMC3    H110355   3.473   1.149   0.667 -0.1395  3.1521 -1.8823
  700TMC3    H210356   3.718   0.954   0.388 -0.7284 -1.2294 -0.2334
  700TMC3    C710357   3.685   1.200   0.522  0.7921  0.4022 -0.1404
  700TMC3    C810358   3.533   0.868   0.223 -0.3483  0.2698 -0.1250
  700TMC3    O110359   3.729   1.241   0.420  0.2931  0.8221  0.1347
  700TMC3    O210360   3.443   0.874   0.139  0.2356 -0.2747  0.2325
  701TMC3    C110361   2.508   3.985  15.472  0.3867 -0.5611 -0.1449
  701TMC3    C210362   2.499   3.935  15.341  0.1287 -0.1778  0.5667
  701TMC3    C310363   2.593   3.980  15.250 -0.8775  0.1050 -0.1177
  701TMC3    C410364   2.591   4.088  15.510  0.3974  0.1349 -0.2552
  701TMC3    C510365   2.675   4.129  15.412 -0.2298  0.2462 -1.0011
  701TMC3    C610366   2.682   4.081  15.283  0.5602 -0.1243 -0.1384
  701TMC3     C10367   2.397   3.963  15.567 -0.2769 -0.7014 -0.0956
  701TMC3     O10368   2.390   4.013  15.681  0.5164  0.4918 -0.3530
  701TMC3     H10369   2.429   3.855  15.322  0.2325 -0.4328  1.2545
  701TMC3    H110370   2.588   4.139  15.605 -2.3667  1.6777 -1.1719
  701TMC3    H210371   2.754   4.106  15.207 -0.1450 -0.6970 -0.9925
  701TMC3    C710372   2.760   4.246  15.440  0.1272  0.2408 -0.0182
  701TMC3    C810373   2.627   3.899  15.139 -0.0744 -0.4101 -0.4152
  701TMC3    O110374   2.780   4.313  15.340 -0.2659 -0.2958 -0.0115
  701TMC3    O210375   2.741   3.885  15.104  0.1855 -0.2678  0.1755
  702MPD2     C10376   2.317   1.839  10.932 -0.2630  0.0827 -1.0752
  702MPD2    C110377   2.202   1.837  10.861 -0.0336 -0.3128 -0.9232
  702MPD2    C210378   2.205   1.909  10.743 -0.2587  0.2832 -0.5251
  702MPD2    C310379   2.317   1.964  10.683 -0.1154 -0.0193  0.9301
  702MPD2    C410380   2.437   1.957  10.745 -0.2667  0.3780 -0.2373
  702MPD2    C510381   2.427   1.901  10.875  0.7168  0.5170 -0.4072
  702MPD2     H10382   2.115   1.924  10.685 -1.4942  1.5317  1.7143
  702MPD2    H110383   2.528   2.006  10.713  0.5541 -1.4751 -0.7559
  702MPD2    H210384   2.333   1.792  11.029  2.5894  2.4886 -0.3545
  702MPD2    H310385   2.506   1.903  10.949  0.0460 -2.7240  0.3877
  702MPD2     N10386   2.308   2.035  10.561 -0.2412  0.1252 -0.4833
  702MPD2    H510387   2.395   2.076  10.530 -1.1175  0.4615 -2.5015
  702MPD2    N110388   2.084   1.781  10.918 -0.3166  0.0113 -0.6092
  702MPD2    H710389   2.089   1.742  11.011  1.8225 -2.6012 -1.8271
  703TMC3    C110390   2.231   2.106  10.347  0.5748  0.4051  0.2335
  703TMC3    C210391   2.129   2.181  10.295  0.5261  0.0025  0.0872
  703TMC3    C310392   2.151   2.252  10.184  0.1902  0.3528  0.0671
  703TMC3    C410393   2.359   2.112  10.293  0.1580 -0.2932 -0.1530
  703TMC3    C510394   2.369   2.177  10.171  0.1141 -0.3801  0.3341
  703TMC3    C610395   2.266   2.241  10.113  0.3479  0.3044  0.0573
  703TMC3     C10396   2.201   2.047  10.477  0.2726 -0.0581  0.3899
  703TMC3     O10397   2.078   2.026  10.496 -0.0377  0.3138 -0.4372
  703TMC3     H10398   2.039   2.200  10.353  0.9435 -0.0098  0.7372
  703TMC3    H110399   2.443   2.066  10.345  0.2043 -0.3315 -0.2610
  703TMC3    H210400   2.279   2.283  10.015  2.7335  0.9748  0.6828
  703TMC3    C710401   2.504   2.212  10.129 -0.2683 -0.9711 -0.5348
  703TMC3    C810402   2.055   2.355  10.142 -0.2659 -0.3876  0.5263
  703TMC3    O110403   2.511   2.311  10.056 -0.0088 -0.3289 -0.3514
  703TMC3    O210404   2.091   2.449  10.074  0.4703 -0.1221 -0.2030
  704TMC3    C110405   0.013   4.677  12.638 -0.2909 -0.3461 -0.0951
  704TMC3    C210406   0.122   4.716  12.573 -0.2206  0.3712 -0.0941
  704TMC3    C310407   0.242   4.664  12.619 -0.1911 -0.1691  0.2925
  704TMC3    C410408   0.013   4.580  12.730 -0.1501 -0.4431  0.6835
  704TMC3    C510409   0.133   4.519  12.760  0.3635  0.4881 -0.2589
  704TMC3    C610410   0.256   4.566  12.712  0.5782  0.7699 -0.0191
  704TMC3     C10411   4.626   4.685  12.552  0.4948 -0.3779 -0.0959
  704TMC3     O10412   4.514   4.673  12.598 -0.0923  0.0437 -0.3907
  704TMC3     H10413   0.128   0.070  12.499  0.4956  0.4452  0.0497
  704TMC3    H110414   4.640   4.542  12.756 -0.2720 -0.5976  0.0026
  704TMC3    H210415   0.343   4.502  12.722 -1.1176 -1.2691  1.6391
  704TMC3    C710416   0.122   4.372  12.747 -0.4612 -0.2588 -0.5898
  704TMC3    C810417   0.343   4.660  12.517 -0.1599 -0.1507 -1.1779
  704TMC3    O110418   0.218   4.331  12.686  0.0525 -0.1503 -0.1058
  704TMC3    O210419   0.297   4.638  12.405 -0.3730 -0.3460  0.0647
  705MPD2     C10420   4.077   2.516  16.693 -0.2445  0.1645  0.1824
  705MPD2    C110421   4.074   2.652  16.692  0.3665 -0.1204  0.4463
  705MPD2    C210422   3.959   2.716  16.724 -0.6380  0.6996  0.4084
  705MPD2    C310423   3.840   2.639  16.741  0.0011 -0.4275  0.5314
  705MPD2    C410424   3.845   2.501  16.738  0.0312 -0.0757 -0.6468
  705MPD2    C510425   3.965   2.442  16.721  0.2693  0.6239 -0.3502
  705MPD2     H10426   3.963   2.824  16.717  0.8143  0.6550  0.3623
  705MPD2    H110427   3.762   2.432  16.747  1.8005 -2.1085  0.2702
  705MPD2    H210428   4.159   2.447  16.677  2.0443  3.4486 -2.0744
  705MPD2    H310429   3.973   2.334  16.732 -1.4632  0.4974 -0.4172
  705MPD2     N10430   3.709   2.694  16.734  0.4756  0.1930 -0.2217
  705MPD2    H510431   3.639   2.620  16.734 -2.3367  2.8615  0.9755
  705MPD2    N110432   4.180   2.732  16.654 -0.2574 -0.4895  0.0513
  705MPD2    H710433   4.160   2.832  16.655 -0.1970 -0.4588 -1.8680
  706TMC3    C110434   4.553   2.820  16.412  0.7117 -0.5093 -0.7133
  706TMC3    C210435   4.502   2.938  16.366 -1.0385  0.0711 -0.1939
  706TMC3    C310436   4.398   2.987  16.436  0.9683 -0.3677  0.3354
  706TMC3    C410437   4.499   2.756  16.517  0.5528 -0.1871 -0.1694
  706TMC3    C510438   4.382   2.798  16.567 -0.4152 -0.4484 -0.2226
  706TMC3    C610439   4.329   2.915  16.522  0.5064  0.5305 -0.2463
  706TMC3     C10440   4.669   2.770  16.342  0.3666  0.0153  0.0061
  706TMC3     O10441   0.010   2.692  16.406  0.4320 -0.4563 -0.0910
  706TMC3     H10442   4.544   2.995  16.284 -1.5511  0.8797  0.1045
  706TMC3    H110443   4.544   2.663  16.550 -0.9074 -0.3110  1.5474
  706TMC3    H210444   4.230   2.945  16.553 -1.3026 -3.6181 -2.0927
  706TMC3    C710445   4.308   2.693  16.628 -0.1955 -1.0841  0.8467
  706TMC3    C810446   4.363   3.129  16.419 -0.2731  0.0150 -0.6188
  706TMC3    O110447   4.361   2.586  16.657  0.1223  0.3140 -0.0700
  706TMC3    O210448   4.389   3.177  16.311  0.4058  0.1280 -0.3276
  707TMC3    C110449   0.986   1.847   1.360 -0.8886  0.2248 -0.5246
  707TMC3    C210450   0.976   1.773   1.470 -0.1753 -0.4716  0.1323
  707TMC3    C310451   0.873   1.685   1.484 -0.8020  0.0564  0.1338
  707TMC3    C410452   0.889   1.847   1.259  0.0414  0.2419  0.0995
  707TMC3    C510453   0.784   1.767   1.279 -0.3693  0.4291 -0.0318
  707TMC3    C610454   0.778   1.686   1.388 -0.0669  0.0985 -0.4016
  707TMC3     C10455   1.124   1.879   1.331  0.0221 -0.2046  0.2194
  707TMC3     O10456   1.208   1.849   1.419  0.6030 -0.1598  0.6693
  707TMC3     H10457   1.040   1.793   1.555  0.9010  1.7269 -1.1851
  707TMC3    H110458   0.895   1.896   1.163  1.3731  0.3219  0.2247
  707TMC3    H210459   0.709   1.603   1.396  1.0244 -0.9714 -2.1174
  707TMC3    C710460   0.733   1.709   1.157 -0.4035  0.5570 -0.3684
  707TMC3    C810461   0.889   1.576   1.581  0.6832  0.4691  0.0151
  707TMC3    O110462   0.722   1.587   1.150  0.1822  0.2526  0.0871
  707TMC3    O210463   0.784   1.513   1.601 -0.2634  0.4644  0.3423
  708MPD2     C10464   2.329   1.067  14.201 -0.7625  0.1975  0.3732
  708MPD2    C110465   2.343   1.203  14.196 -0.0393 -0.4140 -0.1217
  708MPD2    C210466   2.353   1.280  14.316 -0.0676 -0.0075 -0.1193
  708MPD2    C310467   2.336   1.223  14.436  0.1555 -0.7482 -0.4639
  708MPD2    C410468   2.306   1.090  14.442 -0.5819 -0.6127  0.3483
  708MPD2    C510469   2.310   1.009  14.331  0.0269  0.0235 -0.3712
  708MPD2     H10470   2.373   1.387  14.308  1.2639 -0.4009 -2.0582
  708MPD2    H110471   2.278   1.034  14.530 -0.7186  0.5887  1.0655
  708MPD2    H210472   2.316   1.012  14.109  1.5933  1.1758 -0.5470
  708MPD2    H310473   2.299   0.903  14.352  2.5777 -0.4558 -1.4229
  708MPD2     N10474   2.343   1.300  14.559  0.8384 -0.4843 -0.0762
  708MPD2    H510475   2.364   1.398  14.545  1.7099 -0.4160  1.6271
  708MPD2    N110476   2.373   1.256  14.071  0.5622  0.4136  0.1649
  708MPD2    H710477   2.347   1.202  13.989 -2.1730  1.9290  0.0321
  709TMC3    C110478   2.350   1.467  13.962  0.1941  0.1470  0.1447
  709TMC3    C210479   2.304   1.400  13.852 -0.7309 -0.2456  0.1010
  709TMC3    C310480   2.172   1.404  13.820 -0.4355  0.3373 -0.6700
  709TMC3    C410481   2.261   1.546  14.031 -0.1767  0.0209 -0.5069
  709TMC3    C510482   2.128   1.538  14.007  0.2482 -0.2083 -0.3977
  709TMC3    C610483   2.083   1.455  13.910  0.5894  0.4670 -0.9636
  709TMC3     C10484   2.432   1.383  14.056 -0.0962 -0.0962  0.1401
  709TMC3     O10485   2.513   1.441  14.128  1.0949  0.2824 -0.0701
  709TMC3     H10486   2.377   1.342  13.797  0.5486  1.3003  0.1764
  709TMC3    H110487   2.298   1.606  14.113  3.2169 -1.5064 -0.9526
  709TMC3    H210488   1.978   1.445  13.885  0.5023  0.1655 -0.4859
  709TMC3    C710489   2.053   1.561  14.133  0.5176  0.4106 -0.0877
  709TMC3    C810490   2.125   1.310  13.725 -0.2808  0.5504  0.2912
  709TMC3    O110491   2.102   1.651  14.199  0.0679  0.2858  0.3653
  709TMC3    O210492   2.072   1.202  13.759  0.0122  0.6057 -0.4391
  710TMC3    C110493   4.350   2.906   1.015 -0.5207  0.5375 -0.4723
  710TMC3    C210494   4.348   2.878   0.879 -0.4354 -0.6975  0.0731
  710TMC3    C310495   4.429   2.778   0.835  0.5273 -0.7196 -0.1471
  710TMC3    C410496   4.427   2.837   1.104  0.3320 -0.7050  0.0248
  710TMC3    C510497   4.501   2.734   1.051  0.2115 -0.5525 -0.2650
  710TMC3    C610498   4.504   2.700   0.918  0.0979  0.8714  0.5993
  710TMC3     C10499   4.211   2.918   1.066 -0.5615  0.4487  0.0740
  710TMC3     O10500   4.174   2.826   1.136  0.4624  0.7566 -0.0391
  710TMC3     H10501   4.270   2.920   0.817  0.4777  0.3924 -0.3393
  710TMC3    H110502   4.415   2.855   1.210  2.3782  0.0165  0.1420
  710TMC3    H210503   4.553   2.613   0.876  0.7869  1.1604  0.8081
  710TMC3    C710504   4.509   2.629   1.146 -0.6256 -0.0203 -0.3735
  710TMC3    C810505   4.400   2.712   0.711  0.5581  0.4085  0.0945
  710TMC3    O110506   4.449   2.631   1.253  0.7901  0.2387  0.1592
  710TMC3    O210507   4.496   2.658   0.659  0.4366 -0.4722 -0.3438
  711TMC3    C110508   3.487   3.312  15.041  1.2074  0.8892  0.5927
  711TMC3    C210509   3.577   3.381  15.115  0.5998  0.4481  0.3853
  711TMC3    C310510   3.708   3.383  15.091  0.3299  0.4342 -0.1666
  711TMC3    C410511   3.535   3.227  14.946  0.3422  0.1863  0.0620
  711TMC3    C510512   3.674   3.203  14.948 -0.4775 -0.0164 -0.5225
  711TMC3    C610513   3.765   3.286  15.013  0.4007  0.5200 -0.2828
  711TMC3     C10514   3.340   3.339  15.041 -0.2835  0.0721 -0.7026
  711TMC3     O10515   3.282   3.306  14.941  0.4857 -0.3080  0.2710
  711TMC3     H10516   3.542   3.464  15.174 -0.6119 -0.2390  0.6302
  711TMC3    H110517   3.475   3.163  14.882 -0.9561  0.7241  0.7414
  711TMC3    H210518   3.871   3.298  14.995  0.3798 -1.5544 -1.7595
  711TMC3    C710519   3.712   3.067  14.974 -0.4997 -0.4723 -0.5664
  711TMC3    C810520   3.788   3.408  15.208  0.7219 -0.4214 -0.9247
  711TMC3    O110521   3.826   3.054  15.014  0.3472 -0.1982  0.4802
  711TMC3    O210522   3.735   3.487  15.282  0.1969  0.1391 -0.2699
  712MPD2     C10523   4.271   4.673  13.609  0.1560  0.0701  0.3627
  712MPD2    C110524   4.193   0.030  13.531 -0.6422  0.2492 -1.1361
  712MPD2    C210525   4.196   0.168  13.548 -0.1617  0.9791 -0.6753
  712MPD2    C310526   4.283   0.216  13.640  0.1313 -0.4580 -0.2686
  712MPD2    C410527   4.370   0.134  13.710  0.3009 -0.2071 -0.7254
  712MPD2    C510528   4.369   0.000  13.689 -0.1212  0.3231  0.1278
  712MPD2     H10529   4.130   0.232  13.488  0.7706  3.6231  1.1329
  712MPD2    H110530   4.441   0.190  13.771 -0.1792 -0.6297  0.2221
  712MPD2    H210531   4.281   4.565  13.611 -0.5804  0.0087  0.8868
  712MPD2    H310532   4.421   4.654  13.752  1.8349 -1.3269 -3.2763
  712MPD2     N10533   4.292   0.354  13.667  0.2131 -0.2483  0.3070
  712MPD2    H510534   4.343   0.379  13.751  0.7976  0.1497 -0.1725
  712MPD2    N110535   4.110   4.707  13.424 -0.3538 -0.1810  0.3779
  712MPD2    H710536   4.059   0.054  13.373 -0.4945  0.7806  1.8738
  713TMC3    C110537   4.271   0.581  13.681  0.1514  0.1515 -0.7405
  713TMC3    C210538   4.399   0.592  13.719  0.6888  0.0126 -0.2160
  713TMC3    C310539   4.450   0.722  13.736 -0.2374 -0.0424  0.2366
  713TMC3    C410540   4.191   0.694  13.663  0.0600 -0.2855 -0.6194
  713TMC3    C510541   4.246   0.822  13.689 -0.1458 -0.4689  0.1152
  713TMC3    C610542   4.382   0.836  13.724 -0.1191  0.1624 -0.3754
  713TMC3     C10543   4.231   0.461  13.613 -0.4501 -1.3006 -0.2621
  713TMC3     O10544   4.145   0.469  13.522  0.4176 -0.3260  0.1697
  713TMC3     H10545   4.468   0.508  13.721 -1.4969 -1.7883 -0.1447
  713TMC3    H110546   4.085   0.668  13.663  0.1081 -0.4732 -0.1579
  713TMC3    H210547   4.422   0.928  13.764 -1.3581  0.3560  0.4085
  713TMC3    C710548   4.163   0.932  13.726  0.2929 -0.2514  0.2314
  713TMC3    C810549   4.584   0.736  13.691  0.2114  0.7225 -0.0664
  713TMC3    O110550   4.218   1.031  13.771 -0.1302 -0.3447  0.3817
  713TMC3    O210551   4.665   0.654  13.738  0.0534 -0.3623  0.3207
  714MPD2     C10552   1.876   3.392   1.025 -0.0349  0.9404  0.0605
  714MPD2    C110553   1.878   3.257   1.054 -0.0241  0.6843  0.5448
  714MPD2    C210554   1.755   3.195   1.058 -0.4653 -0.2949 -0.8827
  714MPD2    C310555   1.633   3.258   1.037  0.0265 -0.4316  0.0815
  714MPD2    C410556   1.637   3.386   0.989 -0.8429  0.6838  0.9888
  714MPD2    C510557   1.760   3.445   0.971  0.0625  0.0194 -0.4037
  714MPD2     H10558   1.742   3.093   1.092  0.6741 -0.4460 -0.8926
  714MPD2    H110559   1.543   3.430   0.959 -0.5488  1.0210  0.5580
  714MPD2    H210560   1.964   3.455   1.014  0.0998  0.3721 -2.2012
  714MPD2    H310561   1.773   3.544   0.930  1.5521 -0.0351 -0.0782
  714MPD2     N10562   1.510   3.189   1.073 -0.4390 -0.4662 -0.1780
  714MPD2    H510563   1.507   3.088   1.078 -1.5782 -0.4658 -0.8419
  714MPD2    N110564   1.999   3.207   1.092 -0.6283 -0.1736 -0.1881
  714MPD2    H710565   2.079   3.268   1.101  0.1147 -1.2620  0.5661
  715TMC3    C110566   2.162   3.053   1.132  0.6404 -0.6337 -0.3683
  715TMC3    C210567   2.210   2.929   1.094  0.1001 -0.5260 -0.9028
  715TMC3    C310568   2.348   2.913   1.099 -0.3510  0.2906  0.0759
  715TMC3    C410569   2.243   3.147   1.195 -0.0368 -0.9868 -0.4961
  715TMC3    C510570   2.375   3.123   1.202  0.0401  0.5273  0.0657
  715TMC3    C610571   2.431   3.008   1.153  0.2600 -0.3335  0.6276
  715TMC3     C10572   2.023   3.075   1.118 -0.9877 -0.2232  0.1051
  715TMC3     O10573   1.955   2.980   1.089 -0.0036  0.2807  0.1612
  715TMC3     H10574   2.141   2.859   1.050 -1.6710  0.7896 -0.2170
  715TMC3    H110575   2.201   3.240   1.233  1.6703 -0.4665  0.1368
  715TMC3    H210576   2.538   3.011   1.136  0.2719 -1.5716  0.4316
  715TMC3    C710577   2.465   3.213   1.273 -0.0223 -0.9331 -0.3873
  715TMC3    C810578   2.403   2.787   1.041  0.6793  0.2102  0.2038
  715TMC3    O110579   2.585   3.192   1.250  0.0399  0.4970 -0.5267
  715TMC3    O210580   2.333   2.717   0.971  0.2421  0.0763  0.1480
  716MPD2     C10581   1.565   1.814   9.643 -0.0604 -0.2436  0.2235
  716MPD2    C110582   1.464   1.756   9.564 -0.3005  1.2769  0.2959
  716MPD2    C210583   1.484   1.624   9.530 -0.1883  0.1214 -0.3549
  716MPD2    C310584   1.611   1.559   9.543 -0.7656 -0.4031  0.2737
  716MPD2    C410585   1.712   1.625   9.599 -0.2179  0.2346  0.2099
  716MPD2    C510586   1.684   1.747   9.652 -0.5740  0.4746  0.8161
  716MPD2     H10587   1.400   1.568   9.489 -0.2101 -0.1630  0.0802
  716MPD2    H110588   1.815   1.591   9.597  0.1914  1.4918  0.2117
  716MPD2    H210589   1.549   1.913   9.684  2.4665  0.6476 -0.9530
  716MPD2    H310590   1.768   1.798   9.698 -1.2741  1.1776  1.3177
  716MPD2     N10591   1.629   1.430   9.485 -0.0278 -0.5214  0.6309
  716MPD2    H510592   1.549   1.388   9.439  0.9525 -1.1623 -0.4915
  716MPD2    N110593   1.345   1.826   9.524  0.1593 -0.0281  0.3698
  716MPD2    H710594   1.338   1.911   9.578  0.3592 -0.6059  1.3130
  717TMC3    C110595   1.746   1.251   9.380 -0.1387  0.3445  0.0756
  717TMC3    C210596   1.651   1.248   9.280 -0.6072  0.0287 -0.0812
  717TMC3    C310597   1.647   1.136   9.201 -0.7921  0.5782  0.0872
  717TMC3    C410598   1.850   1.157   9.378  0.2092 -0.8199  0.0544
  717TMC3    C510599   1.851   1.057   9.288 -0.0979 -0.1685  0.0285
  717TMC3    C610600   1.745   1.036   9.205  0.0691 -0.0816 -0.0685
  717TMC3     C10601   1.743   1.355   9.485  0.0088  0.5175  0.6825
  717TMC3     O10602   1.843   1.375   9.552 -0.1400  0.5972 -0.0361
  717TMC3     H10603   1.583   1.330   9.260 -0.6013  0.5185  1.9348
  717TMC3    H110604   1.916   1.155   9.465  0.3965  3.0461 -0.0031
  717TMC3    H210605   1.738   0.941   9.154 -1.9252 -0.1241  0.2863
  717TMC3    C710606   1.938   0.946   9.324 -0.1145  0.0241 -0.1706
  717TMC3    C810607   1.514   1.110   9.145 -0.1463 -0.1663 -0.3094
  717TMC3    O110608   1.888   0.834   9.310 -0.4104  0.0744  0.1532
  717TMC3    O210609   1.414   1.172   9.172 -0.3443 -0.6614 -0.2721
  718MPD2     C10610   1.432   0.769  13.299 -0.1780  0.0276  0.5932
  718MPD2    C110611   1.393   0.857  13.200 -0.4680 -0.0546  0.0852
  718MPD2    C210612   1.253   0.862  13.162  0.5030 -0.2096  0.3417
  718MPD2    C310613   1.160   0.790  13.232  0.0349  0.8325 -0.6571
  718MPD2    C410614   1.205   0.706  13.334  0.6868  0.2915  0.2837
  718MPD2    C510615   1.336   0.688  13.360 -0.1311 -0.1103 -0.3922
  718MPD2     H10616   1.215   0.924  13.082  0.4915  0.8188  1.1477
  718MPD2    H110617   1.141   0.661  13.409  2.1033 -1.0789  0.6564
  718MPD2    H210618   1.537   0.767  13.326  0.0178  0.6735 -0.1240
  718MPD2    H310619   1.352   0.614  13.438  0.0952  1.4822  1.0711
  718MPD2     N10620   1.025   0.813  13.203 -0.1082  0.1602 -0.0253
  718MPD2    H510621   1.002   0.874  13.125 -2.4364  0.3154  0.7869
  718MPD2    N110622   1.491   0.943  13.151  0.3174  0.0396 -0.3140
  718MPD2    H710623   1.586   0.919  13.175 -0.4427 -1.5756  1.0199
  719TMC3    C110624   1.575   1.106  12.993 -0.0606  0.0946  0.1338
  719TMC3    C210625   1.534   1.216  12.932 -0.5296 -0.5917 -0.0818
  719TMC3    C310626   1.548   1.231  12.798  0.1966  0.5783 -0.3900
  719TMC3    C410627   1.632   1.006  12.917  0.1697  0.5109 -0.4314
  719TMC3    C510628   1.647   1.018  12.782  0.1047  0.9872  0.0018
  719TMC3    C610629   1.604   1.132  12.722  0.2371 -0.7411  0.3955
  719TMC3     C10630   1.467   1.054  13.075  0.8156  0.3877 -0.2694
  719TMC3     O10631   1.366   1.125  13.066 -0.2861  0.0291  0.1305
  719TMC3     H10632   1.486   1.297  12.987  0.6474  0.3306 -0.4092
  719TMC3    H110633   1.662   0.912  12.963 -0.7940  0.2406 -0.3611
  719TMC3    H210634   1.613   1.138  12.614 -2.1166 -0.1231  0.2263
  719TMC3    C710635   1.695   0.903  12.701  0.0984 -0.5872  0.7633
  719TMC3    C810636   1.429   1.283  12.731  0.2317  0.6757 -0.2050
  719TMC3    O110637   1.710   0.923  12.587 -0.1335 -0.0757 -0.0199
  719TMC3    O210638   1.437   1.330  12.624 -0.4289 -0.5884  0.0954
  720MPD2     C10639   4.694   1.818  13.770  1.0055 -0.1308 -0.0373
  720MPD2    C110640   0.047   1.841  13.656  0.3958 -0.3768 -0.3021
  720MPD2    C210641   0.180   1.793  13.652  0.2846 -0.8077  0.8784
  720MPD2    C310642   0.235   1.732  13.763  0.2612  0.0244  0.0409
  720MPD2    C410643   0.156   1.708  13.876 -0.2077  0.1396  0.3304
  720MPD2    C510644   0.025   1.747  13.877 -0.2969  0.9782 -0.0868
  720MPD2     H10645   0.248   1.807  13.569  1.0834 -1.6988  1.3712
  720MPD2    H110646   0.201   1.661  13.962  2.5108 -2.9735 -2.7946
  720MPD2    H210647   4.595   1.863  13.775  0.7770 -0.8217  1.6467
  720MPD2    H310648   4.685   1.742  13.964  1.5929 -1.0619  1.1957
  720MPD2     N10649   0.375   1.715  13.749 -0.1159 -0.1929  0.4528
  720MPD2    H510650   0.425   1.750  13.668 -1.6127 -0.1609 -0.4377
  720MPD2    N110651   0.003   1.906  13.542  0.1990 -0.0828  0.4850
  720MPD2    H710652   0.067   1.914  13.463  0.2943 -1.4872  0.4282
  721TMC3    C110653   0.590   1.709  13.854 -0.8284  0.6466 -0.4866
  721TMC3    C210654   0.636   1.723  13.988 -0.4585  0.2152 -0.0740
  721TMC3    C310655   0.746   1.804  14.009 -0.6064  0.5381 -0.2837
  721TMC3    C410656   0.652   1.766  13.746 -0.4769 -0.2867  0.7169
  721TMC3    C510657   0.775   1.822  13.770 -0.5421  0.1309  0.2918
  721TMC3    C610658   0.818   1.845  13.900  0.0236  0.2355  0.3275
  721TMC3     C10659   0.454   1.672  13.859  0.8199  0.1629 -0.5402
  721TMC3     O10660   0.413   1.628  13.964  0.1484  0.4368  0.4375
  721TMC3     H10661   0.600   1.663  14.071  2.1286  0.1854  1.0392
  721TMC3    H110662   0.615   1.737  13.648 -0.7027  2.7687 -0.0959
  721TMC3    H210663   0.910   1.901  13.914  0.7996 -0.5722 -1.5288
  721TMC3    C710664   0.827   1.909  13.664 -0.0322 -0.2334  0.1827
  721TMC3    C810665   0.821   1.788  14.127 -0.3378 -0.0140  0.3331
  721TMC3    O110666   0.950   1.926  13.649  0.2229  0.1196  0.5358
  721TMC3    O210667   0.941   1.819  14.129  0.2796  0.7612  0.3934
  722MPD2     C10668   3.204   0.475  13.206 -0.1444  0.1920  0.4354
  722MPD2    C110669   3.123   0.585  13.199 -0.0800 -1.0107 -0.1217
  722MPD2    C210670   2.996   0.575  13.151 -0.0134 -0.1012  0.1962
  722MPD2    C310671   2.939   0.458  13.109 -1.1416  0.0600  0.5473
  722MPD2    C410672   3.014   0.345  13.124 -0.8621  0.0667 -0.2389
  722MPD2    C510673   3.146   0.353  13.172  0.0395 -0.1063 -0.9517
  722MPD2     H10674   2.933   0.663  13.148  0.3697  0.1220 -1.4012
  722MPD2    H110675   2.966   0.248  13.114 -1.7075  0.4682 -0.0303
  722MPD2    H210676   3.305   0.481  13.245  0.4006  0.3075 -1.0067
  722MPD2    H310677   3.195   0.261  13.202 -0.1683  0.6143  1.5982
  722MPD2     N10678   2.806   0.469  13.071 -0.0269 -0.9154  0.3611
  722MPD2    H510679   2.769   0.563  13.078  1.1663 -0.4878  0.9407
  722MPD2    N110680   3.170   0.713  13.244 -0.0392  0.6024 -0.5412
  722MPD2    H710681   3.109   0.791  13.219 -0.9436 -0.0474 -0.3383
  723TMC3    C110682   2.580   0.390  13.036  0.6994 -0.1946 -0.1225
  723TMC3    C210683   2.510   0.294  12.966 -0.2269 -0.3817 -0.1607
  723TMC3    C310684   2.377   0.313  12.971  0.0632 -0.4190 -0.4377
  723TMC3    C410685   2.524   0.501  13.096  0.1308  0.0394  0.2926
  723TMC3    C510686   2.390   0.509  13.096  0.6664 -0.7022  0.1014
  723TMC3    C610687   2.316   0.409  13.042  0.6385  0.3251  0.0489
  723TMC3     C10688   2.725   0.365  13.029 -0.4399 -0.7585  0.0572
  723TMC3     O10689   2.770   0.259  12.985 -0.4441 -0.1365 -0.0801
  723TMC3     H10690   2.558   0.208  12.919  2.1613  0.7684  0.1763
  723TMC3    H110691   2.584   0.566  13.159 -1.7357  0.9953  1.0481
  723TMC3    H210692   2.208   0.418  13.048  0.6668  0.8036 -0.1337
  723TMC3    C710693   2.330   0.617  13.168 -0.2803  0.5781 -0.0839
  723TMC3    C810694   2.290   0.236  12.895 -0.2952 -0.1474  0.4533
  723TMC3    O110695   2.222   0.603  13.221  0.2439  0.2692 -0.3174
  723TMC3    O210696   2.182   0.214  12.944 -0.1183  0.0030  0.1234
  724TMC3    C110697   3.605   3.043  10.032 -0.5524  0.0206  0.2610
  724TMC3    C210698   3.611   3.113   9.913 -0.1383  0.2996 -0.3165
  724TMC3    C310699   3.723   3.192   9.897  0.0332 -0.1231 -0.2871
  724TMC3    C410700   3.710   3.033  10.117 -0.7071  0.7647 -0.7164
  724TMC3    C510701   3.828   3.095  10.084 -0.3721  0.4905 -0.0446
  724TMC3    C610702   3.840   3.156   9.961 -0.5843  0.4210 -0.1446
  724TMC3     C10703   3.476   2.985  10.076 -0.1446  0.2457 -0.0675
  724TMC3     O10704   3.384   3.015  10.003 -0.6527  0.0336  0.6229
  724TMC3     H10705   3.516   3.145   9.872 -1.2006 -0.4225  1.5736
  724TMC3    H110706   3.708   2.980  10.212 -1.2745  0.6287 -0.8032
  724TMC3    H210707   3.935   3.200   9.933 -0.0487 -1.4442 -1.2346
  724TMC3    C710708   3.946   3.093  10.167  0.1663 -0.0344 -0.2557
  724TMC3    C810709   3.702   3.316   9.824 -0.0186 -0.7953 -0.1892
  724TMC3    O110710   4.055   3.109  10.117 -0.3303 -0.2346  0.0567
  724TMC3    O210711   3.586   3.343   9.792 -0.4590  0.0319 -0.2082
  725TMC3    C110712   0.476   2.986  12.747 -0.3184 -0.8923 -0.0078
  725TMC3    C210713   0.448   2.938  12.624  0.7608 -0.1539  0.1843
  725TMC3    C310714   0.345   2.853  12.613  0.2677  0.1487  0.0455
  725TMC3    C410715   0.415   2.954  12.866  0.0286  0.1552  0.2574
  725TMC3    C510716   0.323   2.855  12.847  0.4736  0.6026 -0.1434
  725TMC3    C610717   0.276   2.822  12.725  0.3003  0.1402 -0.4976
  725TMC3     C10718   0.564   3.099  12.754 -0.9857  0.3615 -0.5330
  725TMC3     O10719   0.661   3.092  12.681  0.6452 -0.5261  0.1690
  725TMC3     H10720   0.519   2.960  12.545  0.0301  0.5962 -0.2704
  725TMC3    H110721   0.461   2.974  12.962  1.4679 -0.5623 -0.2805
  725TMC3    H210722   0.191   2.756  12.716 -1.0856  1.5526  1.9566
  725TMC3    C710723   0.315   2.752  12.953  0.1652  0.0026  0.4691
  725TMC3    C810724   0.343   2.754  12.516 -0.6432  0.4802  0.5824
  725TMC3    O110725   0.362   2.774  13.062  0.2330  0.6525  0.6180
  725TMC3    O210726   0.307   2.645  12.551 -0.1494  0.4397 -0.7004
  726MPD2     C10727   3.336   3.518  10.593  0.4784  0.8993  0.2531
  726MPD2    C110728   3.383   3.626  10.657  0.3284 -0.1424  1.3560
  726MPD2    C210729   3.343   3.654  10.784 -0.0602 -0.0675  0.8833
  726MPD2    C310730   3.253   3.574  10.846  0.0924  0.6320  0.5019
  726MPD2    C410731   3.205   3.466  10.781  0.4870 -0.1781  0.6448
  726MPD2    C510732   3.245   3.442  10.656  0.3840  0.5012 -0.4940
  726MPD2     H10733   3.376   3.742  10.837 -0.8381  1.4055 -1.1037
  726MPD2    H110734   3.135   3.397  10.826  0.8811 -1.0368 -0.0445
  726MPD2    H210735   3.368   3.491  10.493 -1.1396 -0.5420  0.1353
  726MPD2    H310736   3.203   3.362  10.596  0.0472  1.0387 -0.9797
  726MPD2     N10737   3.211   3.591  10.983 -0.0889 -0.3152 -0.6536
  726MPD2    H510738   3.158   3.516  11.026 -0.5209 -1.0150 -2.4140
  726MPD2    N110739   3.480   3.711  10.596  0.1954 -0.2462  0.5155
  726MPD2    H710740   3.517   3.781  10.660  1.1546  0.2444 -0.5728
  727TMC3    C110741   3.648   3.779  10.450  0.8689  0.0195 -0.3044
  727TMC3    C210742   3.733   3.798  10.551 -0.1450  0.3778  0.4825
  727TMC3    C310743   3.812   3.904  10.536  0.6154 -0.8989 -0.0089
  727TMC3    C410744   3.635   3.868  10.344  0.5411  0.6552 -0.3210
  727TMC3    C510745   3.723   3.964  10.330 -0.3692  0.0231 -0.3195
  727TMC3    C610746   3.812   3.990  10.430 -0.0484  0.2897 -0.2290
  727TMC3     C10747   3.531   3.699  10.469  0.0758  1.2291 -0.0538
  727TMC3     O10748   3.478   3.644  10.375 -0.2372  0.0365  0.2633
  727TMC3     H10749   3.748   3.731  10.635  3.2756  0.7335  0.1584
  727TMC3    H110750   3.546   3.862  10.281  0.8370  0.6325 -0.7387
  727TMC3    H210751   3.885   4.069  10.419  0.1089  0.2582  0.6306
  727TMC3    C710752   3.706   4.057  10.216 -0.1694 -0.0445 -0.1977
  727TMC3    C810753   3.893   3.953  10.643  1.0574 -0.2609 -0.1837
  727TMC3    O110754   3.627   4.024  10.124 -0.3217  0.0758 -0.1231
  727TMC3    O210755   3.948   4.062  10.625  0.1365 -0.4859  0.2238
  728TMC3    C110756   2.370   2.352  15.755  0.2779  0.2098 -0.2176
  728TMC3    C210757   2.490   2.284  15.772 -0.6113 -0.0908  0.5474
  728TMC3    C310758   2.590   2.335  15.696 -0.9129  0.0002 -0.1059
  728TMC3    C410759   2.346   2.441  15.650 -0.2326 -0.3638 -0.7308
  728TMC3    C510760   2.447   2.487  15.575  0.2648 -0.7818  0.2102
  728TMC3    C610761   2.578   2.430  15.598 -0.1955  0.0673  0.0512
  728TMC3     C10762   2.248   2.286  15.808  0.0106  0.5390 -0.5623
  728TMC3     O10763   2.271   2.172  15.848 -0.5990  0.2433 -0.4706
  728TMC3     H10764   2.505   2.193  15.829  1.5060 -0.3870 -0.5030
  728TMC3    H110765   2.249   2.487  15.631  0.4547 -0.4908 -4.5220
  728TMC3    H210766   2.657   2.455  15.528  0.2526 -1.3643  0.0587
  728TMC3    C710767   2.433   2.558  15.452 -0.0699 -0.4520  0.2002
  728TMC3    C810768   2.713   2.260  15.718  0.4674  0.7768  0.1679
  728TMC3    O110769   2.531   2.607  15.395  0.5306 -0.5352  0.3089
  728TMC3    O210770   2.736   2.199  15.823  0.6036 -0.6434  0.3795
  729MPD2     C10771   0.221   3.075  16.506  0.7952 -0.4198 -0.1123
  729MPD2    C110772   0.225   3.214  16.532 -0.1277 -0.1265 -0.2337
  729MPD2    C210773   0.188   3.250  16.667  0.3401 -0.4769  0.5711
  729MPD2    C310774   0.131   3.162  16.760  0.2606 -0.0342 -0.3596
  729MPD2    C410775   0.116   3.028  16.727  0.2744 -0.9927 -0.0793
  729MPD2    C510776   0.161   2.992  16.601 -0.7632  0.4407  0.4695
  729MPD2     H10777   0.206   3.354  16.693 -0.2496 -0.2547  0.0991
  729MPD2    H110778   0.069   2.961  16.798 -0.2531 -2.4838 -1.8267
  729MPD2    H210779   0.257   3.037  16.412 -1.0566 -0.5497 -0.7667
  729MPD2    H310780   0.159   2.889  16.566  0.6524  0.8767 -0.8536
  729MPD2     N10781   0.095   3.204  16.893  0.4302  0.5019  0.1629
  729MPD2    H510782   0.044   3.134  16.946 -0.7132  1.3592  0.1885
  729MPD2    N110783   0.285   3.302  16.441  0.3391 -0.4328  0.1293
  729MPD2    H710784   0.335   3.267  16.359  0.5838  2.0878 -0.7871
  730TMC3    C110785   0.099   3.354  17.068 -0.1679  0.5583  0.5516
  730TMC3    C210786   0.191   3.404  17.158 -0.0670  0.1885 -0.5925
  730TMC3    C310787   0.157   3.480  17.266  0.0042 -0.2569  0.1145
  730TMC3    C410788   4.694   3.386  17.077 -0.1222  0.2987 -0.2054
  730TMC3    C510789   4.651   3.450  17.192  0.4736 -0.0315  0.9214
  730TMC3    C610790   0.020   3.493  17.291 -0.2079  0.3444  0.4435
  730TMC3     C10791   0.155   3.314  16.947 -0.3678  0.1391 -0.3154
  730TMC3     O10792   0.270   3.355  16.919  0.0834  0.3688  0.1430
  730TMC3     H10793   0.298   3.404  17.138  0.5018 -0.1500  2.5231
  730TMC3    H110794   4.628   3.358  16.996 -1.6000  0.4121  0.9752
  730TMC3    H210795   4.715   3.544  17.382  1.7297  0.9153  0.7383
  730TMC3    C710796   4.565   3.556  17.158  0.1781 -0.2689 -0.0815
  730TMC3    C810797   0.223   3.612  17.257  0.2652 -0.8214  0.5107
  730TMC3    O110798   4.574   3.597  17.042 -0.1222  0.4053  0.3311
  730TMC3    O210799   0.285   3.624  17.152  0.1051  0.1570  0.1764
  731MPD2     C10800   4.494   1.865  12.342  0.1259  1.1898  0.7256
  731MPD2    C110801   4.415   1.790  12.254 -0.2580  0.8165  0.1391
  731MPD2    C210802   4.287   1.757  12.296 -0.1257  0.1204  0.4534
  731MPD2    C310803   4.241   1.797  12.424 -0.6906  0.4608  0.2601
  731MPD2    C410804   4.318   1.859  12.511 -0.0222 -0.4162  0.0406
  731MPD2    C510805   4.445   1.901  12.465  0.6767 -0.4140  0.1818
  731MPD2     H10806   4.219   1.714  12.224 -0.3803 -0.0801  0.8108
  731MPD2    H110807   4.292   1.888  12.612  1.2361 -1.4005  0.6416
  731MPD2    H210808   4.594   1.891  12.311  0.6596 -3.1842 -1.2056
  731MPD2    H310809   4.508   1.953  12.536  1.2673 -2.1524  0.9400
  731MPD2     N10810   4.104   1.775  12.449 -0.4362 -0.0069 -0.7335
  731MPD2    H510811   4.064   1.705  12.387  0.3147 -0.8284 -0.2805
  731MPD2    N110812   4.476   1.751  12.133 -0.2159  0.8200  0.3220
  731MPD2    H710813   4.578   1.745  12.136 -0.1315  0.9096 -2.8742
  732TMC3    C110814   4.493   1.649  11.936 -0.2032  0.6549  0.8791
  732TMC3    C210815   4.457   1.535  11.879  0.6759 -0.2072 -1.1216
  732TMC3    C310816   4.550   1.472  11.798  0.5556 -0.1345  0.3726
  732TMC3    C410817   4.611   1.707  11.913 -0.3041 -0.0316  0.1947
  732TMC3    C510818   4.699   1.649  11.823 -0.5191  0.0316 -0.1831
  732TMC3    C610819   4.666   1.528  11.767 -0.4970  0.1705 -0.0833
  732TMC3     C10820   4.407   1.702  12.030  0.8784 -0.3432  0.0056
  732TMC3     O10821   4.283   1.684  12.013  0.2806  0.0194  0.0859
  732TMC3     H10822   4.369   1.485  11.917  0.7574 -0.0794 -0.7666
  732TMC3    H110823   4.615   1.811  11.944 -3.3558  0.1455 -0.0220
  732TMC3    H210824   0.000   1.479  11.690 -0.2735 -0.9448  0.8001
  732TMC3    C710825   0.110   1.710  11.813  0.5050  0.6122 -0.5334
  732TMC3    C810826   4.513   1.334  11.743 -0.0682 -0.1052 -0.3917
  732TMC3    O110827   0.168   1.712  11.704  0.3671 -0.2684 -0.6537
  732TMC3    O210828   4.601   1.269  11.688  0.2135  0.6261  0.6692
  733TMC3    C110829   0.600   0.815  13.115 -0.5961 -1.0718 -0.2451
  733TMC3    C210830   0.692   0.760  13.192 -0.1969 -0.1119  0.6529
  733TMC3    C310831   0.805   0.836  13.217  0.6973 -0.4954 -0.3693
  733TMC3    C410832   0.617   0.929  13.044 -0.1017  0.4303 -0.4611
  733TMC3    C510833   0.731   1.002  13.068  0.2607 -0.1262  0.0784
  733TMC3    C610834   0.829   0.955  13.145 -0.4586 -0.4670  0.2369
  733TMC3     C10835   0.475   0.744  13.087 -0.2148 -0.4516 -0.0541
  733TMC3     O10836   0.409   0.783  12.990  0.2598  0.4720 -0.3727
  733TMC3     H10837   0.673   0.674  13.256 -0.4963 -0.4088  0.1627
  733TMC3    H110838   0.538   0.961  12.978 -0.8464 -0.3456  0.0650
  733TMC3    H210839   0.921   1.012  13.157  0.0127 -0.8104 -1.6977
  733TMC3    C710840   0.751   1.097  12.962 -0.0017 -0.1140 -0.2408
  733TMC3    C810841   0.920   0.779  13.282 -0.4047 -0.1571 -0.0680
  733TMC3    O110842   0.680   1.107  12.862  0.1604  0.4594 -0.2112
  733TMC3    O210843   0.921   0.700  13.375  0.2682  0.2057  0.1535
  734MPD2     C10844   3.644   2.865  11.443 -0.3945 -0.4129 -0.8044
  734MPD2    C110845   3.525   2.806  11.460  0.7647  0.0614 -0.1348
  734MPD2    C210846   3.450   2.784  11.348  0.1059  1.1906 -0.6134
  734MPD2    C310847   3.478   2.830  11.221 -0.6808  0.6673  0.6712
  734MPD2    C410848   3.603   2.902  11.208  0.3129  0.3038  0.2597
  734MPD2    C510849   3.682   2.911  11.320 -0.1847 -0.0434 -0.0739
  734MPD2     H10850   3.350   2.745  11.358  0.5567  0.3849  0.7021
  734MPD2    H110851   3.634   2.956  11.120  2.4962 -2.4167 -0.6200
  734MPD2    H210852   3.708   2.886  11.529 -0.3015 -1.2861 -0.6681
  734MPD2    H310853   3.776   2.960  11.298 -0.0898 -0.4563 -0.6104
  734MPD2     N10854   3.376   2.811  11.128 -0.8456  0.4008 -0.0797
  734MPD2    H510855   3.283   2.779  11.156 -0.6865 -0.2744 -0.3024
  734MPD2    N110856   3.486   2.767  11.595 -0.1447 -1.7336  0.0666
  734MPD2    H710857   3.565   2.744  11.654  0.4263 -0.7853 -0.3197
  735TMC3    C110858   3.352   2.652  11.746 -0.3469 -0.1500 -0.5481
  735TMC3    C210859   3.229   2.629  11.790 -0.2912  0.1437 -0.1219
  735TMC3    C310860   3.195   2.498  11.796  0.3810 -1.1548  0.5630
  735TMC3    C410861   3.451   2.555  11.758 -0.0587  0.2067 -0.0776
  735TMC3    C510862   3.413   2.423  11.794 -0.5668  0.5899 -0.4012
  735TMC3    C610863   3.278   2.397  11.811 -0.9348  0.9030 -0.0356
  735TMC3     C10864   3.357   2.736  11.627  0.5204  0.5966 -0.5151
  735TMC3     O10865   3.251   2.761  11.573  0.0558  0.1640 -0.3468
  735TMC3     H10866   3.158   2.707  11.768  0.1857  0.9667  1.2533
  735TMC3    H110867   3.552   2.576  11.725 -0.0183 -0.0088 -0.0891
  735TMC3    H210868   3.231   2.301  11.830 -0.4509  0.8822  1.0944
  735TMC3    C710869   3.517   2.319  11.796 -0.8076  0.5527  0.1020
  735TMC3    C810870   3.076   2.466  11.718  0.7489 -0.7268  0.3893
  735TMC3    O110871   3.615   2.342  11.731 -0.6118 -0.2984 -0.2478
  735TMC3    O210872   3.022   2.360  11.735 -0.2932 -0.7473 -0.0971
  736MPD2     C10873   3.492   1.968  11.894  0.5947 -0.8353 -0.1838
  736MPD2    C110874   3.545   2.080  11.840  0.2250  0.0440 -0.0796
  736MPD2    C210875   3.663   2.064  11.774 -0.5873 -0.1077 -0.1054
  736MPD2    C310876   3.731   1.940  11.770 -0.3360  0.1583  0.0180
  736MPD2    C410877   3.674   1.829  11.831  0.0536  0.0767  0.5644
  736MPD2    C510878   3.558   1.845  11.894  0.3151  0.1127 -0.0997
  736MPD2     H10879   3.711   2.146  11.721 -1.5658  1.8689  2.0377
  736MPD2    H110880   3.725   1.733  11.831 -0.2330 -0.0782  0.3523
  736MPD2    H210881   3.398   1.971  11.948  1.0966  1.9978  0.5193
  736MPD2    H310882   3.522   1.771  11.964  1.4997 -0.6627 -0.3051
  736MPD2     N10883   3.846   1.906  11.696  0.2641 -0.0678  0.2236
  736MPD2    H510884   3.873   1.811  11.719 -0.9075 -0.4498  0.0207
  736MPD2    N110885   3.473   2.203  11.849 -0.3987 -0.6681 -0.3740
  736MPD2    H710886   3.382   2.198  11.894 -1.0106  0.7064 -1.4328
  737TMC3    C110887   4.027   1.938  11.546 -0.4560 -0.4123 -0.0536
  737TMC3    C210888   4.073   2.031  11.450  0.4123  0.5594 -0.0834
  737TMC3    C310889   4.113   1.977  11.328 -0.0627 -0.4831  0.1770
  737TMC3    C410890   4.019   1.808  11.514  0.2352  0.3519  0.0807
  737TMC3    C510891   4.067   1.763  11.400 -0.1711 -0.0101 -0.0058
  737TMC3    C610892   4.120   1.842  11.312 -0.2312  0.2220  0.4327
  737TMC3     C10893   3.930   1.997  11.638 -0.5864  0.1930  0.4758
  737TMC3     O10894   3.939   2.122  11.665  0.3837 -0.2959  0.2064
  737TMC3     H10895   4.072   2.137  11.474 -0.1014  0.5122  0.0930
  737TMC3    H110896   3.988   1.729  11.581  0.6778 -1.2757 -1.6420
  737TMC3    H210897   4.165   1.807  11.220  2.5665  1.9740  1.1362
  737TMC3    C710898   4.122   1.630  11.409 -0.2215 -0.3717  0.4169
  737TMC3    C810899   4.159   2.071  11.231 -0.2636 -0.5088 -0.0221
  737TMC3    O110900   4.137   1.588  11.522  0.3732  0.2600 -0.0829
  737TMC3    O210901   4.185   2.184  11.265  0.1025 -0.6623  0.2359
  738MPD2     C10902   3.306   0.941  14.969  0.2455  0.6383  0.8191
  738MPD2    C110903   3.399   0.923  15.070 -0.0887  0.4112  0.4872
  738MPD2    C210904   3.501   1.008  15.071 -0.0415 -0.0411  0.2446
  738MPD2    C310905   3.505   1.121  14.993 -0.1659  0.5107 -0.3965
  738MPD2    C410906   3.409   1.143  14.898 -0.0866  0.5829 -0.4538
  738MPD2    C510907   3.315   1.049  14.884 -0.7729  0.1831 -0.1791
  738MPD2     H10908   3.571   0.998  15.153 -0.1210 -2.8029 -0.0373
  738MPD2    H110909   3.397   1.238  14.849  0.4129 -0.5046 -2.6712
  738MPD2    H210910   3.236   0.860  14.949 -0.1232  1.0407  0.4750
  738MPD2    H310911   3.226   1.067  14.824  0.3876 -0.0657 -1.9660
  738MPD2     N10912   3.620   1.199  14.981 -0.2175  0.3353 -0.9172
  738MPD2    H510913   3.622   1.265  14.904  1.2280  0.3141 -0.8998
  738MPD2    N110914   3.406   0.811  15.155  0.7162 -0.2803 -0.0342
  738MPD2    H710915   3.494   0.795  15.205  0.8062 -0.3762 -0.2244
  739TMC3    C110916   3.852   1.233  14.984  0.5481  0.1928 -0.8188
  739TMC3    C210917   3.850   1.251  14.847  0.3168 -0.3961 -0.8690
  739TMC3    C310918   3.971   1.280  14.786 -0.1418 -0.2641  0.2278
  739TMC3    C410919   3.957   1.270  15.060  0.1445  0.7904  0.5198
  739TMC3    C510920   4.069   1.311  14.994 -0.9611  0.2993 -0.2582
  739TMC3    C610921   4.085   1.313  14.857 -0.6283 -0.6944 -0.5928
  739TMC3     C10922   3.734   1.185  15.060 -0.5243  0.3085 -0.7102
  739TMC3     O10923   3.750   1.149  15.175 -0.1542 -0.4774 -0.1053
  739TMC3     H10924   3.771   1.212  14.784  0.2866 -2.7658  0.6375
  739TMC3    H110925   3.940   1.283  15.166 -2.1755  2.0082 -0.0087
  739TMC3    H210926   4.184   1.324  14.816 -1.1701  0.9858 -1.4448
  739TMC3    C710927   4.163   1.388  15.077  0.1462 -0.2714  0.0389
  739TMC3    C810928   3.968   1.295  14.637  0.4098  0.6532  0.4249
  739TMC3    O110929   4.130   1.395  15.193  0.3827 -0.0540  0.1323
  739TMC3    O210930   3.857   1.305  14.590  0.4519  0.0988  0.0920
  740TMC3    C110931   4.558   2.306  14.168 -0.4191  0.5429 -0.4894
  740TMC3    C210932   4.604   2.251  14.284  0.6965  0.1814 -0.3248
  740TMC3    C310933   0.011   2.233  14.292 -0.2544 -0.0218 -0.3703
  740TMC3    C410934   4.640   2.334  14.063  0.0992 -0.2392 -0.4488
  740TMC3    C510935   0.046   2.300  14.065 -0.4387 -0.5675  0.0935
  740TMC3    C610936   0.100   2.251  14.183 -0.2637  0.1531  0.0278
  740TMC3     C10937   4.426   2.364  14.161  1.0158  0.7815  0.3259
  740TMC3     O10938   4.380   2.388  14.052 -0.1745 -0.0811 -0.1447
  740TMC3     H10939   4.532   2.221  14.360 -0.8490 -0.5468 -2.0759
  740TMC3    H110940   4.591   2.360  13.969  0.8598  2.0950 -0.1985
  740TMC3    H210941   0.203   2.221  14.194 -1.0226 -2.3128  0.3910
  740TMC3    C710942   0.114   2.279  13.944  0.2437 -0.4173  0.3052
  740TMC3    C810943   0.067   2.166  14.406  0.3947  0.2772 -0.2768
  740TMC3    O110944   0.198   2.189  13.950  0.0368  0.4478  0.2274
  740TMC3    O210945   0.173   2.110  14.393 -0.1174  0.1482 -0.2381
  741TMC3    C110946   3.975   1.680  14.238  0.0315  0.6265  0.5748
  741TMC3    C210947   3.853   1.619  14.220  0.4005 -0.3933  0.3526
  741TMC3    C310948   3.791   1.577  14.337  0.5766  0.2539  0.1495
  741TMC3    C410949   4.029   1.698  14.368  0.6298 -0.0424 -0.9369
  741TMC3    C510950   3.954   1.668  14.474  0.1064  0.1203  0.5529
  741TMC3    C610951   3.840   1.595  14.467  0.0823 -0.8700  0.6071
  741TMC3     C10952   4.071   1.696  14.129 -0.3664  0.2047 -0.1448
  741TMC3     O10953   4.186   1.682  14.157 -0.6113 -0.7530 -0.8546
  741TMC3     H10954   3.806   1.599  14.125 -2.6790  1.5906  1.4564
  741TMC3    H110955   4.130   1.733  14.389  0.6348 -1.0102  0.6851
  741TMC3    H210956   3.781   1.586  14.557 -1.9146  1.5965 -0.4311
  741TMC3    C710957   3.995   1.713  14.605  0.0011  0.6482 -0.3386
  741TMC3    C810958   3.671   1.495  14.314  0.8085  0.6155  0.1057
  741TMC3    O110959   3.990   1.639  14.702 -0.0709 -0.4417  0.2088
  741TMC3    O210960   3.605   1.521  14.216 -0.2991  0.4233  0.1009
  742TMC3    C110961   3.980   0.352  15.115 -0.1344 -0.7603 -0.3120
  742TMC3    C210962   3.944   0.303  14.996 -0.2604 -0.5833  1.2283
  742TMC3    C310963   3.980   0.173  14.984 -0.1109  0.2083 -0.1627
  742TMC3    C410964   4.050   0.288  15.211 -0.7267  0.2777  0.1441
  742TMC3    C510965   4.090   0.163  15.179 -0.2079  0.1444  0.5317
  742TMC3    C610966   4.050   0.096  15.068 -0.8432  0.3727  0.1958
  742TMC3     C10967   3.913   0.465  15.164  0.1569  0.0102  0.2273
  742TMC3     O10968   3.885   0.543  15.076 -0.4347  0.1330 -0.3333
  742TMC3     H10969   3.861   0.349  14.943  0.6848 -0.1621  0.1337
  742TMC3    H110970   4.078   0.342  15.301 -0.1684 -0.0342  0.1622
  742TMC3    H210971   4.075   4.717  15.049 -0.9741 -0.2096  3.0832
  742TMC3    C710972   4.185   0.092  15.266 -0.1770 -0.5475  0.5724
  742TMC3    C810973   3.925   0.102  14.869 -0.0262 -0.2148 -0.1258
  742TMC3    O110974   4.240   4.718  15.218 -0.2864  0.3183 -0.5012
  742TMC3    O210975   3.901   4.710  14.878  0.3042  0.3898 -0.1949
  743MPD2     C10976   1.768   0.920   2.063 -0.1387  0.0614 -0.2189
  743MPD2    C110977   1.839   0.977   1.960  0.3075 -0.3342  0.4157
  743MPD2    C210978   1.973   1.003   1.982 -0.3613 -0.3101  0.1355
  743MPD2    C310979   2.040   0.983   2.107  0.3782  0.2359  0.6500
  743MPD2    C410980   1.967   0.929   2.208 -0.5783 -0.4406 -0.6375
  743MPD2    C510981   1.837   0.893   2.182  0.5451 -0.1636  0.1796
  743MPD2     H10982   2.038   1.040   1.904  0.4125  1.5920  1.6835
  743MPD2    H110983   2.002   0.923   2.311 -2.1589 -3.2599 -0.2756
  743MPD2    H210984   1.661   0.900   2.058 -0.5743  1.6525  2.7034
  743MPD2    H310985   1.777   0.859   2.266  1.7128  0.9994  1.4795
  743MPD2     N10986   2.175   1.028   2.128 -0.2439 -0.1058  0.0165
  743MPD2    H510987   2.230   1.052   2.047 -0.9646  2.4538  0.2748
  743MPD2    N110988   1.771   1.011   1.836 -0.1774 -0.2586 -0.4392
  743MPD2    H710989   1.671   0.996   1.826  0.0568 -0.4178 -2.5514
  744TMC3    C110990   1.747   1.063   1.600 -0.0232  0.3876  0.2966
  744TMC3    C210991   1.616   1.109   1.624 -0.6288 -0.5151  0.9345
  744TMC3    C310992   1.549   1.145   1.509 -0.1745 -0.9149 -0.3372
  744TMC3    C410993   1.807   1.053   1.478 -0.3001 -0.1382  0.6662
  744TMC3    C510994   1.727   1.079   1.373 -0.6462 -0.5676  0.0871
  744TMC3    C610995   1.600   1.140   1.388  0.1071 -0.2307 -0.7869
  744TMC3     C10996   1.837   1.052   1.714  0.8633 -0.2127  0.2723
  744TMC3     O10997   1.954   1.060   1.682  0.1567 -0.9131  0.4604
  744TMC3     H10998   1.575   1.139   1.720 -1.3694  0.3469  0.3495
  744TMC3    H110999   1.909   1.020   1.462 -0.2249  0.2698  0.2865
  744TMC3    H211000   1.539   1.176   1.306 -0.2686  1.6576  0.3462
  744TMC3    C711001   1.778   1.051   1.239 -0.7248  0.6130 -0.1708
  744TMC3    C811002   1.434   1.233   1.527  0.5285 -0.0603 -0.2932
  744TMC3    O111003   1.896   1.064   1.226  0.2276 -0.0931  0.5039
  744TMC3    O211004   1.416   1.319   1.440 -0.3518  0.0936 -0.0844
  745TMC3    C111005   3.969   4.561  13.319  0.1386  0.3611  0.5097
  745TMC3    C211006   3.858   4.490  13.364  0.5382  0.0920 -0.1681
  745TMC3    C311007   3.739   4.525  13.329 -0.6501 -0.7832 -0.2708
  745TMC3    C411008   3.962   4.656  13.224  0.0391  0.6850  0.1268
  745TMC3    C511009   3.836   4.697  13.195  0.0562  0.2836  0.2542
  745TMC3    C611010   3.720   4.635  13.243  0.1124  0.1036 -0.7095
  745TMC3     C11011   4.083   4.574  13.406 -0.8690 -0.1368  0.2289
  745TMC3     O11012   4.117   4.479  13.473 -0.4689  0.7754  0.1438
  745TMC3     H11013   3.867   4.407  13.434  2.9117  2.0313  1.8005
  745TMC3    H111014   4.044   4.711  13.179  0.3348 -1.2094 -1.6197
  745TMC3    H211015   3.620   4.675  13.227 -0.8590 -2.0061  0.1965
  745TMC3    C711016   3.820   0.069  13.080  0.4102  0.8982 -0.0446
  745TMC3    C811017   3.667   4.559  13.456  1.2457 -0.1211 -0.0584
  745TMC3    O111018   3.711   0.070  13.029  0.0206  0.2703 -0.3665
  745TMC3    O211019   3.546   4.587  13.449  0.2308 -0.0118 -0.2081
  746TMC3    C111020   1.770   1.757  11.162  0.3350 -0.2087 -0.5853
  746TMC3    C211021   1.876   1.775  11.084 -0.0437 -0.0306 -0.4239
  746TMC3    C311022   1.859   1.752  10.947 -0.3577  0.2997 -0.1233
  746TMC3    C411023   1.643   1.738  11.112 -0.4916 -0.4114  0.4486
  746TMC3    C511024   1.630   1.711  10.978 -0.1944 -0.0652 -0.0158
  746TMC3    C611025   1.734   1.724  10.894  0.1788 -0.5937 -0.1679
  746TMC3     C11026   1.776   1.804  11.300 -0.0089 -0.1977  0.0707
  746TMC3     O11027   1.879   1.792  11.364  0.1339  0.4421  0.0979
  746TMC3     H11028   1.971   1.802  11.130  0.1710  1.1664 -1.5615
  746TMC3    H111029   1.548   1.755  11.163 -2.4782 -1.5740 -2.9216
  746TMC3    H211030   1.720   1.733  10.787 -1.7692 -1.9842 -0.0277
  746TMC3    C711031   1.521   1.630  10.928  0.5007 -0.6653 -0.4155
  746TMC3    C811032   1.966   1.769  10.857 -0.1628  0.5373  0.2139
  746TMC3    O111033   1.522   1.620  10.805  0.1865  0.4952 -0.3297
  746TMC3    O211034   1.934   1.779  10.741  0.2624 -0.0548 -0.3003
  747TMC3    C111035   4.707   1.213  10.659 -0.7891 -0.4397 -0.0733
  747TMC3    C211036   4.613   1.169  10.749  1.0223  0.7170 -0.3069
  747TMC3    C311037   4.537   1.259  10.817 -0.5271  0.3659 -0.3684
  747TMC3    C411038   0.004   1.343  10.632 -0.3537  0.4978 -0.2110
  747TMC3    C511039   4.656   1.433  10.705  0.3995 -0.5820 -0.5485
  747TMC3    C611040   4.560   1.387  10.793 -0.5073 -0.2463  0.4651
  747TMC3     C11041   0.061   1.116  10.586  0.2113 -0.2941 -0.4851
  747TMC3     O11042   0.165   1.153  10.543  0.3783  0.4540  0.3698
  747TMC3     H11043   4.601   1.068  10.787 -2.7164  2.0280  1.9536
  747TMC3    H111044   0.088   1.379  10.573 -0.2863 -0.5923 -0.7777
  747TMC3    H211045   4.521   1.461  10.863 -0.8410  1.1924 -1.2515
  747TMC3    C711046   0.004   1.533  10.774  0.9452 -0.0797  0.0254
  747TMC3    C811047   4.475   1.217  10.946  0.2626 -0.2035  0.6682
  747TMC3    O111048   0.021   1.515  10.895 -0.5046  0.7113 -0.0702
  747TMC3    O211049   4.472   1.098  10.969  0.0247  0.4247 -0.3949
  748MPD2     C11050   0.895   2.530   1.901  0.4124 -0.0066 -0.4745
  748MPD2    C111051   0.926   2.400   1.900 -0.6387 -0.9931  0.5281
  748MPD2    C211052   1.022   2.359   1.806 -0.2721 -0.9105 -0.7004
  748MPD2    C311053   1.077   2.447   1.715  0.2559 -0.1842 -0.3959
  748MPD2    C411054   1.029   2.581   1.707 -0.7094 -0.6419  0.0355
  748MPD2    C511055   0.941   2.616   1.805 -0.0020  0.4783  1.0511
  748MPD2     H11056   1.057   2.257   1.802  1.8301 -0.1781 -0.9833
  748MPD2    H111057   1.055   2.655   1.631 -1.4515 -0.0716  0.3374
  748MPD2    H211058   0.825   2.566   1.975  0.9017  1.5544 -0.7565
  748MPD2    H311059   0.914   2.721   1.805  1.2891  0.8224  4.9398
  748MPD2     N11060   1.170   2.396   1.615  0.8800  0.0127  0.4495
  748MPD2    H511061   1.196   2.298   1.617  1.2231  0.1184  1.1265
  748MPD2    N111062   0.886   2.322   2.012 -0.1350  0.4250 -0.3349
  748MPD2    H711063   0.844   2.376   2.087  1.0907  2.0541 -0.8242
  749TMC3    C111064   1.360   2.414   1.470 -0.0091  0.4786  0.6016
  749TMC3    C211065   1.431   2.308   1.530  0.0218  0.1233 -0.2837
  749TMC3    C311066   1.546   2.256   1.478  0.6056  0.3265 -0.1290
  749TMC3    C411067   1.413   2.467   1.355  0.2082 -0.6635  0.1184
  749TMC3    C511068   1.530   2.413   1.305 -0.4144 -0.2713  0.0327
  749TMC3    C611069   1.601   2.310   1.365 -0.3373 -0.3256 -0.1249
  749TMC3     C11070   1.248   2.479   1.532  0.2788  1.1653 -0.2190
  749TMC3     O11071   1.259   2.600   1.537 -0.4446 -0.0532 -0.2459
  749TMC3     H11072   1.399   2.287   1.631 -0.1129  1.3144 -0.0868
  749TMC3    H111073   1.363   2.547   1.301  4.1695  0.6531 -1.6222
  749TMC3    H211074   1.687   2.262   1.320 -1.1546 -2.9099  1.1046
  749TMC3    C711075   1.590   2.481   1.194  0.3681 -0.0622  0.4547
  749TMC3    C811076   1.612   2.157   1.569  0.2938 -0.2221  0.6496
  749TMC3    O111077   1.531   2.574   1.147 -0.1329 -0.3265  0.4026
  749TMC3    O211078   1.538   2.094   1.645 -0.0316  0.4089  0.5362
  750MPD2     C11079   2.475   3.589  11.509 -0.0014  0.1261  0.1443
  750MPD2    C111080   2.349   3.568  11.542  0.0871  0.2507 -0.0838
  750MPD2    C211081   2.261   3.499  11.458  0.1997 -0.0435 -0.6041
  750MPD2    C311082   2.305   3.440  11.355 -0.2701 -0.3520  0.4766
  750MPD2    C411083   2.437   3.454  11.318 -0.7669 -0.7315 -0.3962
  750MPD2    C511084   2.516   3.528  11.399 -0.1763 -0.9128 -0.3798
  750MPD2     H11085   2.154   3.511  11.472  0.4637  1.3360  0.1755
  750MPD2    H111086   2.477   3.403  11.231 -0.7503  0.5833 -1.1622
  750MPD2    H211087   2.539   3.640  11.580  0.5778 -0.1598 -0.1687
  750MPD2    H311088   2.622   3.534  11.379  0.1943  1.0619  2.2346
  750MPD2     N11089   2.214   3.372  11.267 -0.0361 -0.3288 -0.6225
  750MPD2    H511090   2.248   3.329  11.182 -0.8216  0.4125 -1.3044
  750MPD2    N111091   2.314   3.630  11.664 -0.2169 -0.1683 -0.8733
  750MPD2    H711092   2.382   3.697  11.699  0.8517 -1.9892  0.5453
  751TMC3    C111093   2.005   3.347  11.166  0.0173 -0.3041  0.2716
  751TMC3    C211094   1.886   3.278  11.172 -0.1156  0.2719 -0.1392
  751TMC3    C311095   1.822   3.253  11.052  0.1828  0.2727 -0.3943
  751TMC3    C411096   2.060   3.384  11.044 -0.3834 -0.5304  0.2261
  751TMC3    C511097   1.988   3.356  10.929  0.2563 -0.3247 -0.2437
  751TMC3    C611098   1.862   3.299  10.929  0.1076  0.1895 -0.4971
  751TMC3     C11099   2.077   3.357  11.292  0.3812  0.0331 -0.2417
  751TMC3     O11100   2.011   3.358  11.396  0.0645  0.3553  0.5919
  751TMC3     H11101   1.857   3.245  11.271 -1.1618  1.4819 -0.0339
  751TMC3    H111102   2.157   3.431  11.033  0.7371 -2.0174  3.8815
  751TMC3    H211103   1.800   3.280  10.842  0.6380 -0.2012 -0.7939
  751TMC3    C711104   2.056   3.395  10.808 -0.4139 -0.4524  0.2827
  751TMC3    C811105   1.710   3.158  11.044  0.5166 -0.0057  0.0823
  751TMC3    O111106   2.169   3.442  10.813  0.3365  0.6596  0.7690
  751TMC3    O211107   1.688   3.102  10.937 -0.0617 -0.7600  0.2576
  752TMC3    C111108   0.801   3.096  17.182 -0.1091 -0.2301  0.1547
  752TMC3    C211109   0.869   3.021  17.274  0.6120 -0.1781  0.2361
  752TMC3    C311110   0.799   2.975  17.383 -0.7196  0.0979 -0.4235
  752TMC3    C411111   0.666   3.118  17.190 -0.1611 -0.7544 -0.1716
  752TMC3    C511112   0.598   3.057  17.298  0.1984 -0.2378 -0.3254
  752TMC3    C611113   0.660   2.984  17.393 -0.0814  0.0491 -0.4355
  752TMC3     C11114   0.883   3.162  17.082 -0.3649  0.4163 -1.0973
  752TMC3     O11115   1.003   3.159  17.100 -0.6080  0.3890  0.1313
  752TMC3     H11116   0.977   3.024  17.267  0.6842 -2.1242  0.4710
  752TMC3    H111117   0.610   3.192  17.134 -0.3950 -0.0066  1.0497
  752TMC3    H211118   0.613   2.933  17.476 -0.4042 -0.7720 -1.1293
  752TMC3    C711119   0.466   3.106  17.320  0.1043  0.7023 -1.3403
  752TMC3    C811120   0.850   2.877  17.480  0.5920  0.1666  0.6194
  752TMC3    O111121   0.392   3.114  17.223 -0.3073 -0.3111 -0.5625
  752TMC3    O211122   0.795   2.875  17.589 -0.2375 -0.1759  0.2146
  753TMC3    C111123   2.586   0.243  13.456 -0.1294 -0.0312 -0.2415
  753TMC3    C211124   2.670   0.173  13.536 -0.5794 -0.0044  0.4300
  753TMC3    C311125   2.711   0.042  13.496  0.4765  0.0835  0.0422
  753TMC3    C411126   2.538   0.184  13.339 -0.4151 -1.2094  0.4323
  753TMC3    C511127   2.580   0.065  13.300 -0.2195  0.4568  0.3923
  753TMC3    C611128   2.663   4.715  13.375 -0.7565  0.3299 -0.6276
  753TMC3     C11129   2.523   0.372  13.495  0.8125 -0.1610  0.5438
  753TMC3     O11130   2.445   0.428  13.418 -0.0225  0.4039 -0.1664
  753TMC3     H11131   2.718   0.220  13.621 -0.1711  1.7921 -0.8040
  753TMC3    H111132   2.484   0.242  13.266 -0.2432  0.7384  1.8443
  753TMC3    H211133   2.705   4.622  13.336  0.7161  0.2484  1.1468
  753TMC3    C711134   2.506   0.010  13.184  0.2625  0.4934 -0.2559
  753TMC3    C811135   2.834   4.720  13.552  0.1237  0.2182 -0.4016
  753TMC3    O111136   2.400   0.062  13.156  0.4557  0.5589  0.5783
  753TMC3    O211137   2.913   4.654  13.487  0.5421  0.4896 -0.4340
  754MPD2     C11138   1.579   3.578  13.502  0.3483  0.2494  0.6265
  754MPD2    C111139   1.614   3.473  13.415  0.4775 -0.0013 -0.4360
  754MPD2    C211140   1.574   3.494  13.279 -0.6186 -0.1485  0.0708
  754MPD2    C311141   1.504   3.608  13.237 -0.3256 -0.1952 -0.3711
  754MPD2    C411142   1.474   3.710  13.324 -0.5169  0.5128  0.7045
  754MPD2    C511143   1.510   3.688  13.458  0.4959  0.4162  0.1035
  754MPD2     H11144   1.601   3.413  13.212  3.0228  1.6447 -0.6027
  754MPD2    H111145   1.404   3.789  13.298  0.6760  1.8737  1.6190
  754MPD2    H211146   1.608   3.571  13.606  1.1757  2.1621  0.5053
  754MPD2    H311147   1.490   3.772  13.524  0.3906  1.5762 -1.4087
  754MPD2     N11148   1.437   3.624  13.108 -0.0368  0.3078 -0.0540
  754MPD2    H511149   1.365   3.696  13.103 -0.1093  0.3716  1.9882
  754MPD2    N111150   1.686   3.359  13.463  0.1141  0.1621  0.4940
  754MPD2    H711151   1.721   3.367  13.558 -0.9293  3.2237  0.6082
  755MPD2     C11152   0.922   4.303  12.884 -0.1772 -0.5607  0.0040
  755MPD2    C111153   0.863   4.183  12.900 -0.4223 -0.0710  0.2331
  755MPD2    C211154   0.931   4.065  12.909 -0.0585  0.3066 -0.2124
  755MPD2    C311155   1.068   4.067  12.895 -0.0291 -0.0951  0.3657
  755MPD2    C411156   1.134   4.184  12.888 -0.5451 -0.0899  0.8660
  755MPD2    C511157   1.060   4.303  12.884 -0.2706  0.6079 -0.4701
  755MPD2     H11158   0.880   3.971  12.925  0.0938  0.2334 -0.1526
  755MPD2    H111159   1.241   4.192  12.874 -1.1691 -0.4528 -3.8123
  755MPD2    H211160   0.858   4.386  12.854 -1.5974 -1.0285  1.7437
  755MPD2    H311161   1.107   4.399  12.868 -0.9708  1.1019  0.4085
  755MPD2     N11162   1.143   3.943  12.864  0.1527 -0.2287  0.0279
  755MPD2    H511163   1.242   3.963  12.858  0.3746 -1.1569  0.6738
  755MPD2    N111164   0.721   4.187  12.905  0.2882  0.0553  0.3388
  755MPD2    H711165   0.683   4.274  12.869 -0.5881 -0.4091  0.1391
  756MPD2     C11166   2.026   4.659   9.523  0.7684  0.0791 -0.0716
  756MPD2    C111167   1.947   4.560   9.579 -0.2840  0.6440 -0.1013
  756MPD2    C211168   1.847   4.506   9.509 -0.4201  0.1216 -0.5031
  756MPD2    C311169   1.812   4.551   9.391 -0.2340  0.5603  0.4185
  756MPD2    C411170   1.875   4.655   9.331 -0.8626  0.2708  0.2900
  756MPD2    C511171   1.982   4.708   9.405 -0.6904  0.1228 -0.2799
  756MPD2     H11172   1.797   4.418   9.548  0.9209 -0.4123 -0.0092
  756MPD2    H111173   1.836   4.685   9.234 -0.2381  0.3572  0.0648
  756MPD2    H211174   2.117   4.697   9.568  0.6616 -0.0346  0.2414
  756MPD2    H311175   2.044   0.060   9.359  1.1285 -0.4437  1.2141
  756MPD2     N11176   1.683   4.504   9.346 -0.3799 -0.5061 -0.1534
  756MPD2    H511177   1.643   4.430   9.403  3.3123 -1.0497  1.7285
  756MPD2    N111178   1.982   4.493   9.699  0.0967  0.2764  0.5064
  756MPD2    H711179   1.920   4.417   9.725 -0.5955  0.9162  0.7085
  757MPD2     C11180   1.544   3.845   9.743  0.2805  0.0907 -0.3094
  757MPD2    C111181   1.419   3.833   9.682  0.4865  0.8703  0.3736
  757MPD2    C211182   1.377   3.936   9.607 -0.1475  0.5751 -0.3120
  757MPD2    C311183   1.456   4.042   9.577 -0.0215 -0.0032  0.4648
  757MPD2    C411184   1.578   4.058   9.638  0.3957 -0.0891 -0.5588
  757MPD2    C511185   1.621   3.963   9.725  0.1393 -0.0580  0.3343
  757MPD2     H11186   1.282   3.926   9.556  0.4343 -1.9255 -0.8986
  757MPD2    H111187   1.645   4.144   9.635 -0.4592  0.5208 -2.0938
  757MPD2    H211188   1.574   3.774   9.818 -2.0714 -1.9676 -1.3019
  757MPD2    H311189   1.713   3.980   9.780  0.2932  1.5033 -0.4145
  757MPD2     N11190   1.398   4.137   9.492  0.4713  0.8731 -0.9119
  757MPD2    H511191   1.307   4.127   9.449 -0.9504  1.1089  2.0049
  757MPD2    N111192   1.336   3.720   9.698 -0.0970  0.0940 -0.1174
  757MPD2    H711193   1.259   3.711   9.632  1.1679  0.5751 -1.6490
  758MPD2     C11194   1.856   3.336  15.556  0.5721  0.1694 -0.0586
  758MPD2    C111195   1.902   3.219  15.616  0.7856  0.2576 -0.0912
  758MPD2    C211196   1.857   3.194  15.741  0.4043  0.1907 -0.6021
  758MPD2    C311197   1.761   3.272  15.802 -0.1271  0.2033  0.1020
  758MPD2    C411198   1.710   3.387  15.737  0.4317  0.2402 -0.5243
  758MPD2    C511199   1.768   3.425  15.619 -0.2838  0.0034  0.2894
  758MPD2     H11200   1.898   3.104  15.787  1.4306 -0.5041 -2.8657
  758MPD2    H111201   1.644   3.454  15.789 -2.8202 -2.4191 -1.2361
  758MPD2    H211202   1.876   3.361  15.453 -2.3287  2.1623 -0.1585
  758MPD2    H311203   1.739   3.522  15.581 -1.9554 -0.4002  0.5339
  758MPD2     N11204   1.720   3.246  15.937 -0.3279  0.3337  0.5120
  758MPD2    H511205   1.666   3.321  15.979  0.9063  0.2492  2.2528
  758MPD2    N111206   1.991   3.122  15.566 -0.0705  0.0271 -0.2072
  758MPD2    H711207   2.009   3.045  15.630 -0.0900  0.0110 -0.2211
  759MPD2     C11208   0.168   1.352  10.055  0.5884 -0.1712 -0.1179
  759MPD2    C111209   0.201   1.261   9.949 -0.1404 -0.1774  0.0719
  759MPD2    C211210   0.152   1.288   9.827  0.1679  0.0606  0.1033
  759MPD2    C311211   0.063   1.392   9.797  0.2071 -0.0669  0.2171
  759MPD2    C411212   0.043   1.483   9.892  0.1703 -0.1205  0.3578
  759MPD2    C511213   0.094   1.467  10.017 -0.2185 -0.2891  0.7859
  759MPD2     H11214   0.165   1.200   9.765  0.0012 -1.2792  1.9758
  759MPD2    H111215   4.717   1.575   9.862  1.6528  0.5335 -0.1289
  759MPD2    H211216   0.199   1.348  10.159  1.5809  4.5186 -0.2381
  759MPD2    H311217   0.083   1.544  10.092  0.4407 -0.4423  1.0410
  759MPD2     N11218   0.024   1.400   9.665  0.3654 -0.6329  0.2886
  759MPD2    H511219   0.071   1.339   9.600 -0.6116 -2.3939  1.2300
  759MPD2    N111220   0.262   1.142   9.966 -0.2803  0.1301  0.8279
  759MPD2    H711221   0.280   1.089   9.881 -1.5691  2.2103 -0.7669
  760MPD2     C11222   0.097   3.716  11.941  0.3803 -0.1553 -0.4722
  760MPD2    C111223   0.200   3.699  11.855 -0.0406  0.4415  0.2517
  760MPD2    C211224   0.219   3.578  11.790 -0.3857  0.3167  0.5329
  760MPD2    C311225   0.136   3.470  11.810 -0.1993 -0.4136 -0.4633
  760MPD2    C411226   0.036   3.488  11.908 -0.3125  0.5529  0.3001
  760MPD2    C511227   0.009   3.612  11.965  0.4175 -0.1208  0.0595
  760MPD2     H11228   0.299   3.562  11.719 -0.6191 -0.7737  0.5117
  760MPD2    H111229   4.701   3.402  11.938 -0.7221  0.7963  0.1939
  760MPD2    H211230   0.083   3.809  11.995 -2.0254 -1.1211  0.5756
  760MPD2    H311231   4.658   3.622  12.043 -0.3856 -0.0862 -0.7302
  760MPD2     N11232   0.157   3.343  11.754 -0.0674 -0.3210  0.2946
  760MPD2    H511233   0.083   3.275  11.761  0.6204 -1.1848 -0.7750
  760MPD2    N111234   0.285   3.809  11.831 -0.2384  0.2847 -0.2159
  760MPD2    H711235   0.255   3.897  11.873 -0.8341 -0.1103  0.1957
  761MPD2     C11236   1.386   2.821  11.252 -0.3601 -0.2888  0.1325
  761MPD2    C111237   1.452   2.819  11.132 -0.0651  0.8646  0.1263
  761MPD2    C211238   1.536   2.923  11.100  0.3308  0.3879 -0.4549
  761MPD2    C311239   1.550   3.032  11.187 -0.6835  0.2230  0.2990
  761MPD2    C411240   1.466   3.043  11.293 -0.3863 -0.2938  0.3682
  761MPD2    C511241   1.382   2.937  11.320  0.4383 -0.8113 -0.0384
  761MPD2     H11242   1.608   2.915  11.020 -0.4111  1.2979 -1.2086
  761MPD2    H111243   1.466   3.129  11.359 -0.7267  0.7547 -0.9908
  761MPD2    H211244   1.308   2.750  11.278  0.4119 -1.8039 -1.6402
  761MPD2    H311245   1.320   2.936  11.409  0.9733  0.7547  0.3436
  761MPD2     N11246   1.646   3.136  11.168  0.3699  0.4959  0.1121
  761MPD2    H511247   1.648   3.206  11.241  3.1973 -1.3467  1.7933
  761MPD2    N111248   1.423   2.714  11.041 -0.7140  0.6190  0.0107
  761MPD2    H711249   1.358   2.644  11.076 -1.3145 -0.5036 -3.4061
  762MPD2     C11250   1.629   2.621  10.256 -0.0740 -0.1754 -0.7603
  762MPD2    C111251   1.645   2.509  10.343  0.4433  1.0653  0.1584
  762MPD2    C211252   1.735   2.402  10.308  0.0416  0.3687  0.3542
  762MPD2    C311253   1.826   2.427  10.203  0.2976 -0.3395  0.0698
  762MPD2    C411254   1.822   2.550  10.128  0.3379 -1.0423  0.2894
  762MPD2    C511255   1.722   2.642  10.155  0.2672  0.0863 -0.2192
  762MPD2     H11256   1.753   2.323  10.379  1.6861  2.3184  2.0775
  762MPD2    H111257   1.898   2.594  10.065  1.1375 -1.5119  0.9218
  762MPD2    H211258   1.558   2.701  10.272  1.8509  1.6477 -1.2932
  762MPD2    H311259   1.713   2.727  10.088 -1.9530  0.9194  1.1338
  762MPD2     N11260   1.932   2.337  10.200  0.0001  0.5841  0.3671
  762MPD2    H511261   1.910   2.254  10.254 -0.7590  1.5999  1.6185
  762MPD2    N111262   1.558   2.513  10.453 -0.6583  0.1100 -0.5413
  762MPD2    H711263   1.510   2.600  10.477  0.9480  0.8849 -0.1280
  763MPD2     C11264   3.757   2.640  16.249  1.2875 -0.6801 -0.2572
  763MPD2    C111265   3.639   2.700  16.215 -0.1639 -0.6435  0.4247
  763MPD2    C211266   3.607   2.824  16.272 -0.5548 -0.1645  0.4360
  763MPD2    C311267   3.688   2.876  16.372  0.3360  0.3661  0.3412
  763MPD2    C411268   3.803   2.809  16.409 -0.5342  0.0559  0.3384
  763MPD2    C511269   3.829   2.688  16.349 -0.8781 -0.5797 -0.2521
  763MPD2     H11270   3.522   2.880  16.236 -0.9745  0.4834  2.4380
  763MPD2    H111271   3.875   2.843  16.483 -1.4568 -2.4930  2.3695
  763MPD2    H211272   3.794   2.557  16.191  1.9820  0.5588 -1.5966
  763MPD2    H311273   3.925   2.642  16.363  0.3200  1.5703 -1.2811
  763MPD2     N11274   3.679   3.003  16.438  0.3306 -0.0836  0.6171
  763MPD2    H511275   3.758   3.025  16.499 -0.0137  1.7332  0.4034
  763MPD2    N111276   3.558   2.654  16.109 -0.4455 -0.1676 -0.6032
  763MPD2    H711277   3.477   2.710  16.084 -0.9608 -0.9338 -0.6824
  764MPD2     C11278   0.703   3.437  17.465  0.2117  0.3728 -0.0990
  764MPD2    C111279   0.625   3.543  17.503  0.0886  0.0984  0.2151
  764MPD2    C211280   0.579   3.546  17.636  0.3307  1.0734 -0.0632
  764MPD2    C311281   0.611   3.449   0.026  0.2203 -0.2525  0.4021
  764MPD2    C411282   0.695   3.345  17.689  0.0615  0.5641  0.4633
  764MPD2    C511283   0.738   3.341  17.560 -0.6932  0.0985 -0.2255
  764MPD2     H11284   0.520   3.631  17.668 -3.0373 -1.5202  0.5174
  764MPD2    H111285   0.723   3.266   0.058 -0.2841  1.4722  1.6562
  764MPD2    H211286   0.741   3.428  17.364 -0.5087  1.6038 -0.4709
  764MPD2    H311287   0.799   3.256  17.533 -3.0520 -1.3443 -0.9597
  764MPD2     N11288   0.560   3.468   0.157 -0.2882 -0.2357  0.2911
  764MPD2    H511289   0.512   3.555   0.175  0.9422  1.1775 -3.2197
  764MPD2    N111290   0.596   3.658  17.425 -0.0890 -0.7570 -0.2658
  764MPD2    H711291   0.523   3.718  17.461 -0.5247 -1.1405 -0.5214
  765MPD2     C11292   0.976   1.829  15.361  0.1555  0.2162  0.1580
  765MPD2    C111293   1.034   1.923  15.447 -0.4873 -0.2609  0.3019
  765MPD2    C211294   1.159   1.897  15.498  0.4786 -0.0024  0.2936
  765MPD2    C311295   1.231   1.778  15.475  0.3497  0.1581  0.3134
  765MPD2    C411296   1.172   1.683  15.389  0.3956 -0.3407  0.2874
  765MPD2    C511297   1.044   1.712  15.338 -0.7378 -0.1052 -0.5482
  765MPD2     H11298   1.196   1.971  15.568 -0.2542  0.7367 -0.1015
  765MPD2    H111299   1.225   1.594  15.358  0.6098  0.1124 -0.6476
  765MPD2    H211300   0.879   1.844  15.316  1.1605 -0.0943 -2.1260
  765MPD2    H311301   0.994   1.646  15.268 -1.6523 -1.8131  1.7038
  765MPD2     N11302   1.359   1.755  15.541  0.3339 -0.5320 -0.5429
  765MPD2    H511303   1.398   1.837  15.586  0.6105 -0.4226 -0.9732
  765MPD2    N111304   0.970   2.045  15.468  0.5958  0.2735  0.8106
  765MPD2    H711305   0.881   2.057  15.421  0.3690 -2.4059  0.5832
  766MPD2     C11306   0.468   2.313  15.138  0.3506  0.4393 -0.2335
  766MPD2    C111307   0.594   2.363  15.144 -0.0736  0.3332 -0.0470
  766MPD2    C211308   0.662   2.373  15.029  0.2143  0.5543 -0.2769
  766MPD2    C311309   0.622   2.310  14.908 -0.7454 -0.1917  0.4197
  766MPD2    C411310   0.494   2.253  14.910 -0.8600  0.0065  0.0270
  766MPD2    C511311   0.418   2.264  15.025  0.2490 -0.0910 -0.1918
  766MPD2     H11312   0.753   2.430  15.027  0.2213  0.5171 -1.0361
  766MPD2    H111313   0.447   2.205  14.825 -1.0189 -0.8728  0.6064
  766MPD2    H211314   0.404   2.307  15.225 -0.6715  0.6298 -0.9681
  766MPD2    H311315   0.319   2.219  15.032 -0.1033  0.4184 -1.9043
  766MPD2     N11316   0.694   2.299  14.789  0.1349 -0.2832  0.2232
  766MPD2    H511317   0.637   2.263  14.713 -1.0612  1.5681  0.2356
  766MPD2    N111318   0.650   2.408  15.268 -0.3523  0.0365  0.4930
  766MPD2    H711319   0.733   2.462  15.244 -1.5673  2.0677  0.8587
  767MPD2     C11320   0.246   2.580  14.724  0.2889  0.2475 -0.0579
  767MPD2    C111321   0.322   2.640  14.630  0.9830  0.7677 -0.8887
  767MPD2    C211322   0.388   2.555  14.538 -0.2879  0.3649  1.0325
  767MPD2    C311323   0.388   2.417  14.552  0.2709  0.5778  0.1327
  767MPD2    C411324   0.318   2.363  14.659  0.6833  0.5674 -0.2912
  767MPD2    C511325   0.246   2.442  14.738 -0.1720  0.4224 -0.4988
  767MPD2     H11326   0.454   2.594  14.462 -0.6298 -1.7747 -0.3708
  767MPD2    H111327   0.313   2.255  14.665 -1.5531  0.7230  0.4024
  767MPD2    H211328   0.197   2.632  14.806 -1.1409 -1.1529 -0.0318
  767MPD2    H311329   0.182   2.397  14.813  0.5150  1.2323  0.5757
  767MPD2     N11330   0.449   2.335  14.456  0.4271  0.0449  0.0617
  767MPD2    H511331   0.462   2.373  14.363 -1.1033  0.6697  0.1094
  767MPD2    N111332   0.323   2.786  14.624 -0.3597 -0.1546  0.1674
  767MPD2    H711333   0.265   2.840  14.688 -0.0874  0.5551 -0.1801
  768MPD2     C11334   1.687   1.343  10.536 -0.6063 -0.1284 -0.2131
  768MPD2    C111335   1.591   1.281  10.608  0.8234  0.4704  0.3148
  768MPD2    C211336   1.606   1.273  10.746  0.6002 -0.4476 -0.6193
  768MPD2    C311337   1.705   1.343  10.815 -0.2177 -0.3895  0.2602
  768MPD2    C411338   1.792   1.419  10.744  0.2367 -0.5217 -0.1065
  768MPD2    C511339   1.785   1.414  10.608  0.3333  0.0556 -0.2666
  768MPD2     H11340   1.541   1.211  10.806  2.5741 -2.4496 -0.5679
  768MPD2    H111341   1.869   1.473  10.797  0.1072  1.3889 -1.8545
  768MPD2    H211342   1.697   1.333  10.429  0.7504 -0.3908 -0.0647
  768MPD2    H311343   1.836   1.487  10.547 -1.4284  0.8700 -0.7721
  768MPD2     N11344   1.728   1.321  10.952  0.1946 -0.3664 -0.3709
  768MPD2    H511345   1.804   1.376  10.992 -1.4152  1.5257  0.0905
  768MPD2    N111346   1.487   1.206  10.553 -0.1379 -0.3635  0.3989
  768MPD2    H711347   1.424   1.167  10.621  1.1157 -0.9359  1.2352
  769MPD2     C11348   2.514   3.497  14.824 -0.1058  0.2654 -0.3463
  769MPD2    C111349   2.395   3.545  14.868  0.3368  0.1661  0.1240
  769MPD2    C211350   2.402   3.652  14.952  0.4753  0.3041  0.1759
  769MPD2    C311351   2.523   3.709  14.997  0.2783  0.5976  0.5410
  769MPD2    C411352   2.640   3.665  14.946  0.4103 -0.3594 -0.1664
  769MPD2    C511353   2.630   3.557  14.863  0.0447 -0.4041 -0.3796
  769MPD2     H11354   2.315   3.704  14.989  0.1678  0.8691 -1.3477
  769MPD2    H111355   2.735   3.714  14.962  1.1628 -1.8638 -0.0502
  769MPD2    H211356   2.517   3.419  14.749  2.5456 -2.4629  2.5633
  769MPD2    H311357   2.725   3.533  14.816 -0.4425 -1.6853 -0.6851
  769MPD2     N11358   2.523   3.822  15.095  1.0178  0.4808  0.1634
  769MPD2    H511359   2.428   3.843  15.124  1.7281  1.7551  1.5377
  769MPD2    N111360   2.275   3.488  14.817  0.0022 -0.6137 -0.2437
  769MPD2    H711361   2.280   3.415  14.747  2.4484  0.0046 -0.6902
  770MPD2     C11362   1.231   3.312  15.061 -0.4912  0.0733  0.0456
  770MPD2    C111363   1.294   3.201  15.017  0.4097 -0.1371 -0.0444
  770MPD2    C211364   1.426   3.213  14.962 -0.0871 -0.0544 -0.1193
  770MPD2    C311365   1.481   3.336  14.945 -0.0681 -0.0761  0.2973
  770MPD2    C411366   1.416   3.445  14.995  0.3616  0.3439 -1.3075
  770MPD2    C511367   1.295   3.434  15.056 -0.1240 -0.4200  0.3423
  770MPD2     H11368   1.470   3.123  14.922 -2.0935 -1.1212  0.0611
  770MPD2    H111369   1.455   3.546  14.989  0.4406  0.3152 -1.2776
  770MPD2    H211370   1.136   3.305  15.112  0.0663  0.4670  1.1558
  770MPD2    H311371   1.245   3.513  15.109 -0.4593 -0.1155 -0.4314
  770MPD2     N11372   1.608   3.343  14.885 -0.4728  0.1069  0.1157
  770MPD2    H511373   1.648   3.263  14.838  0.6581  0.6943  0.0965
  770MPD2    N111374   1.225   3.079  15.035  0.6067 -0.3276 -0.3247
  770MPD2    H711375   1.126   3.081  15.060  1.0749  0.5291  1.4707
  771MPD2     C11376   3.123   1.542  13.778  0.6000 -0.1282  0.2946
  771MPD2    C111377   3.039   1.643  13.741 -0.1831  0.6056  0.0210
  771MPD2    C211378   2.939   1.606  13.645  0.5279 -1.0893  0.2340
  771MPD2    C311379   2.951   1.492  13.572  0.5448  0.4402 -0.2993
  771MPD2    C411380   3.040   1.392  13.619 -0.0519  0.2112 -0.0193
  771MPD2    C511381   3.124   1.417  13.722  0.3252 -0.1309  0.4109
  771MPD2     H11382   2.866   1.680  13.614  0.9404 -0.2284  1.3416
  771MPD2    H111383   3.050   1.294  13.572 -2.5136 -0.4270  0.7650
  771MPD2    H211384   3.205   1.563  13.846  1.1640  1.5701 -0.8984
  771MPD2    H311385   3.208   1.355  13.751  0.4640  0.3778  1.1128
  771MPD2     N11386   2.883   1.462  13.455  0.1734 -0.3999 -0.4758
  771MPD2    H511387   2.887   1.369  13.416 -0.5901 -0.0467 -1.4092
  771MPD2    N111388   3.056   1.774  13.790 -0.0118 -0.2301  0.5631
  771MPD2    H711389   3.136   1.795  13.848  0.7196 -2.2681  0.2964
  772MPD2     C11390   2.713   2.547  13.667 -0.5402 -0.0420  1.0811
  772MPD2    C111391   2.704   2.410  13.651 -0.6456 -0.8189  0.0993
  772MPD2    C211392   2.585   2.360  13.600 -0.1384  0.1933  0.1033
  772MPD2    C311393   2.487   2.441  13.545  0.1779 -0.1659  0.0748
  772MPD2    C411394   2.509   2.580  13.551  0.2624 -0.6740  0.2842
  772MPD2    C511395   2.617   2.624  13.613  0.3665  0.0380 -0.7240
  772MPD2     H11396   2.563   2.254  13.594  1.4311 -0.2652  2.5498
  772MPD2    H111397   2.438   2.638  13.492  0.6459  0.2080  0.6933
  772MPD2    H211398   2.804   2.599  13.696  2.0669 -3.4127 -1.1136
  772MPD2    H311399   2.633   2.731  13.616 -0.7257  0.2071 -0.9328
  772MPD2     N11400   2.364   2.402  13.490 -0.4546  0.7492 -0.0616
  772MPD2    H511401   2.290   2.470  13.479 -1.9550 -0.6446  1.3494
  772MPD2    N111402   2.799   2.317  13.693  0.1224 -0.1900  0.2401
  772MPD2    H711403   2.783   2.220  13.665 -1.0931  0.7321 -2.2423
  773MPD2     C11404   2.613   3.199   0.349  0.0824 -0.2219 -0.4558
  773MPD2    C111405   2.502   3.125   0.308 -1.0309 -0.1035  0.0238
  773MPD2    C211406   2.480   2.999   0.369  0.1287  0.1675  0.4973
  773MPD2    C311407   2.566   2.956   0.467  0.2434 -0.1953 -0.5862
  773MPD2    C411408   2.677   3.037   0.504 -0.1788 -0.4762 -0.2579
  773MPD2    C511409   2.697   3.156   0.447  0.5074 -0.5346  0.2594
  773MPD2     H11410   2.388   2.948   0.344  0.1234  0.8555 -0.8922
  773MPD2    H111411   2.753   3.007   0.575 -0.7130 -2.5334 -0.5633
  773MPD2    H211412   2.648   3.292   0.305 -0.0672 -0.6805 -1.5540
  773MPD2    H311413   2.782   3.211   0.484  1.2384  0.1581 -2.4525
  773MPD2     N11414   2.554   2.826   0.519 -0.1116  0.2955 -0.4857
  773MPD2    H511415   2.480   2.768   0.480 -0.3086 -0.6725  1.3319
  773MPD2    N111416   2.414   3.169   0.208 -0.5101  0.4276  0.0675
  773MPD2    H711417   2.347   3.095   0.191  2.1467 -2.5119  2.1965
  774MPD2     C11418   1.650   2.354  13.023  0.3353 -0.2713  0.2738
  774MPD2    C111419   1.538   2.416  12.974 -0.5452 -0.6453 -0.4243
  774MPD2    C211420   1.517   2.551  12.998 -0.2643 -0.3616  1.0423
  774MPD2    C311421   1.613   2.630  13.061 -0.8971 -0.0019  0.0110
  774MPD2    C411422   1.734   2.574  13.100 -0.3056  0.1762  0.0216
  774MPD2    C511423   1.741   2.429  13.083  0.0416  0.6662  0.5370
  774MPD2     H11424   1.418   2.577  12.962  0.4599 -0.2690 -0.8855
  774MPD2    H111425   1.813   2.617  13.159  0.5373  0.2329 -1.1411
  774MPD2    H211426   1.674   2.248  13.021  0.3401 -0.2603 -0.3239
  774MPD2    H311427   1.829   2.386  13.130 -0.2692 -1.7137 -1.0590
  774MPD2     N11428   1.578   2.764  13.093  0.5650  0.3502 -0.0841
  774MPD2    H511429   1.492   2.799  13.053  1.8180  0.6038 -2.5578
  774MPD2    N111430   1.445   2.325  12.915 -0.4049 -0.7504 -0.3405
  774MPD2    H711431   1.467   2.228  12.934  1.5273 -0.1902  0.3454
  775MPD2     C11432   2.564   3.643  15.533 -0.0990 -0.7581  0.7970
  775MPD2    C111433   2.638   3.711  15.628  0.6963  1.1397  0.1066
  775MPD2    C211434   2.764   3.757  15.592  0.2487 -0.4086  0.1173
  775MPD2    C311435   2.809   3.751  15.460 -0.2326 -0.0185 -0.3954
  775MPD2    C411436   2.740   3.668  15.370  0.0713 -0.4462 -0.0462
  775MPD2    C511437   2.616   3.620  15.409 -0.2277 -0.3681 -0.8117
  775MPD2     H11438   2.820   3.825  15.655 -2.3268 -0.6421  2.6643
  775MPD2    H111439   2.771   3.656  15.267  0.3625  0.2412 -0.0430
  775MPD2    H211440   2.463   3.608  15.550 -1.3660  1.4662 -2.1881
  775MPD2    H311441   2.556   3.560  15.341  1.7293 -1.5711 -1.4921
  775MPD2     N11442   2.928   3.820  15.415 -0.2080  0.0522  0.4324
  775MPD2    H511443   2.960   3.803  15.320  0.4685 -2.5066  1.0986
  775MPD2    N111444   2.589   3.728  15.756  0.6251 -0.2343  0.6363
  775MPD2    H711445   2.493   3.700  15.774 -0.3419  2.8200  0.3246
  776MPD2     C11446   1.690   3.817  11.642  0.6748 -0.4342  0.1159
  776MPD2    C111447   1.809   3.888  11.630  0.5542 -0.3052  0.2079
  776MPD2    C211448   1.844   3.951  11.514 -0.2912 -0.3141 -0.1746
  776MPD2    C311449   1.758   3.944  11.401  1.1440 -0.6122 -0.8747
  776MPD2    C411450   1.643   3.872  11.413 -0.5688 -0.0975  0.0999
  776MPD2    C511451   1.603   3.816  11.535  0.6051  0.4356  0.1545
  776MPD2     H11452   1.946   3.987  11.505 -1.5117  3.2962  0.6361
  776MPD2    H111453   1.564   3.873  11.339 -1.1353  0.9773  0.7245
  776MPD2    H211454   1.663   3.771  11.737  2.8077 -0.1148  0.8689
  776MPD2    H311455   1.508   3.765  11.545 -0.0432  1.4480 -0.7466
  776MPD2     N11456   1.792   4.008  11.280 -0.0200  0.2645 -0.2387
  776MPD2    H511457   1.868   4.075  11.285  1.8002 -1.7150 -1.5841
  776MPD2    N111458   1.889   3.881  11.748 -0.1092 -0.0569 -0.2788
  776MPD2    H711459   1.856   3.810  11.814 -1.2090  0.7969  0.0788
  777MPD2     C11460   2.743   1.590   0.898 -0.7259 -0.0567 -0.3320
  777MPD2    C111461   2.622   1.584   0.957 -0.0005  0.0581 -0.2722
  777MPD2    C211462   2.516   1.517   0.896  0.0957 -0.1547 -0.6595
  777MPD2    C311463   2.535   1.462   0.772 -0.6661  0.0747 -0.0456
  777MPD2    C411464   2.661   1.473   0.709 -0.1971 -0.5948  0.1572
  777MPD2    C511465   2.760   1.541   0.774 -0.0882 -0.2033  0.2916
  777MPD2     H11466   2.415   1.504   0.933 -0.4307  3.6883 -0.7957
  777MPD2    H111467   2.676   1.440   0.607 -0.2650  2.0109 -0.7084
  777MPD2    H211468   2.813   1.643   0.961 -0.8034 -0.9412  0.5046
  777MPD2    H311469   2.854   1.537   0.720  0.0195 -1.1297  0.5466
  777MPD2     N11470   2.412   1.410   0.712  0.2084  0.4754 -0.1911
  777MPD2    H511471   2.329   1.426   0.768  0.6081 -2.1814  1.1297
  777MPD2    N111472   2.599   1.648   1.080  0.0950 -0.4426  0.5451
  777MPD2    H711473   2.671   1.714   1.107  1.5676 -2.4811  1.5904
  778MPD2     C11474   3.276   2.153  14.694  0.5461 -0.5261  0.0586
  778MPD2    C111475   3.262   2.038  14.615  0.2574  0.4978 -0.6123
  778MPD2    C211476   3.346   2.027  14.503  0.5300 -0.3079 -0.0908
  778MPD2    C311477   3.440   2.127  14.474  0.8265  0.1157  0.6729
  778MPD2    C411478   3.446   2.241  14.556  0.2297 -0.2734  0.0103
  778MPD2    C511479   3.359   2.254  14.663 -0.1187  0.1941  0.7038
  778MPD2     H11480   3.344   1.939  14.440 -0.2941  1.1532 -2.1203
  778MPD2    H111481   3.521   2.319  14.549 -0.2202  0.3945  2.5095
  778MPD2    H211482   3.217   2.160  14.786 -0.1937 -1.1147 -0.3739
  778MPD2    H311483   3.379   2.338  14.729  1.0907  0.3659  0.1202
  778MPD2     N11484   3.518   2.118  14.362 -0.6144  0.1921 -0.4285
  778MPD2    H511485   3.498   2.040  14.300  1.1623 -2.2284  2.0433
  778MPD2    N111486   3.194   1.927  14.659 -0.4690  0.2590  0.1648
  778MPD2    H711487   3.184   1.849  14.596 -0.8083  2.1328 -2.1039
  779MPD2     C11488   2.661   0.614  14.328 -0.1399 -0.1658 -0.1118
  779MPD2    C111489   2.779   0.651  14.377  0.0184 -0.2170  0.6987
  779MPD2    C211490   2.827   0.775  14.339  0.4279 -0.0502 -0.3406
  779MPD2    C311491   2.762   0.855  14.248 -0.0329 -0.5042  0.3764
  779MPD2    C411492   2.635   0.815  14.205  0.6963 -0.0180  0.3015
  779MPD2    C511493   2.585   0.693  14.247 -0.0402  0.0859  0.4673
  779MPD2     H11494   2.929   0.800  14.366  0.4634 -0.1656 -0.3640
  779MPD2    H111495   2.571   0.869  14.137  1.1637  1.1457  0.7914
  779MPD2    H211496   2.630   0.513  14.352  0.0118  0.1332  1.3355
  779MPD2    H311497   2.482   0.664  14.228  0.1799 -0.5045  0.1746
  779MPD2     N11498   2.822   0.980  14.213  0.3627 -0.5226 -0.2076
  779MPD2    H511499   2.904   1.014  14.262 -0.4268  0.5673  0.3754
  779MPD2    N111500   2.868   0.567  14.446 -1.0438  0.2636  0.4092
  779MPD2    H711501   2.961   0.607  14.453 -1.6874  1.7982  0.3754
  780MPD2     C11502   2.648   0.794   0.616  0.0394 -0.1523  0.3026
  780MPD2    C111503   2.679   0.685   0.546  0.0279 -0.1182  0.1486
  780MPD2    C211504   2.807   0.645   0.540 -0.0972  0.4393  0.2018
  780MPD2    C311505   2.910   0.717   0.596  0.4994 -0.5665 -0.2575
  780MPD2    C411506   2.877   0.827   0.674  0.2564 -0.0247  0.8240
  780MPD2    C511507   2.750   0.863   0.688 -0.0092  0.1036  0.0618
  780MPD2     H11508   2.831   0.558   0.480 -2.4560  1.4567 -2.1892
  780MPD2    H111509   2.950   0.886   0.729  0.6831 -1.2654  1.5768
  780MPD2    H211510   2.550   0.839   0.625 -0.2547 -0.2651 -2.4320
  780MPD2    H311511   2.727   0.949   0.750 -1.9684 -0.7008  0.4398
  780MPD2     N11512   3.043   0.661   0.579 -0.1283 -0.2150  0.2330
  780MPD2    H511513   3.052   0.584   0.513 -2.2198  0.6221 -1.0105
  780MPD2    N111514   2.581   0.606   0.477 -0.4809 -0.1724 -0.5782
  780MPD2    H711515   2.623   0.527   0.430  0.4493  0.4458 -0.8083
  781MPD2     C11516   4.396   1.814  11.676  0.2139  0.3484  0.1132
  781MPD2    C111517   4.434   1.945  11.709 -0.5561  0.7519  0.2947
  781MPD2    C211518   4.551   1.998  11.652 -0.4999  0.2078 -0.5184
  781MPD2    C311519   4.625   1.919  11.558  1.0622 -0.0147 -0.5138
  781MPD2    C411520   4.580   1.794  11.520 -0.6265  0.8778  0.5985
  781MPD2    C511521   4.468   1.744  11.577 -0.3682 -0.1386 -0.0375
  781MPD2     H11522   4.569   2.100  11.683  0.4831 -0.2927  0.5104
  781MPD2    H111523   4.638   1.733  11.453  0.4447 -0.3215  2.6275
  781MPD2    H211524   4.311   1.762  11.719 -0.1534  0.4677 -0.4762
  781MPD2    H311525   4.434   1.645  11.549 -0.9592  0.4718 -1.4531
  781MPD2     N11526   0.008   1.970  11.479 -0.0172  0.1622  0.0791
  781MPD2    H511527   0.057   1.918  11.408 -1.7951 -0.6413 -0.5490
  781MPD2    N111528   4.379   2.019  11.816 -0.2129  0.4985 -0.2383
  781MPD2    H711529   4.434   2.091  11.862 -0.3414  0.7814 -0.5279
  782MPD2     C11530   2.498   3.806  10.974 -0.1398 -0.1552 -0.1000
  782MPD2    C111531   2.615   3.834  10.906  0.6076  0.3973 -0.3547
  782MPD2    C211532   2.735   3.831  10.982  0.0872  0.0414 -1.1598
  782MPD2    C311533   2.735   3.805  11.114 -0.1392 -0.0781 -0.2388
  782MPD2    C411534   2.616   3.772  11.182 -0.5675 -0.4378 -0.2710
  782MPD2    C511535   2.497   3.778  11.112 -0.9451  0.2310 -1.2383
  782MPD2     H11536   2.825   3.852  10.927 -0.4106  1.6936 -1.3444
  782MPD2    H111537   2.608   3.742  11.286 -1.5210  0.4505 -0.0843
  782MPD2    H211538   2.408   3.783  10.920 -0.0431  3.1581 -1.6528
  782MPD2    H311539   2.413   3.734  11.165  0.1439 -0.5051 -0.1278
  782MPD2     N11540   2.862   3.827  11.174  0.1711  0.4003  0.3937
  782MPD2    H511541   2.947   3.846  11.122  1.0362 -1.0111  1.3031
  782MPD2    N111542   2.611   3.858  10.768  0.6526  0.2527  0.3541
  782MPD2    H711543   2.691   3.915  10.742  0.9772 -1.0361 -1.5285
  783MPD2     C11544   1.898   3.474  10.482 -0.1254  0.2748 -0.6075
  783MPD2    C111545   1.995   3.479  10.580  0.0810 -0.3323  0.3180
  783MPD2    C211546   2.103   3.560  10.552  0.4190  0.0323  0.0824
  783MPD2    C311547   2.124   3.626  10.436  0.0696  0.1218  0.3914
  783MPD2    C411548   2.027   3.620  10.345  0.0888 -0.0800 -0.3334
  783MPD2    C511549   1.921   3.542  10.366 -0.6014 -0.1643 -0.5554
  783MPD2     H11550   2.187   3.565  10.621 -0.5737  1.9344  1.1662
  783MPD2    H111551   2.031   3.674  10.251 -1.2374 -0.5763 -0.6606
  783MPD2    H211552   1.810   3.413  10.498  1.3139 -2.1918 -2.0479
  783MPD2    H311553   1.842   3.549  10.291 -1.4852  2.3940  0.6240
  783MPD2     N11554   2.242   3.701  10.423 -0.3972  0.9314 -0.8140
  783MPD2    H511555   2.303   3.709  10.504 -1.5437 -0.1065  0.1605
  783MPD2    N111556   1.972   3.398  10.696 -0.3212  0.2199  0.0380
  783MPD2    H711557   1.883   3.351  10.686  0.4378 -1.5731  1.7729
  784MPD2     C11558   0.362   3.208   0.800 -0.4352  0.2579  0.0380
  784MPD2    C111559   0.263   3.237   0.890  0.2040 -0.1076  0.8219
  784MPD2    C211560   0.151   3.311   0.849  0.6483 -0.3933 -0.0244
  784MPD2    C311561   0.140   3.354   0.719 -0.1044 -0.0544  0.1908
  784MPD2    C411562   0.230   3.315   0.625  1.2017 -0.4009 -0.3024
  784MPD2    C511563   0.343   3.244   0.671  0.2630  1.0664  0.4247
  784MPD2     H11564   0.080   3.337   0.926 -0.8666  1.5645 -2.1022
  784MPD2    H111565   0.222   3.335   0.519 -0.4922 -0.2346 -0.1379
  784MPD2    H211566   0.446   3.145   0.827 -1.7842  0.0681  3.7850
  784MPD2    H311567   0.416   3.224   0.593  0.5058  0.9645  0.6807
  784MPD2     N11568   0.034   3.435   0.691  0.3233  0.7689 -0.2135
  784MPD2    H511569   4.705   3.458   0.774  3.1217  0.8136  1.5822
  784MPD2    N111570   0.272   3.202   1.021  0.1326 -0.5127 -0.1099
  784MPD2    H711571   0.192   3.235   1.075  1.5446  3.2152 -0.2783
  785MPD2     C11572   0.352   1.730   9.753 -0.4656 -0.7080  0.5160
  785MPD2    C111573   0.250   1.790   9.827 -0.3903  0.2242  0.4338
  785MPD2    C211574   0.129   1.815   9.769 -0.2796 -0.4844  0.3263
  785MPD2    C311575   0.111   1.762   9.637 -0.4556 -0.0580  0.2044
  785MPD2    C411576   0.212   1.702   9.574  0.3123 -0.0775  0.3766
  785MPD2    C511577   0.335   1.685   9.624 -0.8775  0.7843 -0.3980
  785MPD2     H11578   0.049   1.862   9.825  1.1381  0.3761  1.6264
  785MPD2    H111579   0.208   1.670   9.470  0.6690  0.7275  0.1089
  785MPD2    H211580   0.453   1.713   9.789 -0.4924 -1.0940  0.4146
  785MPD2    H311581   0.419   1.642   9.570  0.3469  1.3634  1.0380
  785MPD2     N11582   4.713   1.787   9.575  0.4988  0.0466  0.8404
  785MPD2    H511583   4.644   1.823   9.640  1.4422  2.1711  0.6902
  785MPD2    N111584   0.268   1.836   9.955  0.1140 -0.1433 -0.2826
  785MPD2    H711585   0.186   1.868  10.006 -1.1558 -1.9747 -1.1643
  786MPD2     C11586   3.691   0.115  14.397  0.2906  0.3241  0.7889
  786MPD2    C111587   3.716   0.006  14.480 -0.0629 -0.1991 -1.2293
  786MPD2    C211588   3.774   0.032  14.604 -0.3595 -0.9288  0.1893
  786MPD2    C311589   3.832   0.153  14.640  0.0088 -0.8806 -0.1915
  786MPD2    C411590   3.805   0.254  14.549 -1.5693  0.8968  0.0593
  786MPD2    C511591   3.728   0.240  14.439  0.0459 -0.1936 -0.4602
  786MPD2     H11592   3.794   4.671  14.667 -1.2347 -0.6825  0.7966
  786MPD2    H111593   3.840   0.355  14.567  1.2064  0.4277 -2.6821
  786MPD2    H211594   3.649   0.100  14.298 -1.7423  0.9664  1.5502
  786MPD2    H311595   3.713   0.324  14.372  1.5185  1.2136  0.9661
  786MPD2     N11596   3.900   0.181  14.758 -0.1193 -0.1570 -0.4551
  786MPD2    H511597   3.942   0.273  14.762  2.1971 -1.1282 -2.1820
  786MPD2    N111598   3.687   4.594  14.444  0.5695  0.0402  0.2755
  786MPD2    H711599   3.734   4.524  14.500 -2.6579 -1.4541  1.1365
  787MPD2     C11600   3.957   4.117  14.738 -0.2751  0.4919  0.0248
  787MPD2    C111601   3.954   4.079  14.601 -0.6883  0.2219  0.5657
  787MPD2    C211602   4.018   3.962  14.562  0.0066  0.2218 -0.3681
  787MPD2    C311603   4.100   3.893  14.653  0.5936  0.4190  0.6520
  787MPD2    C411604   4.115   3.942  14.781 -0.2856 -0.6960 -0.5591
  787MPD2    C511605   4.045   4.056  14.821  0.3559 -0.0270  0.3916
  787MPD2     H11606   4.009   3.925  14.461 -1.8788  1.5052 -0.6732
  787MPD2    H111607   4.177   3.886  14.851  0.2544  0.8560  0.2079
  787MPD2    H211608   3.914   4.209  14.775 -0.4797  0.9549 -1.3962
  787MPD2    H311609   4.062   4.097  14.919  0.1629  0.0081  0.4102
  787MPD2     N11610   4.165   3.781  14.592 -0.1569 -0.7873 -0.3132
  787MPD2    H511611   4.152   3.767  14.493 -1.6635 -0.8648 -0.1040
  787MPD2    N111612   3.873   4.157  14.516  0.3650 -0.0708 -0.0062
  787MPD2    H711613   3.828   4.236  14.559 -1.3997 -1.4081  0.6001
  788MPD2     C11614   0.802   2.275   0.989  0.7870 -0.8870  0.1301
  788MPD2    C111615   0.818   2.241   0.858  0.9342 -0.0918  0.5319
  788MPD2    C211616   0.776   2.333   0.762  0.0839 -0.0041 -0.6161
  788MPD2    C311617   0.722   2.460   0.796 -0.7979  0.0260 -0.5538
  788MPD2    C411618   0.726   2.496   0.927 -0.3400  0.4109  0.1837
  788MPD2    C511619   0.764   2.406   1.019 -0.0613  0.1591 -0.3827
  788MPD2     H11620   0.770   2.292   0.662 -2.0569  0.7631 -0.8039
  788MPD2    H111621   0.682   2.591   0.956 -2.3574  0.1743 -2.1434
  788MPD2    H211622   0.847   2.219   1.071  0.2952  1.6436  2.1098
  788MPD2    H311623   0.757   2.439   1.122 -1.2340  1.0780 -0.7659
  788MPD2     N11624   0.698   2.559   0.695  0.0837 -0.2645  0.5904
  788MPD2    H511625   0.689   2.656   0.720 -2.0671 -0.2754 -0.1203
  788MPD2    N111626   0.874   2.117   0.813 -0.0434  0.2295 -0.8058
  788MPD2    H711627   0.885   2.100   0.713 -0.6004 -0.2758 -0.7807
  789MPD2     C11628   1.451   2.813  16.457  0.6165  0.4088  0.7468
  789MPD2    C111629   1.424   2.766  16.583 -0.4325  0.8855  0.1882
  789MPD2    C211630   1.307   2.802  16.648 -0.4205  0.0305 -0.2696
  789MPD2    C311631   1.215   2.882  16.586 -0.0356  0.2388 -0.3625
  789MPD2    C411632   1.252   2.936  16.461  0.3932  0.1958  0.0195
  789MPD2    C511633   1.371   2.909  16.395 -0.0798  0.3216 -0.6532
  789MPD2     H11634   1.287   2.755  16.744  2.6787 -0.9631 -0.1014
  789MPD2    H111635   1.186   2.998  16.402 -0.0330  0.4793  0.7925
  789MPD2    H211636   1.533   2.770  16.401 -0.0308  0.7049 -0.4133
  789MPD2    H311637   1.396   2.950  16.298 -3.2147 -0.9930 -2.0040
  789MPD2     N11638   1.083   2.915  16.636 -0.3200 -0.1881  0.4318
  789MPD2    H511639   1.030   2.959  16.561 -1.9900 -0.0822  1.6838
  789MPD2    N111640   1.500   2.669  16.639 -0.0343  0.2197  0.2216
  789MPD2    H711641   1.500   2.656  16.740  3.2423  0.1344  0.2103
  790MPD2     C11642   2.480   4.571  13.637  0.5949 -0.1837  0.5945
  790MPD2    C111643   2.543   4.453  13.610 -0.1789  0.8968  0.0425
  790MPD2    C211644   2.501   4.386  13.499 -0.1071 -0.2872  0.6107
  790MPD2    C311645   2.407   4.441  13.409  0.5141 -0.5054  0.1155
  790MPD2    C411646   2.361   4.573  13.432 -0.7597  0.8364  0.9009
  790MPD2    C511647   2.392   4.631  13.549 -0.3003 -0.4801  0.4374
  790MPD2     H11648   2.548   4.292  13.472  2.5375  0.9436  0.8508
  790MPD2    H111649   2.282   4.611  13.368  0.0186 -0.0356 -0.5986
  790MPD2    H211650   2.493   4.630  13.727  2.1926 -1.8187  1.4430
  790MPD2    H311651   2.340   4.721  13.581 -0.8192 -0.2246 -1.1200
  790MPD2     N11652   2.366   4.359  13.304 -0.0125 -0.0955  0.5618
  790MPD2    H511653   2.406   4.267  13.291  0.8138  0.1743  1.2212
  790MPD2    N111654   2.637   4.401  13.707  0.8064  0.0400  0.0244
  790MPD2    H711655   2.668   4.461  13.784  0.9061 -0.0272  0.0365
  791MPD2     C11656   1.660   4.388  12.959 -0.0026 -0.6002 -0.2996
  791MPD2    C111657   1.729   4.280  12.906 -0.4585 -0.9061  0.7108
  791MPD2    C211658   1.663   4.202  12.805 -0.4747  0.2420 -0.0445
  791MPD2    C311659   1.537   4.239  12.754 -0.1215 -0.1319  0.0408
  791MPD2    C411660   1.481   4.353  12.800  0.6068 -0.5429 -0.0364
  791MPD2    C511661   1.541   4.419  12.906 -0.1329  0.5302 -0.5247
  791MPD2     H11662   1.719   4.122  12.758 -0.2085 -1.0366  2.4487
  791MPD2    H111663   1.385   4.390  12.765  0.5364 -1.0527 -0.3709
  791MPD2    H211664   1.701   4.445  13.042 -0.7782 -0.9241  0.2998
  791MPD2    H311665   1.483   4.501  12.946  2.6906  1.4957  1.5875
  791MPD2     N11666   1.464   4.160  12.658  0.4429 -0.2377 -0.6913
  791MPD2    H511667   1.512   4.077  12.626  0.0640 -0.1604 -1.4578
  791MPD2    N111668   1.855   4.259  12.965  0.1987 -0.5839 -0.6475
  791MPD2    H711669   1.892   4.327  13.031  1.4796 -0.2487 -1.7040
  792MPD2     C11670   2.304   3.977  11.343 -0.2675 -0.7316  0.2750
  792MPD2    C111671   2.296   4.008  11.205 -0.0371  0.1763  0.7623
  792MPD2    C211672   2.205   3.934  11.132  0.3901 -0.6304  0.2010
  792MPD2    C311673   2.116   3.842  11.187  0.4868 -0.3814  0.2391
  792MPD2    C411674   2.143   3.803  11.319 -0.0590  0.3948 -1.2084
  792MPD2    C511675   2.232   3.877  11.395 -0.1341  0.8493 -0.2360
  792MPD2     H11676   2.212   3.960  11.027  0.7346 -1.0980  0.1061
  792MPD2    H111677   2.091   3.728  11.378  0.3922  1.2559  0.2878
  792MPD2    H211678   2.382   4.024  11.401  1.6269 -3.4531 -0.0876
  792MPD2    H311679   2.245   3.848  11.498 -2.3207 -2.8613 -1.0012
  792MPD2     N11680   2.023   3.772  11.103 -0.4906 -0.1245  0.3364
  792MPD2    H511681   1.976   3.696  11.150 -1.9026  0.9968  0.7241
  792MPD2    N111682   2.382   4.111  11.151  0.0642 -0.0760  0.8326
  792MPD2    H711683   2.436   4.166  11.217 -1.6248 -0.7490  2.7666
  793MPD2     C11684   1.751   3.924  10.103  0.6203  0.0006 -0.0618
  793MPD2    C111685   1.846   3.978  10.185 -0.0198 -0.1932  0.1843
  793MPD2    C211686   1.858   3.936  10.318  0.2998  0.1044 -0.2864
  793MPD2    C311687   1.775   3.837  10.367 -0.2905 -0.3996 -0.0106
  793MPD2    C411688   1.677   3.788  10.286  0.6529  0.5113 -0.4146
  793MPD2    C511689   1.665   3.828  10.150  0.2427 -0.8661 -0.2882
  793MPD2     H11690   1.934   3.974  10.386 -1.9214  2.0225  1.1639
  793MPD2    H111691   1.605   3.710  10.311  0.7029  0.9007  0.9396
  793MPD2    H211692   1.754   3.961  10.001 -1.6021  0.4916  0.0384
  793MPD2    H311693   1.586   3.791  10.086 -1.5899  1.1605  0.8152
  793MPD2     N11694   1.794   3.799  10.506  0.5631  1.1554  0.3924
  793MPD2    H511695   1.887   3.825  10.539 -0.3868  4.9410  0.0747
  793MPD2    N111696   1.933   4.080  10.140 -0.0016 -0.3519  0.5938
  793MPD2    H711697   1.978   4.132  10.215 -0.9970 -0.4707  1.2710
  794MPD2     C11698   2.316   3.568  17.120 -0.4662  0.2444 -0.0821
  794MPD2    C111699   2.196   3.555  17.189 -0.6113 -0.6398  0.3462
  794MPD2    C211700   2.078   3.591  17.126  0.3343  0.2451  0.6363
  794MPD2    C311701   2.080   3.663  17.007  0.5089  0.5482 -0.3739
  794MPD2    C411702   2.199   3.689  16.950  0.3870  0.4351 -0.0957
  794MPD2    C511703   2.318   3.638  17.000 -0.5630  0.2030 -0.8084
  794MPD2     H11704   1.989   3.577  17.187  0.9609  0.2598  1.5517
  794MPD2    H111705   2.204   3.742  16.856  1.1542  1.2718  0.4144
  794MPD2    H211706   2.414   3.542  17.158 -0.3866 -0.2261 -0.6030
  794MPD2    H311707   2.414   3.654  16.950  0.4356 -0.9576  0.7591
  794MPD2     N11708   1.964   3.708  16.948  0.1200 -0.9709 -0.7198
  794MPD2    H511709   1.980   3.760  16.863 -0.3960 -0.0464 -0.2505
  794MPD2    N111710   2.193   3.504  17.326 -0.5607 -0.3012  0.1520
  794MPD2    H711711   2.111   3.513  17.387 -0.4178  0.2773  0.2618
  795MPD2     C11712   3.717   1.195  13.662  0.2598 -0.5583 -0.2099
  795MPD2    C111713   3.700   1.069  13.626 -0.2981  0.5564  0.3144
  795MPD2    C211714   3.810   0.983  13.626  0.3508  0.6093 -0.0447
  795MPD2    C311715   3.940   1.021  13.667 -0.7097  0.8839  0.7071
  795MPD2    C411716   3.959   1.156  13.700 -0.1248  0.4803  0.2253
  795MPD2    C511717   3.842   1.230  13.702 -0.7946 -0.3902 -0.7333
  795MPD2     H11718   3.803   0.883  13.587  0.2968  0.7556 -0.4125
  795MPD2    H111719   4.053   1.197  13.733  2.2578 -2.9202 -2.2784
  795MPD2    H211720   3.640   1.271  13.671 -0.0091 -0.6407 -1.7550
  795MPD2    H311721   3.857   1.332  13.734 -0.2634 -0.7348  0.1287
  795MPD2     N11722   4.037   0.921  13.672 -0.5929 -0.6056 -0.0696
  795MPD2    H511723   4.013   0.832  13.629 -0.1573 -0.0910 -1.3737
  795MPD2    N111724   3.574   1.019  13.584  0.5956 -0.1393  0.0012
  795MPD2    H711725   3.572   0.923  13.551 -0.8588 -0.6572  1.6029
  796MPD2     C11726   3.802   2.443  15.626 -0.6826  0.3048 -0.7739
  796MPD2    C111727   3.838   2.528  15.729  0.1091  0.3622 -0.3231
  796MPD2    C211728   3.816   2.662  15.714  0.0499  0.5215 -0.2938
  796MPD2    C311729   3.751   2.712  15.604 -0.1670  0.2751  0.1218
  796MPD2    C411730   3.708   2.623  15.506 -0.4669 -0.0870  0.4801
  796MPD2    C511731   3.731   2.485  15.521 -0.6947 -0.3918  0.6039
  796MPD2     H11732   3.847   2.740  15.782 -0.4975 -0.2721  0.8524
  796MPD2    H111733   3.641   2.658  15.428  1.0880  1.3476 -0.2022
  796MPD2    H211734   3.812   2.335  15.627 -0.7138  0.2567 -5.0101
  796MPD2    H311735   3.698   2.410  15.450  1.4187  0.7267 -1.5858
  796MPD2     N11736   3.738   2.851  15.588 -1.0241  0.7642  0.0136
  796MPD2    H511737   3.762   2.901  15.673 -0.4492 -2.0774  1.4978
  796MPD2    N111738   3.902   2.471  15.844 -0.5740  0.3520  0.1716
  796MPD2    H711739   3.915   2.371  15.848  1.5885  0.6033 -0.4017
  797MPD2     C11740   0.327   2.154  16.988 -1.2269  0.0240 -0.1539
  797MPD2    C111741   0.429   2.241  16.977 -0.5991 -0.0596  0.1151
  797MPD2    C211742   0.417   2.361  16.910  1.1994  0.1559 -0.1544
  797MPD2    C311743   0.299   2.387  16.847  0.2128 -0.0268  0.0311
  797MPD2    C411744   0.192   2.305  16.856 -0.2935  0.2043  0.6175
  797MPD2    C511745   0.208   2.192  16.934 -0.3905 -0.1174 -0.3577
  797MPD2     H11746   0.502   2.425  16.889  1.9933 -0.8972 -0.1582
  797MPD2    H111747   0.092   2.325  16.819 -0.6428 -0.8206  1.0004
  797MPD2    H211748   0.331   2.062  17.044 -0.5170  1.0753  1.5493
  797MPD2    H311749   0.127   2.121  16.941 -0.2352 -0.2770 -0.1918
  797MPD2     N11750   0.268   2.491  16.759 -0.2566  0.2006 -0.2635
  797MPD2    H511751   0.178   2.502  16.713 -0.3502 -0.7479 -0.2942
  797MPD2    N111752   0.555   2.217  17.031 -0.0278 -0.4657 -0.2515
  797MPD2    H711753   0.620   2.295  17.019 -0.9239  0.7453  2.7461
  798MPD2     C11754   0.908   2.635  16.514 -0.3100 -0.4443 -0.1518
  798MPD2    C111755   0.812   2.639  16.608  0.8613 -0.6165  0.5316
  798MPD2    C211756   0.826   2.559  16.716  0.4324 -0.2653 -0.1387
  798MPD2    C311757   0.938   2.487  16.736  0.7370  0.8557  0.4295
  798MPD2    C411758   1.050   2.503  16.658 -0.3580  0.4129  0.7793
  798MPD2    C511759   1.029   2.572  16.540  0.3074 -0.4327  0.7651
  798MPD2     H11760   0.740   2.538  16.779  0.0893 -0.4963 -0.6850
  798MPD2    H111761   1.144   2.453  16.679 -0.3192  0.5591  0.9611
  798MPD2    H211762   0.895   2.669  16.412  0.2189 -1.1199 -0.4404
  798MPD2    H311763   1.113   2.587  16.473 -0.3628  3.1596  0.7124
  798MPD2     N11764   0.923   2.402  16.846 -0.6873 -0.0402 -0.0743
  798MPD2    H511765   0.840   2.419  16.902 -1.5905 -0.7555 -1.2202
  798MPD2    N111766   0.677   2.686  16.586 -0.1212 -0.6926  0.4581
  798MPD2    H711767   0.605   2.649  16.648 -1.2860 -1.0944 -1.1314
  799MPD2     C11768   3.988   3.426  14.783 -0.1047  0.2973  0.0307
  799MPD2    C111769   3.925   3.340  14.690 -0.4589  0.4346  0.8852
  799MPD2    C211770   3.831   3.391  14.603  0.1901 -0.4098  0.2021
  799MPD2    C311771   3.817   3.527  14.586 -0.2197 -0.1813 -0.8100
  799MPD2    C411772   3.869   3.614  14.687  0.4416 -0.0515 -0.5530
  799MPD2    C511773   3.954   3.561  14.782 -0.4556  0.2121  0.4587
  799MPD2     H11774   3.793   3.326  14.525 -0.6864 -0.6788  0.8582
  799MPD2    H111775   3.839   3.718  14.685  1.8047  0.3353 -0.3479
  799MPD2    H211776   4.059   3.400  14.861  0.7385  1.3251 -0.3946
  799MPD2    H311777   4.007   3.620  14.855 -0.2585 -1.7701  1.9389
  799MPD2     N11778   3.748   3.583  14.475 -0.5081 -1.0995 -0.3605
  799MPD2    H511779   3.736   3.683  14.479  2.2187 -0.8869  2.1274
  799MPD2    N111780   3.951   3.201  14.692  0.0178 -0.1106 -0.0197
  799MPD2    H711781   3.898   3.142  14.629 -0.3100  0.3417 -0.1678
  800MPD2     C11782   3.714   0.024  13.940  0.4651  0.8136 -0.5136
  800MPD2    C111783   3.841   4.715  13.901 -0.9643  0.6321 -0.2714
  800MPD2    C211784   3.856   4.659  13.774  0.5200  0.5081 -0.0743
  800MPD2    C311785   3.747   4.639  13.682  0.3927 -0.1339  0.2956
  800MPD2    C411786   3.626   4.663  13.737  0.5021 -0.7591 -0.1011
  800MPD2    C511787   3.615   0.003  13.854 -0.1231  0.2844 -0.9046
  800MPD2     H11788   3.957   4.648  13.737  1.1866 -1.1352  2.1827
  800MPD2    H111789   3.537   4.638  13.680  0.3956 -2.5133  0.8371
  800MPD2    H211790   3.690   0.057  14.041  1.8654 -3.0022  1.0793
  800MPD2    H311791   3.513   0.010  13.889 -0.7946 -1.5793 -2.4652
  800MPD2     N11792   3.764   4.579  13.556  0.5573  0.4347  0.8922
  800MPD2    H511793   3.859   4.551  13.534 -0.0050  0.3567 -1.4063
  800MPD2    N111794   3.948   0.035  13.978 -0.5979  0.2093  0.1388
  800MPD2    H711795   3.921   0.114  14.035 -0.3696 -0.3639  1.0330
  801MPD2     C11796   4.235   0.709  14.036  0.9195  0.1778  0.0840
  801MPD2    C111797   4.136   0.620  14.068 -0.4501  0.4469  0.0971
  801MPD2    C211798   4.012   0.664  14.108 -0.5323  0.4405 -0.1458
  801MPD2    C311799   3.980   0.801  14.105  0.2342 -0.6099 -0.6158
  801MPD2    C411800   4.078   0.893  14.082  0.1160  0.0452  0.5161
  801MPD2    C511801   4.199   0.842  14.044 -0.0601  0.4651 -0.7220
  801MPD2     H11802   3.946   0.589  14.150 -0.3860 -0.0973 -0.8829
  801MPD2    H111803   4.073   1.001  14.095  0.9042  0.1630 -0.1439
  801MPD2    H211804   4.341   0.686  14.035  1.0455  0.7915 -1.7092
  801MPD2    H311805   4.283   0.910  14.034 -0.4269  0.9088 -0.7170
  801MPD2     N11806   3.852   0.845  14.144 -0.5814 -0.1368 -0.0694
  801MPD2    H511807   3.845   0.936  14.187  2.1903  0.5338 -1.0387
  801MPD2    N111808   4.156   0.475  14.085 -0.4539  0.2418  0.0514
  801MPD2    H711809   4.078   0.422  14.123 -0.7971  1.5860  1.2066
  802MPD2     C11810   3.676   1.337  17.650  0.2735 -0.1870  0.4469
  802MPD2    C111811   3.727   1.211  17.683  0.4085 -0.4052 -0.0739
  802MPD2    C211812   3.679   1.102  17.630 -0.5759 -0.0051  1.1877
  802MPD2    C311813   3.600   1.113  17.517 -0.5258  0.0863  0.0001
  802MPD2    C411814   3.544   1.233  17.486  0.0403 -0.0291 -0.1170
  802MPD2    C511815   3.575   1.344  17.556  0.4222  0.4937 -0.6083
  802MPD2     H11816   3.740   1.014  17.645 -1.0656 -0.2813  1.5789
  802MPD2    H111817   3.463   1.246  17.416 -0.2082  1.6328  0.4847
  802MPD2    H211818   3.707   1.432  17.690  1.4685 -0.1310 -0.5945
  802MPD2    H311819   3.524   1.433  17.521  0.0498 -0.0701 -1.4892
  802MPD2     N11820   3.575   1.012  17.419  1.0327  0.1045 -0.4181
  802MPD2    H511821   3.520   1.046  17.341 -3.9355  0.5723  3.3151
  802MPD2    N111822   3.824   1.197   0.087  0.0643  0.4188 -0.0301
  802MPD2    H711823   3.854   1.105   0.118  0.6453  0.4301 -0.5689
  803MPD2     C11824   0.240   4.314  11.737 -0.0389  0.1448 -0.2069
  803MPD2    C111825   0.317   4.326  11.845 -0.6792 -0.5312 -1.0575
  803MPD2    C211826   0.297   4.251  11.959 -0.3030  0.0350  0.0780
  803MPD2    C311827   0.195   4.152  11.957 -0.5850  0.3102  0.2681
  803MPD2    C411828   0.107   4.152  11.854  0.4862  0.4962  0.4008
  803MPD2    C511829   0.131   4.230  11.742 -0.5491  0.5733  0.3686
  803MPD2     H11830   0.365   4.264  12.043  0.8922  0.9968 -1.0309
  803MPD2    H111831   0.027   4.080  11.851 -0.6724  1.8274 -0.7610
  803MPD2    H211832   0.243   4.365  11.641 -0.7343  1.4984  0.5087
  803MPD2    H311833   0.063   4.225  11.657  1.9491  2.1135 -1.7306
  803MPD2     N11834   0.181   4.061  12.062 -0.2787 -0.6381 -0.2231
  803MPD2    H511835   0.090   4.022  12.082 -0.5720  0.9817  1.6111
  803MPD2    N111836   0.442   4.401  11.848 -0.7546 -0.3470  0.2019
  803MPD2    H711837   0.496   4.417  11.933 -1.9676 -1.3863  1.1633
  804MPD2     C11838   4.298   0.636  16.939 -0.0329 -0.1379  0.5453
  804MPD2    C111839   4.320   0.632  17.076  0.5163 -0.4956  0.3466
  804MPD2    C211840   4.416   0.709  17.131  0.0624 -0.5305  0.2236
  804MPD2    C311841   4.496   0.793  17.057  0.4152 -0.9184  0.3030
  804MPD2    C411842   4.471   0.802  16.919 -0.1169 -0.4258  0.2828
  804MPD2    C511843   4.378   0.723  16.865 -0.0632 -0.2929 -0.0078
  804MPD2     H11844   4.419   0.712  17.239 -0.9002 -2.4560  0.3026
  804MPD2    H111845   4.531   0.854  16.845 -1.6471  0.5185 -0.2894
  804MPD2    H211846   4.212   0.593  16.887 -0.4214  0.9063  0.3323
  804MPD2    H311847   4.363   0.730  16.758  1.6466 -1.7958 -0.3401
  804MPD2     N11848   4.604   0.862  17.118 -0.3411  0.0239 -0.4100
  804MPD2    H511849   4.603   0.878  17.218  0.0223  0.3666 -0.4612
  804MPD2    N111850   4.257   0.541  17.164  0.0738 -0.3710  0.0066
  804MPD2    H711851   4.281   0.531  17.262 -1.6135  0.5192  0.5097
  805MPD2     C11852   4.029   3.180  15.363  1.0514 -0.1276 -0.1190
  805MPD2    C111853   3.965   3.298  15.348 -0.1609  0.1554 -0.0567
  805MPD2    C211854   3.963   3.393  15.453 -0.5688 -0.1991 -0.1630
  805MPD2    C311855   4.053   3.380  15.556 -0.3659 -0.1555  0.1141
  805MPD2    C411856   4.124   3.264  15.568  0.2599  0.1722  0.1440
  805MPD2    C511857   4.111   3.163  15.477  0.1147 -0.0627 -0.0184
  805MPD2     H11858   3.895   3.477  15.448  1.3641  1.5676  2.7492
  805MPD2    H111859   4.201   3.258  15.645 -0.9411  1.4975  1.4481
  805MPD2    H211860   4.017   3.092  15.301  1.9857  0.2216 -0.7939
  805MPD2    H311861   4.159   3.067  15.493  0.3583  0.2292  0.9627
  805MPD2     N11862   4.068   3.484  15.649  0.1853 -0.7112  0.8573
  805MPD2    H511863   4.014   3.568  15.629  0.4077 -0.5476  0.9497
  805MPD2    N111864   3.874   3.298  15.239 -0.4835  0.5220  0.2581
  805MPD2    H711865   3.866   3.221  15.173  1.1131  0.4140  0.1986
  806MPD2     C11866   4.683   3.053   1.269 -0.2461  0.3637 -0.2995
  806MPD2    C111867   0.042   2.962   1.216  1.1165 -0.8680 -0.8465
  806MPD2    C211868   0.052   2.947   1.071 -0.6344  0.1789 -0.0007
  806MPD2    C311869   4.694   3.027   0.990  0.2675 -0.2288  0.1432
  806MPD2    C411870   4.613   3.120   1.051 -0.2812 -0.4864 -0.1595
  806MPD2    C511871   4.606   3.135   1.186 -0.2425  0.1051 -0.2655
  806MPD2     H11872   0.113   2.870   1.027 -0.7787 -0.7919  1.5232
  806MPD2    H111873   4.553   3.194   0.999 -1.3838 -1.7555 -0.6932
  806MPD2    H211874   4.680   3.059   1.377 -1.8420  0.6965 -0.3618
  806MPD2    H311875   4.539   3.211   1.224  1.7373  2.8569 -2.3414
  806MPD2     N11876   4.717   3.010   0.851 -0.0774 -0.5045 -0.1378
  806MPD2    H511877   0.079   2.963   0.827  1.0367  0.5845  1.7395
  806MPD2    N111878   0.104   2.876   1.307  0.0731 -0.1352 -0.2622
  806MPD2    H711879   0.064   2.870   1.400  0.6364 -1.7247 -0.1280
  807MPD2     C11880   4.555   2.316   1.738 -0.5734  0.1997  0.5950
  807MPD2    C111881   4.658   2.254   1.680  0.4559  0.1936  0.1666
  807MPD2    C211882   4.667   2.116   1.671  0.3679  0.0269 -0.3731
  807MPD2    C311883   4.557   2.044   1.721 -0.6591  0.0483 -0.1845
  807MPD2    C411884   4.453   2.106   1.782 -0.2868  0.3064  0.2982
  807MPD2    C511885   4.450   2.244   1.780  0.4707  0.2099 -0.0470
  807MPD2     H11886   0.025   2.068   1.619  0.7785 -0.4965  0.7780
  807MPD2    H111887   4.373   2.050   1.829 -1.4178  0.7564 -1.0811
  807MPD2    H211888   4.565   2.417   1.776 -0.7383  0.1711  0.7163
  807MPD2    H311889   4.369   2.294   1.832  0.1922  0.3092 -0.5775
  807MPD2     N11890   4.567   1.901   1.711  0.4144 -0.1204 -0.1514
  807MPD2    H511891   4.638   1.858   1.654  1.0097  0.0004  0.4950
  807MPD2    N111892   0.044   2.328   1.625  0.6831 -0.2043 -0.0662
  807MPD2    H711893   0.123   2.274   1.592  0.1237 -1.5763  0.8077
  808MPD2     C11894   4.393   4.289   9.351 -0.9954  1.2759 -0.6827
  808MPD2    C111895   4.491   4.270   9.455  0.2231 -0.1592  0.2374
  808MPD2    C211896   4.601   4.353   9.467 -0.0895 -0.2845 -0.2384
  808MPD2    C311897   4.624   4.445   9.369  0.0955  1.0007  0.2931
  808MPD2    C411898   4.528   4.470   9.275 -0.5420 -0.5729  0.0795
  808MPD2    C511899   4.415   4.397   9.262 -0.3645  0.2312 -0.5502
  808MPD2     H11900   4.670   4.344   9.550  4.1198 -0.6401 -3.8389
  808MPD2    H111901   4.546   4.554   9.209  1.0778  0.1249  1.3767
  808MPD2    H211902   4.303   4.231   9.340 -0.1194 -0.0459 -0.8705
  808MPD2    H311903   4.334   4.426   9.196 -0.3290  1.9329  0.1325
  808MPD2     N11904   0.006   4.534   9.375 -0.3548  0.1624 -0.2556
  808MPD2    H511905   0.010   4.619   9.319  1.8636  1.1039  1.3557
  808MPD2    N111906   4.473   4.175   9.560  0.0297  0.7360 -0.2403
  808MPD2    H711907   4.545   4.187   9.630  0.7682  0.2001 -0.9140
  809MPD2     C11908   1.069   4.473   9.533 -0.2600 -0.1142  0.4309
  809MPD2    C111909   0.968   4.447   9.618 -0.1874  0.0687  0.5632
  809MPD2    C211910   0.843   4.494   9.586 -0.3592 -0.0048 -0.4315
  809MPD2    C311911   0.817   4.578   9.479  0.6386  0.2051 -0.6969
  809MPD2    C411912   0.921   4.623   9.402 -0.5753  0.4961  0.3308
  809MPD2    C511913   1.045   4.562   9.428  0.2766  0.5145  0.4173
  809MPD2     H11914   0.770   4.476   9.664  1.6975  1.9538  1.9308
  809MPD2    H111915   0.891   4.691   9.324  0.9139 -1.8498 -2.2792
  809MPD2    H211916   1.173   4.448   9.554 -0.5298 -1.1652  0.4934
  809MPD2    H311917   1.129   4.582   9.362  0.8476  2.2716  1.6732
  809MPD2     N11918   0.687   4.622   9.453 -0.3713 -0.0826  0.6680
  809MPD2    H511919   0.683   4.709   9.400  1.3802 -1.1605 -1.2528
  809MPD2    N111920   0.979   4.386   9.741 -0.3875 -0.4956 -0.4366
  809MPD2    H711921   0.892   4.390   9.793  0.5639 -0.7790  1.1839
  810MPD2     C11922   3.942   0.126  10.387  0.0887 -0.3913  0.3844
  810MPD2    C111923   3.997   0.002  10.400  0.4808  0.1949 -0.0234
  810MPD2    C211924   3.987   4.663  10.529  0.1188  0.3627  0.3782
  810MPD2    C311925   3.928   0.008  10.633 -0.3701  0.0651 -0.6666
  810MPD2    C411926   3.879   0.132  10.615 -0.2464  0.3924 -0.7866
  810MPD2    C511927   3.876   0.194  10.494 -0.2920 -0.3522  0.1481
  810MPD2     H11928   4.025   4.562  10.539 -2.5212 -0.6370  0.4407
  810MPD2    H111929   3.853   0.190  10.703 -1.1468  0.3366 -1.0110
  810MPD2    H211930   3.950   0.168  10.288 -3.6287  1.2880  0.7880
  810MPD2    H311931   3.840   0.296  10.480 -0.7871 -0.6652 -0.9115
  810MPD2     N11932   3.917   4.674  10.760  0.3031 -0.3414 -0.0278
  810MPD2    H511933   3.861   4.715  10.834  1.0299 -0.0573  0.3622
  810MPD2    N111934   4.056   4.674  10.284 -0.1739  0.9126 -0.4449
  810MPD2    H711935   4.041   0.005  10.201 -0.5893  1.2203 -0.1633
  811MPD2     C11936   3.773   4.443   9.550 -0.2159 -0.2063  0.2630
  811MPD2    C111937   3.821   4.552   9.624 -0.6064 -0.9756  0.1551
  811MPD2    C211938   3.753   4.672   9.617 -0.1378  0.0687  0.1889
  811MPD2    C311939   3.648   4.696   9.525  0.6546  0.2601  0.4989
  811MPD2    C411940   3.602   4.585   9.452  0.3800  0.0546 -0.1433
  811MPD2    C511941   3.667   4.464   9.460 -0.0723  0.5161  0.3669
  811MPD2     H11942   3.789   0.031   9.676  0.3265 -0.8064  1.1541
  811MPD2    H111943   3.517   4.604   9.387 -2.1178 -0.1691  3.1053
  811MPD2    H211944   3.822   4.347   9.550 -0.0127 -0.1075 -1.7195
  811MPD2    H311945   3.630   4.380   9.402 -1.1926  1.0661  0.2685
  811MPD2     N11946   3.586   0.096   9.533  0.7092 -0.0061 -0.3726
  811MPD2    H511947   3.624   0.171   9.591  0.1936  0.9150 -1.2212
  811MPD2    N111948   3.926   4.519   9.720  0.0569  0.0248 -0.0862
  811MPD2    H711949   3.953   4.421   9.720  0.7708  0.2223  2.8714
  812MPD2     C11950   3.030   4.158  11.672 -0.0759  0.9881  0.0678
  812MPD2    C111951   2.944   4.164  11.785 -0.4109 -0.3474 -0.1647
  812MPD2    C211952   2.988   4.108  11.900 -0.9904  0.2337 -0.2217
  812MPD2    C311953   3.112   4.053  11.922 -0.3420 -0.5635  0.4077
  812MPD2    C411954   3.204   4.065  11.814  0.4146 -0.1403 -0.9282
  812MPD2    C511955   3.152   4.094  11.693 -0.0793 -0.5117 -0.1811
  812MPD2     H11956   2.925   4.127  11.986  1.7594 -1.2488  2.1253
  812MPD2    H111957   3.302   4.021  11.808  0.9268  0.9458 -0.4903
  812MPD2    H211958   3.013   4.199  11.573 -0.8775 -0.4449 -0.3829
  812MPD2    H311959   3.227   4.085  11.616  1.6325  1.3706  1.2698
  812MPD2     N11960   3.137   3.980  12.044 -0.2062  0.2808 -0.2866
  812MPD2    H511961   3.059   3.989  12.109 -1.2523 -3.0301 -1.0907
  812MPD2    N111962   2.826   4.244  11.755 -0.5814 -0.6634  0.2579
  812MPD2    H711963   2.822   4.288  11.663  0.7519  1.5623  1.2763
  813MPD2     C11964   2.056   1.183  12.712 -0.5390 -0.9670 -0.6423
  813MPD2    C111965   2.103   1.312  12.702 -0.0697  0.2014  0.3770
  813MPD2    C211966   2.043   1.401  12.784 -0.1770 -0.0009 -0.3512
  813MPD2    C311967   1.957   1.363  12.879 -0.3983 -0.4202 -0.5017
  813MPD2    C411968   1.915   1.233  12.897  0.4011 -0.1921 -0.0199
  813MPD2    C511969   1.961   1.147  12.798  0.5435 -0.5106  0.2280
  813MPD2     H11970   2.065   1.505  12.765  0.7452 -0.2789 -0.7768
  813MPD2    H111971   1.838   1.212  12.970  0.7377  0.1465  0.4275
  813MPD2    H211972   2.101   1.106  12.649 -0.7653  0.1034 -2.1094
  813MPD2    H311973   1.933   1.043  12.807  2.7478 -1.2009 -0.9404
  813MPD2     N11974   1.906   1.460  12.972  0.0338  0.0233 -0.1145
  813MPD2    H511975   1.936   1.554  12.946 -1.4713  0.6211  0.3479
  813MPD2    N111976   2.216   1.345  12.623 -0.3193  0.6148 -0.9467
  813MPD2    H711977   2.224   1.281  12.545 -2.0905 -0.2066 -0.4618
  814MPD2     C11978   3.130   2.459  12.148 -0.4604 -0.0310 -0.6995
  814MPD2    C111979   3.032   2.542  12.107 -0.0133 -0.0584 -0.0318
  814MPD2    C211980   3.039   2.678  12.128 -0.0407  0.0834 -0.3175
  814MPD2    C311981   3.151   2.737  12.181  0.7261 -0.8185 -0.2764
  814MPD2    C411982   3.249   2.652  12.219 -0.0088 -0.3364  0.0625
  814MPD2    C511983   3.246   2.517  12.196  0.3418 -0.0443 -0.0556
  814MPD2     H11984   2.949   2.734  12.106  1.4894  1.5685 -2.8249
  814MPD2    H111985   3.340   2.688  12.267  0.3440  0.6276 -1.3129
  814MPD2    H211986   3.136   2.351  12.136 -2.0496 -0.1359 -0.4997
  814MPD2    H311987   3.324   2.454  12.235  1.4026  1.1011 -0.3280
  814MPD2     N11988   3.163   2.875  12.220 -0.1613 -0.4202  0.2997
  814MPD2    H511989   3.247   2.909  12.266 -0.1308  0.8745 -0.7252
  814MPD2    N111990   2.912   2.495  12.051 -0.3574  0.4297 -0.3004
  814MPD2    H711991   2.840   2.557  12.017 -0.1309  0.3898 -0.8571
  815MPD2     C11992   2.582   0.862  11.863  0.4519 -0.2817  0.3220
  815MPD2    C111993   2.498   0.786  11.773 -0.3926 -0.0340  0.2836
  815MPD2    C211994   2.374   0.732  11.813  0.3618 -0.5748 -1.2973
  815MPD2    C311995   2.340   0.750  11.940 -0.7051 -0.9257 -0.3284
  815MPD2    C411996   2.416   0.824  12.029 -0.6614  0.4974  0.0656
  815MPD2    C511997   2.538   0.877  11.996 -0.1441  0.2575  0.3096
  815MPD2     H11998   2.320   0.671  11.742 -1.1972 -1.1332  0.3515
  815MPD2    H111999   2.373   0.839  12.127  0.1217 -0.0661  0.4929
  815MPD2    H212000   2.676   0.907  11.834  0.2723  0.7081  1.2719
  815MPD2    H312001   2.593   0.935  12.069  1.6241 -0.6511 -0.2988
  815MPD2     N12002   2.210   0.702  11.970 -0.2453  0.0688  0.3716
  815MPD2    H512003   2.149   0.670  11.896 -0.0288  1.3180 -0.3496
  815MPD2    N112004   2.545   0.771  11.645  0.1266 -0.5969 -0.2178
  815MPD2    H712005   2.641   0.792  11.620  0.8521 -4.3942 -0.6720
  816MPD2     C12006   3.757   0.582   0.211  0.8478 -0.0604 -0.4309
  816MPD2    C112007   3.654   0.663   0.163 -0.2582  0.3910  0.5350
  816MPD2    C212008   3.581   0.623   0.058 -0.0487  0.1169 -0.2866
  816MPD2    C312009   3.612   0.498  17.696 -0.4588 -0.2737 -0.0123
  816MPD2    C412010   3.718   0.417   0.040 -0.3731 -0.8394  0.2807
  816MPD2    C512011   3.791   0.463   0.146  0.2468  0.1940  0.4420
  816MPD2     H12012   3.493   0.679   0.026  0.0901 -0.0988 -1.0571
  816MPD2    H112013   3.745   0.325  17.690 -0.0682  0.0065 -1.1394
  816MPD2    H212014   3.806   0.606   0.305 -0.5205  0.1829  0.2142
  816MPD2    H312015   3.873   0.401   0.181 -2.3995 -3.0370  0.9225
  816MPD2     N12016   3.533   0.462  17.584 -0.5177 -0.3423  0.0504
  816MPD2    H512017   3.467   0.533  17.554 -0.1126  0.2772  0.6087
  816MPD2    N112018   3.636   0.780   0.237  0.1324  0.2294  0.1020
  816MPD2    H712019   3.707   0.799   0.306 -0.9545 -0.8455  1.4981
  817MPD2     C12020   2.028   1.938   9.973 -0.5496 -0.3107 -0.0144
  817MPD2    C112021   2.022   1.911   9.834  0.4652 -0.9952  0.4353
  817MPD2    C212022   1.932   1.989   9.755  0.9654  0.4589 -0.3241
  817MPD2    C312023   1.846   2.082   9.805  0.9996  0.5606  0.2333
  817MPD2    C412024   1.870   2.111   9.941  0.0846 -0.7244 -0.5160
  817MPD2    C512025   1.948   2.036  10.020  0.0288 -0.5774 -0.1459
  817MPD2     H12026   1.926   1.962   9.650  1.6601  0.1931 -0.2937
  817MPD2    H112027   1.815   2.194   9.982  2.6013 -0.0698  1.5193
  817MPD2    H212028   2.091   1.881  10.041 -0.5405  0.5925  0.7252
  817MPD2    H312029   1.958   2.063  10.124 -1.2471 -0.4046 -0.0726
  817MPD2     N12030   1.755   2.150   9.717 -0.4172 -0.5914 -0.0252
  817MPD2    H512031   1.730   2.096   9.634 -0.3871  0.2455 -0.5720
  817MPD2    N112032   2.088   1.814   9.771  0.3621 -0.0888  0.6885
  817MPD2    H712033   2.093   1.821   9.670 -0.6405  0.0306  0.6454
  818MPD2     C12034   1.398   2.007  10.015 -0.0601 -0.7029  0.4980
  818MPD2    C112035   1.303   1.908   9.992  0.0854 -0.1968  0.2649
  818MPD2    C212036   1.346   1.778   9.977 -0.0923 -0.2421 -0.1649
  818MPD2    C312037   1.483   1.739   9.981  0.5919 -0.0360 -0.5719
  818MPD2    C412038   1.575   1.839  10.006  0.0910 -0.1663 -0.6613
  818MPD2    C512039   1.527   1.962  10.043 -0.2507 -0.0319 -0.0905
  818MPD2     H12040   1.266   1.707   9.960  1.8722 -2.9176  1.9374
  818MPD2    H112041   1.682   1.825  10.005 -0.0883 -1.5113 -0.8531
  818MPD2    H212042   1.373   2.112  10.021 -1.7596 -1.0708 -0.0201
  818MPD2    H312043   1.609   2.030  10.061  0.0856 -0.0308 -1.6731
  818MPD2     N12044   1.527   1.614   9.935 -0.2241  0.0135  0.0677
  818MPD2    H512045   1.624   1.586   9.948 -0.6035 -1.5302 -0.3797
  818MPD2    N112046   1.164   1.933   9.973  0.0031 -0.6103 -0.1159
  818MPD2    H712047   1.111   1.847   9.963 -0.7760 -0.2063  0.4796
  819MPD2     C12048   4.123   2.920  15.827 -0.1225  0.5096 -0.2774
  819MPD2    C112049   4.207   2.832  15.756 -0.3964  0.3694 -0.0874
  819MPD2    C212050   4.346   2.842  15.779  0.5018  0.5830  0.2158
  819MPD2    C312051   4.394   2.928  15.874 -0.4215  0.0291 -0.5327
  819MPD2    C412052   4.311   3.025  15.930  0.0765 -0.3641  0.7276
  819MPD2    C512053   4.178   3.017  15.905  0.2922 -1.1988  0.1056
  819MPD2     H12054   4.410   2.773  15.726 -0.7235 -0.0582 -0.3984
  819MPD2    H112055   4.351   3.099  15.998 -0.9273  1.4126 -0.5865
  819MPD2    H212056   4.017   2.927  15.806  0.0690 -0.7044 -1.6655
  819MPD2    H312057   4.108   3.081  15.957  0.8317 -0.3699 -0.1773
  819MPD2     N12058   4.531   2.948  15.877  0.1256  0.3326  0.0533
  819MPD2    H512059   4.586   2.892  15.812 -0.3593 -0.6080  0.4440
  819MPD2    N112060   4.152   2.744  15.661  0.2022  0.2801 -0.2770
  819MPD2    H712061   4.056   2.749  15.630 -0.5848  2.3689  2.4911
  820MPD2     C12062   3.527   2.752  14.939  0.1822  0.1952 -0.3688
  820MPD2    C112063   3.625   2.834  14.990  0.1929  0.2250  0.7784
  820MPD2    C212064   3.730   2.780  15.070 -0.9273  0.3596  0.0932
  820MPD2    C312065   3.736   2.644  15.101 -0.0887 -0.9428  0.0601
  820MPD2    C412066   3.630   2.565  15.051 -0.0784 -0.2337  0.0784
  820MPD2    C512067   3.534   2.618  14.969  0.1972  0.1369 -0.0144
  820MPD2     H12068   3.806   2.847  15.108 -0.2599  0.9289 -2.2949
  820MPD2    H112069   3.628   2.456  15.048  0.1644 -0.1723 -2.9347
  820MPD2    H212070   3.450   2.792  14.874  0.4304  0.7505 -0.3223
  820MPD2    H312071   3.457   2.555  14.928  1.8101 -1.5267 -0.4702
  820MPD2     N12072   3.848   2.576  15.163  0.6327  0.0989 -0.2299
  820MPD2    H512073   3.839   2.477  15.186  1.1808  0.1436  0.1727
  820MPD2    N112074   3.619   2.970  14.944 -0.5559 -0.3931  0.0358
  820MPD2    H712075   3.534   2.995  14.895 -0.5853 -1.8451 -0.6406
  821MPD2     C12076   3.863   0.160  12.808  0.0020 -0.0486 -0.3792
  821MPD2    C112077   3.958   0.175  12.904  0.1231  0.2138  0.5515
  821MPD2    C212078   4.080   0.230  12.874 -0.2065 -0.4353 -0.0305
  821MPD2    C312079   4.113   0.258  12.741 -0.0248 -0.3526 -0.2843
  821MPD2    C412080   4.023   0.229  12.646 -0.5301  0.1917 -0.1534
  821MPD2    C512081   3.897   0.189  12.680  0.3337  0.1854 -0.8243
  821MPD2     H12082   4.152   0.239  12.954  0.2216  0.5242 -0.5229
  821MPD2    H112083   4.038   0.249  12.541  0.6847 -3.1425 -0.6108
  821MPD2    H212084   3.764   0.119  12.825  0.3120 -0.9495 -0.7631
  821MPD2    H312085   3.827   0.182  12.598 -0.5217 -1.4327  0.0370
  821MPD2     N12086   4.242   0.301  12.699  0.0109 -0.1790  0.4249
  821MPD2    H512087   4.273   0.277  12.605 -0.3017  0.5884  0.1205
  821MPD2    N112088   3.937   0.136  13.034 -0.0254 -0.3666  0.1289
  821MPD2    H712089   4.014   0.123  13.099  0.3271  3.5971  0.4702
  822MPD2     C12090   0.284   4.601  15.777 -0.4516 -0.5988  0.1138
  822MPD2    C112091   0.299   4.589  15.916  0.3801 -0.0633 -0.2549
  822MPD2    C212092   0.205   4.649  15.991 -0.5187 -0.5373 -0.1452
  822MPD2    C312093   0.099   4.722  15.943  0.1619 -0.2152  0.3006
  822MPD2    C412094   0.090   0.005  15.808  0.6329  0.3973 -0.3551
  822MPD2    C512095   0.178   4.672  15.724  0.0282  0.4413 -0.7789
  822MPD2     H12096   0.221   4.654  16.098 -0.3234  2.4146 -0.3206
  822MPD2    H112097   0.007   0.060  15.765 -0.6652 -1.0183  0.3168
  822MPD2    H212098   0.355   4.563  15.705 -0.9679  1.7049 -1.5884
  822MPD2    H312099   0.175   4.678  15.616  0.4576 -2.0264 -0.9225
  822MPD2     N12100   0.011   0.067  16.027 -0.0178 -0.4570 -0.1393
  822MPD2    H512101   0.018   0.040  16.125  2.5767  0.8970  0.0697
  822MPD2    N112102   0.410   4.524  15.984 -0.7895 -0.3439 -0.2343
  822MPD2    H712103   0.405   4.515  16.085  0.3062  0.9693 -0.0514
  823MPD2     C12104   4.438   0.340  16.789 -0.9286  0.1863  0.4018
  823MPD2    C112105   4.452   0.244  16.691  0.4832 -0.0389  0.4645
  823MPD2    C212106   4.476   0.116  16.734  0.1672  0.0976 -0.4792
  823MPD2    C312107   4.479   0.079  16.866 -0.2234  0.0483 -0.8007
  823MPD2    C412108   4.434   0.173  16.962 -0.2206 -0.6570  0.3242
  823MPD2    C512109   4.424   0.304  16.922 -0.7553 -0.6483 -0.3598
  823MPD2     H12110   4.502   0.046  16.655 -1.0977 -0.7837 -0.1119
  823MPD2    H112111   4.412   0.162  17.067  1.0421  2.4906  0.9320
  823MPD2    H212112   4.426   0.445  16.763 -0.9177  0.8903  3.2908
  823MPD2    H312113   4.411   0.377  17.001 -0.7822  1.3550 -2.2271
  823MPD2     N12114   4.519   4.675  16.917 -0.2770 -0.3379 -0.3777
  823MPD2    H512115   4.501   4.661  17.015  1.3268  0.7431  0.0673
  823MPD2    N112116   4.472   0.290  16.551  0.0674 -0.1679  0.2587
  823MPD2    H712117   4.505   0.386  16.547  1.8831 -0.8305 -0.5910
  824MPD2     C12118   0.515   3.753  15.996  0.3354  0.0944  0.5007
  824MPD2    C112119   0.626   3.823  15.967 -1.3006  0.0450 -0.0345
  824MPD2    C212120   0.707   3.772  15.863  0.5625  0.1087  0.4864
  824MPD2    C312121   0.681   3.657  15.793 -0.4698  0.0472 -0.1796
  824MPD2    C412122   0.567   3.590  15.825 -0.2904  1.0730 -0.5444
  824MPD2    C512123   0.498   3.635  15.932  0.5711  0.6917 -0.2700
  824MPD2     H12124   0.801   3.823  15.848  0.4031 -0.1658 -1.4476
  824MPD2    H112125   0.540   3.494  15.782  3.0251 -0.1533  0.1351
  824MPD2    H212126   0.441   3.785  16.068 -0.7452  0.2341 -0.6800
  824MPD2    H312127   0.407   3.582  15.960 -0.6115  2.4391 -0.7886
  824MPD2     N12128   0.785   3.598  15.712  0.3500  0.3367 -0.0225
  824MPD2    H512129   0.874   3.647  15.717 -0.2363  1.6577 -2.6628
  824MPD2    N112130   0.643   3.951  16.019 -0.3825 -0.2793 -0.0236
  824MPD2    H712131   0.583   3.968  16.099 -1.0867  0.0074 -0.6042
  825MPD2     C12132   1.528   3.656  15.289 -0.3064  0.1030  0.7353
  825MPD2    C112133   1.411   3.695  15.343 -0.2824  0.7891  0.9377
  825MPD2    C212134   1.386   3.828  15.337  0.6879  1.1567 -0.7160
  825MPD2    C312135   1.463   3.925  15.262 -0.5931  0.1982  0.1623
  825MPD2    C412136   1.575   3.875  15.201 -0.0205  0.1767 -0.2165
  825MPD2    C512137   1.607   3.742  15.214  0.0556  0.1107 -0.8986
  825MPD2     H12138   1.307   3.866  15.399  1.2241 -1.3317  1.4747
  825MPD2    H112139   1.632   3.945  15.142  3.1043  0.1919  2.8157
  825MPD2    H212140   1.560   3.552  15.291  1.4294  0.6715  2.0909
  825MPD2    H312141   1.686   3.698  15.154 -0.3974 -2.3156  0.2965
  825MPD2     N12142   1.427   4.069  15.249  0.2573  0.0313  0.1716
  825MPD2    H512143   1.474   4.132  15.184 -0.9903 -2.1201 -2.7902
  825MPD2    N112144   1.338   3.596  15.415  0.0336  0.1225  0.2391
  825MPD2    H712145   1.381   3.506  15.438 -1.6391 -0.7528 -0.1043
  826MPD2     C12146   0.449   3.987  13.373  0.2099  0.3717 -0.7351
  826MPD2    C112147   0.547   4.065  13.427 -0.3977 -1.0925 -0.1300
  826MPD2    C212148   0.511   4.171  13.506 -0.3950  0.1067 -0.3796
  826MPD2    C312149   0.379   4.208  13.520  0.6715  0.5064  0.7263
  826MPD2    C412150   0.281   4.128  13.463 -0.5752 -0.0581 -0.2524
  826MPD2    C512151   0.323   4.017  13.395  0.0867  0.3023  0.3292
  826MPD2     H12152   0.585   4.233  13.556 -0.2268 -1.3196  1.1644
  826MPD2    H112153   0.174   4.139  13.478 -1.0164 -1.2943 -2.5511
  826MPD2    H212154   0.470   3.901  13.310 -0.4392 -0.4312  0.1348
  826MPD2    H312155   0.244   3.957  13.351 -1.3834  0.9852  2.0324
  826MPD2     N12156   0.341   4.317  13.599  0.5249 -0.0544 -0.2860
  826MPD2    H512157   0.419   4.350  13.655 -0.1132 -0.8439  1.0664
  826MPD2    N112158   0.679   4.037  13.382  0.1445  0.2178 -0.3585
  826MPD2    H712159   0.702   3.967  13.313  1.8832  0.0957  0.3424
  827MPD2     C12160   1.548   0.687   9.964  0.1293 -0.1507 -0.3609
  827MPD2    C112161   1.625   0.570   9.988 -0.2690 -0.7938  0.0717
  827MPD2    C212162   1.628   0.485   9.881 -0.0388  0.5604 -0.4893
  827MPD2    C312163   1.553   0.498   9.764 -0.1110  0.0051 -0.8388
  827MPD2    C412164   1.467   0.610   9.752 -0.1189  0.1696  0.3261
  827MPD2    C512165   1.459   0.700   9.853  0.4222 -0.8329 -0.0472
  827MPD2     H12166   1.694   0.399   9.882 -0.8377 -0.0675 -1.0222
  827MPD2    H112167   1.398   0.626   9.669  0.2907 -4.4134 -0.9136
  827MPD2    H212168   1.562   0.772  10.030  0.1774  0.5665 -1.3041
  827MPD2    H312169   1.404   0.792   9.833  0.6303 -0.6393  0.2583
  827MPD2     N12170   1.565   0.401   9.665  0.4186  0.0451 -0.6131
  827MPD2    H512171   1.641   0.334   9.675 -0.5401 -0.6525  1.8456
  827MPD2    N112172   1.715   0.569  10.099  0.1130 -0.1343  0.3832
  827MPD2    H712173   1.721   0.657  10.148  1.4692  0.2257 -0.4314
  828MPD2     C12174   0.240   0.331  12.529  0.1542 -0.0247  0.3709
  828MPD2    C112175   0.239   0.300  12.397  0.6219  0.0181 -0.5005
  828MPD2    C212176   0.363   0.287  12.327 -0.6339  0.1218 -0.7142
  828MPD2    C312177   0.481   0.316  12.394  0.4982  0.3352  0.5569
  828MPD2    C412178   0.480   0.340  12.533 -0.0871  0.2887  0.2813
  828MPD2    C512179   0.357   0.340  12.600 -0.4290  0.2632 -0.2385
  828MPD2     H12180   0.363   0.261  12.222 -0.0627 -2.3798 -0.0862
  828MPD2    H112181   0.573   0.348  12.588 -0.0094  1.4461 -0.0231
  828MPD2    H212182   0.153   0.346  12.591  0.4597 -0.0387  0.8027
  828MPD2    H312183   0.351   0.368  12.704  2.3282 -1.2710  0.3284
  828MPD2     N12184   0.611   0.313  12.330 -0.8101  0.0377  0.0843
  828MPD2    H512185   0.694   0.329  12.387 -0.0061 -0.2895 -0.9827
  828MPD2    N112186   0.120   0.280  12.328  0.3430  0.2854 -0.9912
  828MPD2    H712187   0.134   0.269  12.228 -0.4320  1.4140 -1.2375
  829MPD2     C12188   0.167   0.324  11.466  0.4264  0.1369 -0.1440
  829MPD2    C112189   0.040   0.301  11.477 -0.0421 -0.7183  0.6370
  829MPD2    C212190   4.707   0.288  11.606 -0.2882  0.5451 -0.2842
  829MPD2    C312191   0.045   0.324  11.722 -0.3535  0.0986 -1.0357
  829MPD2    C412192   0.176   0.360  11.706 -0.0417  0.8717 -0.5444
  829MPD2    C512193   0.240   0.354  11.581  0.4379 -0.5460  0.4138
  829MPD2     H12194   4.601   0.271  11.618 -0.3207 -0.4826 -2.0451
  829MPD2    H112195   0.239   0.387  11.790 -0.1762  1.6505 -0.6906
  829MPD2    H212196   0.217   0.336  11.371 -0.1803 -0.3759 -0.5256
  829MPD2    H312197   0.346   0.376  11.576  0.7322 -2.7353 -3.1591
  829MPD2     N12198   4.711   0.313  11.851  0.0110  0.4521  0.4811
  829MPD2    H512199   0.039   0.345  11.931  0.0176 -1.5720  1.3049
  829MPD2    N112200   4.692   0.291  11.359  0.4828  0.6341  0.3516
  829MPD2    H712201   0.021   0.282  11.273 -0.3850  2.1422 -0.3442
  830MPD2     C12202   0.546   3.008  15.462 -0.8390  0.6987  0.5884
  830MPD2    C112203   0.418   3.060  15.475  0.1483  0.3124  0.7165
  830MPD2    C212204   0.383   3.148  15.378 -0.3977 -0.3946  0.2447
  830MPD2    C312205   0.465   3.185  15.271  0.0753  0.3454  0.6117
  830MPD2    C412206   0.599   3.147  15.271 -1.0097 -0.1932 -0.2605
  830MPD2    C512207   0.632   3.048  15.364 -0.5968  0.2851 -0.5392
  830MPD2     H12208   0.283   3.189  15.386  0.3345  1.5650 -0.6129
  830MPD2    H112209   0.670   3.168  15.192 -0.6725  2.0747  0.6527
  830MPD2    H212210   0.593   2.936  15.528 -1.3436  1.2164  1.5139
  830MPD2    H312211   0.731   3.003  15.368  1.0291  3.9338  0.3663
  830MPD2     N12212   0.432   3.286  15.174 -0.0533  0.6128  0.0814
  830MPD2    H512213   0.514   3.331  15.134  0.6761 -1.9953 -1.4090
  830MPD2    N112214   0.341   3.036  15.594 -0.3016  1.1556 -0.3455
  830MPD2    H712215   0.388   2.976  15.661 -0.5722  1.4103  0.0694
  831MPD2     C12216   0.205   0.282  16.436  0.6839 -0.3018 -0.1907
  831MPD2    C112217   0.246   0.180  16.355  0.9473 -0.7836  0.7993
  831MPD2    C212218   0.180   0.055  16.373  0.2313 -0.6561  0.1834
  831MPD2    C312219   0.085   0.027  16.470 -0.4333 -0.0286 -0.3400
  831MPD2    C412220   0.054   0.133  16.560 -0.2191 -0.5656 -0.0859
  831MPD2    C512221   0.111   0.261  16.537 -0.0978  0.3172 -0.0315
  831MPD2     H12222   0.207   4.701  16.303  1.3052 -0.1648  0.0403
  831MPD2    H112223   4.707   0.120  16.640 -0.3686 -1.0239 -0.2916
  831MPD2    H212224   0.264   0.373  16.441 -0.6005  0.6217 -1.7438
  831MPD2    H312225   0.089   0.343  16.605 -1.1428 -0.3759  0.4734
  831MPD2     N12226   4.724   4.637  16.468  0.3614  0.6080 -0.0792
  831MPD2    H512227   4.671   4.617  16.552 -1.0625 -1.2027 -1.3949
  831MPD2    N112228   0.348   0.194  16.258 -0.0839 -0.3161  0.0557
  831MPD2    H712229   0.380   0.284  16.225 -3.7500 -0.0395 -2.7861
  832MPD2     C12230   3.309   1.157  17.065  0.3631  0.0924 -0.2969
  832MPD2    C112231   3.356   1.265  17.134  0.2024 -0.1095  0.6218
  832MPD2    C212232   3.257   1.330  17.212 -0.5823  0.3002  0.2762
  832MPD2    C312233   3.134   1.278  17.248 -0.2161  0.0941 -0.0715
  832MPD2    C412234   3.103   1.156  17.187  0.0021 -0.3072 -0.1848
  832MPD2    C512235   3.189   1.101  17.094 -0.0414  0.1045 -0.4579
  832MPD2     H12236   3.286   1.423  17.260 -1.2360 -0.2730  1.7799
  832MPD2    H112237   3.004   1.114  17.200 -1.1701  2.5745  0.0982
  832MPD2    H212238   3.371   1.095  17.002  0.2705  0.1181 -0.4132
  832MPD2    H312239   3.159   1.008  17.047  3.2671  0.0808 -2.4783
  832MPD2     N12240   3.036   1.337  17.331  0.5058 -0.5232  0.3375
  832MPD2    H512241   2.953   1.281  17.347 -0.0216 -0.3842 -1.8140
  832MPD2    N112242   3.491   1.293  17.135 -0.2929 -0.1368  1.1148
  832MPD2    H712243   3.536   1.229  17.071 -0.0689 -0.3570  1.4871
  833MPD2     C12244   1.061   2.958  12.220  0.0543 -0.5069  0.2906
  833MPD2    C112245   0.985   2.990  12.110 -0.1813  0.2023 -0.8851
  833MPD2    C212246   1.009   2.917  11.993  0.1979 -0.0807 -0.0696
  833MPD2    C312247   1.102   2.818  11.979 -0.1092  0.0624 -0.0637
  833MPD2    C412248   1.186   2.794  12.091 -0.9837 -1.0016 -1.0435
  833MPD2    C512249   1.159   2.858  12.209  0.6004 -0.1226  0.6078
  833MPD2     H12250   0.944   2.931  11.907 -1.6265 -1.3014  1.1023
  833MPD2    H112251   1.271   2.727  12.086  0.4588  0.7380  0.0315
  833MPD2    H212252   1.044   3.001  12.318 -1.6784 -0.9341  0.1731
  833MPD2    H312253   1.217   2.826  12.295  3.0166  2.7595  0.0394
  833MPD2     N12254   1.110   2.747  11.859 -0.2501 -0.2640 -0.4951
  833MPD2    H512255   1.033   2.762  11.795 -1.6321 -0.5868  1.0656
  833MPD2    N112256   0.877   3.076  12.108  0.4881 -0.2983  0.6679
  833MPD2    H712257   0.837   3.081  12.015  2.6347 -2.5945 -0.3603
  834MPD2     C12258   0.734   1.851  11.634 -0.5227 -0.3038 -0.3868
  834MPD2    C112259   0.713   1.936  11.519  0.5234  0.4499  0.2543
  834MPD2    C212260   0.751   2.069  11.534 -0.0130 -0.7548  0.2351
  834MPD2    C312261   0.817   2.119  11.644 -0.2551  0.4052 -0.1227
  834MPD2    C412262   0.845   2.032  11.750 -0.6259 -0.2023 -0.0026
  834MPD2    C512263   0.803   1.902  11.743 -0.2462  0.5318 -0.1758
  834MPD2     H12264   0.734   2.139  11.453  1.6823 -1.8236 -1.0538
  834MPD2    H112265   0.920   2.062  11.822 -2.3960 -0.2456  1.8751
  834MPD2    H212266   0.711   1.745  11.633 -1.4990 -0.0778 -2.0206
  834MPD2    H312267   0.826   1.835  11.825 -1.0461 -0.3069 -0.6426
  834MPD2     N12268   0.862   2.251  11.633  0.4809  0.1783 -0.0025
  834MPD2    H512269   0.850   2.294  11.542  1.7032  0.1948 -0.1472
  834MPD2    N112270   0.657   1.883  11.405  0.3234  0.5453  0.0218
  834MPD2    H712271   0.630   1.785  11.408 -1.0955  0.9776  1.1899
  835MPD2     C12272   1.269   0.906  10.997 -0.6233  0.0931  0.2740
  835MPD2    C112273   1.153   0.830  11.002 -0.4582 -0.1407  0.0822
  835MPD2    C212274   1.134   0.756  11.120  0.1493  0.4704 -0.0133
  835MPD2    C312275   1.230   0.752  11.224 -0.7354 -0.3750 -0.3298
  835MPD2    C412276   1.340   0.832  11.211 -0.2909  0.8121 -0.6423
  835MPD2    C512277   1.358   0.904  11.099  0.4328 -0.7302 -0.7794
  835MPD2     H12278   1.043   0.697  11.130  0.7462  0.0248  2.8108
  835MPD2    H112279   1.419   0.838  11.285 -0.4070 -1.9656 -0.2808
  835MPD2    H212280   1.279   0.962  10.905 -2.4930  0.0384  0.0527
  835MPD2    H312281   1.450   0.955  11.076 -2.2586  3.8808 -1.4532
  835MPD2     N12282   1.204   0.670  11.338 -0.0847  0.5690 -0.4086
  835MPD2    H512283   1.261   0.685  11.421  1.5547  0.0062 -1.4261
  835MPD2    N112284   1.055   0.842  10.902 -0.7457  0.1651  0.1810
  835MPD2    H712285   1.059   0.917  10.834  0.9427  1.0842  1.2922
  836MPD2     C12286   0.555   0.704  11.227 -0.7437  0.6582 -0.2152
  836MPD2    C112287   0.557   0.669  11.358 -0.5974  0.0297 -0.0217
  836MPD2    C212288   0.438   0.662  11.431  0.2898  0.3383 -0.5603
  836MPD2    C312289   0.322   0.709  11.372 -0.1831  0.1569 -0.0402
  836MPD2    C412290   0.324   0.758  11.239 -0.2611 -0.6231  0.1897
  836MPD2    C512291   0.444   0.757  11.168 -0.1235 -0.7126 -0.4774
  836MPD2     H12292   0.442   0.618  11.530  1.3068 -0.8910 -1.1433
  836MPD2    H112293   0.237   0.801  11.191  1.2073  1.1769 -0.8549
  836MPD2    H212294   0.644   0.703  11.166 -2.5473 -0.1090 -2.8224
  836MPD2    H312295   0.451   0.797  11.067  1.3528 -0.1166 -0.1362
  836MPD2     N12296   0.198   0.708  11.445 -0.2595  0.1734  0.5466
  836MPD2    H512297   0.120   0.756  11.401 -1.4194 -1.1628  1.1204
  836MPD2    N112298   0.683   0.625  11.415 -0.2090  0.4208  0.0583
  836MPD2    H712299   0.759   0.616  11.349 -1.1100 -2.2355 -0.6307
  837MPD2     C12300   3.353   0.772   9.877 -0.0417 -0.0928 -0.2286
  837MPD2    C112301   3.284   0.727   9.767 -0.1307  0.2257 -0.0572
  837MPD2    C212302   3.167   0.785   9.733 -0.9773 -0.0372 -0.2732
  837MPD2    C312303   3.118   0.887   9.818 -0.2917  0.1679  0.0165
  837MPD2    C412304   3.195   0.942   9.922  0.3747 -0.1622  0.2193
  837MPD2    C512305   3.315   0.880   9.956  0.2740 -0.1621 -0.4884
  837MPD2     H12306   3.105   0.759   9.648  0.5111  0.4188 -1.4807
  837MPD2    H112307   3.148   1.006   9.995  0.0478  0.7547 -0.8061
  837MPD2    H212308   3.454   0.732   9.885 -0.3272 -0.9918 -1.2847
  837MPD2    H312309   3.385   0.919  10.029  1.1999  1.0161 -2.0046
  837MPD2     N12310   2.987   0.932   9.784  0.3552 -0.0559  0.0396
  837MPD2    H512311   2.929   0.879   9.720  0.1551  1.5979 -1.1517
  837MPD2    N112312   3.322   0.620   9.684 -0.1307  0.5553 -0.3415
  837MPD2    H712313   3.271   0.605   9.598  0.6070  0.8494 -0.8269
  838MPD2     C12314   1.976   2.870  11.215  0.9491  0.6384  0.0200
  838MPD2    C112315   2.005   2.965  11.314  0.3488  0.5099 -0.1999
  838MPD2    C212316   1.911   3.008  11.401 -0.3176  0.8630 -0.3488
  838MPD2    C312317   1.794   2.933  11.417  1.0654  0.0718 -0.7449
  838MPD2    C412318   1.766   2.825  11.331 -0.0056  0.0095  0.2261
  838MPD2    C512319   1.854   2.808  11.223 -0.7819  0.4547 -0.2697
  838MPD2     H12320   1.937   3.081  11.477  0.0232  1.1018 -0.6933
  838MPD2    H112321   1.676   2.765  11.327 -0.6201  1.0066 -1.1468
  838MPD2    H212322   2.035   2.845  11.127 -0.8172 -1.0876 -0.6592
  838MPD2    H312323   1.834   2.733  11.147 -1.2542 -0.1357  0.4406
  838MPD2     N12324   1.708   2.962  11.532  0.3089  0.0450 -0.2911
  838MPD2    H512325   1.738   3.042  11.587  0.1150  0.1611 -0.3537
  838MPD2    N112326   2.134   3.009  11.333 -0.0646 -0.6685  0.4559
  838MPD2    H712327   2.156   3.067  11.414 -3.4460  1.1838  0.0081
  839MPD2     C12328   2.316   2.584  12.157  0.2734 -0.0082  0.8649
  839MPD2    C112329   2.271   2.533  12.038  0.7057  0.4372 -0.1232
  839MPD2    C212330   2.283   2.609  11.921  0.4422 -0.9077  0.0472
  839MPD2    C312331   2.345   2.735  11.922 -0.2875  0.1586  0.3276
  839MPD2    C412332   2.386   2.793  12.042 -0.5137 -0.7565  0.1560
  839MPD2    C512333   2.375   2.713  12.161 -0.4898 -0.3931 -0.5861
  839MPD2     H12334   2.236   2.568  11.832 -0.0716 -1.2057  0.4556
  839MPD2    H112335   2.439   2.887  12.042 -1.7969 -0.0336 -1.3451
  839MPD2    H212336   2.303   2.530  12.250  0.7228  1.0857  1.5691
  839MPD2    H312337   2.402   2.754  12.257 -0.0706 -0.1677 -0.7995
  839MPD2     N12338   2.370   2.811  11.810 -0.3089  0.1284 -0.1611
  839MPD2    H512339   2.416   2.900  11.829 -0.1978 -0.4197  2.1672
  839MPD2    N112340   2.188   2.419  12.029  0.5914 -0.4997  0.1579
  839MPD2    H712341   2.144   2.398  11.940 -0.8274  0.2450  0.6767
  840MPD2     C12342   2.192   0.967  10.187  0.0136 -0.1114 -0.4505
  840MPD2    C112343   2.181   0.913  10.310 -0.1837 -0.2658 -0.9715
  840MPD2    C212344   2.229   0.974  10.423 -0.1050  0.0033 -0.1648
  840MPD2    C312345   2.308   1.087  10.414  0.4775  0.4603  0.5315
  840MPD2    C412346   2.327   1.135  10.287  0.6970 -0.3456  0.6600
  840MPD2    C512347   2.266   1.083  10.174 -0.1843 -0.9560 -0.2539
  840MPD2     H12348   2.208   0.929  10.520  3.2637  0.7179  0.8960
  840MPD2    H112349   2.386   1.223  10.263 -0.9910  0.9109  1.1451
  840MPD2    H212350   2.134   0.921  10.108  1.0447 -1.4458 -0.4343
  840MPD2    H312351   2.286   1.128  10.077  0.9656 -3.1809 -1.0582
  840MPD2     N12352   2.362   1.161  10.526  0.4625  0.8892  0.5631
  840MPD2    H512353   2.415   1.243  10.502 -2.4252  2.4237 -0.5966
  840MPD2    N112354   2.118   0.789  10.313  0.4725 -0.2103  0.7122
  840MPD2    H712355   2.094   0.748  10.223  1.5751  1.8801 -0.5259
  841MPD2     C12356   1.674   0.578  14.742  0.7010 -0.3240 -0.0201
  841MPD2    C112357   1.766   0.474  14.783 -0.0318 -0.1616  0.1618
  841MPD2    C212358   1.893   0.511  14.811  1.0930 -0.0540  0.1762
  841MPD2    C312359   1.936   0.640  14.798  0.3760  0.2993  0.5797
  841MPD2    C412360   1.850   0.740  14.765 -0.7279 -0.0522  0.2557
  841MPD2    C512361   1.715   0.708  14.738 -0.1116 -0.0870 -0.5881
  841MPD2     H12362   1.968   0.437  14.835  0.4831 -0.8945 -0.4990
  841MPD2    H112363   1.870   0.847  14.769 -1.7108  0.1081  1.2707
  841MPD2    H212364   1.574   0.553  14.710  0.6062 -1.7222  1.3720
  841MPD2    H312365   1.653   0.789  14.700  0.3319  0.3444 -0.3982
  841MPD2     N12366   2.071   0.666  14.829  1.0609 -0.1967  0.2757
  841MPD2    H512367   2.120   0.589  14.875  1.6560  0.3705  0.5950
  841MPD2    N112368   1.740   0.342  14.789  0.5702  0.1362 -0.5432
  841MPD2    H712369   1.815   0.276  14.772 -0.0940 -0.8769  0.5250
  842MPD2     C12370   2.028   1.388  16.861 -0.9038  0.5795 -0.2463
  842MPD2    C112371   2.138   1.464  16.828  0.1543  0.0348 -0.1853
  842MPD2    C212372   2.245   1.479  16.917  0.0192 -0.2561  0.3831
  842MPD2    C312373   2.230   1.431  17.049  0.1967 -0.0422 -0.1452
  842MPD2    C412374   2.116   1.364  17.084 -0.3399  0.1765  0.3791
  842MPD2    C512375   2.021   1.340  16.989  0.3117  0.2010  0.4489
  842MPD2     H12376   2.322   1.551  16.892 -0.6449 -0.3221 -1.8123
  842MPD2    H112377   2.083   1.339  17.184 -0.0325 -0.4538  0.3260
  842MPD2    H212378   1.942   1.369  16.797  0.6411  3.2355 -3.1130
  842MPD2    H312379   1.928   1.300  17.027 -0.9507  1.5540 -1.2045
  842MPD2     N12380   2.324   1.460  17.150 -0.2907 -0.5993 -0.0064
  842MPD2    H512381   2.289   1.449  17.245 -3.5825  1.5173 -1.0116
  842MPD2    N112382   2.128   1.526  16.707 -0.5068 -0.1594  0.0852
  842MPD2    H712383   2.045   1.509  16.649  0.2783 -0.2176 -1.0276
  843MPD2     C12384   4.704   1.335  17.294  0.9876 -0.2049  0.0147
  843MPD2    C112385   0.022   1.366  17.423  0.8610  0.2402 -0.2981
  843MPD2    C212386   0.125   1.460  17.447  0.5216 -0.0316 -0.1238
  843MPD2    C312387   0.178   1.525  17.338 -0.0067 -0.5299  0.5515
  843MPD2    C412388   0.120   1.503  17.210  0.2240  0.5120  0.1772
  843MPD2    C512389   0.029   1.409  17.191  0.0255 -0.2839  0.2683
  843MPD2     H12390   0.154   1.474  17.551  0.1422 -0.4874  0.0417
  843MPD2    H112391   0.153   1.556  17.121 -2.8311  0.6723 -0.8325
  843MPD2    H212392   4.627   1.260  17.278  1.1489 -0.8514  2.2842
  843MPD2    H312393   4.701   1.396  17.097 -0.0484 -0.9850  0.4081
  843MPD2     N12394   0.281   1.618  17.355 -0.2864 -0.4216 -0.4093
  843MPD2    H512395   0.297   1.676  17.274  0.9532  0.0318  0.1565
  843MPD2    N112396   4.703   1.279  17.526 -0.5024 -0.1558  0.1436
  843MPD2    H712397   4.640   1.207  17.493  1.4718 -0.9853 -1.8428
  844MPD2     C12398   3.122   1.528  16.952 -0.2335 -0.0662  0.3293
  844MPD2    C112399   3.181   1.446  16.864  0.0369  0.4268 -0.5433
  844MPD2    C212400   3.309   1.484  16.820  0.3302 -0.8219  0.2745
  844MPD2    C312401   3.377   1.596  16.866 -0.0400  0.0655  0.0213
  844MPD2    C412402   3.306   1.685  16.937  0.3657 -0.6622  0.1171
  844MPD2    C512403   3.184   1.641  16.985  0.9652 -0.5365  0.2997
  844MPD2     H12404   3.367   1.409  16.767  1.3240  0.8270 -0.9464
  844MPD2    H112405   3.338   1.784  16.966  1.1851 -0.2402 -2.2428
  844MPD2    H212406   3.028   1.504  17.002 -0.4002 -1.2374 -0.5546
  844MPD2    H312407   3.117   1.709  17.038  0.7026  0.0572 -0.7786
  844MPD2     N12408   3.514   1.620  16.827 -0.2487 -0.4053 -0.0742
  844MPD2    H512409   3.556   1.553  16.764  1.1225  2.0294 -1.7385
  844MPD2    N112410   3.128   1.320  16.824  0.0179  0.6191 -0.1606
  844MPD2    H712411   3.179   1.259  16.762  1.4948  0.4583  1.1986
  845MPD2     C12412   4.223   2.256  17.168  0.0706 -0.7074 -0.4975
  845MPD2    C112413   4.087   2.270  17.136  1.0557  0.4393  0.3485
  845MPD2    C212414   4.019   2.164  17.079  0.1403  0.4786  0.5280
  845MPD2    C312415   4.081   2.048  17.051  0.0813  0.1199  0.2425
  845MPD2    C412416   4.217   2.035  17.078 -0.0184 -0.1277 -0.2911
  845MPD2    C512417   4.282   2.134  17.143 -0.8043 -0.0228  0.0886
  845MPD2     H12418   3.911   2.164  17.070  0.4005  0.6024 -2.8403
  845MPD2    H112419   4.277   1.946  17.064 -0.7828 -0.7780  0.5904
  845MPD2    H212420   4.286   2.330  17.216 -0.9524 -0.4414  0.4695
  845MPD2    H312421   4.388   2.125  17.159 -0.5340  1.3691 -0.9272
  845MPD2     N12422   4.010   1.949  16.978  0.0647 -0.2253 -1.2349
  845MPD2    H512423   3.916   1.971  16.944 -1.3779 -1.3606  2.0652
  845MPD2    N112424   4.025   2.388  17.188 -0.3557  0.5398  0.1537
  845MPD2    H712425   4.086   2.457  17.231 -0.3743  0.8825 -0.3654
  846MPD2     C12426   0.155   2.245  13.427  0.2388 -0.3843  0.4118
  846MPD2    C112427   0.050   2.328  13.451  0.2629 -0.4420 -0.1646
  846MPD2    C212428   0.026   2.363  13.585 -0.0612  0.7488  0.6415
  846MPD2    C312429   0.094   2.306  13.692  0.4933 -0.1662 -0.3533
  846MPD2    C412430   0.199   2.221  13.661  0.4870  0.7227 -0.0437
  846MPD2    C512431   0.218   2.180  13.532  0.3320 -0.0633  0.0396
  846MPD2     H12432   4.679   2.440  13.612  0.9822  1.3551  1.6752
  846MPD2    H112433   0.265   2.175  13.733  2.2020  1.9649 -0.8243
  846MPD2    H212434   0.191   2.217  13.328 -4.4774 -1.0674 -1.0881
  846MPD2    H312435   0.292   2.109  13.499 -0.0410 -1.1129  1.4402
  846MPD2     N12436   0.065   2.338  13.829 -0.2437 -0.1580  0.5276
  846MPD2    H512437   4.719   2.411  13.833 -0.4414 -0.3077 -0.3637
  846MPD2    N112438   4.703   2.398  13.348 -0.0791 -0.2392  0.5673
  846MPD2    H712439   4.622   2.456  13.371  1.0231  1.2048  0.8526
  847MPD2     C12440   0.185   3.451  13.500  0.1257 -0.5280  0.9867
  847MPD2    C112441   0.290   3.486  13.578  0.2794  0.2435 -1.2684
  847MPD2    C212442   0.360   3.391  13.647  0.5152  0.0620 -0.1970
  847MPD2    C312443   0.338   3.259  13.632  0.1193 -0.1669 -0.2385
  847MPD2    C412444   0.224   3.222  13.557  0.0504 -0.3912 -0.4751
  847MPD2    C512445   0.145   3.320  13.497  0.0046 -0.3841 -0.0144
  847MPD2     H12446   0.437   3.419  13.717 -1.1800  0.0483  1.6974
  847MPD2    H112447   0.190   3.119  13.555  0.5349 -0.5658  0.4760
  847MPD2    H212448   0.129   3.532  13.455 -3.7445 -2.5933  2.0805
  847MPD2    H312449   0.055   3.283  13.450  0.7077 -3.3471  0.9759
  847MPD2     N12450   0.427   3.177  13.709  1.0858 -0.1180 -0.1720
  847MPD2    H512451   0.505   3.221  13.757 -0.0558  1.5681  0.1584
  847MPD2    N112452   0.323   3.620  13.610 -0.1401 -0.3743  0.2971
  847MPD2    H712453   0.407   3.621  13.667 -0.7880  0.8342  1.2387
  848MPD2     C12454   2.556   2.025  17.404  0.1648 -0.3053  0.3349
  848MPD2    C112455   2.683   2.002  17.363  0.3052 -0.6298 -0.1705
  848MPD2    C212456   2.734   2.074  17.260  0.5583 -0.3384 -0.6445
  848MPD2    C312457   2.666   2.184  17.207 -0.5913 -0.4246 -0.0180
  848MPD2    C412458   2.537   2.214  17.255 -0.2232  0.4449 -0.2133
  848MPD2    C512459   2.488   2.132  17.358 -0.6026 -0.5133 -0.2815
  848MPD2     H12460   2.831   2.062  17.215  0.3100  0.2086 -1.3323
  848MPD2    H112461   2.470   2.294  17.226  0.4268  0.6892 -1.0356
  848MPD2    H212462   2.496   1.971  17.477  1.0210  0.3037  1.4799
  848MPD2    H312463   2.391   2.152  17.402 -0.4750 -2.6626  0.9677
  848MPD2     N12464   2.706   2.252  17.089  0.0172 -0.0125 -0.1820
  848MPD2    H512465   2.637   2.307  17.039 -0.1653 -0.1545 -0.0891
  848MPD2    N112466   2.757   1.889  17.401  0.4359  0.1248  0.3073
  848MPD2    H712467   2.842   1.876  17.347  1.4505  1.9145  1.4744
  849MPD2     C12468   1.759   1.397  14.265  0.6878 -0.3848  0.2588
  849MPD2    C112469   1.882   1.458  14.265 -0.5435 -0.0562 -0.1847
  849MPD2    C212470   1.937   1.497  14.382 -0.1496  0.1442 -0.3145
  849MPD2    C312471   1.880   1.451  14.503 -0.5930 -0.7247  0.1820
  849MPD2    C412472   1.767   1.373  14.499 -0.2067  0.3464 -0.2364
  849MPD2    C512473   1.713   1.348  14.379 -0.1274  0.1994 -0.0018
  849MPD2     H12474   2.040   1.531  14.383 -0.1684  0.2628 -1.9400
  849MPD2    H112475   1.723   1.339  14.592  1.0372 -0.3504  0.0976
  849MPD2    H212476   1.705   1.385  14.172  0.8338  1.9001 -0.1397
  849MPD2    H312477   1.618   1.297  14.374 -0.4815  1.0289 -1.6596
  849MPD2     N12478   1.942   1.484  14.625  0.2706  0.4303 -0.5759
  849MPD2    H512479   1.908   1.441  14.710 -0.0325  1.7539 -0.0210
  849MPD2    N112480   1.945   1.483  14.147  1.0577  0.3615  0.4542
  849MPD2    H712481   1.914   1.417  14.076  0.0130  0.9500  0.3719
  850MPD2     C12482   0.013   4.108  15.090  0.2487  0.3326 -0.5007
  850MPD2    C112483   0.056   4.161  15.212 -0.2680  0.2202 -0.5084
  850MPD2    C212484   0.188   4.164  15.229 -0.4927 -0.8023  0.2045
  850MPD2    C312485   0.285   4.109  15.149  0.2652 -0.3256 -0.0735
  850MPD2    C412486   0.237   4.061  15.031 -0.3296 -0.1391 -0.2943
  850MPD2    C512487   0.101   4.049  15.007  0.0360 -0.0603 -0.2281
  850MPD2     H12488   0.227   4.198  15.325  0.2109 -0.6268 -0.1422
  850MPD2    H112489   0.317   4.026  14.966 -0.6232  1.2116 -1.3688
  850MPD2    H212490   4.632   4.101  15.069  0.4972  1.2124 -2.0518
  850MPD2    H312491   0.072   4.009  14.910  1.7914  0.2132 -0.8555
  850MPD2     N12492   0.420   4.105  15.169 -0.9897  0.1514 -0.1285
  850MPD2    H512493   0.475   4.038  15.116 -1.9285  1.8839 -3.2866
  850MPD2    N112494   4.693   4.206  15.313 -0.3270  0.2598  0.3940
  850MPD2    H712495   0.015   4.247  15.394 -0.8278  1.9063 -0.1594
  851MPD2     C12496   0.362   4.059  15.705 -0.0001 -0.2174 -0.5558
  851MPD2    C112497   0.235   4.029  15.655 -0.2440 -0.0848 -0.0353
  851MPD2    C212498   0.243   3.937  15.549  0.5206  0.3739 -0.2881
  851MPD2    C312499   0.355   3.882  15.492  0.3173 -0.3932 -0.0087
  851MPD2    C412500   0.482   3.921  15.538 -0.0161  0.5925 -0.0540
  851MPD2    C512501   0.475   4.004  15.649  0.0561 -0.5327  0.4044
  851MPD2     H12502   0.147   3.911  15.507  0.4516 -0.8075  0.5926
  851MPD2    H112503   0.573   3.901  15.483 -1.3344 -0.1726 -1.9808
  851MPD2    H212504   0.378   4.116  15.795 -0.4074  0.6844 -1.0561
  851MPD2    H312505   0.564   4.038  15.701 -1.3085  1.8725  1.1707
  851MPD2     N12506   0.332   3.818  15.369 -0.4008  0.0456 -0.3381
  851MPD2    H512507   0.235   3.824  15.338 -1.9189 -0.3995  4.3556
  851MPD2    N112508   0.116   4.082  15.704  0.1290  0.2660 -0.2888
  851MPD2    H712509   0.130   4.154  15.775 -3.6326  0.5464  0.2100
  852MPD2     C12510   4.493   2.407   9.167 -0.0729  0.2654 -0.0277
  852MPD2    C112511   4.543   2.363   9.291 -0.3849  0.9433 -0.7335
  852MPD2    C212512   4.608   2.461   9.365  0.4521  0.2160  0.0466
  852MPD2    C312513   4.615   2.590   9.334  0.2524 -0.3425 -0.3173
  852MPD2    C412514   4.562   2.633   9.212 -0.1203 -0.9986  0.3911
  852MPD2    C512515   4.500   2.537   9.134 -0.2461 -0.2496 -0.4858
  852MPD2     H12516   4.664   2.432   9.453 -0.7926  3.2387  1.8735
  852MPD2    H112517   4.574   2.734   9.175 -0.2089 -1.9417 -2.2074
  852MPD2    H212518   4.448   2.341   9.093  2.3305 -1.2156 -0.1753
  852MPD2    H312519   4.460   2.568   9.038 -0.3700 -2.0178 -0.9969
  852MPD2     N12520   4.700   2.668   9.414 -0.2672 -0.5899  0.6469
  852MPD2    H512521   0.015   2.621   9.495  2.4360  0.2871 -0.1524
  852MPD2    N112522   4.523   2.229   9.341 -0.4599 -0.3303  0.1228
  852MPD2    H712523   4.557   2.214   9.436 -0.6447  0.8349  0.3786
  853MPD2     C12524   1.177   2.479  12.316 -0.4375  0.0593 -0.7904
  853MPD2    C112525   1.267   2.372  12.328 -0.1839  1.1762 -0.3409
  853MPD2    C212526   1.278   2.276  12.234 -0.1000  0.1431  0.4123
  853MPD2    C312527   1.184   2.277  12.125  0.2988  0.1079  0.7710
  853MPD2    C412528   1.083   2.372  12.121 -0.2437 -0.1885  0.0246
  853MPD2    C512529   1.084   2.474  12.214  0.1482 -0.0278 -0.2598
  853MPD2     H12530   1.359   2.204  12.236 -1.0885 -0.9466  1.1968
  853MPD2    H112531   1.019   2.394  12.036 -1.9613 -2.4038  0.7424
  853MPD2    H212532   1.177   2.568  12.377 -0.4746  0.9580 -2.1102
  853MPD2    H312533   1.012   2.554  12.204 -0.4524 -0.3288  1.5463
  853MPD2     N12534   1.184   2.201  12.005 -0.2530  0.2516  1.0749
  853MPD2    H512535   1.102   2.209  11.946 -0.5341  1.8890  1.6629
  853MPD2    N112536   1.356   2.386  12.430  0.3484  0.6140  0.3721
  853MPD2    H712537   1.357   2.475  12.477  0.0437 -0.3323  2.1880
  854MPD2     C12538   3.175   1.978  12.577 -0.2623  0.7750  0.2514
  854MPD2    C112539   3.194   1.855  12.522  0.3630 -0.2570  0.1211
  854MPD2    C212540   3.231   1.744  12.598 -0.5229 -0.8413  0.6394
  854MPD2    C312541   3.267   1.763  12.733 -0.0425  0.1284  0.1811
  854MPD2    C412542   3.257   1.895  12.789 -0.3739  0.3213  0.0778
  854MPD2    C512543   3.209   2.001  12.709  0.3427  0.4432  0.3735
  854MPD2     H12544   3.232   1.643  12.560 -0.1615 -0.7764  0.4735
  854MPD2    H112545   3.268   1.908  12.896 -1.1811  1.3363  0.0323
  854MPD2    H212546   3.124   2.056  12.521 -0.4019  0.5850  0.1140
  854MPD2    H312547   3.191   2.096  12.759 -0.0014 -0.3718  1.7941
  854MPD2     N12548   3.314   1.657  12.821  0.6820  1.0172  0.3754
  854MPD2    H512549   3.341   1.683  12.915  0.3967  1.1985  0.4083
  854MPD2    N112550   3.156   1.845  12.387 -0.6430 -0.2579 -0.5658
  854MPD2    H712551   3.112   1.928  12.348 -2.2553 -0.0885  1.6491
  855MPD2     C12552   3.442   1.711  13.656  0.3637 -0.3629 -0.2257
  855MPD2    C112553   3.445   1.575  13.634  0.2781  0.7080  0.0560
  855MPD2    C212554   3.435   1.522  13.513  0.2327 -0.3110 -0.1678
  855MPD2    C312555   3.414   1.597  13.397 -0.3081  0.0617 -0.9505
  855MPD2    C412556   3.400   1.733  13.420  0.1095  0.0450  0.0181
  855MPD2    C512557   3.411   1.786  13.543  0.0285 -0.5820 -0.1937
  855MPD2     H12558   3.449   1.415  13.517 -3.9435 -0.9090 -1.3514
  855MPD2    H112559   3.375   1.801  13.340 -0.0484  1.5461  1.3547
  855MPD2    H212560   3.463   1.756  13.752  0.1728  0.1317 -0.4186
  855MPD2    H312561   3.407   1.894  13.557 -0.2684 -0.6096 -0.0604
  855MPD2     N12562   3.403   1.539  13.270 -0.0435  0.3712 -0.5934
  855MPD2    H512563   3.389   1.605  13.195  2.7041  0.9992 -0.5494
  855MPD2    N112564   3.474   1.485  13.738  0.0365  0.0571  0.3510
  855MPD2    H712565   3.465   1.387  13.712 -1.7707  0.8411 -1.9649
  856MPD2     C12566   0.764   2.573  13.416 -0.4231  0.3104 -0.3163
  856MPD2    C112567   0.856   2.675  13.438  0.2570 -0.0153 -1.1836
  856MPD2    C212568   0.816   2.808  13.444  0.4732 -0.3968 -0.4061
  856MPD2    C312569   0.685   2.839  13.410 -0.1030  0.4422  0.0441
  856MPD2    C412570   0.598   2.734  13.380  0.0993 -0.1962  0.0431
  856MPD2    C512571   0.641   2.609  13.376 -0.4426  0.0701  0.0797
  856MPD2     H12572   0.897   2.880  13.453 -0.4459  0.6496 -0.5340
  856MPD2    H112573   0.502   2.754  13.335 -0.6918 -3.7627  0.1371
  856MPD2    H212574   0.776   2.465  13.416  1.3791  0.5065  2.2952
  856MPD2    H312575   0.566   2.531  13.369 -1.2351  1.1732 -3.7267
  856MPD2     N12576   0.648   2.969  13.391 -0.5648 -0.0105  0.3344
  856MPD2    H512577   0.550   2.982  13.371 -1.0005  1.2956  3.3675
  856MPD2    N112578   0.997   2.658  13.430 -0.0099  0.3950  0.0251
  856MPD2    H712579   1.056   2.740  13.428  0.1724  0.2740  0.4190
  857MPD2     C12580   2.210   4.592  12.527  1.0608 -0.2084 -0.0709
  857MPD2    C112581   2.328   4.658  12.502  0.0062 -0.6249 -0.0160
  857MPD2    C212582   2.367   0.039  12.583  0.0255  0.2135  0.1044
  857MPD2    C312583   2.294   0.071  12.701  0.1973  0.5940 -1.1103
  857MPD2    C412584   2.177   0.008  12.721  0.1115  0.5510  0.3466
  857MPD2    C512585   2.133   4.633  12.640  0.0843  0.4983 -0.4530
  857MPD2     H12586   2.461   0.088  12.562  0.5703  0.0568  2.2315
  857MPD2    H112587   2.112   0.021  12.807  1.7414  2.3277  1.3403
  857MPD2    H212588   2.186   4.499  12.476 -0.3487  0.8888 -1.4000
  857MPD2    H312589   2.043   4.581  12.667 -0.5009  2.1114  0.7261
  857MPD2     N12590   2.346   0.179  12.782  0.2235  0.4082  0.3848
  857MPD2    H512591   2.430   0.217  12.740  0.2162 -0.0788 -0.0745
  857MPD2    N112592   2.406   4.611  12.398  0.0936  0.2798 -0.2673
  857MPD2    H712593   2.361   4.538  12.344  1.1314 -0.7642  0.2792
  858MPD2     C12594   3.823   3.091  17.036  0.3760  0.2944  0.4095
  858MPD2    C112595   3.766   3.212  17.004  0.4618  0.5333  0.1725
  858MPD2    C212596   3.745   3.299  17.102  0.5963  0.1857  0.4936
  858MPD2    C312597   3.777   3.273  17.236 -0.2974  0.3640 -0.7781
  858MPD2    C412598   3.825   3.150  17.266  0.3373 -0.0525 -0.2781
  858MPD2    C512599   3.847   3.063  17.167 -0.3881 -0.0717 -0.1588
  858MPD2     H12600   3.687   3.389  17.081  1.7003  1.0831  1.2640
  858MPD2    H112601   3.867   3.133  17.365 -1.7745 -1.1285  0.4468
  858MPD2    H212602   3.842   3.019  16.958  0.6345 -0.8630  1.5319
  858MPD2    H312603   3.887   2.967  17.197  0.8613  0.5576  0.1794
  858MPD2     N12604   3.767   3.360  17.345  0.3935 -0.1536  1.0244
  858MPD2    H512605   3.802   3.327  17.434 -2.8028 -0.8971  1.9899
  858MPD2    N112606   3.733   3.231  16.873  0.2551  0.2913  0.6004
  858MPD2    H712607   3.749   3.151  16.813 -1.0061  0.2635  0.3164
  859MPD2     C12608   2.279   1.472  16.116 -0.5752 -0.1235 -0.3598
  859MPD2    C112609   2.308   1.425  15.991 -0.5106  0.5012  0.2314
  859MPD2    C212610   2.315   1.288  15.972  0.4476  0.1776  0.0944
  859MPD2    C312611   2.311   1.205  16.085 -0.0756 -0.9185  0.7056
  859MPD2    C412612   2.273   1.256  16.208  0.6791  0.1187 -0.6535
  859MPD2    C512613   2.255   1.392  16.222  0.0943 -0.2517  0.0751
  859MPD2     H12614   2.307   1.240  15.876  0.0392 -1.5064  0.9784
  859MPD2    H112615   2.279   1.198  16.299 -1.6900  0.1502 -0.4730
  859MPD2    H212616   2.270   1.579  16.132 -0.5813 -0.3116  0.8615
  859MPD2    H312617   2.233   1.433  16.320  0.1974  0.3516 -0.1511
  859MPD2     N12618   2.318   1.061  16.072  0.5574 -0.2157  0.1913
  859MPD2    H512619   2.307   1.008  16.159 -1.6046  0.9268  0.6098
  859MPD2    N112620   2.332   1.514  15.883 -0.3331 -0.4765  0.1617
  859MPD2    H712621   2.316   1.613  15.901  0.8234 -0.1908 -0.3711
  860MPD2     C12622   4.368   1.082  11.671  0.8019  0.3015  0.1836
  860MPD2    C112623   4.309   1.192  11.723  0.1188  0.4761 -0.4183
  860MPD2    C212624   4.174   1.181  11.736  0.0205 -0.8416 -0.0146
  860MPD2    C312625   4.101   1.071  11.706 -0.0439  1.0048 -0.2368
  860MPD2    C412626   4.163   0.960  11.655 -0.2126 -0.7920 -0.3755
  860MPD2    C512627   4.296   0.968  11.635 -0.2369  0.0088 -0.2177
  860MPD2     H12628   4.118   1.260  11.784  0.5688 -1.1937  1.2119
  860MPD2    H112629   4.102   0.875  11.626 -0.5772 -0.2769 -1.1249
  860MPD2    H212630   4.475   1.067  11.668  0.2813 -3.2330 -1.1080
  860MPD2    H312631   4.354   0.891  11.585  1.6059  0.8708  0.6082
  860MPD2     N12632   3.969   1.080  11.751  0.6500  0.7838 -0.4349
  860MPD2    H512633   3.946   1.176  11.775  0.0278  1.1942 -2.6752
  860MPD2    N112634   4.381   1.303  11.766  0.2147  0.1280  0.0629
  860MPD2    H712635   4.320   1.378  11.798 -0.0184  0.2273 -0.6014
  861MPD2     C12636   3.614   0.332  10.710 -0.4115 -0.2279  0.4473
  861MPD2    C112637   3.520   0.269  10.792 -0.2756 -0.9100 -0.5789
  861MPD2    C212638   3.400   0.224  10.742  0.2024  0.3148  0.2661
  861MPD2    C312639   3.376   0.230  10.601 -0.4782 -0.4725 -0.8327
  861MPD2    C412640   3.476   0.284  10.526  0.0711 -0.0043 -0.1557
  861MPD2    C512641   3.593   0.329  10.573 -0.2244 -0.1816  0.5388
  861MPD2     H12642   3.323   0.192  10.811 -0.2323 -1.3753 -1.0356
  861MPD2    H112643   3.464   0.294  10.418  0.6887  1.3854 -0.0958
  861MPD2    H212644   3.708   0.374  10.744  1.8622 -2.8003 -2.6428
  861MPD2    H312645   3.659   0.381  10.504 -1.1999 -0.9626 -0.9779
  861MPD2     N12646   3.250   0.189  10.543 -0.1592 -0.2251  0.3196
  861MPD2    H512647   3.249   0.185  10.441  1.3656 -1.8100  0.3747
  861MPD2    N112648   3.554   0.266  10.931  0.5643  0.2058  0.4271
  861MPD2    H712649   3.478   0.241  10.993 -1.1152  2.4477 -0.7403
  862MPD2     C12650   2.949   0.080   9.929  0.0996 -0.0506  0.1863
  862MPD2    C112651   3.019   0.049  10.045 -0.3405  0.1285  0.0217
  862MPD2    C212652   3.076   4.651  10.056  0.8787  0.6064  0.3830
  862MPD2    C312653   3.077   4.561   9.953  0.1179  0.1650 -0.0341
  862MPD2    C412654   3.012   4.593   9.835  0.0909  0.6589  0.3254
  862MPD2    C512655   2.949   4.714   9.821 -0.0170 -0.5894 -0.0648
  862MPD2     H12656   3.115   4.624  10.153 -0.6757 -4.3104 -0.3018
  862MPD2    H112657   3.017   4.523   9.753  1.7265  0.1247  0.8923
  862MPD2    H212658   2.888   0.170   9.921  0.9165  0.3501 -1.5451
  862MPD2    H312659   2.887   0.011   9.734 -0.3755 -0.2222  0.2854
  862MPD2     N12660   3.119   4.431   9.968 -0.1336 -0.0784 -0.4920
  862MPD2    H512661   3.087   4.356   9.907 -2.6348  0.3872  0.2342
  862MPD2    N112662   2.997   0.109  10.174  0.7446  0.7381 -0.0176
  862MPD2    H712663   3.052   0.077  10.254  1.3063  2.3601  0.2481
  863MPD2     C12664   1.867   2.663  16.408  0.4219  0.3938 -0.9692
  863MPD2    C112665   1.870   2.777  16.478 -0.3590  0.1066  0.2097
  863MPD2    C212666   1.935   2.794  16.599 -0.2419  0.2010 -0.2562
  863MPD2    C312667   2.006   2.688  16.652 -0.2313 -0.2134  0.6899
  863MPD2    C412668   2.014   2.568  16.576  0.6109  0.0752 -0.6729
  863MPD2    C512669   1.932   2.560  16.468  0.4258 -0.2988  0.0113
  863MPD2     H12670   1.926   2.884  16.659  1.4837 -0.0699  0.4224
  863MPD2    H112671   2.062   2.478  16.610 -2.7251 -1.3829  0.1984
  863MPD2    H212672   1.813   2.644  16.316 -0.8637 -0.4032 -0.0512
  863MPD2    H312673   1.912   2.461  16.429 -2.4842  1.3739 -2.7416
  863MPD2     N12674   2.064   2.693  16.783  0.1188 -0.4628  0.0475
  863MPD2    H512675   2.102   2.604  16.814 -2.5814 -0.3743  3.5359
  863MPD2    N112676   1.811   2.885  16.410 -0.1778  0.3214 -0.1011
  863MPD2    H712677   1.785   2.867  16.314  0.4122 -0.0679 -0.1941
  864MPD2     C12678   2.019   4.293  17.090  0.3428 -0.4694  0.5406
  864MPD2    C112679   2.145   4.257  17.040  0.3511  0.5096 -0.0933
  864MPD2    C212680   2.163   4.246  16.903 -0.0462 -0.1628  0.2573
  864MPD2    C312681   2.060   4.289  16.816  0.4362 -0.0786  0.1679
  864MPD2    C412682   1.942   4.330  16.872  0.1052  0.9294  0.0529
  864MPD2    C512683   1.918   4.323  17.005  0.1104 -0.4945 -0.3790
  864MPD2     H12684   2.260   4.216  16.864  0.5432  0.1625  1.4500
  864MPD2    H112685   1.868   4.363  16.800 -2.3185 -0.2238  2.0089
  864MPD2    H212686   1.989   4.292  17.195 -2.3179  0.1504 -0.2061
  864MPD2    H312687   1.819   4.347  17.042  1.3168  0.8205  2.0111
  864MPD2     N12688   2.075   4.290  16.680 -0.3637 -0.3658 -0.2708
  864MPD2    H512689   1.990   4.317  16.631 -0.7319  0.3744  0.7812
  864MPD2    N112690   2.237   4.216  17.138 -0.5447 -0.0112 -0.6647
  864MPD2    H712691   2.211   4.199  17.234  1.6777 -0.5070 -0.1569
  865MPD2     C12692   2.167   4.227  15.819 -0.7009  1.1211 -0.4815
  865MPD2    C112693   2.175   4.169  15.938  0.5160  0.5399 -0.7228
  865MPD2    C212694   2.069   4.187  16.026 -0.3361  0.3008  0.0275
  865MPD2    C312695   1.971   4.279  16.005 -0.5578  0.2705  0.0267
  865MPD2    C412696   1.950   4.325  15.876  0.0893  0.0708  0.2487
  865MPD2    C512697   2.056   4.303  15.791  0.1779  0.0367  0.2177
  865MPD2     H12698   2.069   4.134  16.121 -0.4042 -1.1491 -0.7913
  865MPD2    H112699   1.867   4.386  15.844  0.5375 -0.4134 -1.8424
  865MPD2    H212700   2.245   4.212  15.745 -0.7782 -1.7061  0.0060
  865MPD2    H312701   2.043   4.347  15.693  1.2841  2.3132  1.0843
  865MPD2     N12702   1.883   4.331  16.101 -0.9824 -0.4838  0.6566
  865MPD2    H512703   1.798   4.382  16.080 -0.2902  1.8371  3.4274
  865MPD2    N112704   2.286   4.083  15.957 -0.7449 -0.5108  0.2522
  865MPD2    H712705   2.342   4.067  15.873 -0.6852  0.2351  0.1451
  866MPD2     C12706   3.874   0.587  11.160  0.1410  0.2081 -0.3259
  866MPD2    C112707   3.848   0.563  11.021  0.9381  0.1303  0.3322
  866MPD2    C212708   3.729   0.614  10.969 -0.6891  0.0729  0.2918
  866MPD2    C312709   3.640   0.678  11.055  0.2024 -0.1953 -0.3684
  866MPD2    C412710   3.673   0.704  11.190  0.2329  0.4171  0.2586
  866MPD2    C512711   3.788   0.658  11.239  0.4486 -0.3757  0.4257
  866MPD2     H12712   3.702   0.575  10.871  2.0565 -0.4726 -0.2665
  866MPD2    H112713   3.611   0.771  11.249  3.1651  2.9049  0.5105
  866MPD2    H212714   3.954   0.536  11.212 -0.9801 -0.6354  0.6089
  866MPD2    H312715   3.820   0.685  11.339 -1.8053 -2.8534  1.8341
  866MPD2     N12716   3.511   0.707  11.018  0.5673  0.2428 -0.7536
  866MPD2    H512717   3.449   0.728  11.096  0.6978  0.3423 -0.6772
  866MPD2    N112718   3.938   0.492  10.948  0.2387  0.2163  0.2618
  866MPD2    H712719   4.015   0.445  10.995  0.9449  0.4272 -0.6737
  867MPD2     C12720   1.154   4.069  16.701  0.6498  0.0757  0.1771
  867MPD2    C112721   1.196   4.007  16.810  0.3381  0.5153 -0.7170
  867MPD2    C212722   1.114   3.982  16.915  0.1475 -0.3305 -0.4576
  867MPD2    C312723   0.983   4.030  16.918  0.5549 -0.5634 -0.1178
  867MPD2    C412724   0.943   4.111  16.809  0.5720  0.3220  0.3333
  867MPD2    C512725   1.027   4.123  16.704  0.5931 -0.3694 -0.1471
  867MPD2     H12726   1.165   3.937  16.999 -2.6837  0.2889  1.6119
  867MPD2    H112727   0.840   4.144  16.800 -0.3284 -2.1662  1.5732
  867MPD2    H212728   1.227   4.087  16.622 -1.7217 -0.4800 -2.1302
  867MPD2    H312729   1.006   4.186  16.618 -0.7594 -1.1619 -0.4022
  867MPD2     N12730   0.893   4.001  17.024  0.7185  0.2319  0.5855
  867MPD2    H512731   0.923   3.924  17.083  3.0649  0.0592 -0.8094
  867MPD2    N112732   1.329   3.956  16.802  0.5804 -0.9130 -0.0225
  867MPD2    H712733   1.370   3.983  16.713 -0.4843 -1.9194 -0.8225
  868MPD2     C12734   2.954   2.814  12.514  0.5822  0.4595 -0.7366
  868MPD2    C112735   3.001   2.852  12.641 -0.3813 -0.7049  0.6113
  868MPD2    C212736   2.969   2.978  12.691  0.2012  0.4768 -0.7238
  868MPD2    C312737   2.908   3.071  12.607  0.6150  0.3193 -0.5609
  868MPD2    C412738   2.878   3.035  12.481 -0.6809 -0.0212  0.0974
  868MPD2    C512739   2.893   2.910  12.441 -0.1007 -0.0653  0.0108
  868MPD2     H12740   3.013   3.010  12.785 -1.0969 -2.2442  0.8125
  868MPD2    H112741   2.829   3.101  12.411 -2.1606  0.3447  1.4880
  868MPD2    H212742   2.965   2.715  12.473 -0.0105 -0.0195  0.2758
  868MPD2    H312743   2.853   2.888  12.343  1.9700  1.3663 -1.1624
  868MPD2     N12744   2.890   3.197  12.667  0.6816 -0.4202 -0.3405
  868MPD2    H512745   2.917   3.199  12.764  1.8488  1.1201 -0.6969
  868MPD2    N112746   3.090   2.770  12.711  0.1452  0.5921 -0.3097
  868MPD2    H712747   3.129   2.692  12.660  0.5049  1.2833 -1.0841
  869MPD2     C12748   0.431   1.510   1.500 -0.3650  0.7865 -0.2023
  869MPD2    C112749   0.307   1.478   1.557 -0.0239  0.7090  0.2107
  869MPD2    C212750   0.249   1.361   1.522  0.1549 -0.1957 -0.0555
  869MPD2    C312751   0.281   1.296   1.406 -0.4988 -0.0736  0.2293
  869MPD2    C412752   0.393   1.338   1.340 -0.7228 -0.2881  0.2543
  869MPD2    C512753   0.469   1.441   1.388 -0.6336 -0.9913 -0.2593
  869MPD2     H12754   0.161   1.332   1.578  1.2363 -1.3094  1.0771
  869MPD2    H112755   0.426   1.288   1.250  0.7638 -1.2324  1.3296
  869MPD2    H212756   0.498   1.584   1.544 -0.1580 -0.0087  0.8163
  869MPD2    H312757   0.560   1.465   1.334 -0.3738  3.2247  1.9979
  869MPD2     N12758   0.198   1.194   1.349  0.1212  0.1734 -0.3501
  869MPD2    H512759   0.236   1.166   1.259  1.5961  1.7715 -0.2286
  869MPD2    N112760   0.269   1.553   1.674 -0.3875 -0.6260  0.2503
  869MPD2    H712761   0.318   1.640   1.693  0.6217 -1.5939  2.0661
  870MPD2     C12762   3.610   0.113   2.025 -0.0317 -0.0225  0.2409
  870MPD2    C112763   3.731   0.110   1.960 -0.6064  0.1291 -0.1932
  870MPD2    C212764   3.759   0.198   1.860 -0.2267  0.4153  0.3413
  870MPD2    C312765   3.656   0.275   1.805 -0.6007  0.0361 -0.2565
  870MPD2    C412766   3.527   0.269   1.867  0.2988 -0.9357  0.2018
  870MPD2    C512767   3.507   0.190   1.971  0.2570  0.4691  0.6436
  870MPD2     H12768   3.850   0.191   1.802  0.2567  1.6021  0.9726
  870MPD2    H112769   3.440   0.322   1.830  0.7747  0.3147  0.8847
  870MPD2    H212770   3.593   0.051   2.113 -0.6131 -0.9563 -0.5216
  870MPD2    H312771   3.407   0.187   2.013  0.2531  1.2219  0.6814
  870MPD2     N12772   3.676   0.361   1.690 -0.7527 -0.4758 -1.1942
  870MPD2    H512773   3.773   0.380   1.665 -0.3158  0.0111  0.8801
  870MPD2    N112774   3.823   0.011   2.006 -0.6067 -0.2025 -0.2122
  870MPD2    H712775   3.794   4.674   2.081  1.2134 -0.2965  0.4246
  871MPD2     C12776   0.243   4.312  16.459 -0.3159  0.1587 -0.9475
  871MPD2    C112777   0.212   4.219  16.556 -0.0536 -0.2729  0.8655
  871MPD2    C212778   0.250   4.087  16.548  0.2545  0.1790 -0.3422
  871MPD2    C312779   0.308   4.042  16.434 -0.1248  0.8918  0.0376
  871MPD2    C412780   0.333   4.136  16.331 -0.0483 -0.6553 -0.0010
  871MPD2    C512781   0.292   4.265  16.341  0.1602  0.6055 -0.1046
  871MPD2     H12782   0.225   4.012  16.622  1.5371  0.4221  0.3370
  871MPD2    H112783   0.373   4.111  16.233 -0.7687 -1.4793 -0.0818
  871MPD2    H212784   0.226   4.419  16.470 -1.2171 -0.3732  3.0355
  871MPD2    H312785   0.311   4.331  16.257 -1.1185  0.5820 -0.4115
  871MPD2     N12786   0.347   3.909  16.423 -0.5978  0.2078  0.3191
  871MPD2    H512787   0.304   3.844  16.489 -0.6266  0.2991  0.3898
  871MPD2    N112788   0.157   4.276  16.670  0.6602  0.0594  0.5863
  871MPD2    H712789   0.168   4.376  16.682  0.7939  0.1615 -0.3872
  872MPD2     C12790   0.741   2.182  13.247 -0.2361 -0.0197  0.3035
  872MPD2    C112791   0.846   2.098  13.277 -0.6431  0.2563 -0.0067
  872MPD2    C212792   0.845   2.025  13.392 -0.2108  0.2993 -0.0031
  872MPD2    C312793   0.732   2.028  13.469  0.0765 -0.3549  0.1410
  872MPD2    C412794   0.614   2.086  13.418 -0.2385 -0.1110 -0.3493
  872MPD2    C512795   0.628   2.161  13.306  0.0616 -0.2595 -0.1243
  872MPD2     H12796   0.937   1.975  13.419  0.1318 -0.0300 -1.8185
  872MPD2    H112797   0.520   2.100  13.469 -0.3342 -2.5457  0.1245
  872MPD2    H212798   0.757   2.247  13.161 -0.8628 -1.2746 -0.7735
  872MPD2    H312799   0.539   2.216  13.279  0.4342  0.0120 -0.8109
  872MPD2     N12800   0.719   1.965  13.594 -0.0663 -0.1144  0.3569
  872MPD2    H512801   0.627   1.956  13.635 -0.0403 -0.2999  0.3766
  872MPD2    N112802   0.964   2.100  13.209 -0.6910  0.5288 -0.4786
  872MPD2    H712803   1.050   2.080  13.259 -0.9851  0.0489 -0.1575
  873MPD2     C12804   3.544   1.465   1.139  0.2359  0.4182 -1.0638
  873MPD2    C112805   3.432   1.473   1.211  0.0981 -0.1718 -0.0882
  873MPD2    C212806   3.413   1.382   1.317 -0.2742  0.1735  0.6193
  873MPD2    C312807   3.498   1.280   1.342  0.8014 -0.2307  0.6570
  873MPD2    C412808   3.613   1.273   1.267 -0.3584 -0.2715  0.1786
  873MPD2    C512809   3.633   1.365   1.162  0.2438  0.6223  0.6932
  873MPD2     H12810   3.320   1.383   1.372 -2.2087 -0.4436 -2.6703
  873MPD2    H112811   3.685   1.194   1.283  0.9643  1.0951  1.0017
  873MPD2    H212812   3.560   1.543   1.066  1.3470  0.1405 -1.1168
  873MPD2    H312813   3.722   1.355   1.101 -0.0689 -2.5038  0.7223
  873MPD2     N12814   3.473   1.182   1.437 -0.2843 -0.0235 -0.2297
  873MPD2    H512815   3.527   1.096   1.430  1.4124  0.8807  1.7589
  873MPD2    N112816   3.352   1.589   1.189  0.3475 -0.6961  0.6990
  873MPD2    H712817   3.386   1.672   1.142 -0.7623  0.0536  1.2045
  874MPD2     C12818   2.473   2.163  16.131  0.5646 -0.1180 -1.0705
  874MPD2    C112819   2.482   2.082  16.241  0.0549 -0.1589  0.2865
  874MPD2    C212820   2.548   2.123  16.347 -0.7575  0.3539  0.4882
  874MPD2    C312821   2.622   2.240  16.344 -0.6421  0.3072  0.1326
  874MPD2    C412822   2.624   2.319  16.231  0.1797 -0.5549  0.1785
  874MPD2    C512823   2.538   2.278  16.131  0.5034 -0.3420  0.1282
  874MPD2     H12824   2.532   2.070  16.440  2.2943  1.3922  1.5913
  874MPD2    H112825   2.666   2.419  16.225  0.6533 -0.7432  0.3697
  874MPD2    H212826   2.426   2.140  16.037  2.2724 -0.4424 -1.8425
  874MPD2    H312827   2.553   2.334  16.039  1.0890 -0.6200  0.0582
  874MPD2     N12828   2.690   2.296  16.453  0.1189  0.4903  0.3754
  874MPD2    H512829   2.754   2.372  16.433  1.7236 -0.9173  0.0724
  874MPD2    N112830   2.417   1.947  16.243  0.2294  0.3096 -0.0529
  874MPD2    H712831   2.353   1.927  16.167  2.0664  0.1812 -1.5532
  875MPD2     C12832   3.577   0.538  14.506 -0.4153  0.7385  0.8072
  875MPD2    C112833   3.470   0.475  14.580  0.1645 -0.6753  0.4000
  875MPD2    C212834   3.508   0.438  14.711  0.5917 -0.6943  0.1656
  875MPD2    C312835   3.630   0.470  14.777 -0.5928 -0.5365  0.3291
  875MPD2    C412836   3.722   0.546  14.708  0.6461 -0.1463  0.6716
  875MPD2    C512837   3.690   0.572  14.575  0.3580 -0.0113  0.4746
  875MPD2     H12838   3.431   0.385  14.765  1.0038 -0.6529  0.7962
  875MPD2    H112839   3.815   0.586  14.747  0.7785  0.7060 -0.5261
  875MPD2    H212840   3.562   0.570  14.403 -0.2888 -2.3871 -0.1880
  875MPD2    H312841   3.768   0.615  14.512 -1.0959  0.2103 -1.1590
  875MPD2     N12842   3.640   0.464  14.922 -0.1861  0.0176 -0.3484
  875MPD2    H512843   3.710   0.511  14.978 -0.7857 -1.4612  1.6266
  875MPD2    N112844   3.347   0.428  14.522 -0.1388 -0.0987 -0.4255
  875MPD2    H712845   3.287   0.380  14.588  1.4000  0.9246  1.7297
  876MPD2     C12846   2.664   1.559  16.381 -0.1463  0.1617 -0.1964
  876MPD2    C112847   2.645   1.510  16.253 -0.0457 -0.5776 -0.2717
  876MPD2    C212848   2.602   1.380  16.233  0.2353 -0.4734  0.0622
  876MPD2    C312849   2.597   1.291  16.339 -0.1382  0.5156 -0.3269
  876MPD2    C412850   2.617   1.344  16.469 -0.4117  0.0419 -0.3401
  876MPD2    C512851   2.649   1.475  16.485 -0.4144  0.3791  0.1650
  876MPD2     H12852   2.575   1.346  16.133 -1.6502  1.3358 -0.0346
  876MPD2    H112853   2.603   1.281  16.555 -0.0235  1.6845  0.9315
  876MPD2    H212854   2.685   1.664  16.396  0.3433  0.1365 -0.7041
  876MPD2    H312855   2.667   1.510  16.586 -0.5065  1.2234 -0.1101
  876MPD2     N12856   2.576   1.155  16.309  0.3911  0.2363 -0.4790
  876MPD2    H512857   2.587   1.137  16.209 -0.5343 -1.7438 -0.2230
  876MPD2    N112858   2.659   1.603  16.148 -0.4541 -0.0473  0.4998
  876MPD2    H712859   2.682   1.701  16.163 -1.0267 -0.0200  1.2037
  877MPD2     C12860   2.364   2.009  15.566  0.1853  0.0021 -0.2895
  877MPD2    C112861   2.498   2.017  15.550 -0.0830  0.5911 -0.3144
  877MPD2    C212862   2.548   2.091  15.444 -0.1283 -0.3436 -0.3804
  877MPD2    C312863   2.461   2.150  15.351  0.0307 -0.0560 -0.2973
  877MPD2    C412864   2.324   2.130  15.371 -0.6161  0.4740  0.0246
  877MPD2    C512865   2.278   2.071  15.481  0.6422  0.2338  0.0686
  877MPD2     H12866   2.654   2.100  15.424 -0.0733  0.6960  0.4308
  877MPD2    H112867   2.255   2.179  15.303  0.0038  1.3058 -0.0085
  877MPD2    H212868   2.322   1.947  15.644 -1.7880 -1.0439 -2.2112
  877MPD2    H312869   2.172   2.062  15.505 -0.1755  1.1650 -3.0762
  877MPD2     N12870   2.493   2.246  15.246  0.3098 -1.0012  0.1769
  877MPD2    H512871   2.412   2.254  15.186  1.7449 -0.8647 -1.7175
  877MPD2    N112872   2.588   1.966  15.650 -0.2861  0.4646  0.0969
  877MPD2    H712873   2.687   1.985  15.634  0.1598 -1.4720  0.5703
  878MPD2     C12874   2.134   1.178  13.225 -0.7417 -0.0686 -0.7611
  878MPD2    C112875   2.196   1.301  13.241 -0.1755  0.0541 -0.6024
  878MPD2    C212876   2.196   1.364  13.363  0.2059  0.1814 -0.6219
  878MPD2    C312877   2.152   1.294  13.479 -0.1465 -0.2894 -0.4541
  878MPD2    C412878   2.099   1.169  13.462  0.1347 -0.4400 -0.3610
  878MPD2    C512879   2.084   1.113  13.335  0.2751  0.0023  0.3543
  878MPD2     H12880   2.226   1.467  13.378  1.7206 -0.1658 -1.2768
  878MPD2    H112881   2.041   1.113  13.535 -0.5962  1.1682  0.2757
  878MPD2    H212882   2.135   1.130  13.128 -0.2042  1.1845 -1.3687
  878MPD2    H312883   2.045   1.013  13.328  3.6031 -1.0461 -3.3622
  878MPD2     N12884   2.169   1.359  13.606  0.0647  0.0443  0.6320
  878MPD2    H512885   2.213   1.450  13.605 -2.9473  1.4723 -0.1995
  878MPD2    N112886   2.251   1.355  13.126  0.1654  0.6350 -0.4354
  878MPD2    H712887   2.244   1.308  13.037 -0.8072 -0.4877  0.2374
  879MPD2     C12888   2.698   2.966  16.855 -0.2664  0.6835  0.8180
  879MPD2    C112889   2.662   2.839  16.894  0.0078  0.6671 -0.6509
  879MPD2    C212890   2.575   2.760  16.819 -0.3536  0.6754 -0.7116
  879MPD2    C312891   2.543   2.799  16.693  0.2468 -0.0120  0.0692
  879MPD2    C412892   2.578   2.926  16.654 -0.2174 -0.1695 -0.3422
  879MPD2    C512893   2.655   3.011  16.735  0.7726 -0.1179 -0.2168
  879MPD2     H12894   2.551   2.664  16.861  0.5030  0.0464 -1.6396
  879MPD2    H112895   2.537   2.972  16.564 -0.3082  1.3905  0.5020
  879MPD2    H212896   2.767   3.027  16.913  0.9041 -0.0026  0.1349
  879MPD2    H312897   2.685   3.109  16.698 -1.8501  0.4498 -0.8669
  879MPD2     N12898   2.470   2.719  16.604 -0.4078  0.4285 -0.0335
  879MPD2    H512899   2.453   2.745  16.507  3.8378  0.0199 -0.8820
  879MPD2    N112900   2.715   2.803  17.023 -0.2432 -0.3340 -0.8564
  879MPD2    H712901   2.774   2.874  17.065 -0.4991 -0.9668  0.5712
  880MPD2     C12902   4.083   4.213   0.402  0.1256 -0.8228 -0.0070
  880MPD2    C112903   4.160   4.267   0.501  0.3151  1.7432  0.0654
  880MPD2    C212904   4.256   4.191   0.566  1.0242  0.4351  0.0331
  880MPD2    C312905   4.282   4.060   0.521 -0.0522 -0.4260 -0.8683
  880MPD2    C412906   4.214   4.014   0.410  0.3250  0.8387 -0.1457
  880MPD2    C512907   4.121   4.091   0.348  0.2374  0.3814  0.1184
  880MPD2     H12908   4.309   4.228   0.653  2.7268 -2.5578  0.2621
  880MPD2    H112909   4.239   3.920   0.362  0.9318  0.7225  0.4056
  880MPD2    H212910   4.009   4.277   0.356  0.2254  0.1617  1.1879
  880MPD2    H312911   4.059   4.059   0.266 -0.3347 -0.9688  1.0745
  880MPD2     N12912   4.377   3.987   0.595  0.5825  0.1722  0.4796
  880MPD2    H512913   4.405   4.023   0.686  2.3553 -0.5340  0.2260
  880MPD2    N112914   4.133   4.398   0.545  0.8219  0.3525  0.0451
  880MPD2    H712915   4.049   4.437   0.503 -0.5400 -2.3633  0.2355
  881MPD2     C12916   4.214   0.551   0.106 -0.4736  0.4374 -0.0493
  881MPD2    C112917   4.176   0.425   0.070 -0.2374 -0.3579 -0.3776
  881MPD2    C212918   4.149   0.328   0.166 -0.1390  0.3492  0.3450
  881MPD2    C312919   4.131   0.366   0.298  0.3766 -0.0541  0.2696
  881MPD2    C412920   4.151   0.496   0.329  0.5592  0.4177 -0.5517
  881MPD2    C512921   4.206   0.581   0.236 -0.7031 -0.1648 -0.5305
  881MPD2     H12922   4.136   0.228   0.127  0.6874 -0.1345  1.3020
  881MPD2    H112923   4.130   0.522   0.432  1.8431  1.3280 -0.5163
  881MPD2    H212924   4.230   0.622   0.025 -2.5577 -0.3313 -1.1340
  881MPD2    H312925   4.233   0.684   0.258  0.4320 -0.2598 -1.4932
  881MPD2     N12926   4.103   0.269   0.399 -0.0878  0.4678 -0.1145
  881MPD2    H512927   4.100   0.303   0.495  0.4204 -0.4808  0.2312
  881MPD2    N112928   4.203   0.387  17.632  0.2155 -0.4469 -0.5058
  881MPD2    H712929   4.242   0.460  17.573 -0.3252 -1.2726 -1.8814
  882MPD2     C12930   2.421   2.183  14.492 -0.1699  0.1213 -0.5940
  882MPD2    C112931   2.375   2.217  14.614 -0.4956  0.2398 -0.1235
  882MPD2    C212932   2.268   2.146  14.672 -0.3262  1.0665 -0.3111
  882MPD2    C312933   2.194   2.065  14.589  0.0279 -0.4831  0.1799
  882MPD2    C412934   2.236   2.038  14.458 -0.4278 -0.0912 -0.2522
  882MPD2    C512935   2.361   2.097  14.412 -0.2287  0.3311 -0.8443
  882MPD2     H12936   2.247   2.166  14.776 -0.1965  2.1072 -0.4821
  882MPD2    H112937   2.171   1.986  14.388  0.3532 -1.5475  0.0965
  882MPD2    H212938   2.503   2.236  14.445  1.2513 -0.3766  1.3205
  882MPD2    H312939   2.389   2.092  14.307  1.1166 -0.9940 -0.4310
  882MPD2     N12940   2.079   2.001  14.637  0.1638 -0.6212  0.0587
  882MPD2    H512941   2.050   1.929  14.572  1.8654 -2.5736  1.4779
  882MPD2    N112942   2.450   2.319  14.681  0.0925  0.4336 -0.3275
  882MPD2    H712943   2.540   2.334  14.636  1.9036 -2.5259  2.2856
  883MPD2     C12944   0.096   1.799  16.281  0.0913  0.0086 -0.4978
  883MPD2    C112945   0.150   1.825  16.157 -0.4106 -0.4841  0.3453
  883MPD2    C212946   0.288   1.841  16.161  0.2953 -0.6266  0.8597
  883MPD2    C312947   0.372   1.843  16.275  0.4036  0.1312  0.0459
  883MPD2    C412948   0.303   1.826  16.395  0.3173 -0.0087  0.2511
  883MPD2    C512949   0.170   1.802  16.396 -0.3316 -0.3469  0.9613
  883MPD2     H12950   0.342   1.847  16.068 -0.5151  0.7936  0.4875
  883MPD2    H112951   0.354   1.828  16.490 -1.0296  0.5471  0.9616
  883MPD2    H212952   4.715   1.774  16.286 -0.4542  1.6588 -3.4981
  883MPD2    H312953   0.134   1.764  16.491  0.2483  0.9777  1.7050
  883MPD2     N12954   0.510   1.870  16.260 -1.1835  0.8648  0.2981
  883MPD2    H512955   0.547   1.894  16.169 -0.2636 -0.5473  0.2917
  883MPD2    N112956   0.087   1.820  16.032  0.1505 -0.1614  0.1331
  883MPD2    H712957   0.148   1.853  15.958 -1.0881  1.5961 -0.1022
  884MPD2     C12958   0.600   2.758  15.168 -0.5159 -0.2506 -0.2267
  884MPD2    C112959   0.684   2.840  15.100  0.1440 -0.2421  0.5105
  884MPD2    C212960   0.635   2.938  15.023  0.3124  0.2287 -0.4798
  884MPD2    C312961   0.497   2.957  15.014  0.5229 -0.0099 -0.4871
  884MPD2    C412962   0.411   2.873  15.088 -0.5044 -0.4984  0.1385
  884MPD2    C512963   0.467   2.779  15.167  0.0315  0.1564 -0.0294
  884MPD2     H12964   0.706   2.992  14.961  2.8805  0.1422  2.4012
  884MPD2    H112965   0.303   2.881  15.095 -0.2249  2.7329  1.1119
  884MPD2    H212966   0.641   2.675  15.223  1.7219  0.3262 -1.0197
  884MPD2    H312967   0.400   2.720  15.230 -0.6634  1.3278  0.3311
  884MPD2     N12968   0.446   3.050  14.929 -0.0194  0.4159  0.5469
  884MPD2    H512969   0.510   3.094  14.863  2.0050  0.6313  2.6719
  884MPD2    N112970   0.822   2.820  15.093  0.7082  0.6853 -0.7002
  884MPD2    H712971   0.881   2.877  15.033  2.3713  0.7836  1.0138
  885MPD2     C12972   4.525   2.752   0.324  0.7548  0.5865  0.1527
  885MPD2    C112973   4.626   2.734   0.242 -0.4157 -0.0931 -0.0465
  885MPD2    C212974   4.639   2.791   0.119 -0.2114  0.5494 -0.1119
  885MPD2    C312975   4.539   2.881   0.075 -0.5532 -0.0578 -0.2897
  885MPD2    C412976   4.431   2.894   0.156 -0.3052 -0.0880  0.5982
  885MPD2    C512977   4.420   2.825   0.276 -0.3956 -0.3774 -0.2881
  885MPD2     H12978   0.012   2.792   0.071 -0.1042  1.8032  0.1181
  885MPD2    H112979   4.346   2.955   0.129 -0.2838 -0.6334 -0.6958
  885MPD2    H212980   4.517   2.691   0.414 -0.6762  0.2441 -0.2052
  885MPD2    H312981   4.327   2.848   0.327 -1.2867 -0.9814 -1.6603
  885MPD2     N12982   4.555   2.954  17.653 -0.2660 -0.0454 -0.0246
  885MPD2    H512983   4.641   2.939  17.601 -1.1272 -1.7610 -0.9647
  885MPD2    N112984   0.002   2.653   0.301  0.0113 -0.0224 -0.3049
  885MPD2    H712985   4.707   2.611   0.391 -0.1581  0.3688 -0.1590
  886MPD2     C12986   1.459   0.865  14.966 -0.4444  0.5209 -0.2417
  886MPD2    C112987   1.471   0.933  15.087 -0.4728  1.2580 -0.0476
  886MPD2    C212988   1.454   1.071  15.085  0.4578 -0.3125  0.1319
  886MPD2    C312989   1.430   1.142  14.965 -0.5774 -0.2590  0.0372
  886MPD2    C412990   1.426   1.073  14.850  0.4912 -0.0907 -0.0543
  886MPD2    C512991   1.440   0.937  14.852  0.2142  0.1429 -0.2292
  886MPD2     H12992   1.480   1.127  15.174  0.0537 -2.7285  1.7592
  886MPD2    H112993   1.413   1.115  14.751  0.8937 -0.7818 -0.3984
  886MPD2    H212994   1.461   0.757  14.957 -1.3689  0.2703  2.3451
  886MPD2    H312995   1.425   0.879  14.761 -0.9284  1.1090 -0.6562
  886MPD2     N12996   1.400   1.279  14.958 -0.2373 -0.0382  0.2806
  886MPD2    H512997   1.364   1.303  14.866  0.0555  1.1570  0.4823
  886MPD2    N112998   1.501   0.879  15.212 -0.0451  0.1063  0.3611
  886MPD2    H712999   1.518   0.939  15.291  1.0043  2.9571 -2.0132
  887MPD2     C13000   1.963   1.008  15.741  0.3208 -0.1184  0.2396
  887MPD2    C113001   1.874   1.024  15.638  0.4148 -0.2907  0.8425
  887MPD2    C213002   1.847   1.153  15.595 -0.2879 -0.1237  0.1917
  887MPD2    C313003   1.902   1.267  15.653 -0.4918 -0.0469  0.6013
  887MPD2    C413004   1.988   1.250  15.759 -0.0421 -0.3009  0.3262
  887MPD2    C513005   2.020   1.119  15.800 -0.7263  0.4595  0.3417
  887MPD2     H13006   1.774   1.177  15.518 -0.1265 -1.4483 -0.3738
  887MPD2    H113007   2.029   1.327  15.823  2.5982 -1.4341 -0.0260
  887MPD2    H213008   1.993   0.908  15.771  1.9749  1.0891  2.6447
  887MPD2    H313009   2.081   1.119  15.890 -1.2878 -0.4021  0.7242
  887MPD2     N13010   1.848   1.395  15.615 -0.1906 -0.0642 -0.2544
  887MPD2    H513011   1.771   1.398  15.549  1.4696  0.5906 -2.1779
  887MPD2    N113012   1.802   0.924  15.568  0.0410  0.0834 -0.3719
  887MPD2    H713013   1.734   0.956  15.500  1.0649 -0.3828 -1.6177
  888MPD2     C13014   3.313   1.558  14.631  0.1189  0.1696  0.3124
  888MPD2    C113015   3.316   1.597  14.768 -0.3676 -0.0425 -0.6743
  888MPD2    C213016   3.401   1.699  14.795 -0.5244  0.3030  0.3972
  888MPD2    C313017   3.485   1.759  14.705  0.2068 -0.0078 -0.2177
  888MPD2    C413018   3.491   1.708  14.573  0.6041  0.1321  0.1288
  888MPD2    C513019   3.396   1.611  14.536 -0.2643  0.2413  0.0190
  888MPD2     H13020   3.410   1.732  14.898 -0.2774 -0.1285  0.5164
  888MPD2    H113021   3.542   1.760  14.493  2.2422 -0.8632  0.5207
  888MPD2    H213022   3.246   1.482  14.593  1.1137 -0.5720  0.0442
  888MPD2    H313023   3.392   1.579  14.433  0.2735  1.2634 -0.3201
  888MPD2     N13024   3.564   1.864  14.753 -0.5548  0.3526 -0.2543
  888MPD2    H513025   3.550   1.903  14.846  0.8782 -1.7826  0.8701
  888MPD2    N113026   3.265   1.519  14.876  0.1245 -0.0301 -0.5149
  888MPD2    H713027   3.285   1.543  14.973 -0.2539  1.6982 -0.8486
  889MPD2     C13028   2.307   0.843  13.349  0.5370  0.0005  0.1595
  889MPD2    C113029   2.367   0.853  13.224 -0.8717  1.2050  0.2377
  889MPD2    C213030   2.438   0.967  13.188  0.5449 -0.4526 -0.3231
  889MPD2    C313031   2.462   1.063  13.280  1.0972 -0.7108  0.3876
  889MPD2    C413032   2.398   1.053  13.405 -0.4970 -0.0864  0.4845
  889MPD2    C513033   2.335   0.933  13.440 -0.1496  0.1478  0.5933
  889MPD2     H13034   2.499   0.951  13.099  0.3242 -0.0525 -0.5429
  889MPD2    H113035   2.401   1.143  13.465 -0.5020  0.4381 -0.3136
  889MPD2    H213036   2.271   0.747  13.385  2.0758 -0.6237  0.0187
  889MPD2    H313037   2.298   0.913  13.540  1.3345  3.4656  1.8170
  889MPD2     N13038   2.536   1.176  13.254 -0.5838  0.0552  0.2105
  889MPD2    H513039   2.547   1.252  13.321  0.9695  1.9568 -2.2310
  889MPD2    N113040   2.403   0.733  13.163  0.0664 -0.1089  0.1312
  889MPD2    H713041   2.487   0.735  13.107 -0.8735  1.3626 -1.2193
  890MPD2     C13042   2.193   2.677  15.034  1.1269 -0.6254 -0.4917
  890MPD2    C113043   2.290   2.750  15.102 -0.6764 -0.2496  0.2488
  890MPD2    C213044   2.344   2.702  15.221 -0.0620  0.0266  0.3610
  890MPD2    C313045   2.296   2.572  15.266  0.2898  0.8517 -0.0201
  890MPD2    C413046   2.190   2.516  15.199  0.3023  0.1713  0.2408
  890MPD2    C513047   2.134   2.565  15.083  0.3641  0.3107  0.1536
  890MPD2     H13048   2.422   2.750  15.278  0.9182 -1.4020  0.2269
  890MPD2    H113049   2.149   2.425  15.242 -0.2473  0.0825 -0.4724
  890MPD2    H213050   2.166   2.716  14.936  0.4520  0.2645  0.0467
  890MPD2    H313051   2.045   2.522  15.039  1.5910 -2.3143  0.2308
  890MPD2     N13052   2.317   2.520  15.393  0.7204 -0.4368 -0.9914
  890MPD2    H513053   2.268   2.439  15.430  0.0235 -0.1744 -1.3390
  890MPD2    N113054   2.340   2.860  15.030  0.4975  0.5628 -0.0212
  890MPD2    H713055   2.308   2.872  14.934 -2.8780 -0.1136  0.9903
  891MPD2     C13056   0.774   1.077  16.151 -0.4047 -0.3171  0.0316
  891MPD2    C113057   0.708   1.122  16.269 -0.0288 -0.2821  0.1234
  891MPD2    C213058   0.790   1.135  16.378  0.2277  0.8077 -0.1147
  891MPD2    C313059   0.919   1.086  16.381  0.9003  0.2168  0.2350
  891MPD2    C413060   0.972   1.032  16.273  0.0316  0.1087 -0.5627
  891MPD2    C513061   0.902   1.038  16.153  0.2466  0.0137 -0.0930
  891MPD2     H13062   0.755   1.189  16.465  0.7562 -0.1691  0.7100
  891MPD2    H113063   1.078   1.009  16.266 -0.3128 -0.9505 -2.3323
  891MPD2    H213064   0.723   1.091  16.057  0.9302  0.9105 -0.5141
  891MPD2    H313065   0.942   1.007  16.056 -3.6153 -2.0764 -1.0115
  891MPD2     N13066   0.979   1.108  16.500 -0.1523  0.3639  0.0120
  891MPD2    H513067   0.918   1.148  16.570 -0.9579 -0.9496  0.0442
  891MPD2    N113068   0.579   1.177  16.260 -0.3180 -0.3010  0.1416
  891MPD2    H713069   0.534   1.181  16.169 -0.3575  0.2631  0.1895
  892MPD2     C13070   1.471   2.456  14.744  0.6792  0.0815  0.3458
  892MPD2    C113071   1.401   2.336  14.736 -0.4264  0.6076  0.4276
  892MPD2    C213072   1.456   2.219  14.788 -0.1813  0.3369 -0.5381
  892MPD2    C313073   1.586   2.226  14.841 -0.0901  0.1762 -0.4797
  892MPD2    C413074   1.659   2.342  14.827 -0.4957  0.3723  0.3752
  892MPD2    C513075   1.597   2.462  14.787  0.2171 -0.5748  0.9051
  892MPD2     H13076   1.390   2.134  14.801  0.4607 -0.6382 -3.5931
  892MPD2    H113077   1.765   2.347  14.849 -0.4753  0.3612  0.2795
  892MPD2    H213078   1.420   2.551  14.731 -0.7382 -0.8920 -1.2144
  892MPD2    H313079   1.649   2.556  14.797 -1.5680  0.6254 -1.1654
  892MPD2     N13080   1.655   2.114  14.897  0.7034  0.9713  0.1070
  892MPD2    H513081   1.752   2.127  14.921  0.3914 -0.4050  2.1226
  892MPD2    N113082   1.277   2.317  14.669 -0.7739  0.0049 -0.1737
  892MPD2    H713083   1.246   2.221  14.668  0.1150 -0.2732 -1.4420
  893MPD2     C13084   3.569   1.327   2.037  0.2646 -1.1571 -0.1087
  893MPD2    C113085   3.602   1.202   2.073  0.2607 -0.0295  0.3267
  893MPD2    C213086   3.507   1.116   2.117  0.3252  0.2209 -0.3091
  893MPD2    C313087   3.378   1.159   2.137 -0.5260  0.3150 -0.5098
  893MPD2    C413088   3.343   1.285   2.105  0.1189 -0.2721 -0.5266
  893MPD2    C513089   3.444   1.376   2.064  0.0363 -0.4474 -0.3412
  893MPD2     H13090   3.528   1.013   2.144 -0.8045 -0.3009 -1.3758
  893MPD2    H113091   3.244   1.321   2.128  0.5016 -0.9477  2.2536
  893MPD2    H213092   3.644   1.385   1.986  0.1007 -4.0353 -3.6580
  893MPD2    H313093   3.407   1.476   2.040  1.4839  0.2363  0.3062
  893MPD2     N13094   3.271   1.087   2.201  0.0473 -0.5587 -0.6143
  893MPD2    H513095   3.197   1.151   2.228  0.1049 -0.7482  0.0133
  893MPD2    N113096   3.740   1.159   2.059 -0.1063 -0.2504 -0.1753
  893MPD2    H713097   3.818   1.223   2.050 -0.1083 -0.4667 -1.7022
  894MPD2     C13098   1.038   2.344   1.229 -0.5378 -0.4927 -0.0409
  894MPD2    C113099   0.968   2.419   1.320  0.1965 -0.0046 -0.6931
  894MPD2    C213100   0.997   2.556   1.320 -0.1938  0.6747  0.4802
  894MPD2    C313101   1.084   2.613   1.236  0.3638  0.0523 -0.2420
  894MPD2    C413102   1.148   2.537   1.144 -0.5740 -0.2407  0.6222
  894MPD2    C513103   1.119   2.401   1.140 -0.4169  0.7651  0.3492
  894MPD2     H13104   0.962   2.625   1.397  1.4157  0.0152  1.7948
  894MPD2    H113105   1.220   2.576   1.073  0.2223  0.1141  1.6329
  894MPD2    H213106   1.035   2.236   1.221 -1.8662 -0.4305 -0.3444
  894MPD2    H313107   1.170   2.342   1.065  0.1337  1.6844  0.0067
  894MPD2     N13108   1.112   2.752   1.244 -0.3235  0.3607  0.7463
  894MPD2    H513109   1.052   2.797   1.313  0.4507  1.5956  0.6079
  894MPD2    N113110   0.886   2.356   1.415 -0.2598 -0.1790 -0.0826
  894MPD2    H713111   0.835   2.419   1.476 -0.0143  0.9693 -1.0598
  895MPD2     C13112   4.470   1.604  13.533 -0.3698  0.4422  0.3327
  895MPD2    C113113   4.398   1.616  13.416 -0.0028  0.0412 -0.2913
  895MPD2    C213114   4.460   1.643  13.294 -0.0707 -0.7103 -0.8015
  895MPD2    C313115   4.598   1.619  13.280  0.5916 -1.2145  1.2268
  895MPD2    C413116   4.671   1.599  13.398 -0.2869  0.3717 -0.3496
  895MPD2    C513117   4.605   1.589  13.516  0.2466  0.0348 -0.4399
  895MPD2     H13118   4.398   1.653  13.206 -0.0485 -0.3065 -0.7713
  895MPD2    H113119   0.055   1.594  13.404 -0.3737 -0.4204  0.5084
  895MPD2    H213120   4.440   1.593  13.637 -0.6775 -0.5430  0.1437
  895MPD2    H313121   4.668   1.566  13.602 -1.6355  0.9799  1.1981
  895MPD2     N13122   4.650   1.604  13.152  0.0955 -0.0320  0.3885
  895MPD2    H513123   4.585   1.607  13.074 -1.6852 -0.1231  1.9066
  895MPD2    N113124   4.259   1.595  13.418  0.3181  0.1140 -0.6803
  895MPD2    H713125   4.203   1.601  13.333  1.8652 -0.6624 -1.7642
  896MPD2     C13126   2.841   3.808   1.737  0.3196 -0.1812 -0.2328
  896MPD2    C113127   2.911   3.748   1.632  0.4109  0.5535 -0.7186
  896MPD2    C213128   2.843   3.718   1.515 -0.5820 -0.1408 -0.1910
  896MPD2    C313129   2.714   3.748   1.508 -0.3243 -0.9269 -0.0951
  896MPD2    C413130   2.639   3.791   1.613  0.8435 -0.0406 -0.0907
  896MPD2    C513131   2.700   3.817   1.731  0.7876 -0.1901 -0.2902
  896MPD2     H13132   2.897   3.682   1.428 -2.6117 -0.6482 -1.2293
  896MPD2    H113133   2.533   3.814   1.609  1.0242  0.9015  0.8254
  896MPD2    H213134   2.886   3.835   1.832 -0.4547 -1.9452  0.6520
  896MPD2    H313135   2.646   3.862   1.812  0.1251  1.0156 -1.4142
  896MPD2     N13136   2.659   3.735   1.385  1.0217  0.0300  0.0450
  896MPD2    H513137   2.710   3.690   1.309  0.2579 -1.1303  0.2226
  896MPD2    N113138   3.047   3.762   1.652  0.0795  0.7979 -0.1033
  896MPD2    H713139   3.086   3.822   1.724 -1.9058 -0.6763  2.1738
  897MPD2     C13140   4.069   0.830  10.023  0.1329  0.2923 -0.1586
  897MPD2    C113141   4.118   0.761  10.135 -0.4026 -0.2519  0.2237
  897MPD2    C213142   4.059   0.785  10.257  0.4490 -0.1209 -0.0347
  897MPD2    C313143   3.959   0.875  10.272  0.2772  0.1082 -0.9171
  897MPD2    C413144   3.916   0.946  10.160 -0.6995 -1.0349  0.8875
  897MPD2    C513145   3.973   0.929  10.036 -0.1131 -0.0560 -0.4684
  897MPD2     H13146   4.098   0.734  10.344 -2.5827 -0.2262  1.2775
  897MPD2    H113147   3.827   1.008  10.161 -0.6983 -1.0413  2.1211
  897MPD2    H213148   4.102   0.812   9.922  1.5472 -0.5836  0.4542
  897MPD2    H313149   3.946   1.001   9.960  1.4357 -1.4422 -2.3106
  897MPD2     N13150   3.893   0.884  10.395  0.3081 -0.0285  0.2196
  897MPD2    H513151   3.921   0.825  10.473 -2.4402  0.5962  1.6671
  897MPD2    N113152   4.226   0.667  10.125 -0.1495 -0.1463 -0.2363
  897MPD2    H713153   4.269   0.639  10.212  0.7205 -0.2550 -0.6991
  898MPD2     C13154   1.294   1.936   0.283  0.0353  0.0943 -0.2369
  898MPD2    C113155   1.413   1.924   0.203 -0.5956  0.0118  0.3743
  898MPD2    C213156   1.443   2.024   0.112  0.1460 -0.6123 -0.6191
  898MPD2    C313157   1.358   2.131   0.101 -0.3243 -0.2101 -0.6225
  898MPD2    C413158   1.235   2.132   0.161  0.5244 -0.5432  0.2720
  898MPD2    C513159   1.199   2.036   0.252 -0.0559  0.5018  0.4120
  898MPD2     H13160   1.541   2.023   0.067  0.0469 -0.3437 -0.8374
  898MPD2    H113161   1.169   2.215   0.137 -0.9292 -0.9634  2.7678
  898MPD2    H213162   1.264   1.871   0.364 -2.3976  1.5752  0.0492
  898MPD2    H313163   1.110   2.051   0.312 -2.2049  0.9415 -2.9042
  898MPD2     N13164   1.395   2.235   0.007  0.0940  0.3192 -0.2306
  898MPD2    H513165   1.474   2.216  17.645  0.6217 -2.9566  1.4878
  898MPD2    N113166   1.514   1.825   0.225 -0.2231 -0.6135 -0.0765
  898MPD2    H713167   1.604   1.840   0.181 -0.8849  1.8234 -0.6086
  899MPD2     C13168   2.115   2.170  17.128 -0.7322 -0.0209 -0.2941
  899MPD2    C113169   2.156   2.277  17.205 -0.5873  0.2620  0.1319
  899MPD2    C213170   2.120   2.281  17.342  1.1913 -0.1669  0.4906
  899MPD2    C313171   2.042   2.182  17.390 -0.0927 -0.1744 -0.2794
  899MPD2    C413172   1.998   2.075  17.317  0.5775  0.1044  0.8934
  899MPD2    C513173   2.033   2.077  17.178 -0.3675 -0.1322 -0.1883
  899MPD2     H13174   2.148   2.367  17.401  1.4834 -0.5391  0.8926
  899MPD2    H113175   1.927   1.999  17.350 -0.3265  0.0191 -1.2498
  899MPD2    H213176   2.151   2.169  17.026 -0.6280  2.5139 -0.2674
  899MPD2    H313177   2.010   1.991  17.117  0.1580 -1.0134  0.8564
  899MPD2     N13178   1.987   2.183  17.516  0.1168 -0.0204  0.2759
  899MPD2    H513179   1.933   2.101  17.544 -0.5765  0.3225 -0.0646
  899MPD2    N113180   2.211   2.393  17.143 -0.3456 -0.1935  0.1006
  899MPD2    H713181   2.198   2.390  17.042 -1.0123 -3.2981  0.2923
  900MPD2     C13182   1.957   4.266  12.594  0.2459  0.3551 -0.3988
  900MPD2    C113183   1.921   4.184  12.493 -0.2017 -0.2494 -0.1772
  900MPD2    C213184   1.804   4.202  12.420  0.1012 -0.0084 -0.1031
  900MPD2    C313185   1.727   4.317  12.449  0.5211 -0.0768 -0.5534
  900MPD2    C413186   1.763   4.401  12.554 -0.4544  0.1485 -0.5859
  900MPD2    C513187   1.883   4.377  12.620  0.3439  0.2101 -0.3066
  900MPD2     H13188   1.778   4.132  12.342 -1.5224  0.9296 -0.4070
  900MPD2    H113189   1.708   4.491  12.578  0.3349  0.6752 -0.7467
  900MPD2    H213190   2.044   4.253  12.656  1.1584  0.4425 -1.6570
  900MPD2    H313191   1.904   4.436  12.708 -0.7395 -0.2694  0.2630
  900MPD2     N13192   1.613   4.346  12.371  0.0812  0.1372 -0.1367
  900MPD2    H513193   1.599   4.278  12.297 -1.9961  0.1264  0.2678
  900MPD2    N113194   1.985   4.054  12.465  0.0901 -0.2936 -0.3479
  900MPD2    H713195   1.934   3.994  12.400  0.0772  0.8739 -1.4089
  901MPD2     C13196   1.796   3.064  12.507  0.8694  0.0370  0.5235
  901MPD2    C113197   1.932   3.055  12.517 -0.1635  0.5530  0.4613
  901MPD2    C213198   2.005   3.173  12.538 -0.0406  0.2086  0.2610
  901MPD2    C313199   1.947   3.298  12.517 -0.5065 -0.6427  0.2872
  901MPD2    C413200   1.811   3.305  12.489 -0.0570  0.0240 -0.0539
  901MPD2    C513201   1.743   3.188  12.487  0.0242  0.1397 -1.1534
  901MPD2     H13202   2.111   3.171  12.562  0.2095  1.5606 -0.6967
  901MPD2    H113203   1.758   3.397  12.468 -0.6648  0.2089  2.3105
  901MPD2    H213204   1.736   2.974  12.502  0.1603  0.4848  1.0932
  901MPD2    H313205   1.635   3.194  12.476  0.0743  3.0161 -0.1881
  901MPD2     N13206   2.038   3.407  12.529  0.4978  0.1096 -0.0446
  901MPD2    H513207   2.138   3.388  12.531  0.0146 -2.0906  2.9967
  901MPD2    N113208   1.992   2.922  12.529 -0.4171 -0.5188  0.4519
  901MPD2    H713209   1.930   2.842  12.531 -0.9944 -0.0437  2.0255
  902MPD2     C13210   0.332   2.488  13.098  0.3548  0.1380  0.1103
  902MPD2    C113211   0.298   2.503  12.963 -0.8065  0.0106 -0.4427
  902MPD2    C213212   0.314   2.392  12.878  0.1954 -0.4841  0.6078
  902MPD2    C313213   0.347   2.266  12.922  0.4926  0.0556  0.1266
  902MPD2    C413214   0.360   2.247  13.061 -0.0250 -0.4998 -0.2773
  902MPD2    C513215   0.348   2.359  13.141 -0.3660 -0.2282 -0.1580
  902MPD2     H13216   0.298   2.427  12.777  0.6989 -1.5809  0.1508
  902MPD2    H113217   0.380   2.150  13.106 -0.6904  0.2870  1.6648
  902MPD2    H213218   0.326   2.562  13.177 -0.0436 -1.1644  1.3125
  902MPD2    H313219   0.361   2.342  13.247 -1.9660  2.5829  0.4908
  902MPD2     N13220   0.368   2.151  12.834 -0.1671  0.3158  0.0946
  902MPD2    H513221   0.408   2.065  12.870  0.0686  0.4661  0.1890
  902MPD2    N113222   0.274   2.628  12.902  0.3702 -0.1047  0.0770
  902MPD2    H713223   0.255   2.626  12.802  0.8336 -2.4220  0.0358
  903MPD2     C13224   0.520   1.946  12.008 -0.2948  0.2464  0.0693
  903MPD2    C113225   0.438   1.895  12.108  0.1652 -0.2092 -0.2342
  903MPD2    C213226   0.322   1.827  12.073 -0.2024 -0.8172 -0.3615
  903MPD2    C313227   0.286   1.810  11.946 -0.3617 -0.4437 -0.4975
  903MPD2    C413228   0.368   1.859  11.847 -0.9160 -0.7230  0.3608
  903MPD2    C513229   0.482   1.924  11.879  0.5490  0.2061  0.1669
  903MPD2     H13230   0.251   1.790  12.146  0.1908 -0.0522  0.4113
  903MPD2    H113231   0.330   1.862  11.745 -1.0044 -3.3345  0.3029
  903MPD2    H213232   0.608   2.006  12.028  2.1197 -2.7794 -1.3229
  903MPD2    H313233   0.542   1.968  11.801 -0.6241  0.8572 -0.3646
  903MPD2     N13234   0.161   1.751  11.932 -0.0627 -0.1828  0.2510
  903MPD2    H513235   0.104   1.729  12.014 -0.8490  0.6928 -0.0685
  903MPD2    N113236   0.459   1.932  12.244 -0.6348 -0.2020  0.6913
  903MPD2    H713237   0.519   2.013  12.259 -3.0795  2.2614 -2.7369
  904MPD2     C13238   0.656   1.435  13.572  0.0437  0.5070  0.1849
  904MPD2    C113239   0.644   1.369  13.688  0.3362  0.4294  0.2180
  904MPD2    C213240   0.738   1.392  13.790  0.7176 -0.1260  0.2878
  904MPD2    C313241   0.854   1.468  13.756  0.3988  0.0285 -0.2985
  904MPD2    C413242   0.870   1.532  13.634 -0.4246  0.5068 -0.3465
  904MPD2    C513243   0.761   1.513  13.544 -0.1634  0.4939  0.2629
  904MPD2     H13244   0.738   1.339  13.885  3.5414 -0.6622 -0.0153
  904MPD2    H113245   0.959   1.584  13.602 -0.4072  1.7248  1.6578
  904MPD2    H213246   0.577   1.419  13.499 -0.0883  0.9969  0.2191
  904MPD2    H313247   0.775   1.555  13.446 -0.2239  0.1469  0.1068
  904MPD2     N13248   0.951   1.470  13.859 -0.1021 -0.1856  0.3182
  904MPD2    H513249   0.929   1.414  13.941  1.4088 -0.3830  0.5874
  904MPD2    N113250   0.532   1.291  13.714 -0.3187 -0.1149 -0.0214
  904MPD2    H713251   0.454   1.296  13.650 -0.1918 -0.3895 -0.1949
  905MPD2     C13252   4.460   1.158  13.622 -0.3220 -0.1095  0.1902
  905MPD2    C113253   4.582   1.214  13.588  0.0633  0.2958  0.6891
  905MPD2    C213254   4.613   1.264  13.468  0.5695 -0.6080  0.7854
  905MPD2    C313255   4.521   1.253  13.370  0.3679 -0.4449 -0.5590
  905MPD2    C413256   4.402   1.195  13.398  0.0635  0.7805  0.8437
  905MPD2    C513257   4.371   1.147  13.523  0.5215  0.6029 -0.6142
  905MPD2     H13258   4.704   1.315  13.441  0.5973 -0.6803  0.7433
  905MPD2    H113259   4.324   1.191  13.324  0.6192  0.8730  0.2538
  905MPD2    H213260   4.437   1.116  13.719  0.9387  1.2365  1.0684
  905MPD2    H313261   4.269   1.111  13.528  1.6128 -2.5343 -0.9595
  905MPD2     N13262   4.560   1.291  13.242  0.0134 -0.3865 -0.6812
  905MPD2    H513263   4.639   1.352  13.226 -0.1518  0.5264  2.0357
  905MPD2    N113264   4.677   1.213  13.694 -1.0576  0.1721  0.2988
  905MPD2    H713265   4.665   1.152  13.774  0.3755 -0.6504 -0.1180
  906MPD2     C13266   2.555   1.131  11.355  0.0779 -0.0215  0.2114
  906MPD2    C113267   2.474   1.071  11.259  0.0210  0.0604 -0.7253
  906MPD2    C213268   2.352   1.019  11.299 -0.4783 -0.3878  0.8192
  906MPD2    C313269   2.312   1.013  11.428  0.7007 -0.3174 -0.5221
  906MPD2    C413270   2.391   1.061  11.527  0.3345  0.2423  0.2496
  906MPD2    C513271   2.508   1.124  11.484 -0.7050  0.3012 -0.5705
  906MPD2     H13272   2.293   0.962  11.229 -0.6240  1.4793 -0.5879
  906MPD2    H113273   2.383   1.043  11.634  0.7254  3.0429  0.7341
  906MPD2    H213274   2.650   1.181  11.341 -0.7886  1.0710 -1.7837
  906MPD2    H313275   2.568   1.165  11.564  0.3408 -0.3920 -0.9973
  906MPD2     N13276   2.198   0.940  11.465  0.4502 -0.0344 -0.1695
  906MPD2    H513277   2.195   0.905  11.561  1.2666 -0.3458 -0.2582
  906MPD2    N113278   2.499   1.076  11.120 -0.3995 -0.8187 -0.5358
  906MPD2    H713279   2.421   1.058  11.058 -0.1027  0.2099 -1.2040
  907MPD2     C13280   1.282   0.070  15.575 -0.0264 -0.1318  0.2672
  907MPD2    C113281   1.366   4.716  15.499  0.1600 -0.7001  0.5430
  907MPD2    C213282   1.505   0.017  15.492  0.6095  0.4236 -0.0979
  907MPD2    C313283   1.558   0.125  15.570 -0.3844  0.0300  0.6577
  907MPD2    C413284   1.477   0.184  15.665  0.1230  0.1090  0.2576
  907MPD2    C513285   1.339   0.163  15.655 -0.0684  0.0138 -0.0303
  907MPD2     H13286   1.567   4.675  15.434 -1.2779 -1.3171 -0.1262
  907MPD2    H113287   1.510   0.261  15.735  1.4156 -1.1505  1.0357
  907MPD2    H213288   1.177   0.045  15.584 -0.4803  1.5718 -0.2496
  907MPD2    H313289   1.278   0.217  15.726  0.7581  0.2661  0.4814
  907MPD2     N13290   1.695   0.163  15.561 -0.2373 -0.2489  0.5641
  907MPD2    H513291   1.750   0.125  15.484 -1.9846  0.6240 -1.1321
  907MPD2    N113292   1.316   4.606  15.426 -0.1703 -0.3301  0.0060
  907MPD2    H713293   1.390   4.560  15.374 -0.5017  1.4877 -2.0805
  908MPD2     C13294   4.261   4.581   9.577  0.3800  0.2326 -0.7461
  908MPD2    C113295   4.191   4.706   9.558  0.0420  0.1078 -0.1115
  908MPD2    C213296   4.225   0.080   9.645  0.2646  0.6112  0.8697
  908MPD2    C313297   4.324   0.072   9.739  0.2530 -0.2485  0.0216
  908MPD2    C413298   4.385   4.673   9.751  0.4635  0.0131 -0.0080
  908MPD2    C513299   4.368   4.571   9.664  0.4866 -0.1855 -1.4109
  908MPD2     H13300   4.180   0.179   9.647 -0.8676  0.1362 -2.2423
  908MPD2    H113301   4.459   4.655   9.828  0.4641  2.4504  0.5651
  908MPD2    H213302   4.248   4.495   9.512  2.4168 -0.9581  0.4381
  908MPD2    H313303   4.419   4.475   9.663  0.3678 -0.2351 -2.9402
  908MPD2     N13304   4.372   0.186   9.807  0.6200  0.1674 -0.0656
  908MPD2    H513305   4.308   0.264   9.819 -0.1985 -0.5054 -0.0323
  908MPD2    N113306   4.095   0.005   9.458  0.2214  0.1368 -0.1844
  908MPD2    H713307   4.040   0.089   9.469  0.1849  0.3081 -1.7005
  909MPD2     C13308   4.436   3.496  11.721  0.2734 -0.8624  0.6224
  909MPD2    C113309   4.467   3.603  11.639  0.6688  0.2350 -0.0158
  909MPD2    C213310   4.385   3.712  11.654 -0.3974  0.3418  0.1070
  909MPD2    C313311   4.281   3.710  11.742  0.3891 -0.5446  0.3869
  909MPD2    C413312   4.255   3.610  11.832 -0.9353  1.0122 -0.4694
  909MPD2    C513313   4.337   3.501  11.821  0.0761  0.2150 -0.2173
  909MPD2     H13314   4.394   3.796  11.586  1.8648  0.9494  1.1827
  909MPD2    H113315   4.171   3.601  11.900  0.2390 -0.0510  0.8357
  909MPD2    H213316   4.496   3.405  11.726  0.7304 -0.5543  0.7743
  909MPD2    H313317   4.322   3.413  11.881 -0.4554 -0.3366 -1.1547
  909MPD2     N13318   4.214   3.835  11.749 -0.0412  0.4283 -0.0879
  909MPD2    H513319   4.237   3.901  11.676 -1.9497 -0.5167 -1.5414
  909MPD2    N113320   4.580   3.605  11.547  0.2761 -0.1842  0.0567
  909MPD2    H713321   4.588   3.693  11.498  1.8556 -1.3587 -1.7642
  910MPD2     C13322   1.058   0.154  16.132  0.2983  0.3765 -0.6471
  910MPD2    C113323   1.113   0.134  16.005 -0.0271  0.3290  0.0671
  910MPD2    C213324   1.044   0.198  15.904  0.1072  0.4591  0.3709
  910MPD2    C313325   0.944   0.293  15.926 -0.3775 -0.2560 -0.2403
  910MPD2    C413326   0.898   0.310  16.054 -0.2635 -0.2691 -0.0082
  910MPD2    C513327   0.961   0.240  16.150  0.1632  0.4061  0.2291
  910MPD2     H13328   1.076   0.178  15.803 -2.1348  0.5789 -0.3723
  910MPD2    H113329   0.839   0.397  16.081 -1.5602 -0.4625 -2.3152
  910MPD2    H213330   1.103   0.105  16.218  0.9746  2.3686  0.1262
  910MPD2    H313331   0.934   0.267  16.252 -0.0777  2.5040 -0.3957
  910MPD2     N13332   0.890   0.381  15.833  0.0198 -0.0850 -0.7920
  910MPD2    H513333   0.808   0.431  15.865  0.6450  1.4091 -1.5320
  910MPD2    N113334   1.224   0.051  15.968 -0.4627 -0.1763  0.2977
  910MPD2    H713335   1.231   0.016  15.873 -0.4613 -2.0216  0.9879
  911MPD2     C13336   3.456   1.294  16.473  0.2710  0.0643 -0.4446
  911MPD2    C113337   3.559   1.381  16.446 -0.0956  0.2471 -0.6377
  911MPD2    C213338   3.522   1.513  16.425 -0.8048  0.1538  0.4876
  911MPD2    C313339   3.387   1.551  16.428 -0.3353 -0.2032  0.1207
  911MPD2    C413340   3.290   1.457  16.461  0.1993  0.0283  0.7661
  911MPD2    C513341   3.325   1.330  16.480  0.1680 -0.5685  0.5234
  911MPD2     H13342   3.594   1.587  16.394 -1.1949 -0.3755 -1.6353
  911MPD2    H113343   3.182   1.469  16.457  0.4210  2.4013  2.1422
  911MPD2    H213344   3.483   1.190  16.488  1.7655  0.7243  1.5642
  911MPD2    H313345   3.244   1.260  16.497  0.2928 -1.4191 -2.4423
  911MPD2     N13346   3.342   1.682  16.407 -0.1010  0.5388 -0.4455
  911MPD2    H513347   3.242   1.684  16.423 -0.6470 -3.8956 -3.1115
  911MPD2    N113348   3.692   1.319  16.445 -0.0131  0.0313  0.0410
  911MPD2    H713349   3.700   1.220  16.466  1.8434  1.0511  4.1811
  912MPD2     C13350   3.051   1.394  16.012 -0.1935 -0.3525  0.1377
  912MPD2    C113351   3.047   1.479  16.126  0.3640 -0.3212  0.5277
  912MPD2    C213352   3.021   1.409  16.242 -0.2318  0.4229  0.8407
  912MPD2    C313353   3.002   1.277  16.253  0.8684  0.1284 -0.1430
  912MPD2    C413354   3.019   1.202  16.141  0.2864 -0.6084  0.5951
  912MPD2    C513355   3.044   1.261  16.018  0.3514  0.4658 -0.2489
  912MPD2     H13356   2.998   1.462  16.334  0.3391 -0.7566  1.6750
  912MPD2    H113357   3.007   1.095  16.154 -1.2197 -0.5111 -0.0517
  912MPD2    H213358   3.077   1.430  15.913 -1.2134  0.5780  0.2180
  912MPD2    H313359   3.054   1.203  15.927 -1.8996  0.9086 -0.7614
  912MPD2     N13360   2.963   1.229  16.377  0.0932  0.5789 -0.5192
  912MPD2    H513361   2.963   1.296  16.453 -1.9569 -1.5343  1.3460
  912MPD2    N113362   3.071   1.617  16.117  0.0587 -0.2081 -0.0602
  912MPD2    H713363   3.112   1.653  16.032 -3.0525 -2.7344 -2.6313
  913MPD2     C13364   4.181   1.844  10.024 -0.2263 -0.4696 -0.0920
  913MPD2    C113365   4.196   1.973  10.064  0.0345 -0.5593  0.3104
  913MPD2    C213366   4.139   2.071   9.991  0.0746 -0.6714 -0.1740
  913MPD2    C313367   4.048   2.041   9.889 -0.5212 -0.2833  0.2439
  913MPD2    C413368   4.026   1.905   9.853  0.2628  0.1599 -0.1819
  913MPD2    C513369   4.100   1.810   9.917 -0.2345 -0.0096  0.0560
  913MPD2     H13370   4.164   2.174  10.014  3.3409 -1.5370  0.2292
  913MPD2    H113371   3.958   1.874   9.775  0.9325  1.6631 -1.3658
  913MPD2    H213372   4.236   1.764  10.073 -1.3301 -1.4969 -0.5515
  913MPD2    H313373   4.086   1.706   9.888 -1.4203 -0.2603  1.5158
  913MPD2     N13374   3.954   2.139   9.843 -0.9657 -0.0068 -0.0658
  913MPD2    H513375   3.874   2.107   9.789 -2.4383 -1.2367  2.9077
  913MPD2    N113376   4.291   1.988  10.170 -0.0882  0.5586  0.1177
  913MPD2    H713377   4.330   1.906  10.214  2.5893  0.0654 -3.1713
  914MPD2     C13378   1.563   2.427  12.085  0.0576  0.3472  0.1177
  914MPD2    C113379   1.619   2.549  12.076 -0.1381  0.9920 -0.4238
  914MPD2    C213380   1.744   2.575  12.134  0.2362 -0.1007  0.0953
  914MPD2    C313381   1.790   2.477  12.219 -0.0988 -0.8462  0.4761
  914MPD2    C413382   1.739   2.351  12.222 -0.2089  0.0297  0.2083
  914MPD2    C513383   1.623   2.326  12.155 -0.5464 -0.1221  0.7272
  914MPD2     H13384   1.781   2.675  12.111  4.2869 -1.5204  0.4062
  914MPD2    H113385   1.783   2.276  12.286 -0.8738 -1.7372 -1.4331
  914MPD2    H213386   1.472   2.405  12.031 -0.1266 -0.5373  0.7757
  914MPD2    H313387   1.583   2.225  12.152 -1.0106  0.1145 -1.2399
  914MPD2     N13388   1.909   2.521  12.292 -0.1350  0.0831  0.8861
  914MPD2    H513389   1.948   2.612  12.268 -1.7734  0.5311 -0.1067
  914MPD2    N113390   1.549   2.656  12.006  0.0577  0.0120 -0.0546
  914MPD2    H713391   1.463   2.641  11.955  0.1960 -0.3736 -0.1766
  915MPD2     C13392   0.257   2.733  15.971 -0.1122 -0.4423 -0.1372
  915MPD2    C113393   0.130   2.711  15.915  0.9874 -0.1796  0.1522
  915MPD2    C213394   0.019   2.726  15.996 -0.8636  0.6924  0.0687
  915MPD2    C313395   0.043   2.770  16.123 -0.3979 -0.8548 -0.2395
  915MPD2    C413396   0.165   2.781  16.173 -0.0070  0.1919  0.4061
  915MPD2    C513397   0.276   2.768  16.100 -0.1266  0.0683 -0.6216
  915MPD2     H13398   4.641   2.713  15.964 -0.8717 -0.2420  0.4704
  915MPD2    H113399   0.181   2.826  16.270 -0.6920  2.7514 -0.6551
  915MPD2    H213400   0.343   2.711  15.909  0.3123  0.8335 -0.0019
  915MPD2    H313401   0.376   2.777  16.141 -0.2533 -1.5692  0.0720
  915MPD2     N13402   4.657   2.788  16.209 -0.7011  0.3854 -0.1882
  915MPD2    H513403   4.562   2.794  16.171 -0.8428 -2.2772 -0.2925
  915MPD2    N113404   0.127   2.687  15.776 -0.3282 -0.4258  0.2495
  915MPD2    H713405   0.215   2.657  15.737 -0.0818 -0.9236  1.1891
  916MPD2     C13406   2.891   0.956  15.835  0.4654  0.3819 -0.6042
  916MPD2    C113407   2.854   0.837  15.899 -0.0131 -0.0447  0.4124
  916MPD2    C213408   2.872   0.719  15.825  0.2462  0.2049 -0.1658
  916MPD2    C313409   2.921   0.718  15.696 -0.2141  0.0051 -0.5040
  916MPD2    C413410   2.974   0.836  15.648 -0.4757 -0.5849  0.5082
  916MPD2    C513411   2.956   0.953  15.716  0.0909 -0.0309 -0.3852
  916MPD2     H13412   2.816   0.630  15.851  1.1200 -0.2317  0.2130
  916MPD2    H113413   3.025   0.831  15.552 -0.7803 -0.1497  0.3258
  916MPD2    H213414   2.877   1.048  15.890 -1.9335 -0.2087 -0.2413
  916MPD2    H313415   2.977   1.046  15.665 -0.4742 -0.5736 -1.6207
  916MPD2     N13416   2.935   0.592  15.625 -0.5674  0.6589 -0.4417
  916MPD2    H513417   2.911   0.507  15.675 -1.4850  1.5828  0.6938
  916MPD2    N113418   2.786   0.849  16.022 -0.0589  0.3457  0.1724
  916MPD2    H713419   2.775   0.942  16.062  0.5644  0.9582 -1.0392
  917MPD2     C13420   3.343   3.152  11.115 -0.2866 -0.2237 -0.3759
  917MPD2    C113421   3.369   3.216  11.235 -0.7552 -0.1442  0.7864
  917MPD2    C213422   3.427   3.340  11.229  0.2964 -0.1191 -0.2881
  917MPD2    C313423   3.474   3.394  11.107 -0.4761 -0.2494 -0.1052
  917MPD2    C413424   3.460   3.317  10.996  0.0914 -0.3821 -0.8301
  917MPD2    C513425   3.395   3.203  10.996  0.1110  0.4342 -0.1452
  917MPD2     H13426   3.445   3.394  11.321 -1.0009  2.3871 -1.4918
  917MPD2    H113427   3.499   3.345  10.899  0.1406  0.0387 -0.6900
  917MPD2    H213428   3.288   3.059  11.115  1.6571 -1.3594 -1.7953
  917MPD2    H313429   3.387   3.144  10.905 -0.2285 -2.0404  1.4756
  917MPD2     N13430   3.550   3.512  11.104 -0.2737  0.0539  0.6577
  917MPD2    H513431   3.583   3.539  11.012 -1.3742  0.7324  0.4611
  917MPD2    N113432   3.318   3.150  11.348  0.4248  0.0126 -0.0703
  917MPD2    H713433   3.243   3.083  11.333 -1.1350  2.0024 -1.0806
  918MPD2     C13434   3.640   3.269  12.304  0.5978 -0.4397 -0.1389
  918MPD2    C113435   3.703   3.213  12.198  0.3217 -0.1867 -0.8731
  918MPD2    C213436   3.624   3.178  12.092  0.0243 -0.0656  0.0296
  918MPD2    C313437   3.494   3.210  12.074  0.7470  0.5487  0.8222
  918MPD2    C413438   3.428   3.270  12.186 -0.1360  0.3044 -0.1554
  918MPD2    C513439   3.508   3.300  12.292 -0.3429 -0.6206 -0.5529
  918MPD2     H13440   3.675   3.131  12.009  1.1763  0.9864  0.1367
  918MPD2    H113441   3.325   3.300  12.203 -0.2196  1.3100 -2.3756
  918MPD2    H213442   3.699   3.291  12.392 -0.5927 -1.6923  0.9652
  918MPD2    H313443   3.452   3.349  12.371  0.5156  0.5544 -0.6622
  918MPD2     N13444   3.436   3.163  11.958  0.2729 -0.0454  0.0723
  918MPD2    H513445   3.495   3.116  11.890  0.0388  1.1522 -0.9653
  918MPD2    N113446   3.835   3.164  12.193 -0.9513 -0.3852  0.0695
  918MPD2    H713447   3.870   3.128  12.105 -0.3662 -0.2616  0.2479
  919MPD2     C13448   4.289   2.191  10.985  0.4767 -0.0696  0.5515
  919MPD2    C113449   4.200   2.089  10.980  0.1026  0.3778  0.7574
  919MPD2    C213450   4.157   2.038  10.863  0.1827 -0.5710  0.1192
  919MPD2    C313451   4.195   2.104  10.747  0.1350  0.0085 -0.5681
  919MPD2    C413452   4.296   2.200  10.744  0.2950 -0.2122  0.3896
  919MPD2    C513453   4.337   2.242  10.869  0.7677  0.1279  0.3269
  919MPD2     H13454   4.076   1.966  10.866  0.4701 -0.9039 -0.2114
  919MPD2    H113455   4.328   2.252  10.654  0.0175 -3.4792 -1.5736
  919MPD2    H213456   4.327   2.232  11.077  0.0254 -2.2043  1.6667
  919MPD2    H313457   4.404   2.328  10.867 -0.5969  1.2064  0.7906
  919MPD2     N13458   4.136   2.080  10.623 -0.2504  0.0950  0.1519
  919MPD2    H513459   4.177   2.137  10.550 -2.0938  3.0460  1.4247
  919MPD2    N113460   4.143   2.030  11.098  0.6460 -0.3952 -0.3073
  919MPD2    H713461   4.096   1.940  11.092  0.5446 -0.4326  0.9727
  920MPD2     C13462   3.653   2.666  10.007 -0.4596  0.1763  0.4238
  920MPD2    C113463   3.572   2.560  10.021  0.0615 -0.1073  0.1661
  920MPD2    C213464   3.614   2.440  10.089  0.6641  0.0590  0.2015
  920MPD2    C313465   3.743   2.429  10.129 -0.0862  0.8915  0.0511
  920MPD2    C413466   3.828   2.541  10.108  0.3779  0.1933  0.9283
  920MPD2    C513467   3.778   2.654  10.055 -0.5782 -0.0073  0.2143
  920MPD2     H13468   3.542   2.362  10.108 -1.6783  2.5442  1.3880
  920MPD2    H113469   3.934   2.534  10.128  0.5868 -3.0432 -1.2972
  920MPD2    H213470   3.616   2.760   9.968 -1.3014 -0.2973  0.0833
  920MPD2    H313471   3.855   2.728  10.034 -0.1604 -1.2255 -2.6246
  920MPD2     N13472   3.791   2.310  10.190 -0.2037  0.0003  0.4044
  920MPD2    H513473   3.729   2.230  10.184 -0.4970  0.3061 -0.5905
  920MPD2    N113474   3.431   2.565   9.991  0.0914  0.1333  0.0133
  920MPD2    H713475   3.362   2.516  10.046  1.2170 -1.7629 -0.2915
  921MPD2     C13476   4.705   0.999  16.575 -0.4958 -0.0665 -0.4438
  921MPD2    C113477   4.673   1.135  16.545 -0.1449  1.0676  0.3138
  921MPD2    C213478   4.537   1.172  16.532 -0.3316  0.0581  0.8062
  921MPD2    C313479   4.440   1.081  16.554 -0.6231  0.5873 -0.1254
  921MPD2    C413480   4.475   0.955  16.588 -0.4718  0.1253 -0.2835
  921MPD2    C513481   4.604   0.909  16.600  0.9873 -0.5663 -0.1246
  921MPD2     H13482   4.515   1.278  16.527  0.8724  0.2373 -0.6803
  921MPD2    H113483   4.397   0.883  16.610 -1.6785  1.9656  1.5105
  921MPD2    H213484   0.085   0.969  16.577 -0.4424  0.0463 -1.6307
  921MPD2    H313485   4.634   0.806  16.619 -2.0102 -1.3565  0.2372
  921MPD2     N13486   4.305   1.103  16.534 -0.2119  0.0386 -0.7882
  921MPD2    H513487   4.242   1.026  16.554 -2.1793  2.2947  1.7085
  921MPD2    N113488   0.061   1.211  16.504 -0.1772  0.2228  0.1784
  921MPD2    H713489   0.152   1.168  16.511  0.0252  0.1775 -2.8599
  922MPD2     C13490   0.153   4.111  17.283 -0.7779 -0.3632 -0.2015
  922MPD2    C113491   0.103   4.058  17.403  0.6597  0.1004  0.0368
  922MPD2    C213492   0.107   3.922  17.420 -0.2233 -0.6117  0.7822
  922MPD2    C313493   0.157   3.842  17.318  0.2643 -0.6046  0.5809
  922MPD2    C413494   0.202   3.896  17.200 -0.3270  0.1125  0.8787
  922MPD2    C513495   0.204   4.026  17.185 -0.5801  0.0349  0.6647
  922MPD2     H13496   0.081   3.880  17.516  1.4522  0.7569  1.8228
  922MPD2    H113497   0.238   3.836  17.117 -2.6460 -2.5589  1.8006
  922MPD2    H213498   0.167   4.215  17.255 -1.8237 -0.8267 -2.4920
  922MPD2    H313499   0.231   4.074  17.091  3.5081 -1.8643  0.8719
  922MPD2     N13500   0.160   3.704  17.340 -0.4711  0.1286 -0.0823
  922MPD2    H513501   0.117   3.667  17.424  0.0077 -1.7778 -0.6721
  922MPD2    N113502   0.060   4.128  17.516 -0.1192 -0.8204 -0.2435
  922MPD2    H713503   0.046   4.072  17.599 -0.3632 -0.6962 -0.1995
  923MPD2     C13504   1.215   0.755   8.914 -0.2057  0.2087 -0.6978
  923MPD2    C113505   1.182   0.842   9.015 -1.0032 -0.1241  0.4186
  923MPD2    C213506   1.280   0.927   9.068 -0.2243 -0.5173  0.5659
  923MPD2    C313507   1.411   0.922   9.015 -0.0155  0.2951 -0.0291
  923MPD2    C413508   1.440   0.816   8.930 -0.1576 -0.3751 -0.3876
  923MPD2    C513509   1.342   0.735   8.879 -0.0800 -0.0079 -0.2814
  923MPD2     H13510   1.254   0.994   9.149 -0.9881  0.9384 -0.9071
  923MPD2    H113511   1.538   0.805   8.887  0.0349  0.6280 -0.2164
  923MPD2    H213512   1.138   0.688   8.876 -1.0409  0.2763  0.8435
  923MPD2    H313513   1.361   0.658   8.805  2.6682  0.4247 -0.0065
  923MPD2     N13514   1.523   1.002   9.069  0.4880 -0.5990  0.4978
  923MPD2    H513515   1.618   0.981   9.039 -0.2237 -1.3057 -1.2849
  923MPD2    N113516   1.056   0.842   9.072 -0.3635  0.0429  0.5435
  923MPD2    H713517   0.992   0.769   9.042 -0.2741 -0.6870  2.1464
  924MPD2     C13518   2.072   4.635  14.950 -0.3124  0.0158 -0.2184
  924MPD2    C113519   2.148   4.631  15.061 -1.0385  0.0527 -0.4530
  924MPD2    C213520   2.138   0.017  15.142 -0.2799  0.0759 -1.1985
  924MPD2    C313521   2.062   0.127  15.121  0.1651 -0.2597 -0.9624
  924MPD2    C413522   1.998   0.129  14.998 -0.2909 -0.3340  0.5377
  924MPD2    C513523   2.002   0.019  14.919 -0.1317 -0.4387 -0.2070
  924MPD2     H13524   2.178   0.005  15.242 -0.2193  1.3025 -1.0757
  924MPD2    H113525   1.948   0.221  14.970  0.1034  0.0762  1.1741
  924MPD2    H213526   2.072   4.553  14.879 -1.1663 -2.8745  3.1098
  924MPD2    H313527   1.945   0.022  14.826  1.2788 -1.0183 -1.0988
  924MPD2     N13528   2.038   0.232  15.213  0.0495  0.1957  0.2213
  924MPD2    H513529   1.967   0.299  15.189 -2.6827 -1.8899  2.5668
  924MPD2    N113530   2.231   4.516  15.079 -0.4505 -0.5238  0.1656
  924MPD2    H713531   2.223   4.440  15.013  2.5350 -0.8230  0.1399
  925MPD2     C13532   0.908   1.681  14.387  0.0892 -0.2109  0.6130
  925MPD2    C113533   0.777   1.690  14.351  0.1879 -0.9328  0.3264
  925MPD2    C213534   0.680   1.641  14.434  0.2783  0.3147 -0.5169
  925MPD2    C313535   0.719   1.572  14.552 -0.1917 -0.3598 -0.0290
  925MPD2    C413536   0.858   1.556  14.580  0.8636 -0.1024 -0.1756
  925MPD2    C513537   0.950   1.618  14.499  0.1647  0.3588  0.2298
  925MPD2     H13538   0.574   1.653  14.415 -0.2155 -0.3126  1.7693
  925MPD2    H113539   0.888   1.496  14.665 -2.3655  0.8019  1.5798
  925MPD2    H213540   0.989   1.734  14.338  1.6930 -0.2053  3.2111
  925MPD2    H313541   1.052   1.621  14.534 -0.0128 -0.7924  0.8407
  925MPD2     N13542   0.628   1.518  14.651 -0.5561 -0.3806 -0.8089
  925MPD2    H513543   0.667   1.474  14.733 -1.0702  0.1778 -0.2691
  925MPD2    N113544   0.740   1.748  14.228 -0.2080 -0.1590 -0.2717
  925MPD2    H713545   0.642   1.752  14.202  0.4891  2.5615 -2.4322
  926MPD2     C13546   3.670   0.230  13.523  0.2558 -0.1916  0.1370
  926MPD2    C113547   3.591   0.321  13.462 -0.2065 -0.4590  0.2834
  926MPD2    C213548   3.640   0.388  13.353  0.0209  0.2863 -0.2036
  926MPD2    C313549   3.770   0.356  13.306 -0.0943 -0.4796 -0.2328
  926MPD2    C413550   3.847   0.272  13.384 -0.2043  0.0704 -0.8828
  926MPD2    C513551   3.796   0.215  13.489  0.0673  0.0189 -0.2339
  926MPD2     H13552   3.574   0.460  13.304 -0.1695 -0.0355 -0.4229
  926MPD2    H113553   3.950   0.253  13.357 -0.5718 -0.9049 -1.6080
  926MPD2    H213554   3.640   0.167  13.607  0.7109 -1.1243 -0.4009
  926MPD2    H313555   3.855   0.150  13.553  2.0737 -0.7102 -2.7902
  926MPD2     N13556   3.816   0.414  13.187  0.2195  0.0061  0.4009
  926MPD2    H513557   3.917   0.411  13.173  0.5083  2.9124  1.9230
  926MPD2    N113558   3.457   0.342  13.497  0.3723  0.0662 -0.3871
  926MPD2    H713559   3.413   0.426  13.460  2.5847  1.7030  0.6993
  927MPD2     C13560   4.070   2.594   0.601  0.4264  1.0423 -0.2704
  927MPD2    C113561   4.205   2.613   0.589  0.6099  0.0582  0.0801
  927MPD2    C213562   4.274   2.553   0.484 -0.1132 -0.2816 -0.4801
  927MPD2    C313563   4.206   2.484   0.384  0.0054 -0.4957 -0.2000
  927MPD2    C413564   4.073   2.463   0.395 -0.2958  0.6250  0.2646
  927MPD2    C513565   4.007   2.508   0.507  0.8081 -0.1955  0.1009
  927MPD2     H13566   4.379   2.574   0.473 -0.4760 -0.1379 -3.7560
  927MPD2    H113567   4.012   2.412   0.322  1.7773  0.5519 -1.4014
  927MPD2    H213568   4.005   2.631   0.680 -0.3230 -1.2283  0.1635
  927MPD2    H313569   3.902   2.485   0.509 -0.5007  5.5372 -1.8644
  927MPD2     N13570   4.283   2.447   0.266 -0.2284  0.0073  0.5421
  927MPD2    H513571   4.383   2.466   0.271  0.1293 -0.9139 -3.6546
  927MPD2    N113572   4.266   2.696   0.687  0.9685 -0.1367  0.3680
  927MPD2    H713573   4.208   2.747   0.753  0.2641 -0.4812  0.0152
  928MPD2     C13574   1.610   0.866   0.954 -0.3327  0.0885  0.5340
  928MPD2    C113575   1.700   0.955   1.023 -0.5473  0.0663  0.0081
  928MPD2    C213576   1.795   1.020   0.946  0.7140  0.6530 -0.1745
  928MPD2    C313577   1.799   1.002   0.806 -0.1673  0.0932 -0.8897
  928MPD2    C413578   1.713   0.915   0.744  0.2023  0.0003 -0.2423
  928MPD2    C513579   1.624   0.847   0.814 -0.2970 -0.8745 -0.3932
  928MPD2     H13580   1.857   1.097   0.990 -1.2289  1.7592  0.6500
  928MPD2    H113581   1.713   0.893   0.638  2.7835  3.2135 -0.9071
  928MPD2    H213582   1.537   0.803   1.003  0.9650 -2.3016 -0.6241
  928MPD2    H313583   1.571   0.768   0.762  1.6646 -2.4249 -0.0429
  928MPD2     N13584   1.892   1.068   0.722  0.1622 -0.1445  0.0627
  928MPD2    H513585   1.889   1.055   0.621 -1.5416 -0.5969  0.1696
  928MPD2    N113586   1.695   0.979   1.163 -0.0524  0.1733 -0.5539
  928MPD2    H713587   1.613   0.954   1.217  0.0028  0.7132 -0.2185
  929MPD2     C13588   2.066   1.295  10.422 -0.1346  0.7400  0.3037
  929MPD2    C113589   1.969   1.196  10.418 -0.9035  0.5842 -0.9169
  929MPD2    C213590   1.884   1.181  10.310 -0.5693  0.1963  0.0103
  929MPD2    C313591   1.894   1.267  10.198  0.2219  0.4559 -0.7573
  929MPD2    C413592   1.989   1.368  10.202  0.7153 -0.2624 -0.2850
  929MPD2    C513593   2.079   1.376  10.309 -0.1330 -0.0725  0.0117
  929MPD2     H13594   1.800   1.113  10.317  1.3003 -2.1956 -1.1636
  929MPD2    H113595   2.004   1.441  10.123 -0.6358 -0.0848 -0.3716
  929MPD2    H213596   2.139   1.303  10.501 -0.4184 -1.2045  0.7645
  929MPD2    H313597   2.159   1.449  10.303  0.4972 -0.7758 -0.1169
  929MPD2     N13598   1.812   1.268  10.081  0.1983  0.3590  0.0427
  929MPD2    H513599   1.822   1.343  10.014 -2.9382  1.1646  0.4986
  929MPD2    N113600   1.961   1.109  10.533  0.6639 -0.6350  0.4872
  929MPD2    H713601   2.029   1.130  10.605 -0.7947 -1.5616  2.1454
  930MPD2     C13602   3.586   3.089  14.286  0.2409 -0.1156  0.0553
  930MPD2    C113603   3.704   3.108  14.214 -0.6574  0.5194  0.1305
  930MPD2    C213604   3.729   3.042  14.092 -0.1873  0.3584 -0.7190
  930MPD2    C313605   3.625   2.974  14.030 -0.3451 -0.0038 -0.1729
  930MPD2    C413606   3.506   2.964  14.097 -0.0603 -0.4347  0.8795
  930MPD2    C513607   3.491   3.017  14.221  0.3759  0.2175 -0.3699
  930MPD2     H13608   3.814   3.063  14.028  1.3303 -1.2031  0.7881
  930MPD2    H113609   3.429   2.901  14.054  0.1570  1.4606 -2.3231
  930MPD2    H213610   3.581   3.146  14.378 -0.2983  1.2784 -0.8472
  930MPD2    H313611   3.391   3.008  14.261  1.4124  2.0083  2.6523
  930MPD2     N13612   3.624   2.935  13.895 -0.1745  0.1220 -0.7902
  930MPD2    H513613   3.538   2.899  13.855  0.3434 -2.3801  0.3232
  930MPD2    N113614   3.796   3.201  14.257 -0.0751  0.5516 -0.3837
  930MPD2    H713615   3.754   3.278  14.307  0.3390  1.3608 -1.2805
  931MPD2     C13616   0.006   2.347   1.156 -0.7794  0.6407 -0.0441
  931MPD2    C113617   4.609   2.411   1.170  0.3331  0.8020 -0.3774
  931MPD2    C213618   4.512   2.359   1.265 -0.1530  0.1672 -1.0915
  931MPD2    C313619   4.536   2.236   1.319  0.2579 -0.0100  0.0375
  931MPD2    C413620   4.653   2.169   1.297 -0.2337 -0.2507 -0.0632
  931MPD2    C513621   0.027   2.233   1.224 -0.0787 -0.2063 -0.2388
  931MPD2     H13622   4.412   2.399   1.264  0.7298  2.3929 -0.1784
  931MPD2    H113623   4.684   2.076   1.343 -0.5875 -0.4237 -0.1693
  931MPD2    H213624   0.090   2.379   1.095 -1.2193  1.3765 -0.2680
  931MPD2    H313625   0.111   2.167   1.205  0.6225  1.2385 -2.1445
  931MPD2     N13626   4.439   2.164   1.391  0.7087 -0.6671 -0.0951
  931MPD2    H513627   4.462   2.067   1.409 -1.5750 -1.4400 -1.3038
  931MPD2    N113628   4.587   2.530   1.096 -0.6048 -0.0924 -0.1434
  931MPD2    H713629   4.650   2.549   1.018 -0.9431 -0.3459 -0.4811
  932MPD2     C13630   0.434   1.233  11.223  0.2626 -0.3768 -0.0820
  932MPD2    C113631   0.414   1.339  11.303  0.5466 -0.5108  0.7931
  932MPD2    C213632   0.364   1.319  11.433 -0.8392 -0.0382 -0.0009
  932MPD2    C313633   0.344   1.189  11.481 -0.7199  0.5595  0.2154
  932MPD2    C413634   0.372   1.083  11.404  0.4213 -0.4342 -0.1386
  932MPD2    C513635   0.417   1.105  11.276 -0.3836 -0.6332 -0.1011
  932MPD2     H13636   0.331   1.409  11.483 -1.3294 -0.7281  0.9287
  932MPD2    H113637   0.357   0.989  11.456 -1.0902  0.6239  1.3135
  932MPD2    H213638   0.449   1.236  11.116  0.1482 -0.6186 -0.1052
  932MPD2    H313639   0.424   1.014  11.217  0.4394  0.8905 -2.3511
  932MPD2     N13640   0.308   1.163  11.615 -0.3282 -0.0263  0.4424
  932MPD2    H513641   0.313   1.064  11.637 -1.1965 -0.0660  0.4795
  932MPD2    N113642   0.430   1.473  11.250 -0.2422  0.6860 -0.2786
  932MPD2    H713643   0.390   1.547  11.307 -1.0993  0.2582 -0.3129
  933MPD2     C13644   1.191   1.215   1.803 -0.3227 -0.2248  0.2160
  933MPD2    C113645   1.256   1.266   1.692 -0.2587 -0.8167 -0.0114
  933MPD2    C213646   1.200   1.381   1.631  0.2549 -0.4989 -0.6749
  933MPD2    C313647   1.075   1.433   1.666 -0.0039 -1.1374 -0.8439
  933MPD2    C413648   1.012   1.373   1.775  0.2009  0.1112 -0.3807
  933MPD2    C513649   1.073   1.274   1.846  1.2519  0.4346 -0.0258
  933MPD2     H13650   1.242   1.432   1.544 -1.2785  0.1139 -1.0465
  933MPD2    H113651   0.913   1.409   1.799  0.7862  1.8417 -0.5510
  933MPD2    H213652   1.240   1.135   1.858  0.9087  2.1239  2.5069
  933MPD2    H313653   1.023   1.232   1.933  0.9573 -0.4010 -0.5982
  933MPD2     N13654   1.025   1.545   1.594  0.2170 -0.1550 -0.4738
  933MPD2    H513655   1.087   1.592   1.529  0.3179  0.1685 -0.1484
  933MPD2    N113656   1.367   1.197   1.638  0.0209  0.2752  0.5559
  933MPD2    H713657   1.391   1.114   1.691  3.3642  0.6326 -0.3898
  934MPD2     C13658   2.596   3.470   1.707 -0.2815  0.4844  0.5765
  934MPD2    C113659   2.662   3.385   1.623 -0.3502  0.4973 -0.8605
  934MPD2    C213660   2.604   3.336   1.514  0.8004 -0.1476  0.1048
  934MPD2    C313661   2.475   3.364   1.473 -0.1473  0.1316 -0.2860
  934MPD2    C413662   2.407   3.452   1.555  0.3432 -0.2652  0.2695
  934MPD2    C513663   2.460   3.495   1.673 -0.2441 -0.0629 -0.4841
  934MPD2     H13664   2.666   3.264   1.460  3.0195 -0.0032  2.4746
  934MPD2    H113665   2.307   3.483   1.527  0.0136  0.0065  1.7584
  934MPD2    H213666   2.643   3.514   1.794 -2.0054 -0.1972  1.8662
  934MPD2    H313667   2.398   3.570   1.721 -2.7602 -2.1733 -0.3998
  934MPD2     N13668   2.412   3.307   1.357 -0.4601  0.5346 -0.2365
  934MPD2    H513669   2.312   3.321   1.351 -0.4927  1.5856  2.7388
  934MPD2    N113670   2.795   3.354   1.632  0.5053 -0.6675 -0.3973
  934MPD2    H713671   2.836   3.289   1.566 -0.7458  0.6817 -2.5068
  935MPD2     C13672   2.816   2.474   1.013  0.1107  0.9535  0.3481
  935MPD2    C113673   2.689   2.457   0.966  0.0662 -0.0558 -0.8344
  935MPD2    C213674   2.595   2.559   0.983  0.0446  0.3352 -0.2639
  935MPD2    C313675   2.626   2.671   1.062 -0.8741 -0.1551  0.4345
  935MPD2    C413676   2.754   2.692   1.106  0.1840 -0.0008  0.1373
  935MPD2    C513677   2.842   2.594   1.080 -0.1738  0.0600 -0.1757
  935MPD2     H13678   2.501   2.556   0.929  1.2290 -1.0731 -2.2785
  935MPD2    H113679   2.780   2.787   1.150 -0.6178 -0.8440  2.4343
  935MPD2    H213680   2.892   2.402   0.986 -1.0270 -0.8059  1.8135
  935MPD2    H313681   2.941   2.606   1.122 -0.3122  1.3161 -0.2115
  935MPD2     N13682   2.536   2.779   1.086 -0.5787 -0.2951 -0.3029
  935MPD2    H513683   2.572   2.848   1.150 -2.0087 -0.3274  0.5236
  935MPD2    N113684   2.652   2.342   0.903 -0.9505  0.4258 -0.3722
  935MPD2    H713685   2.557   2.341   0.869 -0.2407  0.1873 -2.3586
  936MPD2     C13686   0.900   1.262  12.763  0.3957 -0.0950  0.1694
  936MPD2    C113687   0.961   1.196  12.872 -0.4512  0.3527  0.3196
  936MPD2    C213688   1.101   1.194  12.891 -0.5043  0.0113 -0.6168
  936MPD2    C313689   1.182   1.251  12.800 -0.3453  1.2422  0.4591
  936MPD2    C413690   1.119   1.302  12.685  0.1885  0.2417  0.4731
  936MPD2    C513691   0.987   1.315  12.667  0.0507 -0.5719  0.1165
  936MPD2     H13692   1.148   1.140  12.973 -0.3176  0.9436 -0.1160
  936MPD2    H113693   1.189   1.349  12.616  0.7207 -0.5130  0.4900
  936MPD2    H213694   0.793   1.270  12.748  0.5882  0.3994 -0.9579
  936MPD2    H313695   0.943   1.349  12.574  0.5224  0.3933  0.2522
  936MPD2     N13696   1.324   1.246  12.813 -0.2758 -0.5416  0.6104
  936MPD2    H513697   1.352   1.211  12.904  2.2571 -0.1470 -0.0125
  936MPD2    N113698   0.885   1.139  12.973  0.1719  0.2431 -0.0772
  936MPD2    H713699   0.933   1.110  13.058  1.2151 -0.9449 -1.0754
  937MPD2     C13700   4.260   1.360  11.376  0.1168  0.2490  0.0654
  937MPD2    C113701   4.207   1.440  11.276 -0.5116  0.2150  1.0793
  937MPD2    C213702   4.242   1.416  11.146 -0.1489 -0.4899 -0.1485
  937MPD2    C313703   4.327   1.311  11.123  0.1403 -0.3698 -0.0438
  937MPD2    C413704   4.370   1.225  11.221  0.0974 -0.5267  0.2194
  937MPD2    C513705   4.345   1.253  11.353  0.7319  0.4445  0.5548
  937MPD2     H13706   4.217   1.484  11.065  1.1757  0.9203  0.6349
  937MPD2    H113707   4.433   1.145  11.184  0.1303 -1.3338  2.0495
  937MPD2    H213708   4.228   1.368  11.479 -0.0636  0.4028 -0.0031
  937MPD2    H313709   4.384   1.195  11.436 -1.7923 -1.6096  0.3252
  937MPD2     N13710   4.382   1.307  10.986 -0.4412  0.1506  0.4372
  937MPD2    H513711   4.359   1.387  10.929 -0.9435  0.5911  1.2645
  937MPD2    N113712   4.153   1.571  11.290  0.5993 -0.1324 -0.1020
  937MPD2    H713713   4.135   1.615  11.200  1.6045 -0.3726 -0.4259
  938MPD2     C13714   1.979   2.602   0.879  0.1900 -0.3728 -0.5198
  938MPD2    C113715   1.854   2.656   0.889 -0.5013  0.0501 -0.6897
  938MPD2    C213716   1.771   2.608   0.988 -0.4821 -0.7327  0.0365
  938MPD2    C313717   1.811   2.504   1.073 -0.3616  0.8375  0.2906
  938MPD2    C413718   1.932   2.439   1.043 -0.5956  0.0310  0.0209
  938MPD2    C513719   2.019   2.496   0.955  0.2657 -0.6345  0.0595
  938MPD2     H13720   1.669   2.642   1.002 -0.8388 -1.4489 -0.8191
  938MPD2    H113721   1.964   2.352   1.098 -1.4892  0.3485  1.0543
  938MPD2    H213722   2.052   2.640   0.807 -0.0789 -0.3147 -0.7619
  938MPD2    H313723   2.121   2.461   0.945  0.5632  0.6520 -1.2332
  938MPD2     N13724   1.718   2.442   1.167  0.4156 -1.0168 -0.0940
  938MPD2    H513725   1.758   2.368   1.224  2.7671  0.3558  0.0354
  938MPD2    N113726   1.825   2.777   0.818 -0.0118 -0.5059  0.3706
  938MPD2    H713727   1.893   2.808   0.750  0.3685 -2.4073 -0.1267
  939MPD2     C13728   2.699   4.096   1.353 -0.5640 -0.5687 -0.3317
  939MPD2    C113729   2.676   4.133   1.225  0.0441 -0.6647  0.1180
  939MPD2    C213730   2.778   4.106   1.130  0.0276  0.1290 -0.2117
  939MPD2    C313731   2.894   4.042   1.177 -0.2131  0.1672 -0.3971
  939MPD2    C413732   2.921   4.008   1.309  0.1117 -0.5190  0.3781
  939MPD2    C513733   2.821   4.040   1.397  0.4677  0.6378 -0.4664
  939MPD2     H13734   2.772   4.108   1.022  0.9678  1.8879 -0.2361
  939MPD2    H113735   3.010   3.961   1.350  1.8447  1.3047 -1.3412
  939MPD2    H213736   2.631   4.119   1.434  0.4411  2.4307 -0.3087
  939MPD2    H313737   2.839   4.008   1.499  0.6958 -1.4066 -1.1561
  939MPD2     N13738   2.994   4.016   1.077  0.0795 -0.4662 -0.7379
  939MPD2    H513739   2.970   4.046   0.983  1.0095 -0.1661 -0.8764
  939MPD2    N113740   2.552   4.188   1.188  1.0976 -0.2151  0.3629
  939MPD2    H713741   2.477   4.204   1.255  1.5698 -1.8743  1.2783
  940MPD2     C13742   1.607   0.040  13.164  0.1357 -0.3399 -0.6045
  940MPD2    C113743   1.675   0.131  13.241  0.8056  0.3174 -0.5362
  940MPD2    C213744   1.738   0.238  13.182  0.0249  0.6372 -0.6240
  940MPD2    C313745   1.743   0.251  13.043  0.3023 -0.9064 -1.1664
  940MPD2    C413746   1.681   0.160  12.964  0.6728 -0.3697  0.4984
  940MPD2    C513747   1.611   0.060  13.028  0.1424 -0.6931  0.2075
  940MPD2     H13748   1.785   0.315  13.243 -2.4708 -0.2748  2.4604
  940MPD2    H113749   1.669   0.176  12.858  1.1824  0.0422  0.5024
  940MPD2    H213750   1.568   4.668  13.195  0.3261  0.4713  2.1767
  940MPD2    H313751   1.561   4.707  12.970  2.1836 -1.4280 -0.5877
  940MPD2     N13752   1.818   0.348  12.965 -0.3927  0.3096 -0.3704
  940MPD2    H513753   1.801   0.343  12.865 -2.8393 -0.8156  0.0968
  940MPD2    N113754   1.695   0.120  13.385 -0.2471 -0.7003 -0.2319
  940MPD2    H713755   1.737   0.199  13.433 -0.2837 -1.1187  0.4849
  941MPD2     C13756   0.910   3.892   9.787  0.3910 -0.0262 -0.2465
  941MPD2    C113757   0.969   3.828   9.898  0.5448  0.2718 -0.4882
  941MPD2    C213758   0.907   3.724   9.955 -0.5052  0.1597 -0.2099
  941MPD2    C313759   0.792   3.668   9.894  0.0334 -0.5030  0.4116
  941MPD2    C413760   0.738   3.732   9.789  0.8367 -0.4943  0.4948
  941MPD2    C513761   0.797   3.844   9.734  0.8933  0.2151 -0.0660
  941MPD2     H13762   0.947   3.682  10.047 -0.2486 -0.2342 -0.5029
  941MPD2    H113763   0.642   3.725   9.738  1.2714 -0.2708 -0.3696
  941MPD2    H213764   0.953   3.982   9.746  2.8221 -1.4537 -0.7835
  941MPD2    H313765   0.753   3.900   9.653  0.4412 -0.0951 -0.0321
  941MPD2     N13766   0.718   3.566   9.951 -0.1027 -1.0864  0.1512
  941MPD2    H513767   0.626   3.550   9.911 -0.0166 -0.9970 -0.0876
  941MPD2    N113768   1.091   3.882   9.952  0.4178  0.2926  0.3285
  941MPD2    H713769   1.115   3.838  10.040  0.6842  0.2784  0.2503
  942MPD2     C13770   0.651   1.061   9.678  0.2354 -0.3589 -0.2762
  942MPD2    C113771   0.653   0.937   9.624 -0.6381  0.1411  0.1713
  942MPD2    C213772   0.777   0.896   9.573 -0.3445  0.7276  0.2598
  942MPD2    C313773   0.900   0.965   9.600 -0.1736 -0.3364 -0.6538
  942MPD2    C413774   0.884   1.087   9.664 -0.0370  0.1714 -0.5141
  942MPD2    C513775   0.762   1.132   9.704  0.0923  0.1197 -0.2121
  942MPD2     H13776   0.779   0.804   9.515 -1.9702  1.8053 -1.5153
  942MPD2    H113777   0.969   1.149   9.688  0.3276 -0.2613 -0.7060
  942MPD2    H213778   0.559   1.110   9.708  0.3416 -0.4522  0.1927
  942MPD2    H313779   0.755   1.233   9.744  1.7840  0.1347  0.0635
  942MPD2     N13780   1.028   0.926   9.555 -0.4613 -0.1568 -0.9303
  942MPD2    H513781   1.103   0.994   9.562 -0.2624 -0.4806  0.0574
  942MPD2    N113782   0.535   0.860   9.593 -0.5098  0.5385  0.1389
  942MPD2    H713783   0.547   0.778   9.534  2.6887  1.5895 -0.6367
  943MPD2     C13784   4.642   3.707   9.639  0.0713 -0.3478 -0.5363
  943MPD2    C113785   4.550   3.626   9.692  0.2238 -0.3223 -0.1543
  943MPD2    C213786   4.547   3.604   9.828  0.2690  0.1081 -0.5930
  943MPD2    C313787   4.633   3.667   9.913  0.5500 -0.6499 -0.2654
  943MPD2    C413788   4.722   3.753   9.855 -0.5194  0.0243  0.8808
  943MPD2    C513789   4.721   3.784   9.722 -0.4646 -0.4590 -0.0942
  943MPD2     H13790   4.482   3.528   9.869  1.3860 -0.5657 -0.0531
  943MPD2    H113791   0.053   3.813   9.927  0.2353 -0.9519  1.1182
  943MPD2    H213792   4.645   3.719   9.531  0.2789  1.5750 -0.3185
  943MPD2    H313793   0.066   3.855   9.678 -1.1818  0.3539  0.0938
  943MPD2     N13794   4.636   3.657  10.051  0.1975  0.4416 -0.1717
  943MPD2    H513795   4.687   3.726  10.105  0.5796 -0.1119  0.1829
  943MPD2    N113796   4.471   3.549   9.607  0.2317  0.2013  0.0154
  943MPD2    H713797   4.470   3.584   9.512 -1.6169 -0.3739 -0.1887
  944MPD2     C13798   4.288   2.966  10.619  0.3312  0.3956  0.3261
  944MPD2    C113799   4.340   3.037  10.720  0.5313  0.1919  0.3813
  944MPD2    C213800   4.341   2.984  10.847 -0.4715 -0.4044 -0.1955
  944MPD2    C313801   4.312   2.848  10.864  0.4432  0.4505  0.8770
  944MPD2    C413802   4.255   2.779  10.761  0.4003 -0.1411  0.6703
  944MPD2    C513803   4.247   2.839  10.640 -0.6587 -0.1579  0.5719
  944MPD2     H13804   4.394   3.033  10.927 -0.9167  1.1060 -0.8192
  944MPD2    H113805   4.227   2.674  10.764 -2.1695  0.5300  0.1057
  944MPD2    H213806   4.290   3.002  10.517 -1.1845 -1.3532 -0.3157
  944MPD2    H313807   4.207   2.777  10.561 -0.1339  1.0118 -0.6247
  944MPD2     N13808   4.342   2.780  10.980 -0.3175  0.0822 -0.4985
  944MPD2    H513809   4.395   2.832  11.050  0.6359  0.0014 -1.1602
  944MPD2    N113810   4.413   3.157  10.693  0.1820  0.1292 -0.2210
  944MPD2    H713811   4.417   3.182  10.595  0.6852  3.0410  0.5214
    1TCq1    O113812   2.122   3.909  14.668 -0.2254 -0.3001 -0.4343
    1TCq1    C113813   2.204   3.872  14.765  0.8408  0.5438 -0.1645
    1TCq1    O213814   2.183   3.894  14.883 -0.4911  0.1985  0.1954
    1TCq1    C213815   2.338   3.879  14.707  0.3130  0.2948  0.4765
    1TCq1    C313816   2.393   3.775  14.629 -0.2577  0.0637  0.1569
    1TCq1    C413817   2.527   3.774  14.595 -0.5742 -0.5343  0.0097
    1TCq1    C513818   2.607   3.875  14.644 -0.6058 -0.3360 -0.3775
    1TCq1    C613819   2.548   3.969  14.729  0.1146  0.4089 -0.0334
    1TCq1    C713820   2.413   3.976  14.765 -0.1188  0.2656 -0.3105
    1TCq1    C813821   2.637   4.070  14.784  0.4563  0.2212 -1.0580
    1TCq1    O413822   2.760   4.057  14.797  0.0288 -0.4727 -0.2435
    1TCq1    C913823   2.581   3.665  14.520 -0.2877 -0.6041 -0.2168
    1TCq1    O513824   2.506   3.590  14.464 -0.1832  0.0126 -0.1462
    1TCq1    O613825   2.705   3.665  14.497  0.2958 -0.4054  0.2129
    1TCq1    H113826   2.174   3.916  14.585 -1.1485 -0.7919 -1.0449
    1TCq1    H213827   2.334   3.697  14.582 -0.9175 -0.2994  1.6010
    1TCq1    H313828   2.715   3.876  14.630 -0.4503 -0.6073  0.8359
    1TCq1    H413829   2.375   4.043  14.841  1.0468  0.0984  0.4105
    2MPD2     C13830   2.641   4.545  14.985 -0.1143 -0.0140 -0.1444
    2MPD2    C113831   2.537   4.536  14.896  0.2732  0.1179 -0.2161
    2MPD2    C213832   2.506   4.414  14.843  0.8471  0.4789 -0.5600
    2MPD2    C313833   2.587   4.305  14.864 -0.5026  0.6531 -0.4214
    2MPD2    C413834   2.700   4.317  14.946  0.1826 -0.1784  0.1438
    2MPD2    C513835   2.718   4.431  15.023 -1.1477  0.9337 -0.1811
    2MPD2     H13836   2.422   4.407  14.776  0.5503  0.8762 -0.2341
    2MPD2    H113837   2.766   4.231  14.957 -2.2099 -2.1876 -1.0334
    2MPD2    H213838   2.659   4.642  15.029  2.3056 -1.4714  2.0715
    2MPD2    H313839   2.785   4.440  15.107 -1.0780 -2.1799  0.0730
    2MPD2     N13840   2.555   4.185  14.795  0.3212  0.3838  0.3335
    2MPD2    H513841   2.473   4.181  14.735 -1.3628 -0.1531  2.6750
    2MPD2    N113842   2.466   4.659  14.859 -0.2144  0.4216 -0.1850
    2MPD2    H713843   2.505   0.020  14.898  0.5221 -1.0040  2.1635
    3TMC2    C113844   2.338   0.089  14.751 -0.0232 -0.0174 -0.0617
    3TMC2    C213845   2.323   0.158  14.870  0.0726  0.2669 -0.4365
    3TMC2    C313846   2.274   0.286  14.860 -0.6043  0.3121  0.4002
    3TMC2    C413847   2.315   0.154  14.635  0.1354 -0.3390  0.5357
    3TMC2    C513848   2.275   0.287  14.627  0.2466  0.0572  0.1962
    3TMC2    C613849   2.261   0.357  14.747  0.1023 -0.3896 -0.2773
    3TMC2     C13850   2.387   4.679  14.747  0.3575  0.8265  0.0415
    3TMC2     O13851   2.379   4.616  14.642 -0.6060  1.1869  0.6826
    3TMC2     H13852   2.333   0.104  14.964  0.6310  1.0434 -0.0492
    3TMC2    H113853   2.347   0.104  14.545 -0.8051 -0.0961  0.0646
    3TMC2    H213854   2.241   0.463  14.749 -0.6791 -0.5537  1.0452
    3TMC2    C713855   2.284   0.364  14.505 -0.2304 -0.9699  0.1410
    3TMC2    C813856   2.271   0.368  14.980  0.2023  0.0831 -0.8211
    3TMC2    O113857   2.217   0.466  14.496 -0.7080  0.0666  0.2055
    3TMC2    O213858   2.177   0.444  14.996 -0.0338  0.2876 -0.2099
    3TMC2    O513859   2.399   0.400  14.989  0.2285  0.2052  0.4486
    3TMC2    H513860   2.465   0.330  14.969 -0.1376 -1.0399  3.5595
    4MPD2     C13861   1.193   0.790  13.847  0.0623 -0.0533 -0.6272
    4MPD2    C113862   1.275   0.844  13.749  0.7070  0.0094 -0.6063
    4MPD2    C213863   1.407   0.799  13.751  0.3497 -0.4509  0.8877
    4MPD2    C313864   1.459   0.716  13.846 -0.6040 -0.1926 -0.0593
    4MPD2    C413865   1.377   0.683  13.952  0.0204  0.8806 -0.1711
    4MPD2    C513866   1.240   0.711  13.944  0.2053  0.8847  0.3009
    4MPD2     H13867   1.477   0.827  13.672 -2.6169 -1.1597 -1.9737
    4MPD2    H113868   1.411   0.615  14.029 -2.7783  0.9579  1.1036
    4MPD2    H213869   1.085   0.802  13.847  0.3121  2.2192  1.1563
    4MPD2    H313870   1.171   0.668  14.015  1.9025 -0.4930  1.1255
    4MPD2     N13871   1.591   0.675  13.838  0.6775  0.1156  0.0023
    4MPD2    H513872   1.643   0.692  13.753  0.7305 -0.3799 -0.0659
    4MPD2    N113873   1.225   0.934  13.649 -0.3119 -0.2777 -0.5164
    4MPD2    H713874   1.127   0.951  13.668 -0.3947  1.2351 -2.3840
    5TCq2    C113875   1.660   0.603  13.931 -1.1030 -0.8729 -0.0125
    5TCq2    O213876   1.629   0.565  14.040 -0.2544  0.3310  0.0067
    5TCq2    C213877   1.784   0.553  13.878 -0.2800  0.3318  0.4119
    5TCq2    C313878   1.809   0.540  13.745 -0.3157  0.3259  0.0313
    5TCq2    C413879   1.937   0.502  13.709 -0.5616 -0.5154 -0.2528
    5TCq2    C513880   2.037   0.494  13.794  0.1193  0.4899 -0.5618
    5TCq2    C613881   2.016   0.532  13.929 -0.1281 -0.4881 -0.0008
    5TCq2    C713882   1.888   0.561  13.966 -0.4116 -0.0834 -0.3558
    5TCq2    C813883   2.108   0.492  14.034 -0.7346 -0.1077  0.8877
    5TCq2    O413884   2.072   0.511  14.150 -0.5892 -0.0624 -0.0980
    5TCq2    C913885   1.967   0.482  13.568 -0.5924 -0.0086  0.0799
    5TCq2    O513886   1.869   0.488  13.489  0.1922 -0.3777  0.0694
    5TCq2    O613887   2.076   0.514  13.521 -0.1580  0.0389  0.3679
    5TCq2    H213888   1.724   0.532  13.678  0.2579 -1.5224 -0.4745
    5TCq2    H313889   2.137   0.464  13.765  0.2325  0.9576 -0.6612
    5TCq2    H413890   1.862   0.577  14.069 -1.8890 -0.7193 -0.6202
    6MPD1     C13891   0.749   2.476  12.452 -0.5878  0.6792 -0.7963
    6MPD1    C113892   0.656   2.380  12.489 -0.0955 -0.1832  0.1837
    6MPD1    C213893   0.700   2.258  12.534  0.0783 -0.4387 -0.1465
    6MPD1    C313894   0.836   2.232  12.551  0.4429  1.2445  0.4390
    6MPD1    C413895   0.929   2.329  12.513 -0.3550  0.1244 -0.1125
    6MPD1    C513896   0.883   2.456  12.471 -0.8174  0.0890 -0.2254
    6MPD1     H13897   0.629   2.176  12.539 -0.2358 -0.2235 -1.0390
    6MPD1    H113898   1.034   2.307  12.503 -0.5814 -0.9896 -0.0122
    6MPD1    H213899   0.716   2.572  12.413  0.3643  0.7553 -1.4137
    6MPD1    H313900   0.954   2.530  12.436  1.0372 -2.2158 -1.3013
    6MPD1     N13901   0.882   2.108  12.605  0.1267  0.4931 -0.1987
    6MPD1    H513902   0.982   2.092  12.607 -0.1441 -1.0764  0.7663
    6MPD1    N113903   0.517   2.394  12.462  0.5379  0.4636  0.1216
    6MPD1    H613904   0.494   2.491  12.481 -0.7392  0.4554 -1.4509
    6MPD1    H713905   0.457   2.336  12.520  1.0033 -2.1292 -1.9888
    7MPD2     C13906   0.589   1.403  13.050 -0.2933 -0.1931  1.1511
    7MPD2    C113907   0.717   1.453  13.038 -0.4695 -0.2955 -0.2958
    7MPD2    C213908   0.797   1.419  13.151  0.1057 -0.5822  0.4809
    7MPD2    C313909   0.762   1.325  13.248  0.2219  0.3725 -0.2789
    7MPD2    C413910   0.631   1.282  13.253  0.2076 -0.4159 -0.2637
    7MPD2    C513911   0.545   1.325  13.153 -0.4181 -0.0133  0.0284
    7MPD2     H13912   0.902   1.440  13.136 -0.8313  2.9649 -1.3021
    7MPD2    H113913   0.598   1.215  13.331  0.8099 -1.4061 -0.8499
    7MPD2    H213914   0.505   1.416  12.981  2.2741  2.1392 -1.5292
    7MPD2    H313915   0.442   1.294  13.160 -0.8909  1.6344  0.4994
    7MPD2     N13916   0.869   1.288  13.329  0.0622 -0.2094 -0.0641
    7MPD2    H513917   0.953   1.344  13.319 -0.0048 -0.0388  0.2955
    7MPD2    N113918   0.770   1.530  12.940 -0.5302  0.0359  0.4662
    7MPD2    H713919   0.850   1.583  12.972 -0.4604  0.3616 -0.2567
    8TMC3    C113920   0.998   1.189  13.478  0.9354 -0.2068  0.0462
    8TMC3    C213921   1.067   1.070  13.491 -0.4407  0.3282 -0.2145
    8TMC3    C313922   1.200   1.066  13.453  0.1292  0.3256  0.7760
    8TMC3    C413923   1.066   1.303  13.451  0.6225 -0.7332  0.6153
    8TMC3    C513924   1.197   1.296  13.410  0.3120 -0.5228 -0.6915
    8TMC3    C613925   1.260   1.173  13.399  0.1012 -0.3290 -0.2043
    8TMC3     C13926   0.868   1.177  13.420 -0.1163 -0.1130  0.6985
    8TMC3     O13927   0.800   1.077  13.425 -0.3392  0.1194  0.3545
    8TMC3     H13928   1.015   0.977  13.511  1.1902 -0.3241  0.9793
    8TMC3    H113929   1.022   1.392  13.494  1.3536  1.2904 -2.8918
    8TMC3    H213930   1.359   1.164  13.354  1.1590 -0.3014  2.0898
    8TMC3    C713931   1.211   1.398  13.310  0.2606 -0.1064 -0.3801
    8TMC3    C813932   1.293   1.002  13.552 -0.0417  0.0894 -0.1734
    8TMC3    O113933   1.113   1.463  13.283  0.8979  0.3927 -0.0179
    8TMC3    O213934   1.412   1.001  13.528 -0.1556 -0.1851  0.0907
    9TMC3    C113935   0.855   1.884  12.690  0.5801  0.3494  0.5776
    9TMC3    C213936   0.990   1.852  12.682 -0.1474  0.1159  0.1991
    9TMC3    C313937   1.032   1.733  12.725  0.5232  0.1387  0.3920
    9TMC3    C413938   0.766   1.786  12.734 -0.1882 -0.5222  0.0139
    9TMC3    C513939   0.808   1.668  12.764 -0.1619  0.4758  0.0364
    9TMC3    C613940   0.943   1.643  12.776 -0.3926 -0.3621  0.1271
    9TMC3     C13941   0.803   2.024  12.676  0.3433 -0.8895  0.1757
    9TMC3     O13942   0.691   2.045  12.714  0.0697  0.0077  0.1384
    9TMC3     H13943   1.057   1.935  12.659 -0.3047 -0.2338 -1.5305
    9TMC3    H113944   0.666   1.823  12.755 -0.3963 -1.0933  0.0546
    9TMC3    H213945   0.972   1.541  12.799 -1.7452 -1.3171 -2.4078
    9TMC3    C713946   0.715   1.568  12.822 -0.1772 -0.2672 -0.1522
    9TMC3    C813947   1.171   1.723  12.765  0.4159 -0.0984 -0.1101
    9TMC3    O113948   0.606   1.552  12.769  0.0249  0.3171  0.1876
    9TMC3    O213949   1.252   1.800  12.710  0.0602  0.3671 -0.1206
   10MPD2     C13950   1.491   1.538  13.122  0.0946  0.0416  0.7121
   10MPD2    C113951   1.364   1.498  13.151 -0.2323  0.3102 -0.4420
   10MPD2    C213952   1.263   1.527  13.050 -0.2743 -0.2490  0.2984
   10MPD2    C313953   1.295   1.611  12.945  0.1373  0.3666  0.2840
   10MPD2    C413954   1.424   1.647  12.917 -0.3594  0.2957 -0.8385
   10MPD2    C513955   1.519   1.604  13.005  0.4287  0.5887  0.0331
   10MPD2     H13956   1.162   1.490  13.057  0.9480 -3.6644 -0.1602
   10MPD2    H113957   1.460   1.702  12.832  1.1102 -0.8895 -0.9766
   10MPD2    H213958   1.570   1.526  13.196  1.3765 -0.0786 -0.6671
   10MPD2    H313959   1.622   1.634  12.987  1.2226 -1.8008  0.5915
   10MPD2     N13960   1.183   1.636  12.867 -0.2810  0.7152  0.0997
   10MPD2    H513961   1.106   1.573  12.886 -0.0028  0.8170  1.5558
   10MPD2    N113962   1.337   1.427  13.272  0.5467 -0.1701  0.4084
   10MPD2    H713963   1.420   1.405  13.326  0.3436 -3.1971 -0.5198
   11MPD2     C13964   2.526   0.290  14.232 -0.2718 -0.0033  0.1234
   11MPD2    C113965   2.409   0.339  14.293 -0.2931 -0.4388 -0.3177
   11MPD2    C213966   2.311   0.383  14.211  0.3287 -1.3821 -1.1161
   11MPD2    C313967   2.326   0.404  14.073 -0.2969 -0.3891 -0.8740
   11MPD2    C413968   2.451   0.365  14.022  0.5408 -0.1287 -0.5270
   11MPD2    C513969   2.548   0.310  14.096  0.3140  0.1505 -0.5293
   11MPD2     H13970   2.217   0.404  14.260  1.7750  0.0879  1.0191
   11MPD2    H113971   2.466   0.369  13.915 -0.7985  0.8170 -0.6797
   11MPD2    H213972   2.607   0.244  14.288 -1.3211 -0.5663  1.1920
   11MPD2    H313973   2.641   0.282  14.050 -0.1827 -0.9259 -0.8782
   11MPD2     N13974   2.225   0.452  13.991 -0.4934  0.0519 -0.0473
   11MPD2    H513975   2.242   0.482  13.895 -0.7673 -0.0776 -0.1397
   11MPD2    N113976   2.383   0.307  14.429  0.0480  0.0458 -0.5366
   11MPD2    H713977   2.456   0.252  14.472 -1.4099 -0.9731  0.6233
    1MPD1     C13978   4.606   1.416  16.836  0.3846  0.1048  0.4483
    1MPD1    C113979   4.629   1.548  16.815  0.0672  0.4959  0.2577
    1MPD1    C213980   0.031   1.594  16.776 -0.9028 -0.7436 -0.2017
    1MPD1    C313981   0.127   1.498  16.767  0.3961  0.3347 -0.2808
    1MPD1    C413982   0.102   1.363  16.792 -0.7210 -0.2719  0.4372
    1MPD1    C513983   4.702   1.321  16.833 -0.2336  0.2976  0.2617
    1MPD1     H13984   0.044   1.700  16.754  1.3543 -0.5633  2.0638
    1MPD1    H113985   0.182   1.291  16.809  1.3736  2.2115  1.1259
    1MPD1    H213986   4.514   1.387  16.884  1.0164  0.2941  1.7745
    1MPD1    H313987   4.684   1.220  16.869  1.5441  0.5750  1.8836
    1MPD1     N13988   0.261   1.527  16.744  0.1053 -0.2943 -0.3932
    1MPD1    H513989   0.322   1.447  16.736  0.9922  0.3507 -0.0978
    1MPD1    N113990   4.512   1.631  16.820 -0.3821 -0.4540  0.4130
    1MPD1    H613991   4.442   1.599  16.887 -0.1596 -0.5634  0.5925
    1MPD1    H713992   4.539   1.728  16.839 -0.2713 -0.5215  0.6051
    2MPD1     C13993   0.729   2.293  16.535 -0.0999  1.0756 -0.6068
    2MPD1    C113994   0.604   2.259  16.568 -0.3436  0.2030  0.4759
    2MPD1    C213995   0.589   2.151  16.645  0.1900 -0.2323  0.3769
    2MPD1    C313996   0.694   2.076  16.694 -1.0381  0.4815  0.8140
    2MPD1    C413997   0.820   2.113  16.665 -0.1155  0.1738 -1.0017
    2MPD1    C513998   0.840   2.222  16.587  0.0923 -0.1541  0.0412
    2MPD1     H13999   0.487   2.118  16.666  0.9217 -1.6665  1.7104
    2MPD1    H114000   0.904   2.049  16.690 -0.7398  0.9440  3.1023
    2MPD1    H214001   0.743   2.382  16.474 -0.4985  0.1531 -2.0544
    2MPD1    H314002   0.942   2.245  16.556  0.4678  0.1773  1.5005
    2MPD1     N14003   0.654   1.951  16.742  0.4701  0.5192 -0.2622
    2MPD1    H514004   0.555   1.927  16.734  0.2819  0.9028  0.8042
    2MPD1    N114005   0.493   2.338  16.547  0.0271 -0.0365 -0.2743
    2MPD1    H614006   0.478   2.398  16.629 -0.2050 -0.5384  0.0488
    2MPD1    H714007   0.408   2.282  16.545  0.8668 -1.2224 -2.6133
    3TMC3    C114008   0.656   1.735  16.819 -0.0278 -0.6655 -0.5488
    3TMC3    C214009   0.730   1.634  16.764  1.2486  0.6890  0.4292
    3TMC3    C314010   0.669   1.544  16.685 -0.4705 -1.2819  0.0640
    3TMC3    C414011   0.525   1.756  16.795 -0.4450  0.3097  0.4180
    3TMC3    C514012   0.463   1.661  16.720  0.5520 -0.0091 -0.0183
    3TMC3    C614013   0.537   1.566  16.656 -0.5215  0.0205 -0.1472
    3TMC3     C14014   0.731   1.854  16.804 -0.0245 -0.1173  0.1399
    3TMC3     O14015   0.849   1.869  16.830  0.3249  0.1643 -0.0034
    3TMC3     H14016   0.834   1.625  16.790  1.6244  1.3442 -0.8703
    3TMC3    H114017   0.465   1.832  16.845  1.2462  2.4229 -0.7782
    3TMC3    H214018   0.487   1.490  16.599 -0.8555  1.2325 -1.4672
    3TMC3    C714019   0.314   1.654  16.729 -0.3473 -0.4765  0.5417
    3TMC3    C814020   0.745   1.496  16.572 -0.1970  0.6581 -0.0609
    3TMC3    O114021   0.259   1.764  16.744 -0.2872 -0.8017 -0.3658
    3TMC3    O214022   0.854   1.455  16.605  0.7753  0.3221  0.1093
    4MPD1     C14023   0.848   1.481  16.067 -0.5233  0.8583  0.0093
    4MPD1    C114024   0.728   1.546  16.081  0.3668 -0.2877 -0.4569
    4MPD1    C214025   0.690   1.566  16.210  0.2479  0.4704 -0.1342
    4MPD1    C314026   0.752   1.519  16.321  0.0930 -0.6234  0.0639
    4MPD1    C414027   0.870   1.449  16.302 -0.0019  0.1920  0.3986
    4MPD1    C514028   0.923   1.438  16.178  0.1473 -0.6496  1.2279
    4MPD1     H14029   0.596   1.620  16.221 -0.4821 -0.6741 -0.7086
    4MPD1    H114030   0.922   1.401  16.384  0.9541  1.5403  0.5871
    4MPD1    H214031   0.882   1.463  15.965 -0.3225  1.0845  0.0360
    4MPD1    H314032   1.020   1.391  16.166 -0.4018 -1.5489  0.2879
    4MPD1     N14033   0.691   1.535  16.454  0.2303 -0.1572  0.2662
    4MPD1    H514034   0.601   1.580  16.466  0.9365  1.0347  1.1220
    4MPD1    N114035   0.669   1.616  15.969  0.1954 -0.2760 -0.7285
    4MPD1    H614036   0.567   1.615  15.975  0.2219 -1.3870 -0.3500
    4MPD1    H714037   0.707   1.571  15.886  2.2956 -1.0733  0.6589
    1TCq1    O114038   0.849   0.888  11.263  0.1533 -0.1890  0.0117
    1TCq1    C114039   0.774   0.977  11.192 -0.8809  0.1069  0.4543
    1TCq1    O214040   0.732   0.973  11.076  0.5155  0.0613  0.1983
    1TCq1    C214041   0.790   1.098  11.257 -0.4384  0.4364 -0.2087
    1TCq1    C314042   0.755   1.113  11.388 -0.7651 -0.1377 -0.5688
    1TCq1    C414043   0.784   1.221  11.460  0.0715 -0.5822 -0.1917
    1TCq1    C514044   0.834   1.330  11.398 -1.0195 -0.1117 -0.5798
    1TCq1    C614045   0.868   1.319  11.266 -0.0390 -0.0912 -0.5485
    1TCq1    C714046   0.844   1.206  11.192 -0.5606 -0.3791 -0.2293
    1TCq1    C814047   0.945   1.434  11.212 -0.5100  0.1648 -0.0452
    1TCq1    O414048   0.992   1.511  11.297  0.1138 -0.2644 -0.0763
    1TCq1    C914049   0.727   1.235  11.591  0.4278  0.8176  0.2042
    1TCq1    O514050   0.721   1.354  11.635  0.4049  1.1523  0.0173
    1TCq1    O614051   0.694   1.130  11.654  0.1528  0.3559 -0.2366
    1TCq1    H114052   0.890   0.925  11.344  2.1296 -0.2666 -0.9363
    1TCq1    H214053   0.706   1.028  11.434  1.3673 -1.7815 -1.3523
    1TCq1    H314054   0.857   1.423  11.449 -1.0063 -0.0405 -0.7177
    1TCq1    H414055   0.870   1.190  11.089 -1.9344 -2.1507 -0.3031
    2MPD1     C14056   1.044   1.789  10.857 -0.4784 -0.5800 -0.1231
    2MPD1    C114057   0.920   1.734  10.822 -0.4020 -0.3438 -0.3778
    2MPD1    C214058   0.877   1.621  10.895 -0.0807  0.5396 -0.0904
    2MPD1    C314059   0.944   1.585  11.014  0.0239 -0.7942 -0.9778
    2MPD1    C414060   1.062   1.653  11.048 -0.0096  0.1291 -0.4849
    2MPD1    C514061   1.111   1.748  10.973 -0.0040  1.0568  0.2179
    2MPD1     H14062   0.788   1.568  10.862  0.4307 -0.5643  0.2970
    2MPD1    H114063   1.106   1.640  11.146 -3.8042 -1.1346  1.0610
    2MPD1    H214064   1.082   1.867  10.792  0.1616 -1.7283 -1.1494
    2MPD1    H314065   1.198   1.804  11.006  0.0014  1.1132  0.1087
    2MPD1     N14066   0.900   1.465  11.081 -0.1082  0.1419 -0.5224
    2MPD1    H514067   0.831   1.407  11.035  0.3581 -0.0283 -1.0168
    2MPD1    N114068   0.860   1.771  10.698 -0.0047  0.4389  0.3986
    2MPD1    H614069   0.759   1.765  10.707 -0.1540  0.3889 -1.4007
    2MPD1    H714070   0.885   1.867  10.676 -1.3350  0.8324  0.6391
    1TCq1    O114071   4.059   1.277   0.811  0.3057  0.0089  0.0673
    1TCq1    C114072   4.027   1.317   0.932 -0.1782 -0.2332  0.9146
    1TCq1    O214073   3.937   1.277   1.000  0.4511 -0.7260  0.1695
    1TCq1    C214074   4.099   1.437   0.965  0.3406 -0.5789 -0.0379
    1TCq1    C314075   4.227   1.459   0.911 -0.1210  0.5333 -0.2613
    1TCq1    C414076   4.291   1.571   0.951 -0.4621 -0.5701  0.2746
    1TCq1    C514077   4.212   1.681   0.996 -0.2252  0.2770  0.2925
    1TCq1    C614078   4.082   1.656   1.039  0.7280 -0.0726 -0.3776
    1TCq1    C714079   4.030   1.529   1.041  0.5270 -0.2150 -0.0473
    1TCq1    C814080   4.000   1.764   1.095  0.6466 -0.3481 -0.0290
    1TCq1    O414081   3.881   1.747   1.119  0.5410 -0.1014 -0.0228
    1TCq1    C914082   4.425   1.601   0.902  0.1064  0.4237  0.3819
    1TCq1    O514083   4.484   1.511   0.837  0.0186 -0.3219  0.2846
    1TCq1    O614084   4.462   1.720   0.919 -0.2524  0.2643 -0.9143
    1TCq1    H114085   4.091   1.359   0.766 -3.0277  2.4369  2.1392
    1TCq1    H214086   4.288   1.389   0.856 -1.3751  0.4542 -1.5534
    1TCq1    H314087   4.250   1.781   0.980  2.5136 -0.8369 -0.0924
    1TCq1    H414088   3.929   1.518   1.079  0.4347  0.0268 -0.2238
    2MPD1     C14089   3.954   2.238   1.282  0.2901 -0.0570 -0.3711
    2MPD1    C114090   4.066   2.227   1.201 -0.1368 -0.1236 -0.6849
    2MPD1    C214091   4.095   2.108   1.138 -0.1539 -0.1514 -0.1183
    2MPD1    C314092   4.014   1.996   1.165 -0.3170 -0.0073  0.4402
    2MPD1    C414093   3.896   2.010   1.243 -0.1683  0.1509  0.4117
    2MPD1    C514094   3.877   2.130   1.307 -0.3705  0.5101 -0.9443
    2MPD1     H14095   4.176   2.086   1.070 -0.6711  0.8280 -1.0504
    2MPD1    H114096   3.823   1.935   1.272  0.7411 -0.5905  0.7710
    2MPD1    H214097   3.926   2.333   1.327 -2.1897 -0.9038 -0.0866
    2MPD1    H314098   3.789   2.149   1.367  0.9175 -2.5645  1.8980
    2MPD1     N14099   4.062   1.883   1.098  0.0760  0.5901 -0.0808
    2MPD1    H514100   4.141   1.897   1.036 -1.0188  0.9036 -1.4074
    2MPD1    N114101   4.129   2.342   1.158 -0.0794 -0.3061 -0.6935
    2MPD1    H614102   4.115   2.416   1.226  1.5457 -1.4595  0.8933
    2MPD1    H714103   4.229   2.330   1.146  0.0146 -1.0039  0.7921
    1MPD1     C14104   2.786   1.869  11.341 -0.6225  0.4881 -0.3784
    1MPD1    C114105   2.814   1.977  11.262  0.6398 -0.6099  0.4034
    1MPD1    C214106   2.932   2.046  11.288  0.3016  0.1732  0.2002
    1MPD1    C314107   3.023   2.015  11.388 -0.6286  0.5775 -0.2527
    1MPD1    C414108   2.988   1.915  11.473 -0.4598 -0.0631  0.9107
    1MPD1    C514109   2.872   1.841  11.450 -0.6512  0.2261  0.0489
    1MPD1     H14110   2.963   2.121  11.216 -1.2980  2.1772  1.5974
    1MPD1    H114111   3.061   1.867  11.537 -0.6815  0.3279  1.4546
    1MPD1    H214112   2.698   1.807  11.332  0.5111 -0.7035 -3.1268
    1MPD1    H314113   2.847   1.757  11.513 -2.3400  0.5019 -0.2592
    1MPD1     N14114   3.140   2.095  11.402  0.3414  0.1351 -0.6077
    1MPD1    H514115   3.172   2.155  11.326 -3.9090  1.3032 -1.4853
    1MPD1    N114116   2.728   1.999  11.151 -0.2468  0.2878  0.3404
    1MPD1    H614117   2.729   2.095  11.117  0.7607 -0.3826 -1.5003
    1MPD1    H714118   2.636   1.957  11.161  0.1182 -0.6965 -0.4890
    2MPD1     C14119   2.973   1.405  11.911 -0.2637  0.3897 -0.2968
    2MPD1    C114120   2.852   1.471  11.880  0.2127 -0.4406 -0.5983
    2MPD1    C214121   2.821   1.476  11.747  0.2958  0.3557  0.2979
    2MPD1    C314122   2.909   1.429  11.647 -0.5365 -0.2181 -0.2564
    2MPD1    C414123   3.021   1.363  11.685 -0.0711  0.6361  0.0954
    2MPD1    C514124   3.056   1.352  11.815  0.1361 -0.7330  0.3075
    2MPD1     H14125   2.723   1.508  11.714  0.7366 -0.5735 -1.9511
    2MPD1    H114126   3.083   1.316  11.609 -1.5419  0.8108 -1.2278
    2MPD1    H214127   2.997   1.388  12.016 -1.3640  1.7940  0.1828
    2MPD1    H314128   3.148   1.300  11.839  0.6508  0.4220  0.7924
    2MPD1     N14129   2.885   1.430  11.510 -0.2155  0.2744  0.2923
    2MPD1    H514130   2.950   1.380  11.450  2.2560  0.4322  2.8611
    2MPD1    N114131   2.749   1.485  11.975 -0.0309  0.1211  0.4067
    2MPD1    H614132   2.660   1.525  11.946  0.1696 -0.0611 -0.4524
    2MPD1    H714133   2.780   1.514  12.068  0.5735  0.0854  0.2168
    3MPD1     C14134   2.215   1.527  10.626 -0.7896 -0.4095 -0.1536
    3MPD1    C114135   2.321   1.609  10.600  0.1243  0.4655 -0.3275
    3MPD1    C214136   2.434   1.590  10.682 -0.2088 -0.3140  0.0214
    3MPD1    C314137   2.426   1.510  10.798  0.2926 -1.0335  0.4011
    3MPD1    C414138   2.310   1.443  10.826 -0.3507  0.2122  0.8178
    3MPD1    C514139   2.207   1.437  10.727 -0.1236 -0.1370  0.5477
    3MPD1     H14140   2.512   1.660  10.655  0.3142 -0.9410 -0.1164
    3MPD1    H114141   2.312   1.390  10.921 -0.9978 -1.0668  0.1158
    3MPD1    H214142   2.125   1.536  10.566 -1.1006  0.9230  0.5213
    3MPD1    H314143   2.112   1.394  10.755 -1.0527  1.9379  0.5463
    3MPD1     N14144   2.527   1.521  10.897  0.0299 -0.8957  0.6714
    3MPD1    H514145   2.596   1.593  10.880  0.3427 -1.0012  1.5182
    3MPD1    N114146   2.335   1.675  10.480  0.3349  0.0202 -0.3586
    3MPD1    H614147   2.253   1.686  10.421 -0.3921  2.0056  0.9861
    3MPD1    H714148   2.387   1.760  10.502 -0.5062  1.0278 -2.2174
    4MPD2     C14149   3.374   2.392  10.951  0.9093 -0.2261  0.2914
    4MPD2    C114150   3.460   2.313  11.024 -0.0905 -0.0837  0.4048
    4MPD2    C214151   3.517   2.204  10.964 -0.5176 -0.0830  0.6907
    4MPD2    C314152   3.493   2.180  10.826 -0.0895  0.7505  0.4679
    4MPD2    C414153   3.404   2.261  10.752 -0.3671  0.1967  0.3493
    4MPD2    C514154   3.355   2.372  10.813  0.1845  0.4170  0.0363
    4MPD2     H14155   3.579   2.135  11.020 -0.9243  0.5102  1.8643
    4MPD2    H114156   3.387   2.236  10.648 -1.1992  0.0174  0.5313
    4MPD2    H214157   3.318   2.475  10.993 -1.0897 -2.1137  1.3549
    4MPD2    H314158   3.304   2.446  10.753 -1.4977  0.0304  0.9840
    4MPD2     N14159   3.559   2.072  10.770  0.0256  0.8438  0.4552
    4MPD2    H514160   3.627   2.028  10.832  0.1394  0.3601 -0.0081
    4MPD2    N114161   3.486   2.332  11.164  0.1187  0.0117 -0.2377
    4MPD2    H714162   3.549   2.270  11.215 -2.6582  0.1765  3.4105
    5TMC3    C114163   3.433   2.362  11.375  0.3629 -0.2648  0.1847
    5TMC3    C214164   3.316   2.299  11.422 -0.1658  0.3873 -0.4785
    5TMC3    C314165   3.340   2.181  11.488  1.1148  0.3239 -0.2076
    5TMC3    C414166   3.556   2.308  11.397  0.3382  0.5989 -0.0141
    5TMC3    C514167   3.568   2.182  11.447  0.0792  0.2335  0.0433
    5TMC3    C614168   3.458   2.122  11.503  0.3589  0.1532 -0.2009
    5TMC3     C14169   3.422   2.417  11.245  0.4152  0.2067 -0.6106
    5TMC3     O14170   3.317   2.467  11.225 -0.2725 -0.4883  0.2310
    5TMC3     H14171   3.220   2.336  11.389 -0.3609  0.5710  0.2889
    5TMC3    H114172   3.637   2.360  11.348 -1.6178  0.6531 -3.1963
    5TMC3    H214173   3.459   2.025  11.552  2.2343  0.4106  0.2869
    5TMC3    C714174   3.673   2.102  11.376  0.2638 -0.2549 -0.5993
    5TMC3    C814175   3.237   2.085  11.499  0.0450 -0.0606 -0.7208
    5TMC3    O114176   3.723   2.160  11.279 -0.0458  0.5920  0.0286
    5TMC3    O214177   3.236   2.012  11.596 -0.2467 -0.1436 -0.4091
    6TMC3    C114178   2.776   1.464  11.304 -0.4711 -0.1305  0.0744
    6TMC3    C214179   2.658   1.475  11.238 -0.0395  0.4043  0.8077
    6TMC3    C314180   2.659   1.495  11.103  0.7288 -0.2891 -0.3471
    6TMC3    C414181   2.898   1.471  11.233 -0.3691 -0.6600 -0.6176
    6TMC3    C514182   2.890   1.476  11.102  0.3779 -0.1237  0.3390
    6TMC3    C614183   2.776   1.486  11.034 -0.0499  0.4178 -0.6431
    6TMC3     C14184   2.779   1.482  11.450 -0.1872 -0.5304  0.4110
    6TMC3     O14185   2.689   1.544  11.504  0.2103  0.0081  0.1089
    6TMC3     H14186   2.562   1.472  11.289 -0.6618  1.2216 -0.3115
    6TMC3    H114187   2.984   1.505  11.289 -1.2182  0.7184 -0.1425
    6TMC3    H214188   2.778   1.486  10.925  2.5798  0.3319 -0.5866
    6TMC3    C714189   3.013   1.468  11.030  0.0661  0.3900  0.7970
    6TMC3    C814190   2.530   1.468  11.026 -0.0392  0.0828  0.2573
    6TMC3    O114191   3.005   1.489  10.914  0.2360 -0.2550 -0.0431
    6TMC3    O214192   2.465   1.375  11.074 -0.3812  0.3735  0.3333
    7MPD2     C14193   3.789   1.643  11.204 -0.5537  0.4810 -0.2704
    7MPD2    C114194   3.791   1.762  11.143  0.0591  0.6195 -0.1721
    7MPD2    C214195   3.771   1.875  11.215 -0.2099  0.5415 -0.2946
    7MPD2    C314196   3.719   1.866  11.340  0.1309  0.4606 -0.4865
    7MPD2    C414197   3.726   1.741  11.402  0.9918 -0.6054 -0.5714
    7MPD2    C514198   3.759   1.629  11.335  0.1265  0.6849  0.1373
    7MPD2     H14199   3.778   1.972  11.169 -0.6473  0.7850  0.1540
    7MPD2    H114200   3.686   1.734  11.503 -0.7516 -1.9841 -1.3672
    7MPD2    H214201   3.793   1.556  11.141 -0.7679  0.5970 -0.4459
    7MPD2    H314202   3.764   1.531  11.381 -1.3466  0.2933 -0.5564
    7MPD2     N14203   3.673   1.972  11.418 -0.5877 -0.0159  0.2137
    7MPD2    H514204   3.632   1.946  11.507  1.7262  2.5074  2.0025
    7MPD2    N114205   3.823   1.755  11.004 -0.0891 -0.5568 -0.5631
    7MPD2    H714206   3.853   1.668  10.961 -0.6029 -2.2841  2.6421
    8TMC3    C114207   3.776   1.819  10.781 -0.3022 -0.0897 -0.5010
    8TMC3    C214208   3.701   1.702  10.777  0.0050  0.4569 -0.8069
    8TMC3    C314209   3.588   1.693  10.703 -0.1335  0.4411  0.0802
    8TMC3    C414210   3.744   1.919  10.699  0.0651 -0.0819  0.5056
    8TMC3    C514211   3.630   1.910  10.623 -1.0032  0.4620  1.3437
    8TMC3    C614212   3.549   1.803  10.623 -0.4578  0.4147 -0.0266
    8TMC3     C14213   3.814   1.862  10.916  0.6295 -0.0142  0.0073
    8TMC3     O14214   3.812   1.981  10.946 -0.4862 -0.2485  0.4384
    8TMC3     H14215   3.733   1.615  10.833 -1.0820  1.9356  2.1331
    8TMC3    H114216   3.801   2.011  10.703  1.3113 -0.8360  0.0755
    8TMC3    H214217   3.458   1.813  10.564 -0.1402 -0.1333 -0.6124
    8TMC3    C714218   3.549   2.023  10.644 -0.0903  0.0547  0.6528
    8TMC3    C814219   3.476   1.621  10.764 -0.2300 -0.3211  0.3464
    8TMC3    O114220   3.481   2.069  10.554  0.1609 -0.1968 -0.0544
    8TMC3    O214221   3.371   1.679  10.786  0.0112  0.5447  0.9259
    9MPD2     C14222   3.501   1.339  10.989 -0.3939  0.2690 -0.2143
    9MPD2    C114223   3.431   1.432  10.906  0.2827 -0.4217 -0.0304
    9MPD2    C214224   3.296   1.441  10.941 -0.4639  0.6188 -0.2235
    9MPD2    C314225   3.237   1.365  11.051  0.7457  0.8126  0.1502
    9MPD2    C414226   3.318   1.273  11.120  0.0461  0.1542  0.2746
    9MPD2    C514227   3.452   1.254  11.086  0.9359 -0.0289 -0.2459
    9MPD2     H14228   3.224   1.495  10.880 -0.2404  0.3906 -0.6946
    9MPD2    H114229   3.272   1.228  11.207 -0.0252  0.0290  0.1732
    9MPD2    H214230   3.607   1.328  10.969 -0.8938 -0.9502 -2.2121
    9MPD2    H314231   3.515   1.194  11.151 -0.6959 -2.8805 -1.3073
    9MPD2     N14232   3.104   1.386  11.095  0.0462 -0.5594  0.2985
    9MPD2    H514233   3.081   1.350  11.188 -0.5860  1.7216  1.0196
    9MPD2    N114234   3.514   1.513  10.823  0.1118  0.0905 -0.0380
    9MPD2    H714235   3.608   1.476  10.810 -0.1252 -0.7872  0.7903
    1MPD1     C14236   2.726   0.652  17.508 -0.1642  0.2394 -0.0521
    1MPD1    C114237   2.665   0.763  17.462  0.9812  1.0887 -0.3021
    1MPD1    C214238   2.580   0.744  17.354  0.6159 -0.1510  0.5113
    1MPD1    C314239   2.535   0.626  17.304  0.2088 -0.5847 -0.2005
    1MPD1    C414240   2.598   0.513  17.355  0.4341 -0.1445  0.2779
    1MPD1    C514241   2.688   0.533  17.453 -0.7043  0.3674  0.3202
    1MPD1     H14242   2.538   0.836  17.315 -1.9945 -2.0669 -1.1595
    1MPD1    H114243   2.594   0.410  17.320  0.0581 -0.5587  1.5310
    1MPD1    H214244   2.798   0.648  17.589  0.0549  0.9117 -0.2198
    1MPD1    H314245   2.739   0.442  17.483 -0.2309  0.1821 -1.0746
    1MPD1     N14246   2.454   0.613  17.194 -0.3465  0.5703  0.2553
    1MPD1    H514247   2.411   0.523  17.177 -0.2008  0.5269  0.1308
    1MPD1    N114248   2.710   0.894  17.511 -0.0189  0.5172 -0.2691
    1MPD1    H614249   2.742   0.892  17.607 -1.8525  0.1626  0.3455
    1MPD1    H714250   2.631   0.957  17.500  0.5198  1.7246  2.9892
    2MPD1     C14251   1.950   4.668  17.143 -0.1009  0.5010 -0.5236
    2MPD1    C114252   2.082   4.680  17.115  0.5535  0.0506 -0.2887
    2MPD1    C214253   2.121   0.091  17.086  0.3586  0.4408 -0.3967
    2MPD1    C314254   2.037   0.191  17.058  0.4071  0.3510  0.2870
    2MPD1    C414255   1.903   0.173  17.078 -0.8809 -0.2874  0.5095
    2MPD1    C514256   1.862   0.050  17.121 -0.2353  0.0595 -0.3157
    2MPD1     H14257   2.226   0.117  17.078  0.7700 -0.7637  1.1599
    2MPD1    H114258   1.830   0.252  17.063 -0.6696  0.4235  3.3128
    2MPD1    H214259   1.914   4.581  17.197 -0.8018  0.6072 -0.8202
    2MPD1    H314260   1.759   0.045  17.154 -0.1886 -2.0990 -0.5213
    2MPD1     N14261   2.097   0.318  17.039 -0.2102 -0.5694 -0.4218
    2MPD1    H514262   2.197   0.329  17.045 -0.3248  0.1134  0.1242
    2MPD1    N114263   2.173   4.574  17.140 -0.2028 -0.3623  0.1715
    2MPD1    H614264   2.128   4.482  17.142 -0.0126 -0.4523  0.3048
    2MPD1    H714265   2.254   4.575  17.078  0.5450  0.5486  1.1766
    3TCq2    C114266   2.037   0.419  16.968  0.5869 -0.5583  0.3789
    3TCq2    O214267   1.924   0.420  16.912  0.7750  0.0567 -0.1523
    3TCq2    C214268   2.133   0.526  16.940  0.3534 -0.3214  0.6801
    3TCq2    C314269   2.105   0.608  16.836  0.9369 -0.0742 -0.2246
    3TCq2    C414270   2.173   0.721  16.823  0.5550 -0.4099  0.2047
    3TCq2    C514271   2.273   0.761  16.914 -0.2511  0.1582  0.8264
    3TCq2    C614272   2.295   0.680  17.019 -0.7274  0.0236  0.7016
    3TCq2    C714273   2.223   0.564  17.039 -0.0847 -0.0027  0.0934
    3TCq2    C814274   2.406   0.713  17.110  0.6225 -0.6842 -0.3203
    3TCq2    O414275   2.478   0.808  17.075  0.3244 -0.4987  0.0726
    3TCq2    C914276   2.135   0.808  16.719  0.2801 -0.1451 -0.6677
    3TCq2    O514277   2.224   0.890  16.685  0.5251  0.2007  0.0079
    3TCq2    O614278   2.015   0.810  16.696  0.5144  0.4321  0.3593
    3TCq2    H214279   2.030   0.578  16.763 -1.3078  0.4895  1.8385
    3TCq2    H314280   2.341   0.844  16.896  0.4183 -0.6471 -0.4429
    3TCq2    H414281   2.215   0.522  17.139  1.7367 -0.9146 -0.1340
    1TCq1    O114282   4.679   0.264  13.596 -0.3474  0.3944 -0.4901
    1TCq1    C114283   4.601   0.314  13.494  0.8853  0.2402 -0.1197
    1TCq1    O214284   4.576   0.431  13.473 -0.5727 -0.5089  0.2266
    1TCq1    C214285   4.565   0.207  13.401 -0.5231 -0.6272 -0.9821
    1TCq1    C314286   4.448   0.217  13.336 -0.2483 -0.3399 -0.0626
    1TCq1    C414287   4.412   0.126  13.237  0.1295 -0.8004 -0.4087
    1TCq1    C514288   4.500   0.023  13.201  0.1527  0.2176 -0.5960
    1TCq1    C614289   4.616   0.014  13.273  0.0381 -0.7061 -0.5027
    1TCq1    C714290   4.654   0.112  13.363  0.3166  0.2974 -0.3006
    1TCq1    C814291   4.715   4.640  13.227  0.6292 -0.2171 -0.6483
    1TCq1    O414292   4.664   4.554  13.152 -0.1566  0.0349 -0.5937
    1TCq1    C914293   4.286   0.130  13.172  0.1688  0.3115  0.3966
    1TCq1    O514294   4.184   0.177  13.234 -0.0025  0.0608 -0.4480
    1TCq1    O614295   4.272   0.048  13.076  0.3849  0.2988 -0.4943
    1TCq1    H114296   4.667   0.167  13.594 -1.3052  0.5217 -0.7058
    1TCq1    H214297   4.370   0.288  13.360  1.4490  0.8567  1.9000
    1TCq1    H314298   4.484   4.678  13.120  0.2523  0.8926 -1.1917
    1TCq1    H414299   0.026   0.099  13.412  1.0334  1.7738 -1.3285
    2MPD2     C14300   0.200   4.461  13.119  0.3444 -0.0029  0.3040
    2MPD2    C114301   0.222   4.560  13.211 -0.1818 -0.6454 -0.2346
    2MPD2    C214302   0.353   4.579  13.252 -0.2512 -0.5949  0.2173
    2MPD2    C314303   0.455   4.503  13.198 -0.6974 -0.3661 -0.1971
    2MPD2    C414304   0.429   4.397  13.113 -0.7796 -0.1799 -0.4796
    2MPD2    C514305   0.304   4.382  13.067  0.1955  0.2340  0.2330
    2MPD2     H14306   0.375   4.667  13.312 -0.0315 -0.5454  0.0653
    2MPD2    H114307   0.502   4.333  13.065 -1.1197 -0.8919 -0.0457
    2MPD2    H214308   0.103   4.427  13.085 -0.7790  1.2794  2.2048
    2MPD2    H314309   0.287   4.321  12.979 -0.4231  1.0969 -0.2409
    2MPD2     N14310   0.584   4.541  13.232  0.1293  0.2591  0.0018
    2MPD2    H514311   0.591   4.603  13.311  0.8501  1.0153 -0.6587
    2MPD2    N114312   0.120   4.642  13.270  0.0365 -0.4885 -0.5242
    2MPD2    H714313   0.152   4.716  13.332 -1.0132 -0.8639  0.4509
    3TCq1    O114314   1.231   4.697  13.083 -0.3733 -0.4333 -0.3570
    3TCq1    C114315   1.098   0.003  13.096 -0.3970 -0.7199 -0.3334
    3TCq1    O214316   1.029   0.056  13.005 -0.3038 -0.2649  0.0284
    3TCq1    C214317   1.038   4.632  13.183 -0.2741  0.1187  0.1422
    3TCq1    C314318   1.053   4.660  13.316 -0.1027 -0.4201 -0.5468
    3TCq1    C414319   0.945   4.632  13.396 -0.3360  0.9389 -0.3849
    3TCq1    C514320   0.826   4.570  13.352  0.2332  0.1706 -0.2728
    3TCq1    C614321   0.815   4.537  13.219  0.1793  0.6689  0.2137
    3TCq1    C714322   0.929   4.568  13.136 -0.3149  0.4672  0.1518
    3TCq1    C814323   0.691   4.502  13.155  0.9524  0.0141 -0.2094
    3TCq1    O414324   0.697   4.450  13.038 -0.1779  0.5714  0.1074
    3TCq1    C914325   0.964   4.679  13.531  0.0783  0.7052  0.5791
    3TCq1    O514326   1.057   0.036  13.557  0.2575 -0.4396  0.2343
    3TCq1    O614327   0.877   4.643  13.616  0.3879  0.7195 -0.0418
    3TCq1    H114328   1.262   4.637  13.154  0.7348  0.7721  0.1801
    3TCq1    H214329   1.144   4.696  13.363 -1.2633  1.0809  0.5630
    3TCq1    H314330   0.747   4.549  13.423  1.9631 -1.8359  1.0661
    3TCq1    H414331   0.922   4.558  13.028 -2.5415  0.0022  0.3251
    1MPD2     C14332   4.559   4.589  15.176 -0.7245  0.2804 -0.5758
    1MPD2    C114333   4.596   4.498  15.078  0.3898 -0.2113  0.1068
    1MPD2    C214334   0.002   4.481  15.042 -1.0579 -0.0997 -0.4001
    1MPD2    C314335   0.095   4.557  15.105 -0.0485 -0.4717 -0.6667
    1MPD2    C414336   0.068   4.646  15.211  0.4551  0.1919  0.3918
    1MPD2    C514337   4.662   4.664  15.241 -0.3621  0.6352  0.1442
    1MPD2     H14338   0.034   4.423  14.956 -1.9844 -1.2975  0.0694
    1MPD2    H114339   0.145   4.708  15.257  1.1756 -0.0806 -0.4390
    1MPD2    H214340   4.454   4.594  15.205  0.2678  0.3164  2.9909
    1MPD2    H314341   4.627   0.010  15.316  0.1509 -0.5818  1.5096
    1MPD2     N14342   0.222   4.539  15.054  0.2763 -0.4730  0.3970
    1MPD2    H514343   0.222   4.496  14.963 -1.5200 -0.8743  0.5924
    1MPD2    N114344   4.488   4.426  15.017 -0.3048 -0.1585  0.0773
    1MPD2    H714345   4.393   4.449  15.043 -0.7579 -0.4739 -1.2984
    2TMC3    C114346   4.396   4.245  14.874  0.2900  0.0238  0.3737
    2TMC3    C214347   4.442   4.122  14.825 -0.2590 -0.3716 -0.2068
    2TMC3    C314348   4.412   4.076  14.702  0.3067  0.6037  0.1800
    2TMC3    C414349   4.324   4.333  14.797  0.3945  0.0617  0.1645
    2TMC3    C514350   4.295   4.284  14.673 -0.6503 -0.5489  0.2633
    2TMC3    C614351   4.341   4.166  14.629 -0.3916  0.0329 -0.1890
    2TMC3     C14352   4.507   4.320  14.924 -0.3116 -0.4355 -0.3116
    2TMC3     O14353   4.611   4.286  14.870 -0.1612 -0.9177  0.6307
    2TMC3     H14354   4.514   4.067  14.885  0.0890 -1.6207 -1.7598
    2TMC3    H114355   4.298   4.430  14.838 -0.4566 -0.3955  0.7237
    2TMC3    H214356   4.332   4.154  14.522 -2.1673  0.0226 -0.0279
    2TMC3    C714357   4.199   4.357  14.587 -1.0131  0.2115  0.3848
    2TMC3    C814358   4.528   4.026  14.633  0.3607  0.1051 -0.5046
    2TMC3    O114359   4.164   4.302  14.480 -0.2827  0.4805 -0.3249
    2TMC3    O214360   4.524   3.935  14.552  0.0272 -0.6047 -0.4648
    3TCq1    O114361   4.152   0.923  14.478  0.1008 -0.1754  0.3988
    3TCq1    C114362   4.089   0.813  14.425  0.4688 -0.1974  0.2330
    3TCq1    O214363   3.968   0.805  14.435 -0.2930  0.0426  0.4038
    3TCq1    C214364   4.174   0.693  14.431  0.9072 -0.2635  0.2748
    3TCq1    C314365   4.307   0.700  14.398  0.1488 -0.6460  0.0170
    3TCq1    C414366   4.377   0.582  14.386  0.8485  0.1857 -0.6064
    3TCq1    C514367   4.316   0.463  14.406 -0.1136 -0.5048  0.5877
    3TCq1    C614368   4.181   0.458  14.444  0.8255  0.1576 -0.2189
    3TCq1    C714369   4.109   0.573  14.445  0.2979  0.2594 -0.2229
    3TCq1    C814370   4.102   0.341  14.401  0.0076 -0.3096  0.7263
    3TCq1    O414371   4.014   0.365  14.321  0.1898  0.0782  0.0956
    3TCq1    C914372   4.517   0.587  14.347  0.1230 -0.0753 -0.0490
    3TCq1    O514373   4.561   0.703  14.305 -0.2621  0.0580 -0.1691
    3TCq1    O614374   4.594   0.491  14.365 -0.2634  0.1126  0.3721
    3TCq1    H114375   4.244   0.919  14.512  0.3996  0.6904 -0.3175
    3TCq1    H214376   4.349   0.797  14.375  0.3474 -0.7355 -0.0041
    3TCq1    H314377   4.369   0.370  14.391  2.0631  0.4179  2.6505
    3TCq1    H414378   4.002   0.582  14.456  0.2116 -1.2799  0.2350
    4MPD2     C14379   4.040   0.064  14.352 -0.0817  0.2825 -0.2567
    4MPD2    C114380   4.120   0.102  14.449  0.5579  0.0869  0.1516
    4MPD2    C214381   4.178   0.004  14.530 -0.1952 -0.7569 -0.8653
    4MPD2    C314382   4.141   4.593  14.521  0.7484 -0.2425 -0.0300
    4MPD2    C414383   4.049   4.562  14.422  0.2179 -1.0013  0.2215
    4MPD2    C514384   4.009   4.660  14.336  0.3695 -0.5196 -0.1662
    4MPD2     H14385   4.254   0.020  14.604  0.5212  0.2890 -1.8165
    4MPD2    H114386   4.005   4.463  14.418 -0.4955 -0.7504  1.9177
    4MPD2    H214387   3.999   0.137  14.282 -1.6576  0.4356  0.8443
    4MPD2    H314388   3.934   4.623  14.267 -1.7693 -1.9859  2.9576
    4MPD2     N14389   4.187   4.494  14.611  0.1103  0.3919 -0.4807
    4MPD2    H514390   4.256   4.533  14.675  2.0489 -1.0459 -1.6878
    4MPD2    N114391   4.160   0.232  14.462  0.0656 -0.1706 -0.6903
    4MPD2    H714392   4.223   0.251  14.539 -2.3196  2.4010  0.6482
    5TMC2    C114393   0.530   4.348  14.885  0.9108 -0.0525  0.2756
    5TMC2    C214394   0.664   4.390  14.900  0.3028 -0.0266 -0.1408
    5TMC2    C314395   0.687   4.499  14.980  0.1653  0.0971  0.1753
    5TMC2    C414396   0.427   4.399  14.959  0.2798  0.2422 -0.0828
    5TMC2    C514397   0.454   4.509  15.039 -0.1866 -0.5123 -0.1956
    5TMC2    C614398   0.583   4.558  15.053 -0.0546 -0.6655 -0.0581
    5TMC2     C14399   0.498   4.252  14.779  0.3913  0.6324 -0.8424
    5TMC2     O14400   0.579   4.184  14.717  0.9211 -0.2220 -0.6569
    5TMC2     H14401   0.740   4.357  14.830 -0.1388 -0.3177 -0.4748
    5TMC2    H114402   0.330   4.351  14.968  0.0173  0.6000 -0.9862
    5TMC2    H214403   0.604   4.647  15.111 -0.7531 -0.3494 -0.3006
    5TMC2    C714404   0.342   4.569  15.114 -0.7279  0.4430  0.1431
    5TMC2    C814405   0.817   4.531  15.029  0.3378  0.7472 -0.1377
    5TMC2    O114406   0.374   4.636  15.214 -0.8205 -0.6435  0.0814
    5TMC2    O214407   0.916   4.463  15.007 -0.4801 -0.1820 -0.1981
    5TMC2    O514408   0.819   4.667  15.042  0.1548  0.2367  0.4595
    5TMC2    H514409   0.740   4.714  15.009  0.9203  1.0855 -0.1812
    6MPD2     C14410   0.095   4.006  14.542  0.7013 -0.7141  0.1662
    6MPD2    C114411   0.054   4.091  14.637  0.0030 -0.3569  0.3277
    6MPD2    C214412   0.146   4.169  14.702 -0.1261 -0.1985 -0.2217
    6MPD2    C314413   0.279   4.163  14.683 -0.4116  0.1735  0.2371
    6MPD2    C414414   0.326   4.066  14.588 -0.2295  0.6928 -0.1835
    6MPD2    C514415   0.234   3.993  14.524  0.0461  0.7155 -0.4089
    6MPD2     H14416   0.106   4.236  14.778  0.5668  0.2848 -0.2856
    6MPD2    H114417   0.431   4.050  14.565 -0.4172 -0.1650 -0.4521
    6MPD2    H214418   0.029   3.949  14.478  0.3996  0.5421 -0.6339
    6MPD2    H314419   0.266   3.914  14.456  1.5172  0.9893 -0.0423
    6MPD2     N14420   0.364   4.248  14.762 -0.0952 -0.4298  0.4447
    6MPD2    H514421   0.311   4.307  14.824 -1.3983  0.3340 -1.3825
    6MPD2    N114422   4.640   4.098  14.683 -0.0829  0.0792  0.1426
    6MPD2    H714423   4.624   4.165  14.758  1.0124  1.9127 -1.2738
  945NH3     N114424   4.301   1.479  10.006 -0.4819  0.6515 -1.0461
  945NH3     H214425   4.304   1.388  10.049 -1.0107  0.8931 -0.5077
  945NH3     H314426   4.331   1.543  10.078 -0.9918 -0.8812  0.5072
  945NH3     H414427   4.203   1.501  10.015 -0.0216  1.6053  1.5378
  946SOD     NA14428   4.121   2.939  14.186 -0.2630 -0.3812 -0.3693
  947SOD     NA14429   0.675   0.093  15.472 -0.2843 -0.3948  0.4168
  948SOD     NA14430   2.367   1.049  16.697 -0.6216  0.1607  0.0020
  949SOD     NA14431   2.531   3.298  13.382  0.4798 -0.0742 -0.5348
  950SOD     NA14432   2.012   4.008  17.448 -0.2992  0.1081  0.2971
  951SOD     NA14433   3.004   2.983  14.864 -0.2515 -0.0996  0.2722
  952SOD     NA14434   1.119   0.142  11.621  0.0598  0.0807  0.4306
  953SOD     NA14435   4.695   4.050  10.235 -0.3243 -0.3463  0.0813
  954SOD     NA14436   1.373   2.168  13.757 -0.3112 -0.2194  0.3812
  955SOD     NA14437   3.741   1.509   3.099 -0.0277 -0.6420 -0.1606
  956SOD     NA14438   2.205   3.099   3.056 -0.5795  0.3632  0.0305
  957SOD     NA14439   2.945   1.414   1.354  0.1956  0.1776  0.4192
  958SOD     NA14440   2.521   1.984   8.148 -0.2632 -0.6232 -0.0528
  959SOD     NA14441   1.826   2.758  13.472 -0.0494 -0.0232  0.5683
  960SOD     NA14442   1.443   1.420  12.421  0.3123 -0.2861  0.3877
  961SOD     NA14443   4.218   2.457  10.261  0.6101  0.6318 -0.2568
  962SOD     NA14444   2.011   0.565  13.316  0.0647  0.7158  0.1058
  963SOD     NA14445   0.036   3.164  10.286  0.3572  0.0289 -0.0807
  964SOD     NA14446   4.379   3.720  11.088 -0.4883  0.6142 -0.2324
  965SOD     NA14447   0.415   0.835  12.349  0.2484  0.1872 -0.1011
  966SOD     NA14448   4.405   1.183  15.487  0.1878 -0.1858 -0.5962
  967SOD     NA14449   1.650   1.132  16.348 -0.3341  0.0679 -0.1040
  968SOD     NA14450   0.978   3.827  11.420 -0.4078 -0.0922 -0.0539
  969SOD     NA14451   4.569   3.869   9.113 -0.5139  0.3777  0.4353
  970SOD     NA14452   4.708   0.850   1.697 -0.0473 -0.2178 -0.1346
  971SOD     NA14453   3.709   3.663  12.574  0.2706 -0.4391 -0.0507
  972SOD     NA14454   1.530   4.295  11.701  0.0793  0.1293 -0.5538
  973SOD     NA14455   3.709   3.571  11.703  0.0245 -0.2838  0.0722
  974SOD     NA14456   3.582   4.610  11.465 -0.3804 -0.1790 -0.1476
  975SOD     NA14457   3.031   2.975   1.292 -0.6292 -0.1270 -0.1905
  976SOD     NA14458   1.477   3.891  10.549  0.2792 -0.0762 -0.1535
  977SOD     NA14459   0.464   0.729  11.784  0.1939 -0.1972 -0.0530
  978SOD     NA14460   1.896   2.356  10.819  0.3942  0.1515 -0.0684
  979SOD     NA14461   3.976   3.223  12.644  0.0810  0.3251 -0.2919
  980SOD     NA14462   0.922   0.041  14.083  0.1594 -0.5175  0.2839
  981SOD     NA14463   0.794   0.402   9.918  0.1218  0.1555 -0.4501
  982SOD     NA14464   2.492   1.609  11.559  0.2266 -0.0696  0.8777
  983SOD     NA14465   0.485   0.612  14.672  0.0100 -0.0022  0.1120
  984SOD     NA14466   0.767   3.192   2.703 -0.0361 -0.0939 -0.4239
  985SOD     NA14467   3.560   4.284  11.340 -0.1722  0.2222 -0.3230
  986SOD     NA14468   2.981   4.591  14.512 -0.5235 -0.3394  0.0157
  987SOD     NA14469   0.425   4.385  10.162  0.0819  0.1795  0.2656
  988SOD     NA14470   3.676   0.092  17.693 -0.4559 -0.0087 -0.3515
  989SOD     NA14471   3.291   1.617   0.609  0.0186 -0.2215 -0.4070
  990SOD     NA14472   3.038   3.322   1.162 -0.1247 -0.1879 -0.1400
  991SOD     NA14473   3.493   3.857  17.030  0.2836  0.2685  0.3687
  992SOD     NA14474   2.207   0.300  16.240 -0.0157 -0.4614  0.7803
  993SOD     NA14475   4.707   1.241   1.729  0.3094 -0.1627  0.0995
  994SOD     NA14476   1.468   4.166  10.569 -0.0861 -0.3601  0.2695
  995SOD     NA14477   2.905   4.637  12.686  0.0476  0.1692 -0.1123
  996SOD     NA14478   2.854   2.543   2.952  0.2009  0.3482  0.0230
  997SOD     NA14479   2.275   1.242   1.355  0.0088 -0.2901 -0.2662
  998SOD     NA14480   4.466   3.941   3.752  0.5201  0.3654  0.0394
  999SOD     NA14481   0.026   1.510   1.183  0.2213  0.1868 -0.0964
 1000SOD     NA14482   2.973   3.696   7.225  0.1223 -0.1095  0.3676
 1001SOD     NA14483   4.556   4.056  11.033  0.0847 -0.1277  0.0978
 1002SOD     NA14484   4.529   3.290  16.166 -0.1410 -0.0538 -0.6077
 1003SOD     NA14485   1.247   3.688  10.318 -0.5682  0.3068  0.3125
 1004SOD     NA14486   4.317   4.617  12.679  0.2861 -0.1848 -0.0972
 1005SOD     NA14487   0.024   3.120  15.096 -0.1394 -0.4302  0.0377
 1006SOD     NA14488   1.211   4.511  11.645 -0.1976 -0.5182 -0.1577
 1007SOD     NA14489   1.774   3.238  17.060  0.5816  0.7960  0.7281
 1008SOD     NA14490   0.957   0.075  13.773  0.7412 -0.1981 -0.4475
 1009SOD     NA14491   3.228   3.926   6.153  0.4730  0.3902  0.1427
 1010SOD     NA14492   1.438   3.474   0.424  0.4593 -0.0890  0.0275
 1011SOD     NA14493   0.545   3.246   6.626 -0.3850  0.3584 -0.6375
 1012SOL     OW14494   3.480   4.178   7.181  0.3061 -0.1244 -0.4327
 1012SOL    HW114495   3.437   4.261   7.200 -0.5590 -0.6968  0.1536
 1012SOL    HW214496   3.510   4.144   7.266  1.7013  0.8731 -0.5272
 1013SOL     OW14497   1.976   0.262  14.243  0.1157  0.0730 -0.1314
 1013SOL    HW114498   2.002   0.347  14.207  0.4166 -0.4033 -1.0458
 1013SOL    HW214499   1.974   0.285  14.336 -0.1292  1.5455 -0.5000
 1014SOL     OW14500   3.439   3.407   8.680  0.1843 -0.3515 -0.5504
 1014SOL    HW114501   3.433   3.336   8.617 -0.7924 -0.4644 -0.3316
 1014SOL    HW214502   3.483   3.363   8.752 -1.9852 -0.2309  0.8456
 1015SOL     OW14503   0.683   0.394   2.056  0.1839  0.0976 -0.2703
 1015SOL    HW114504   0.660   0.447   2.132  0.3484 -1.4316  0.8499
 1015SOL    HW214505   0.619   0.423   1.991 -2.5539 -1.6378  1.6722
 1016SOL     OW14506   3.705   1.049   4.917  0.1790  0.1918  0.4544
 1016SOL    HW114507   3.672   0.997   4.990 -1.8449  1.8746  0.7439
 1016SOL    HW214508   3.663   1.007   4.842 -0.5448  2.8949 -0.6619
 1017SOL     OW14509   2.714   1.442   1.307  0.2975  0.3965 -0.8154
 1017SOL    HW114510   2.654   1.444   1.381  2.4773 -1.1965  1.0121
 1017SOL    HW214511   2.702   1.352   1.276  2.6005  0.4613 -1.9584
 1018SOL     OW14512   0.527   4.194   9.390 -0.6431  0.0435 -0.4518
 1018SOL    HW114513   0.594   4.228   9.450 -2.2863  0.4191  1.1538
 1018SOL    HW214514   0.466   4.157   9.455  0.8949  1.2729  1.6884
 1019SOL     OW14515   2.513   0.056   8.673  0.0043 -0.3419  0.2410
 1019SOL    HW114516   2.486   0.139   8.713 -1.4688 -0.8659  0.3316
 1019SOL    HW214517   2.608   0.059   8.662 -0.0941 -2.2865 -1.2620
 1020SOL     OW14518   1.297   2.842   7.866  0.2974 -0.2039  0.2830
 1020SOL    HW114519   1.350   2.773   7.827 -0.5490 -0.2205 -0.8572
 1020SOL    HW214520   1.228   2.862   7.803 -0.5147  0.6314  1.4310
 1021SOL     OW14521   4.085   0.572   3.442  0.6278 -0.4400 -0.4479
 1021SOL    HW114522   4.047   0.493   3.480 -0.7605  0.0230 -0.8383
 1021SOL    HW214523   4.141   0.537   3.374  0.1541 -0.5941 -0.7625
 1022SOL     OW14524   3.764   3.768  12.936  0.5647 -0.9172 -0.2348
 1022SOL    HW114525   3.840   3.821  12.961 -0.6314  0.3403  0.7649
 1022SOL    HW214526   3.755   3.711  13.013  0.0872 -1.3516 -0.6147
 1023SOL     OW14527   1.657   4.297   7.363  0.0924 -0.2394  0.1402
 1023SOL    HW114528   1.674   4.287   7.456 -1.3583  0.9812  0.5335
 1023SOL    HW214529   1.688   4.213   7.329  0.3636 -0.5001  1.0567
 1024SOL     OW14530   2.776   0.012   5.621  0.4853 -0.1221  0.1137
 1024SOL    HW114531   2.747   0.068   5.693  1.0260 -1.7051  1.5411
 1024SOL    HW214532   2.748   0.065   5.546 -0.7117 -2.1696 -0.8696
 1025SOL     OW14533   1.482   2.128  13.557  0.0922  0.3790  0.2662
 1025SOL    HW114534   1.481   2.187  13.481  2.7507 -0.9243 -0.7692
 1025SOL    HW214535   1.526   2.054  13.516 -2.1324 -0.4246 -0.6677
 1026SOL     OW14536   3.680   2.319   6.669 -0.0366  0.2548  0.2144
 1026SOL    HW114537   3.602   2.374   6.659  0.5519  1.2184  0.8533
 1026SOL    HW214538   3.680   2.267   6.589  1.1299 -0.9055  0.9726
 1027SOL     OW14539   1.476   2.345  14.085  0.2890 -0.0475 -0.5736
 1027SOL    HW114540   1.571   2.348  14.101  0.4660 -1.3621 -1.4491
 1027SOL    HW214541   1.476   2.341  13.990 -0.2134  2.7304 -0.6950
 1028SOL     OW14542   3.095   4.296   1.527 -0.1327  0.4539  0.4750
 1028SOL    HW114543   3.047   4.376   1.550 -2.2011 -0.7001  0.1935
 1028SOL    HW214544   3.071   4.236   1.598  2.2784 -1.0604  0.0156
 1029SOL     OW14545   0.708   2.818  16.090  0.2056 -0.1488  0.7020
 1029SOL    HW114546   0.706   2.831  16.185  0.3385 -1.2829  0.8605
 1029SOL    HW214547   0.671   2.730  16.081  0.6063 -0.1873 -0.6023
 1030SOL     OW14548   3.935   1.306   6.838  0.4370  0.1778  0.1884
 1030SOL    HW114549   3.926   1.216   6.871  0.1590 -0.0046 -0.3879
 1030SOL    HW214550   4.030   1.310   6.836  0.3681  2.3022  1.4337
 1031SOL     OW14551   2.508   0.559  14.663  0.2599  1.0109  0.0954
 1031SOL    HW114552   2.584   0.575  14.719  0.5473  0.0357 -0.0135
 1031SOL    HW214553   2.548   0.515  14.588  1.7061 -0.1554  1.5527
 1032SOL     OW14554   2.536   2.192   3.400  0.4335 -0.2164 -0.0253
 1032SOL    HW114555   2.487   2.171   3.480 -0.1228 -0.5788 -0.4660
 1032SOL    HW214556   2.466   2.180   3.336 -0.3510 -2.0785  1.2025
 1033SOL     OW14557   0.100   2.309   5.082 -0.5081  0.5311  0.5251
 1033SOL    HW114558   0.036   2.315   5.010 -0.7443 -0.7565  0.6313
 1033SOL    HW214559   0.075   2.229   5.127  0.6745  1.3256  2.6165
 1034SOL     OW14560   1.339   3.369   1.612  0.1439 -0.1659  0.5760
 1034SOL    HW114561   1.424   3.364   1.654  0.0203 -0.5073  0.7893
 1034SOL    HW214562   1.311   3.282   1.640 -2.3545  0.0661 -1.1951
 1035SOL     OW14563   4.094   2.024   3.079 -0.0466 -0.4876  0.5595
 1035SOL    HW114564   4.132   2.100   3.123 -0.3917  0.8035 -1.4098
 1035SOL    HW214565   4.166   1.968   3.108 -1.2178 -4.1522 -3.6751
 1036SOL     OW14566   4.713   1.110  14.855  0.5736 -0.2513  0.2155
 1036SOL    HW114567   0.032   1.194  14.867  0.2481  0.1195 -1.2083
 1036SOL    HW214568   4.700   1.105  14.761 -0.5079 -1.5616  0.4359
 1037SOL     OW14569   0.888   3.638   2.935 -0.0706 -0.6903 -0.0344
 1037SOL    HW114570   0.908   3.613   2.845  0.7936  0.5714 -0.1841
 1037SOL    HW214571   0.969   3.618   2.981 -1.2741 -1.9321  1.5469
 1038SOL     OW14572   1.628   0.131  11.641 -0.1198  0.3019 -0.4367
 1038SOL    HW114573   1.649   0.043  11.609  1.2187 -0.7763  3.4326
 1038SOL    HW214574   1.565   0.120  11.712  1.1455 -1.0885  0.4863
 1039SOL     OW14575   3.057   1.953   6.614 -0.3285 -0.4340 -0.1012
 1039SOL    HW114576   3.070   2.036   6.569  0.5741  0.4295  1.7549
 1039SOL    HW214577   2.984   1.934   6.556 -0.4986  1.5293 -0.5403
 1040SOL     OW14578   1.499   3.674   6.810 -0.1143 -0.4065 -0.3878
 1040SOL    HW114579   1.510   3.579   6.810 -0.1590 -0.4057  1.0899
 1040SOL    HW214580   1.587   3.692   6.843 -1.4615  0.6032  2.5975
 1041SOL     OW14581   1.345   2.667   1.776 -0.3462  0.4339  0.4814
 1041SOL    HW114582   1.317   2.642   1.688  1.6354 -3.5589  0.9538
 1041SOL    HW214583   1.428   2.710   1.755  0.3833 -0.5179  1.4196
 1042SOL     OW14584   2.899   4.506   7.434  0.7938  0.4268  0.5257
 1042SOL    HW114585   2.867   4.585   7.479  0.7144  1.1194 -0.7350
 1042SOL    HW214586   2.918   4.450   7.508 -0.2096 -0.8015 -0.1421
 1043SOL     OW14587   4.436   0.858  16.244 -0.1544 -0.3415  0.1963
 1043SOL    HW114588   4.481   0.827  16.323  0.9286  0.8261  0.0287
 1043SOL    HW214589   4.363   0.796  16.240 -1.8553  1.5229  2.3196
 1044SOL     OW14590   4.353   4.580   3.986 -0.1076 -0.3890  0.4004
 1044SOL    HW114591   4.443   4.552   4.004  0.4802  1.6005  0.6237
 1044SOL    HW214592   4.326   4.631   4.063  2.1241  1.6829 -0.1761
 1045SOL     OW14593   2.634   1.874  13.185  0.2424  0.0673  0.0975
 1045SOL    HW114594   2.553   1.880  13.236 -0.7474 -0.2469 -1.4323
 1045SOL    HW214595   2.711   1.896  13.238  0.0196  0.8897  0.0824
 1046SOL     OW14596   1.216   4.239   4.557 -0.3531 -0.4007  0.3010
 1046SOL    HW114597   1.297   4.241   4.609 -0.0189  0.3464 -0.2442
 1046SOL    HW214598   1.165   4.310   4.596  1.3760  0.3064  1.2755
 1047SOL     OW14599   1.136   4.082  11.738  0.0216 -0.2835 -0.0447
 1047SOL    HW114600   1.169   4.035  11.815 -1.5259 -1.8829 -0.3568
 1047SOL    HW214601   1.091   4.156  11.778  0.4590 -0.9468  1.6843
 1048SOL     OW14602   0.410   3.914   3.950  0.5428  0.3342  0.3212
 1048SOL    HW114603   0.334   3.961   3.983  1.0125  0.8584  0.6646
 1048SOL    HW214604   0.422   3.954   3.864 -2.9736  1.6108  0.4420
 1049SOL     OW14605   3.836   3.440   2.087 -0.1912  0.0477 -0.2308
 1049SOL    HW114606   3.872   3.524   2.117  0.5815 -0.9421  1.5849
 1049SOL    HW214607   3.910   3.381   2.098  0.4380  0.8739  0.0042
 1050SOL     OW14608   0.198   3.066   7.492 -0.2034 -0.0363 -0.0958
 1050SOL    HW114609   0.280   3.086   7.446  1.6586 -2.5648  2.1224
 1050SOL    HW214610   0.200   3.139   7.553 -1.6805 -0.8203  0.8938
 1051SOL     OW14611   1.089   1.568  16.585  0.1458  0.0213 -0.0670
 1051SOL    HW114612   1.000   1.533  16.589  0.4944 -0.7389  0.9894
 1051SOL    HW214613   1.087   1.628  16.511 -0.1772 -1.5808 -1.3664
 1052SOL     OW14614   2.882   2.868   6.062 -0.6150 -0.3068  0.1320
 1052SOL    HW114615   2.854   2.852   6.152 -0.5618  0.2792  0.2554
 1052SOL    HW214616   2.800   2.869   6.012 -0.8235 -1.8239  0.4545
 1053SOL     OW14617   3.070   3.811   5.974  0.3812  0.1388 -0.6861
 1053SOL    HW114618   3.011   3.798   5.900  0.9557 -1.6213 -0.8263
 1053SOL    HW214619   3.065   3.721   6.005  0.3030 -0.5701 -2.8242
 1054SOL     OW14620   0.376   1.804   1.173 -0.0173 -0.0199  0.0106
 1054SOL    HW114621   0.282   1.808   1.191 -0.0939 -0.5465 -0.2727
 1054SOL    HW214622   0.379   1.749   1.095  0.5213  1.9156 -1.3223
 1055SOL     OW14623   4.076   3.671  17.502  0.2540  0.6198 -0.1843
 1055SOL    HW114624   4.064   3.763  17.525  0.5876  1.7643 -4.6372
 1055SOL    HW214625   4.044   3.635  17.585  1.4176 -0.3127 -0.1411
 1056SOL     OW14626   0.258   4.497  10.069  0.2174 -0.4651 -0.0085
 1056SOL    HW114627   0.214   4.564  10.122 -1.5956 -0.7598 -1.1473
 1056SOL    HW214628   0.257   4.535   9.981 -0.8352  1.0331  0.6441
 1057SOL     OW14629   3.777   1.998  16.504 -0.0835  0.3299  0.1486
 1057SOL    HW114630   3.684   1.979  16.503  0.0324 -0.2068 -1.0138
 1057SOL    HW214631   3.810   1.914  16.473 -0.9637  0.7091 -1.8637
 1058SOL     OW14632   0.248   3.652   8.470  0.1500 -0.2107  0.3102
 1058SOL    HW114633   0.173   3.710   8.458  0.7711  0.0121 -2.3550
 1058SOL    HW214634   0.285   3.663   8.383 -1.2057 -0.2287 -0.2645
 1059SOL     OW14635   3.532   4.580   3.118  0.3649 -0.6144  0.4623
 1059SOL    HW114636   3.501   4.501   3.075 -2.8375  1.3156 -0.7793
 1059SOL    HW214637   3.477   4.639   3.066  1.6045  0.7317  0.6726
 1060SOL     OW14638   3.377   3.993   5.025  0.1213  0.1119  0.2576
 1060SOL    HW114639   3.414   4.032   5.104  2.6071  1.9071 -1.7881
 1060SOL    HW214640   3.303   3.946   5.064  0.0644  1.0448  1.2779
 1061SOL     OW14641   3.480   3.259   6.162  0.3959  0.4797 -0.1627
 1061SOL    HW114642   3.509   3.190   6.221 -2.8097 -1.0978 -0.4459
 1061SOL    HW214643   3.406   3.218   6.118  1.0643 -0.1950 -0.6592
 1062SOL     OW14644   3.988   0.478  10.304 -0.3939  0.1685  0.6316
 1062SOL    HW114645   4.038   0.486  10.223  0.5434 -1.5230  1.0414
 1062SOL    HW214646   4.057   0.443  10.359  0.9113  0.7382 -0.6473
 1063SOL     OW14647   0.107   1.045   3.087 -0.0686  0.3996 -0.2966
 1063SOL    HW114648   0.147   0.979   3.144 -0.6608  1.2010  1.0502
 1063SOL    HW214649   0.141   1.125   3.127  1.8330 -0.7095  0.2925
 1064SOL     OW14650   3.805   3.100   1.573  0.3773  0.2661  0.0119
 1064SOL    HW114651   3.801   3.095   1.668 -0.5605  0.2286 -0.0256
 1064SOL    HW214652   3.880   3.049   1.543 -0.2624  0.5730 -2.1007
 1065SOL     OW14653   0.315   0.393   8.476 -0.5584 -0.0135  0.3123
 1065SOL    HW114654   0.407   0.420   8.469 -0.0769 -1.6314  0.3571
 1065SOL    HW214655   0.285   0.474   8.518  3.5927  1.5696  0.3273
 1066SOL     OW14656   1.847   2.573   5.425 -0.2337  0.4086 -0.0698
 1066SOL    HW114657   1.938   2.582   5.396 -0.1890 -1.0857 -0.3425
 1066SOL    HW214658   1.840   2.663   5.459 -3.3175 -0.3236  1.2654
 1067SOL     OW14659   1.032   4.718   7.422  0.4664 -0.0327 -0.1879
 1067SOL    HW114660   0.996   0.073   7.385  0.1366  0.2209  0.6974
 1067SOL    HW214661   0.999   4.713   7.511  0.0061 -1.3884 -0.4297
 1068SOL     OW14662   1.492   2.822   9.078 -0.0394 -0.4484 -0.3565
 1068SOL    HW114663   1.485   2.912   9.108  1.2107 -0.1466 -0.9721
 1068SOL    HW214664   1.492   2.834   8.983 -3.1523  0.3983 -0.2347
 1069SOL     OW14665   3.123   4.130  17.089  0.3609 -0.2580 -0.6729
 1069SOL    HW114666   3.127   4.164  17.179 -1.5817 -2.0669  0.1058
 1069SOL    HW214667   3.067   4.194  17.046  0.7590 -0.3726 -1.3519
 1070SOL     OW14668   4.354   4.125  10.887  0.7876  0.2017 -0.0627
 1070SOL    HW114669   4.314   4.189  10.828  0.9058 -0.6610 -1.0607
 1070SOL    HW214670   4.394   4.066  10.824  2.2369  2.1052 -0.9422
 1071SOL     OW14671   0.348   0.106   3.613 -0.1390 -0.2258  0.0252
 1071SOL    HW114672   0.355   0.112   3.708 -1.6416  0.2465  0.1182
 1071SOL    HW214673   0.413   0.037   3.600 -0.5766 -0.4038 -1.2054
 1072SOL     OW14674   1.120   2.199   6.002  1.0728  0.1127  0.7044
 1072SOL    HW114675   1.180   2.257   5.954  0.8769  0.6080  1.0613
 1072SOL    HW214676   1.054   2.258   6.038  1.2349 -0.0543  1.2741
 1073SOL     OW14677   1.673   0.926   0.365  0.4134 -0.1854 -0.2015
 1073SOL    HW114678   1.689   0.994   0.299 -0.2855  1.3371  1.2040
 1073SOL    HW214679   1.742   0.944   0.429 -0.3894 -0.5785  0.7703
 1074SOL     OW14680   3.878   3.115   7.780 -0.3704 -0.0808 -0.1451
 1074SOL    HW114681   3.969   3.144   7.773 -1.1786  1.7679 -3.2298
 1074SOL    HW214682   3.868   3.158   7.866  0.0647  2.7178 -1.4916
 1075SOL     OW14683   4.705   1.053   6.394  0.3911 -0.2531  0.0797
 1075SOL    HW114684   4.660   1.038   6.477  1.4393 -0.3398  0.6364
 1075SOL    HW214685   4.652   1.125   6.360  1.2883  0.4409  0.1452
 1076SOL     OW14686   0.035   2.550  10.208 -0.5278 -0.1622  0.5176
 1076SOL    HW114687   0.022   2.485  10.278 -1.5924 -1.1731 -0.6259
 1076SOL    HW214688   4.681   2.604  10.217 -0.5126 -0.1485  0.5707
 1077SOL     OW14689   3.299   0.885   6.005  0.4103 -0.3508  0.2571
 1077SOL    HW114690   3.251   0.963   5.978 -0.6953 -0.7720  1.0236
 1077SOL    HW214691   3.248   0.857   6.081 -0.4749  0.1578 -0.1470
 1078SOL     OW14692   0.583   2.161   6.583 -0.8659 -0.2949  0.2611
 1078SOL    HW114693   0.611   2.130   6.670 -0.2608  0.3889  0.3091
 1078SOL    HW214694   0.626   2.246   6.577  1.1992 -1.3944 -0.3481
 1079SOL     OW14695   1.107   2.765   2.691 -0.0425  0.0261  0.4077
 1079SOL    HW114696   1.176   2.722   2.640 -0.3888 -0.7860  0.6330
 1079SOL    HW214697   1.036   2.712   2.656 -0.6656  1.2457 -0.1836
 1080SOL     OW14698   0.125   2.823  17.565 -0.3231 -0.5321 -0.1032
 1080SOL    HW114699   0.150   2.820  17.657 -1.0185  0.9953  0.1190
 1080SOL    HW214700   0.184   2.891  17.531 -0.3519 -0.0094  0.9175
 1081SOL     OW14701   0.442   0.500   1.931 -0.1370  0.4215  0.7392
 1081SOL    HW114702   0.433   0.569   1.996 -1.3113  0.4065  0.5847
 1081SOL    HW214703   0.431   0.545   1.847  0.8310  0.3416  0.5655
 1082SOL     OW14704   2.931   4.715  14.971  0.5270  0.1530 -0.2075
 1082SOL    HW114705   2.903   0.049  14.901 -0.6399 -2.0372 -1.5424
 1082SOL    HW214706   2.890   0.034  15.046 -1.0310  0.0050 -0.9758
 1083SOL     OW14707   2.872   3.634   9.684  0.2928 -0.1449  0.4889
 1083SOL    HW114708   2.906   3.552   9.646  0.3955 -1.3859  3.2408
 1083SOL    HW214709   2.899   3.694   9.614  1.2465 -1.7168 -0.5110
 1084SOL     OW14710   3.614   0.390   5.423  1.0410 -0.3739  0.5199
 1084SOL    HW114711   3.709   0.393   5.406  1.3708  1.1471  2.5901
 1084SOL    HW214712   3.572   0.416   5.341 -0.9378  1.3969  2.0997
 1085SOL     OW14713   4.540   0.550   0.150  0.6136  0.0584 -0.2934
 1085SOL    HW114714   4.512   0.474   0.099 -0.0474 -0.9644  1.5963
 1085SOL    HW214715   4.522   0.621   0.088  0.1616  1.5027  1.4919
 1086SOL     OW14716   3.061   2.919   4.096 -0.2070 -0.0052 -0.1139
 1086SOL    HW114717   3.122   2.969   4.042  0.4250  0.5467  1.1093
 1086SOL    HW214718   3.057   2.984   4.167  1.0585  1.0674 -1.0415
 1087SOL     OW14719   2.661   1.985   8.789 -0.3306 -0.1304  0.1916
 1087SOL    HW114720   2.726   2.011   8.723 -0.5947  1.7273  0.6587
 1087SOL    HW214721   2.703   2.014   8.870 -1.1132 -0.0399  0.5688
 1088SOL     OW14722   0.268   1.779   5.436 -0.0909 -0.9260  0.0501
 1088SOL    HW114723   0.192   1.823   5.473 -0.3768  0.8159 -2.5592
 1088SOL    HW214724   0.312   1.854   5.395 -1.7546 -0.5436 -1.0665
 1089SOL     OW14725   0.978   4.062   0.255 -0.3238  0.2547 -0.3263
 1089SOL    HW114726   0.915   3.998   0.222  1.1629 -2.5492  2.3078
 1089SOL    HW214727   0.958   4.045   0.347 -2.2345  1.5473 -0.5052
 1090SOL     OW14728   3.586   3.019   2.164  0.4737 -0.1483 -0.1191
 1090SOL    HW114729   3.610   3.086   2.101  0.9605 -0.5909 -0.4062
 1090SOL    HW214730   3.668   2.999   2.209 -0.2595 -0.6752  0.9830
 1091SOL     OW14731   4.573   1.578   8.504  0.2904  0.1006 -0.3251
 1091SOL    HW114732   4.561   1.526   8.584 -0.1110  0.7178  0.0111
 1091SOL    HW214733   4.510   1.647   8.525  0.3090 -0.5916  2.0876
 1092SOL     OW14734   2.637   1.879   4.779  0.0368  0.6329 -0.5021
 1092SOL    HW114735   2.721   1.836   4.766 -0.6986 -1.4850  1.9214
 1092SOL    HW214736   2.614   1.867   4.871 -1.1542 -1.2714 -1.0429
 1093SOL     OW14737   3.199   2.071   4.508 -0.2349 -0.2377 -0.3661
 1093SOL    HW114738   3.266   2.008   4.534  0.3734  0.6617  0.2012
 1093SOL    HW214739   3.226   2.078   4.416 -1.7734 -2.7046 -1.0199
 1094SOL     OW14740   1.031   1.242   9.941 -0.7188 -0.4383 -0.8966
 1094SOL    HW114741   1.095   1.209   9.877  0.3738  0.9864 -0.5265
 1094SOL    HW214742   1.088   1.299   9.992  1.1595 -1.3509 -1.9687
 1095SOL     OW14743   3.176   3.403   9.453 -0.9069  0.5372  0.1720
 1095SOL    HW114744   3.242   3.441   9.512  1.1793 -0.7077 -1.3662
 1095SOL    HW214745   3.166   3.471   9.385  1.4809  0.5579 -0.1781
 1096SOL     OW14746   0.031   1.112  10.244 -0.3156 -0.5709 -0.2429
 1096SOL    HW114747   0.123   1.137  10.235 -0.9122  1.6040 -0.3612
 1096SOL    HW214748   0.027   1.075  10.332 -2.2869 -0.0469 -0.1012
 1097SOL     OW14749   3.159   3.369   2.691  0.2237  0.0547  0.1125
 1097SOL    HW114750   3.218   3.340   2.760  0.1407 -0.6017 -0.0936
 1097SOL    HW214751   3.095   3.298   2.687  1.4856 -0.9626 -1.7348
 1098SOL     OW14752   3.186   1.478   6.844 -0.1165 -0.0252  0.1030
 1098SOL    HW114753   3.120   1.491   6.912 -0.1642  0.2580  0.0062
 1098SOL    HW214754   3.125   1.469   6.771  0.3317  0.1643 -0.2979
 1099SOL     OW14755   3.041   2.182   5.447 -0.0752 -0.2598  0.4504
 1099SOL    HW114756   3.135   2.176   5.464  0.2381 -2.1935 -2.1193
 1099SOL    HW214757   3.033   2.098   5.403 -1.8192 -0.4020  1.0376
 1100SOL     OW14758   2.554   3.443   3.880 -0.1180 -0.2171 -0.1337
 1100SOL    HW114759   2.646   3.417   3.868  0.5039  0.1220  3.9070
 1100SOL    HW214760   2.516   3.399   3.803 -2.5866 -0.0383  0.9929
 1101SOL     OW14761   2.411   3.359   0.558 -0.1055 -0.5897 -0.3903
 1101SOL    HW114762   2.441   3.299   0.490  1.3494 -1.2993  0.8707
 1101SOL    HW214763   2.414   3.295   0.629 -1.3720 -0.0631  0.1374
 1102SOL     OW14764   0.926   2.126   4.624 -0.0981  0.2195  0.1617
 1102SOL    HW114765   0.927   2.048   4.568  0.2244 -1.2515  2.2042
 1102SOL    HW214766   1.011   2.120   4.669 -0.1991  2.3417  0.6064
 1103SOL     OW14767   3.592   0.145  16.173  0.8441 -0.3838 -0.0800
 1103SOL    HW114768   3.536   0.148  16.095  1.3500 -0.5716 -0.4552
 1103SOL    HW214769   3.545   0.195  16.239 -1.9634 -1.5451 -1.2001
 1104SOL     OW14770   2.689   3.088   1.998  0.2081  0.5943 -0.2422
 1104SOL    HW114771   2.768   3.131   1.965 -0.8880  3.2196  0.5405
 1104SOL    HW214772   2.708   3.082   2.092 -0.9927 -2.1852 -0.1662
 1105SOL     OW14773   3.299   2.102   7.823 -0.1971  0.3531 -0.1873
 1105SOL    HW114774   3.207   2.115   7.801 -0.3595  0.8999  0.7840
 1105SOL    HW214775   3.275   2.088   7.915  0.2718 -0.2413 -0.1532
 1106SOL     OW14776   2.455   3.309   6.560 -0.7777 -0.0309  0.2681
 1106SOL    HW114777   2.490   3.335   6.475  1.8887  0.6203  1.5660
 1106SOL    HW214778   2.402   3.237   6.528 -1.4028  0.0906  1.0124
 1107SOL     OW14779   4.089   3.296   2.119  0.3830 -0.0118  0.0291
 1107SOL    HW114780   4.076   3.378   2.071 -2.5082 -0.6617 -0.3500
 1107SOL    HW214781   4.100   3.239   2.043 -1.4779  0.9677 -0.9897
 1108SOL     OW14782   1.534   4.356   8.464 -0.3694 -0.1058  0.3243
 1108SOL    HW114783   1.623   4.322   8.474  0.9042  3.1338  0.1399
 1108SOL    HW214784   1.538   4.448   8.492  0.3658 -0.0187 -0.0765
 1109SOL     OW14785   3.448   0.194   0.770  0.2599  0.0647 -0.0676
 1109SOL    HW114786   3.532   0.238   0.758 -1.5373  3.6010  0.3956
 1109SOL    HW214787   3.438   0.192   0.865 -2.7925 -3.3245 -0.4185
 1110SOL     OW14788   4.661   2.162   9.560  0.2476  0.3314 -0.5040
 1110SOL    HW114789   0.031   2.149   9.556  0.2704  0.0483  0.6968
 1110SOL    HW214790   4.655   2.199   9.648  0.4826 -2.4747  0.7130
 1111SOL     OW14791   1.601   0.834   3.139  0.1402  0.6179  0.6749
 1111SOL    HW114792   1.588   0.806   3.048  0.8723  2.0989  0.1287
 1111SOL    HW214793   1.628   0.753   3.183  1.9557  0.6078 -0.4750
 1112SOL     OW14794   0.577   1.882   2.659 -0.5000  0.2054 -0.0701
 1112SOL    HW114795   0.587   1.867   2.753 -2.2346 -0.1945  0.0376
 1112SOL    HW214796   0.659   1.926   2.635  0.0750  0.2404  2.0134
 1113SOL     OW14797   0.963   4.214   2.074 -0.3249  0.3098  0.1714
 1113SOL    HW114798   0.935   4.187   2.162 -1.3249  0.0498 -0.2212
 1113SOL    HW214799   1.039   4.156   2.071 -0.7473 -0.2619  0.3952
 1114SOL     OW14800   3.550   1.036   3.587  0.6822  0.0441  0.7537
 1114SOL    HW114801   3.509   1.122   3.596 -0.2749 -0.1696 -1.5851
 1114SOL    HW214802   3.479   0.982   3.554  0.2486  1.5412 -0.7379
 1115SOL     OW14803   3.554   4.345  13.664  0.8532 -0.1080 -0.2575
 1115SOL    HW114804   3.624   4.383  13.717  1.5406  0.0569 -1.2949
 1115SOL    HW214805   3.501   4.306  13.734  2.2120  2.6005  2.2551
 1116SOL     OW14806   1.904   4.318  14.872 -0.4598 -0.7183  0.0620
 1116SOL    HW114807   1.908   4.252  14.942 -1.2325 -2.1642 -1.2631
 1116SOL    HW214808   1.845   4.383  14.908  0.3208 -0.2703  0.5339
 1117SOL     OW14809   1.838   4.168   7.011  0.1040 -0.3127 -0.3101
 1117SOL    HW114810   1.840   4.256   7.048  1.3652 -0.3979 -0.1708
 1117SOL    HW214811   1.866   4.114   7.086 -1.0291 -1.3368 -0.6258
 1118SOL     OW14812   4.384   4.062   5.220  0.5990  0.4833  0.0464
 1118SOL    HW114813   4.466   4.037   5.264  0.3399 -3.2795 -1.5503
 1118SOL    HW214814   4.375   4.154   5.243 -1.5531 -0.1316  1.7270
 1119SOL     OW14815   4.508   0.158   0.913  0.2700 -0.4277  0.5403
 1119SOL    HW114816   4.465   0.073   0.909 -3.7203  1.6174 -0.5777
 1119SOL    HW214817   4.598   0.127   0.901 -0.2238 -1.1289 -1.2974
 1120SOL     OW14818   1.853   0.804  12.280  0.1166 -0.7905 -0.2800
 1120SOL    HW114819   1.815   0.877  12.330  1.7793  0.7704 -1.3040
 1120SOL    HW214820   1.840   0.838  12.191  2.8076  0.8912 -0.0301
 1121SOL     OW14821   1.417   0.576   0.736 -0.0313  0.2264  0.5877
 1121SOL    HW114822   1.371   0.567   0.820  1.4257  1.7289  1.5616
 1121SOL    HW214823   1.381   0.509   0.678  1.2240 -0.3352  0.4581
 1122SOL     OW14824   4.259   1.036   5.013 -0.4954 -0.2315  0.5626
 1122SOL    HW114825   4.172   1.000   5.032 -0.4334 -0.3038  0.7171
 1122SOL    HW214826   4.262   1.024   4.918  0.6919 -0.2293  0.6026
 1123SOL     OW14827   0.167   3.989   2.601  0.3255 -0.3188 -0.3039
 1123SOL    HW114828   0.089   3.937   2.579 -0.8982  0.6543  1.7380
 1123SOL    HW214829   0.211   3.974   2.517  1.3944 -2.0833  0.5780
 1124SOL     OW14830   4.516   1.983   7.289 -0.4151  0.1176  0.0677
 1124SOL    HW114831   4.601   1.992   7.247 -0.3259  1.0725  0.4630
 1124SOL    HW214832   4.456   2.028   7.229 -1.6305  0.1155  1.2816
 1125SOL     OW14833   3.718   3.806  12.092  0.8065 -0.2267  0.2463
 1125SOL    HW114834   3.782   3.836  12.156 -0.9165  0.5620  1.5856
 1125SOL    HW214835   3.663   3.755  12.152  1.0524  0.7535  1.2818
 1126SOL     OW14836   1.032   0.700   5.602 -0.2206 -0.7364  0.4526
 1126SOL    HW114837   1.024   0.639   5.676  0.9387 -1.8895 -0.3757
 1126SOL    HW214838   1.127   0.714   5.598 -0.9957  3.7830 -2.7495
 1127SOL     OW14839   3.169   1.765  16.635  0.1631  0.0765  1.0048
 1127SOL    HW114840   3.095   1.792  16.689 -0.2874  0.7798  0.0515
 1127SOL    HW214841   3.234   1.728  16.694 -0.5855 -1.5216  0.8558
 1128SOL     OW14842   2.708   0.216   4.522 -0.1363  0.2689 -0.3608
 1128SOL    HW114843   2.801   0.204   4.539  0.0537  2.2493 -0.0142
 1128SOL    HW214844   2.671   0.135   4.556  0.8873  0.4118  1.0899
 1129SOL     OW14845   3.252   1.258   2.937  0.5583 -0.3340  0.3167
 1129SOL    HW114846   3.170   1.218   2.966  1.5975 -4.2512 -2.2018
 1129SOL    HW214847   3.310   1.226   3.007  1.3567 -0.8409 -0.5691
 1130SOL     OW14848   3.605   2.911   8.472  0.8536  0.4573  0.2439
 1130SOL    HW114849   3.564   2.835   8.514  0.2356  0.7535  0.1705
 1130SOL    HW214850   3.540   2.974   8.504  0.9457 -0.3506  2.0636
 1131SOL     OW14851   4.577   4.474  13.563  0.3554 -0.5041 -0.5777
 1131SOL    HW114852   4.519   4.414  13.609  1.4310 -1.0184  0.1269
 1131SOL    HW214853   4.656   4.425  13.541  1.3929  1.4689 -1.3232
 1132SOL     OW14854   2.991   3.071   8.457 -0.3608 -0.1413 -0.0766
 1132SOL    HW114855   3.002   2.987   8.501 -3.0224 -0.0098  0.8306
 1132SOL    HW214856   2.898   3.089   8.450 -0.8292 -1.7099  2.1597
 1133SOL     OW14857   3.855   4.159   8.944 -0.3518 -0.3239  0.2886
 1133SOL    HW114858   3.809   4.077   8.931 -1.1895  0.2638 -0.4206
 1133SOL    HW214859   3.837   4.174   9.037  1.4497 -0.1557  0.6190
 1134SOL     OW14860   0.868   0.602   8.976  0.1024 -0.2280  0.8994
 1134SOL    HW114861   0.896   0.524   9.025  1.7420  0.5568  1.2136
 1134SOL    HW214862   0.774   0.585   8.976 -0.0449  0.6043 -0.6633
 1135SOL     OW14863   2.863   1.153  13.424  0.1049  0.3954  0.2554
 1135SOL    HW114864   2.949   1.112  13.418  0.2511  0.8635 -0.9964
 1135SOL    HW214865   2.821   1.110  13.498  0.9166 -0.6183  0.1256
 1136SOL     OW14866   3.365   3.548   4.812 -0.3271  0.2699  0.0088
 1136SOL    HW114867   3.427   3.605   4.858 -0.2012 -1.2275  1.7006
 1136SOL    HW214868   3.318   3.604   4.752 -2.5662  0.5690  2.0390
 1137SOL     OW14869   1.122   0.567   4.284 -0.5231 -0.8594 -0.4878
 1137SOL    HW114870   1.100   0.477   4.310 -4.6562  0.1363 -0.5091
 1137SOL    HW214871   1.049   0.615   4.323  0.8932 -0.0864  1.2298
 1138SOL     OW14872   2.023   0.573   7.375  0.6613 -0.1853 -0.0959
 1138SOL    HW114873   1.938   0.537   7.401 -0.1056  0.2562 -2.0833
 1138SOL    HW214874   1.993   0.657   7.340  1.2183  0.7153  1.5741
 1139SOL     OW14875   2.111   0.056   2.768  0.6535  0.3999  0.0049
 1139SOL    HW114876   2.206   0.049   2.773  0.6879  0.4273 -0.6601
 1139SOL    HW214877   2.072   4.713   2.824 -0.2230 -0.0096 -1.0984
 1140SOL     OW14878   4.543   1.775   7.509 -0.0661 -0.1346  0.1111
 1140SOL    HW114879   4.491   1.826   7.448 -1.9681 -0.6618  1.3110
 1140SOL    HW214880   4.633   1.806   7.495  0.6679 -2.1000  0.5516
 1141SOL     OW14881   1.767   0.295   3.775 -0.1566 -0.2331 -0.2227
 1141SOL    HW114882   1.762   0.336   3.689  1.3269 -0.9300 -0.6460
 1141SOL    HW214883   1.746   0.371   3.829 -0.6608 -1.4381  1.2979
 1142SOL     OW14884   2.164   3.544   7.617  0.5416 -0.3445  0.1220
 1142SOL    HW114885   2.132   3.573   7.703 -3.1749 -0.5613 -1.1818
 1142SOL    HW214886   2.256   3.532   7.642  0.4445 -1.3738  0.0049
 1143SOL     OW14887   3.700   0.496   6.038 -0.1140 -0.3559  0.2371
 1143SOL    HW114888   3.787   0.492   5.999 -1.5253 -0.7152 -2.8740
 1143SOL    HW214889   3.701   0.425   6.102  1.0873 -0.1450  0.4618
 1144SOL     OW14890   4.230   1.056   2.291 -0.2409 -0.1145 -0.3208
 1144SOL    HW114891   4.229   0.972   2.337 -2.2005  0.1303  0.0531
 1144SOL    HW214892   4.323   1.064   2.269 -0.3967  0.5872 -0.7246
 1145SOL     OW14893   1.996   0.642  16.317  0.0836  0.1773  0.0120
 1145SOL    HW114894   1.981   0.552  16.346  0.2998  0.4700  1.0235
 1145SOL    HW214895   2.091   0.637  16.323  0.0728 -0.4186 -0.3670
 1146SOL     OW14896   4.662   4.406   5.633 -0.1111 -0.4877  0.1119
 1146SOL    HW114897   4.602   4.355   5.687 -2.5079 -0.7472 -2.7739
 1146SOL    HW214898   4.609   4.429   5.557 -1.2871 -2.2765  0.3896
 1147SOL     OW14899   3.772   4.430   1.205  0.0960  0.5025 -0.3303
 1147SOL    HW114900   3.833   4.360   1.180  0.4548  0.2403  1.3096
 1147SOL    HW214901   3.824   4.504   1.174 -1.4349  0.5100 -2.9147
 1148SOL     OW14902   0.480   0.041   0.622 -0.2492 -0.1654 -0.2045
 1148SOL    HW114903   0.523   0.126   0.613 -0.1572 -0.3719 -1.7817
 1148SOL    HW214904   0.509   4.724   0.541 -0.6216 -1.1760  0.1894
 1149SOL     OW14905   1.630   1.933   9.174  0.0162  0.0799 -0.9371
 1149SOL    HW114906   1.586   2.005   9.219 -1.1576 -0.4083 -1.2913
 1149SOL    HW214907   1.699   1.978   9.126  1.9181 -0.9093  0.9235
 1150SOL     OW14908   0.392   0.246   9.896  0.0291  0.4308 -0.2594
 1150SOL    HW114909   0.378   0.279   9.807  0.2198 -2.5742 -1.4252
 1150SOL    HW214910   0.299   0.242   9.921  1.0783  1.5325  3.8173
 1151SOL     OW14911   4.080   4.632  15.953 -0.0851  0.0450 -0.5286
 1151SOL    HW114912   4.170   4.664  15.955  0.6290 -1.8642 -1.4296
 1151SOL    HW214913   4.038   4.693  16.012 -1.3790 -0.5285 -0.8658
 1152SOL     OW14914   0.809   4.444  16.965 -0.9401 -0.0013 -0.2851
 1152SOL    HW114915   0.787   4.447  17.058  3.0498  2.3734  0.5649
 1152SOL    HW214916   0.800   4.349  16.952 -2.5957 -0.3624  3.5676
 1153SOL     OW14917   1.001   2.353   3.202 -0.5737  0.8297  0.0018
 1153SOL    HW114918   1.007   2.417   3.131  0.6945  1.6562  0.8591
 1153SOL    HW214919   0.941   2.395   3.263 -1.5213  1.0409 -1.0686
 1154SOL     OW14920   0.012   1.058   2.063  0.2025 -0.3869 -0.3275
 1154SOL    HW114921   0.078   1.081   2.128 -0.3260 -1.2741  0.5224
 1154SOL    HW214922   0.053   1.074   1.978 -1.1095  0.8253 -0.7111
 1155SOL     OW14923   0.454   3.526   7.773 -0.1789  0.1394  0.4726
 1155SOL    HW114924   0.533   3.580   7.773 -0.7296  0.9443 -0.2579
 1155SOL    HW214925   0.476   3.480   7.692 -0.2207  2.8231 -1.0602
 1156SOL     OW14926   1.818   4.229   2.912  0.3223  0.1062  0.6759
 1156SOL    HW114927   1.822   4.200   3.003 -1.5953 -0.0176  0.7043
 1156SOL    HW214928   1.820   4.144   2.867 -0.8653  1.0889 -1.2021
 1157SOL     OW14929   4.024   2.246   4.342 -0.2373  0.3313  0.4420
 1157SOL    HW114930   4.050   2.288   4.423  1.5475  0.2084 -0.0591
 1157SOL    HW214931   3.983   2.315   4.290  3.3712  1.4105 -1.0001
 1158SOL     OW14932   0.161   4.153  10.179 -0.2838  0.4404 -0.2295
 1158SOL    HW114933   0.229   4.203  10.225  0.9316 -0.3127 -1.1841
 1158SOL    HW214934   0.204   4.177  10.097  0.1023  0.5077 -0.0109
 1159SOL     OW14935   0.258   0.773  15.770  0.5981 -0.1105 -0.2570
 1159SOL    HW114936   0.253   0.693  15.822 -0.7817  0.2623  0.1836
 1159SOL    HW214937   0.327   0.746  15.708  0.9509 -0.2407  0.1931
 1160SOL     OW14938   3.685   2.169  16.965 -0.5175 -0.3488 -0.4440
 1160SOL    HW114939   3.727   2.169  16.879  1.4548  1.6795  0.5288
 1160SOL    HW214940   3.743   2.229  17.010 -1.5536  0.0434  0.3703
 1161SOL     OW14941   0.154   4.584   6.620 -0.2622  0.3254 -0.0667
 1161SOL    HW114942   0.224   4.537   6.667 -0.3278  1.0174  0.7239
 1161SOL    HW214943   0.108   4.629   6.691 -0.7704 -0.6158  0.2039
 1162SOL     OW14944   3.081   3.052   7.164  0.0897  0.3711 -0.8631
 1162SOL    HW114945   3.149   3.078   7.101 -0.6206  0.2380 -1.6828
 1162SOL    HW214946   3.066   3.138   7.203 -1.5233  0.5724 -1.9465
 1163SOL     OW14947   0.061   1.592   6.522  0.5332 -0.0814 -0.1234
 1163SOL    HW114948   0.033   1.648   6.594 -0.4209 -0.5543 -0.1295
 1163SOL    HW214949   4.699   1.592   6.481  1.2050  0.3204 -1.5646
 1164SOL     OW14950   3.981   0.194  16.109  0.7776  0.4990  0.3133
 1164SOL    HW114951   3.963   0.221  16.019  0.9038  3.2006  1.1014
 1164SOL    HW214952   3.909   0.138  16.136 -0.6108  2.8253  1.4471
 1165SOL     OW14953   1.036   1.546  12.203  0.1447 -0.5251 -0.1923
 1165SOL    HW114954   1.083   1.621  12.166 -2.3560  1.1016 -0.0573
 1165SOL    HW214955   0.952   1.556  12.158  0.2220 -2.6599 -0.7948
 1166SOL     OW14956   3.556   0.025  10.282  0.0026 -0.1031  0.4041
 1166SOL    HW114957   3.596   0.022  10.369  0.4557 -0.2780  0.1894
 1166SOL    HW214958   3.627   0.053  10.224 -1.0799 -0.2587 -0.9932
 1167SOL     OW14959   2.412   0.587   3.513 -0.5543 -0.3125 -0.4260
 1167SOL    HW114960   2.435   0.534   3.590  0.0141  0.0176 -0.3662
 1167SOL    HW214961   2.496   0.580   3.468 -0.3099  0.3357 -0.0729
 1168SOL     OW14962   1.925   0.669   1.737  0.1006 -0.1573  0.0595
 1168SOL    HW114963   1.936   0.581   1.702  0.1589  0.2980 -1.0660
 1168SOL    HW214964   1.968   0.722   1.669  2.0591 -0.6246  0.9174
 1169SOL     OW14965   1.127   4.002   2.225  0.2823  0.4413 -0.0618
 1169SOL    HW114966   1.036   3.989   2.253  0.3919  0.0207  0.0928
 1169SOL    HW214967   1.141   3.923   2.173 -0.3482  1.0158 -1.1164
 1170SOL     OW14968   0.863   2.048   3.466  0.0031 -0.1044 -0.2566
 1170SOL    HW114969   0.916   2.012   3.395  0.9419  2.3803 -0.8106
 1170SOL    HW214970   0.781   2.064   3.420  0.3714 -0.2358 -0.9596
 1171SOL     OW14971   3.763   2.461   6.085 -0.2550 -0.1809 -0.5978
 1171SOL    HW114972   3.680   2.509   6.079 -1.1139 -1.0774  4.2788
 1171SOL    HW214973   3.779   2.435   5.994 -1.8258  0.8411 -1.1587
 1172SOL     OW14974   3.696   3.847   5.562 -0.5558 -0.0263 -0.0857
 1172SOL    HW114975   3.622   3.904   5.581 -1.3053  0.0720 -3.1791
 1172SOL    HW214976   3.719   3.804   5.644 -3.9336 -0.0554  0.8521
 1173SOL     OW14977   3.546   4.139   2.895  0.1317 -0.2437  0.1343
 1173SOL    HW114978   3.476   4.076   2.877  1.4140 -1.7273  0.3754
 1173SOL    HW214979   3.589   4.152   2.811 -2.3390 -0.0341 -1.1064
 1174SOL     OW14980   0.543   1.187   8.009 -0.4116  0.3686 -0.3017
 1174SOL    HW114981   0.474   1.234   8.055  0.5837 -0.3343  1.9070
 1174SOL    HW214982   0.547   1.120   8.077 -2.1778  1.5175  0.9396
 1175SOL     OW14983   1.620   0.193   2.405 -0.1133 -0.5552  0.6160
 1175SOL    HW114984   1.684   0.169   2.472  2.8993  3.1970 -0.8825
 1175SOL    HW214985   1.594   0.114   2.358 -2.1552  0.3605  0.2243
 1176SOL     OW14986   1.489   1.464  16.679  0.5459 -0.0862  0.3201
 1176SOL    HW114987   1.521   1.402  16.744  0.4429 -1.8563 -1.3285
 1176SOL    HW214988   1.406   1.484  16.722  0.2312  1.4854 -1.0441
 1177SOL     OW14989   2.855   1.912   3.761 -0.6522  0.3889  0.3021
 1177SOL    HW114990   2.769   1.913   3.721 -0.4840  1.6991 -0.0427
 1177SOL    HW214991   2.837   1.935   3.852 -0.1808  0.3529  0.4075
 1178SOL     OW14992   1.143   1.026   0.704 -0.7947 -0.4413 -0.4388
 1178SOL    HW114993   1.184   1.081   0.771 -1.4326  1.2511 -1.4515
 1178SOL    HW214994   1.068   1.076   0.672  1.1506  2.5098 -0.3822
 1179SOL     OW14995   4.630   1.753  10.221  0.1098 -0.7526  0.2701
 1179SOL    HW114996   4.653   1.836  10.179 -1.2920 -0.5407 -0.0818
 1179SOL    HW214997   4.576   1.712  10.153  0.8916  2.9583 -2.6319
 1180SOL     OW14998   4.540   2.138   5.041  0.4240 -0.5621 -0.0418
 1180SOL    HW114999   4.599   2.130   4.966 -0.6794 -2.0968 -0.7522
 1180SOL    HW215000   4.486   2.058   5.038  0.2539 -0.4694  0.6933
 1181SOL     OW15001   3.434   0.524   5.988  0.2494 -0.2112 -0.2320
 1181SOL    HW115002   3.441   0.588   5.917 -0.7986 -1.4467 -1.4387
 1181SOL    HW215003   3.523   0.491   5.999  0.7581  0.5713 -2.0530
 1182SOL     OW15004   2.059   3.299   7.544 -0.2160 -0.3010 -0.3954
 1182SOL    HW115005   1.982   3.328   7.592  0.4247  0.6479  0.0702
 1182SOL    HW215006   2.116   3.376   7.545 -0.3427 -0.2060 -0.4498
 1183SOL     OW15007   1.103   4.673   2.595 -0.7869  0.0716 -0.3045
 1183SOL    HW115008   1.197   4.674   2.577 -0.8655  3.2034 -0.6048
 1183SOL    HW215009   1.090   0.039   2.624  1.5316  0.1711  0.3952
 1184SOL     OW15010   4.542   0.974   4.888 -0.6698 -0.2212 -0.3340
 1184SOL    HW115011   4.512   1.065   4.895 -0.1353 -0.2082  1.6944
 1184SOL    HW215012   4.577   0.973   4.799 -0.0483  1.4172 -0.1041
 1185SOL     OW15013   1.007   1.954   3.249 -0.2434  0.2028 -0.5102
 1185SOL    HW115014   0.964   2.017   3.191  2.8654  1.3720 -1.5336
 1185SOL    HW215015   1.096   1.979   3.223  0.2836  1.0918  2.0607
 1186SOL     OW15016   4.473   0.637   5.279  0.3278  0.0104  0.1153
 1186SOL    HW115017   4.447   0.550   5.248  2.1826 -0.4775 -0.0718
 1186SOL    HW215018   4.445   0.697   5.210 -0.2309 -0.0633  0.2757
 1187SOL     OW15019   0.605   1.521   9.828 -0.0170  0.1091  0.4851
 1187SOL    HW115020   0.674   1.468   9.867  0.9093  1.2532  0.3939
 1187SOL    HW215021   0.538   1.528   9.896 -0.3314 -1.6269  0.3508
 1188SOL     OW15022   4.608   2.455   2.985  0.3864  0.2158  0.0903
 1188SOL    HW115023   4.613   2.525   3.050 -1.2742  0.9410 -0.5476
 1188SOL    HW215024   4.701   2.442   2.970  0.1250  0.7677 -1.9804
 1189SOL     OW15025   0.333   1.525   6.623  0.4129  1.3638 -0.0933
 1189SOL    HW115026   0.266   1.528   6.555  1.8515  0.0918 -1.5842
 1189SOL    HW215027   0.293   1.577   6.693 -1.4999 -1.0696  0.6532
 1190SOL     OW15028   1.205   1.705   3.526 -0.4201 -0.1557  0.2556
 1190SOL    HW115029   1.292   1.678   3.555 -1.3541 -0.3826  2.7808
 1190SOL    HW215030   1.188   1.760   3.602 -0.3508 -1.7350  1.4050
 1191SOL     OW15031   2.096   0.804   3.085 -0.1911 -0.5801  0.4322
 1191SOL    HW115032   2.109   0.786   3.178  0.0610 -1.7698  0.1626
 1191SOL    HW215033   2.077   0.717   3.049  0.2171 -0.9055  0.9969
 1192SOL     OW15034   3.889   2.984   7.369 -0.0034  0.1985 -0.2177
 1192SOL    HW115035   3.911   2.959   7.280  0.7300 -0.1415  0.0504
 1192SOL    HW215036   3.955   3.051   7.387  2.1382 -1.5265 -1.6706
 1193SOL     OW15037   4.591   0.501   4.355  0.6877 -0.3386 -0.1316
 1193SOL    HW115038   4.593   0.485   4.450  0.7451  1.0147  0.0972
 1193SOL    HW215039   4.682   0.481   4.332  0.0597 -0.4389 -2.5129
 1194SOL     OW15040   2.773   1.146  11.777  0.0431 -0.8473 -0.3732
 1194SOL    HW115041   2.807   1.218  11.723 -0.6945 -1.1036 -1.1869
 1194SOL    HW215042   2.795   1.165  11.868  2.2000 -1.9415 -0.6884
 1195SOL     OW15043   1.434   0.828   4.803 -0.1328  0.2678  0.4426
 1195SOL    HW115044   1.384   0.846   4.724  0.3482  1.2817  0.3678
 1195SOL    HW215045   1.386   0.757   4.847  0.1350  0.3017  0.7934
 1196SOL     OW15046   4.717   2.734  12.501  0.5495  0.4128 -0.0852
 1196SOL    HW115047   0.001   2.662  12.564  1.0468  0.3739 -0.1958
 1196SOL    HW215048   0.024   2.805  12.556 -1.1921 -1.3678  3.1870
 1197SOL     OW15049   3.224   2.981   9.618 -0.1991  0.5818 -0.4263
 1197SOL    HW115050   3.136   3.013   9.598  0.7920  3.6374 -0.0016
 1197SOL    HW215051   3.279   3.059   9.624  1.3763 -0.4232 -1.9481
 1198SOL     OW15052   3.723   1.491   6.858 -0.5390  0.3516  0.2693
 1198SOL    HW115053   3.669   1.460   6.931 -0.1453  1.1628  0.9134
 1198SOL    HW215054   3.795   1.430   6.872 -0.4951  0.9771  2.8450
 1199SOL     OW15055   2.047   2.587   4.988  0.1442 -0.4756 -0.5585
 1199SOL    HW115056   1.953   2.573   4.994  0.5167 -2.4205  0.5071
 1199SOL    HW215057   2.050   2.674   5.029 -0.0932 -1.1008  0.7570
 1200SOL     OW15058   4.156   3.971  12.645 -0.2622  0.5672 -0.0746
 1200SOL    HW115059   4.106   3.969  12.727 -0.5724  2.5962 -0.2246
 1200SOL    HW215060   4.216   3.902  12.673 -0.0691  1.3352  1.3795
 1201SOL     OW15061   2.328   3.696  12.153  0.2498 -0.1980  0.2418
 1201SOL    HW115062   2.347   3.790  12.160 -0.8902  0.3362 -3.9160
 1201SOL    HW215063   2.412   3.661  12.123  1.1920  1.7653  0.5787
 1202SOL     OW15064   2.288   3.072   7.840  0.4250 -0.5831 -0.1262
 1202SOL    HW115065   2.262   3.134   7.908 -0.4325 -1.7790  0.6466
 1202SOL    HW215066   2.204   3.071   7.794  0.4969  0.3668 -0.2682
 1203SOL     OW15067   4.508   3.119  15.569  0.5166  0.5544  0.4033
 1203SOL    HW115068   4.546   3.206  15.577  0.8753  0.4612 -0.2983
 1203SOL    HW215069   4.476   3.101  15.658 -0.2587  3.2269  0.6572
 1204SOL     OW15070   0.991   4.449   1.300  0.6459  0.3537 -0.6128
 1204SOL    HW115071   0.928   4.495   1.245 -2.0966 -3.5577 -0.7377
 1204SOL    HW215072   1.075   4.489   1.274  0.2094 -0.5187 -3.3336
 1205SOL     OW15073   1.959   0.484   0.428 -0.2000 -0.0323 -0.4388
 1205SOL    HW115074   1.867   0.507   0.417 -0.3381 -0.2761  0.2377
 1205SOL    HW215075   2.001   0.545   0.367  0.5449 -0.7704 -0.6631
 1206SOL     OW15076   4.340   3.390   3.166  0.1888  0.0699  0.4553
 1206SOL    HW115077   4.401   3.331   3.211 -1.5773 -1.4281  0.9134
 1206SOL    HW215078   4.266   3.378   3.225 -0.2158  0.4304  0.0210
 1207SOL     OW15079   1.944   4.061  13.922 -0.3793  0.0965 -0.1518
 1207SOL    HW115080   1.929   4.021  14.008  0.5667  2.1548  0.9673
 1207SOL    HW215081   1.926   4.154  13.936  0.1946 -0.2993  3.2728
 1208SOL     OW15082   0.921   4.649   2.377 -0.2439 -0.1344 -0.2189
 1208SOL    HW115083   0.934   4.555   2.381  1.0059  0.1683  2.7658
 1208SOL    HW215084   0.990   4.687   2.431 -0.8129 -0.5234  0.7813
 1209SOL     OW15085   1.203   3.189   5.867  0.1347  0.0836  0.2010
 1209SOL    HW115086   1.110   3.166   5.868  0.3953 -1.0779 -1.0889
 1209SOL    HW215087   1.210   3.171   5.773 -1.0416  2.4346 -0.3574
 1210SOL     OW15088   2.829   1.746   6.928 -0.1491  0.2264 -0.0185
 1210SOL    HW115089   2.818   1.813   6.995  1.1979 -0.8062  1.2263
 1210SOL    HW215090   2.788   1.799   6.858  0.5617  0.8127  0.0171
 1211SOL     OW15091   3.731   2.614   1.238  0.4530  0.0937  0.0891
 1211SOL    HW115092   3.751   2.663   1.159  2.2332  2.1245  1.8202
 1211SOL    HW215093   3.799   2.632   1.302 -0.1354 -0.8456  0.9864
 1212SOL     OW15094   1.612   2.353   9.044  0.3358  0.5040  0.5727
 1212SOL    HW115095   1.566   2.360   9.128  0.6629 -0.4547  0.8311
 1212SOL    HW215096   1.614   2.444   9.015 -2.5776  0.9099  1.6909
 1213SOL     OW15097   3.142   0.925   6.287 -0.5956  0.0278  0.3234
 1213SOL    HW115098   3.136   0.861   6.358 -0.8188 -1.7340 -1.3084
 1213SOL    HW215099   3.080   0.989   6.323 -1.0455  0.8043 -1.8510
 1214SOL     OW15100   1.744   0.739   9.030 -0.0953  0.1612 -0.3485
 1214SOL    HW115101   1.762   0.693   8.948  0.6179 -2.7210  1.4178
 1214SOL    HW215102   1.829   0.784   9.029 -0.7973  1.4519 -1.9455
 1215SOL     OW15103   3.795   1.411   4.829 -0.1929  0.1609 -0.4435
 1215SOL    HW115104   3.706   1.378   4.843 -0.8024  1.5342 -1.0519
 1215SOL    HW215105   3.771   1.497   4.792 -2.5125 -0.3091 -0.0685
 1216SOL     OW15106   2.683   0.030  15.334 -0.1609  0.0394 -0.4293
 1216SOL    HW115107   2.607   0.087  15.320 -0.0349  0.2552 -0.2278
 1216SOL    HW215108   2.728   0.057  15.254 -1.5326  0.3000 -1.1134
 1217SOL     OW15109   0.117   0.613   6.909 -0.1836 -1.0071  0.4898
 1217SOL    HW115110   0.164   0.547   6.857 -0.5068 -0.7040 -0.1960
 1217SOL    HW215111   0.111   0.574   6.996 -2.5407 -0.8600  0.4126
 1218SOL     OW15112   0.693   4.041   9.100 -0.1180 -0.0412 -0.0097
 1218SOL    HW115113   0.758   4.050   9.169  1.4298 -0.5772 -1.3949
 1218SOL    HW215114   0.633   3.974   9.131  0.2456  0.8638  2.6123
 1219SOL     OW15115   2.423   4.503   4.539 -0.0809  0.4745 -0.3193
 1219SOL    HW115116   2.479   4.521   4.464 -0.6413  0.4917 -0.7329
 1219SOL    HW215117   2.372   4.584   4.543 -2.2187 -0.8369 -1.0953
 1220SOL     OW15118   3.615   3.612   0.989 -0.1932  0.1627  0.2611
 1220SOL    HW115119   3.523   3.634   1.003 -0.4788  0.1983 -1.6661
 1220SOL    HW215120   3.641   3.592   1.079  0.8149 -0.7037 -0.2118
 1221SOL     OW15121   1.770   4.421   7.135 -0.2508 -0.0220  0.5655
 1221SOL    HW115122   1.753   4.388   7.223  3.7893 -2.6638  0.3740
 1221SOL    HW215123   1.682   4.441   7.102 -0.4670 -0.6176  0.7670
 1222SOL     OW15124   0.974   4.090   2.851 -0.1213 -0.1007  0.3229
 1222SOL    HW115125   0.965   4.133   2.936 -2.2862  0.3108 -0.0998
 1222SOL    HW215126   0.892   4.040   2.846  0.3488 -0.8253 -0.0651
 1223SOL     OW15127   0.388   2.763   6.226  0.3264 -0.6983  0.4452
 1223SOL    HW115128   0.313   2.726   6.271 -0.2871 -0.3874 -0.3223
 1223SOL    HW215129   0.379   2.732   6.136  1.0293  3.5399 -1.1275
 1224SOL     OW15130   1.713   4.565  11.230  0.6866  0.2680 -0.0555
 1224SOL    HW115131   1.805   4.576  11.251  0.9834  1.0899 -1.7420
 1224SOL    HW215132   1.729   4.523  11.146 -1.3864  0.0322 -0.3352
 1225SOL     OW15133   0.203   3.364   8.311  0.2303  0.4066  0.1407
 1225SOL    HW115134   0.228   3.328   8.396  0.9399  0.7541  0.0819
 1225SOL    HW215135   0.280   3.420   8.298  1.0349 -0.6165  0.4793
 1226SOL     OW15136   4.456   1.963   1.035 -0.5357  0.6962  0.8528
 1226SOL    HW115137   4.499   1.951   1.120 -0.4342 -0.0538  0.6952
 1226SOL    HW215138   4.455   1.872   1.003 -2.0806  0.1337  2.5428
 1227SOL     OW15139   1.949   2.919   5.913 -0.0627 -0.0123  0.3412
 1227SOL    HW115140   1.972   2.889   6.001 -0.3066 -1.3780 -0.0660
 1227SOL    HW215141   1.950   3.014   5.926 -0.8662  0.1368 -0.6758
 1228SOL     OW15142   1.101   3.347   8.782 -0.7830 -0.9066 -0.9720
 1228SOL    HW115143   1.108   3.256   8.812  1.6088 -0.3406  0.2064
 1228SOL    HW215144   1.181   3.349   8.730  1.1616 -0.5407  2.0853
 1229SOL     OW15145   2.364   2.300   9.522 -0.0992  0.0846 -0.2659
 1229SOL    HW115146   2.296   2.302   9.588  0.9251  0.2329  0.7852
 1229SOL    HW215147   2.370   2.391   9.490  0.0369  0.2669  0.2911
 1230SOL     OW15148   2.348   2.454   6.266  0.2878  0.1359  0.0801
 1230SOL    HW115149   2.356   2.380   6.207  2.2543  0.4171  0.0017
 1230SOL    HW215150   2.345   2.523   6.200 -2.2774 -0.0822 -0.0233
 1231SOL     OW15151   3.302   3.479   1.032 -0.0261  0.4452 -0.5265
 1231SOL    HW115152   3.209   3.468   1.013  0.2528 -1.3619 -0.7954
 1231SOL    HW215153   3.328   3.509   0.945 -1.7835  0.6650 -0.9887
 1232SOL     OW15154   4.016   0.686  16.779  0.2192 -0.0699 -0.3621
 1232SOL    HW115155   3.935   0.733  16.760 -0.4713 -0.1066  2.4718
 1232SOL    HW215156   3.987   0.595  16.788 -1.9984  0.7181  0.5745
 1233SOL     OW15157   3.330   2.357   5.305  1.0278  0.0999 -0.3886
 1233SOL    HW115158   3.341   2.451   5.322 -1.6731  0.2590  0.5297
 1233SOL    HW215159   3.285   2.379   5.224 -0.6149  1.6431  0.9321
 1234SOL     OW15160   1.792   0.252   3.259 -0.2415 -0.4913 -0.1596
 1234SOL    HW115161   1.734   0.328   3.261  0.4773  0.0530  0.1310
 1234SOL    HW215162   1.736   0.194   3.310 -0.0764 -1.3601 -0.9521
 1235SOL     OW15163   3.270   1.873   7.524 -0.2486  0.4576 -0.2463
 1235SOL    HW115164   3.350   1.826   7.545  0.1007  0.9170 -0.5647
 1235SOL    HW215165   3.307   1.927   7.454  0.2479 -1.2072 -1.2680
 1236SOL     OW15166   3.595   2.240   0.564 -0.4337  0.3823  0.0126
 1236SOL    HW115167   3.543   2.304   0.515  0.4042  1.3139  0.3453
 1236SOL    HW215168   3.639   2.192   0.494  3.2665  1.9726  1.2145
 1237SOL     OW15169   0.197   3.578   2.403 -0.4362 -0.2577 -0.0521
 1237SOL    HW115170   0.223   3.530   2.324 -1.3009  0.4136 -0.7410
 1237SOL    HW215171   0.118   3.623   2.373  0.0889  0.4106 -0.4283
 1238SOL     OW15172   3.501   2.143   8.682  0.1119 -0.2483  0.5440
 1238SOL    HW115173   3.579   2.135   8.736  1.5749  1.2380 -1.3161
 1238SOL    HW215174   3.542   2.175   8.601 -2.6961  2.8398  0.2995
 1239SOL     OW15175   2.077   1.445   8.979 -0.4391 -0.2520 -0.1667
 1239SOL    HW115176   2.150   1.491   9.020 -2.4589  0.6035  2.4218
 1239SOL    HW215177   2.010   1.513   8.982 -0.9204 -0.5880 -2.8936
 1240SOL     OW15178   1.375   3.304   7.855  0.1063 -0.3519  0.2557
 1240SOL    HW115179   1.440   3.244   7.891  0.2942 -0.1693  0.2209
 1240SOL    HW215180   1.301   3.246   7.837 -0.0344 -1.1691  3.5661
 1241SOL     OW15181   1.053   4.040   4.455  0.1837  0.0207 -0.1011
 1241SOL    HW115182   1.114   4.087   4.512  0.3242  0.4500 -0.6104
 1241SOL    HW215183   0.966   4.059   4.491  0.0139  2.0428 -1.5922
 1242SOL     OW15184   1.492   1.199   5.155 -0.0906 -0.2446 -0.3040
 1242SOL    HW115185   1.559   1.140   5.190  0.4957 -1.3482 -3.3234
 1242SOL    HW215186   1.415   1.164   5.200  0.0533  0.2687  0.3502
 1243SOL     OW15187   3.770   1.559  14.890  0.3022  0.2186 -0.0496
 1243SOL    HW115188   3.845   1.580  14.833  1.8684  0.5624  2.1150
 1243SOL    HW215189   3.770   1.637  14.946 -1.6124 -1.2310  1.9329
 1244SOL     OW15190   4.250   4.442   1.421 -1.0284 -0.1711  0.6472
 1244SOL    HW115191   4.242   4.353   1.387  0.1615  0.9794 -2.5780
 1244SOL    HW215192   4.334   4.436   1.466 -0.7368  0.8986  0.2245
 1245SOL     OW15193   1.426   1.831   3.008 -0.0083 -0.6757 -0.0801
 1245SOL    HW115194   1.410   1.765   2.940 -1.1216  0.4168 -0.8830
 1245SOL    HW215195   1.345   1.834   3.059  1.0239  1.6401  1.3710
 1246SOL     OW15196   1.430   1.796   7.294 -0.2893 -0.4009  0.0799
 1246SOL    HW115197   1.338   1.818   7.280 -0.3514  0.6435  2.1782
 1246SOL    HW215198   1.466   1.799   7.205 -0.5879  0.4743 -0.0078
 1247SOL     OW15199   4.593   1.348   5.817  0.2246 -0.4039  0.7858
 1247SOL    HW115200   4.662   1.349   5.750  1.1043  0.2951  1.7041
 1247SOL    HW215201   4.529   1.289   5.777 -0.5230  0.7677  0.2660
 1248SOL     OW15202   1.854   1.885   5.023  0.0670  0.1527 -0.1896
 1248SOL    HW115203   1.930   1.830   5.044 -0.5212  0.0727  1.8143
 1248SOL    HW215204   1.896   1.945   4.962  0.8324  0.3267  0.5042
 1249SOL     OW15205   4.240   2.670   7.127  0.4897  0.5487 -0.0961
 1249SOL    HW115206   4.265   2.656   7.036 -0.1896 -2.4572  0.1706
 1249SOL    HW215207   4.168   2.606   7.127  0.4173  0.6322 -1.3584
 1250SOL     OW15208   4.309   0.790   6.727 -0.4892  0.5843 -0.3084
 1250SOL    HW115209   4.395   0.796   6.685 -0.0981  1.3425  0.6234
 1250SOL    HW215210   4.324   0.841   6.806  0.9708  0.1896 -0.3254
 1251SOL     OW15211   3.929   4.249   7.260  0.2874  0.0481 -0.8945
 1251SOL    HW115212   3.932   4.251   7.164  1.3066 -0.4622 -0.8740
 1251SOL    HW215213   3.968   4.334   7.276  2.0539 -0.9918  0.3239
 1252SOL     OW15214   3.742   2.749   2.620 -0.2351 -0.0713 -0.0506
 1252SOL    HW115215   3.690   2.775   2.544  1.1103 -1.6213 -1.5164
 1252SOL    HW215216   3.828   2.782   2.594 -0.6893 -1.2511 -3.1119
 1253SOL     OW15217   4.062   0.244   6.503 -0.2702 -0.3837  0.0435
 1253SOL    HW115218   3.974   0.207   6.502 -0.0205 -0.8679 -4.0311
 1253SOL    HW215219   4.107   0.192   6.437 -0.5993 -1.3509  0.5739
 1254SOL     OW15220   4.188   3.498   2.968 -0.2604  0.1037  0.7900
 1254SOL    HW115221   4.203   3.590   2.987  2.4806 -0.3245  0.6971
 1254SOL    HW215222   4.242   3.457   3.035  0.9963  0.8988  0.2484
 1255SOL     OW15223   2.298   3.628   2.847  0.0346  0.3784 -0.2445
 1255SOL    HW115224   2.204   3.642   2.832  0.1271  0.3167 -0.9000
 1255SOL    HW215225   2.330   3.651   2.760  0.6315 -0.8480 -0.3576
 1256SOL     OW15226   4.396   1.106   3.209  0.3610 -0.2463  0.4718
 1256SOL    HW115227   4.368   1.197   3.209 -1.3442 -0.7717  0.0767
 1256SOL    HW215228   4.316   1.073   3.168  0.0841  0.2562  0.6140
 1257SOL     OW15229   2.912   3.986   4.276 -0.1733  0.2991  0.5437
 1257SOL    HW115230   2.972   3.944   4.338 -0.6370  1.4197  1.7423
 1257SOL    HW215231   2.852   3.913   4.258 -1.8573  1.5195  1.2066
 1258SOL     OW15232   2.045   2.358  15.456 -0.1521 -1.0129  0.9674
 1258SOL    HW115233   2.031   2.281  15.401  1.7007  1.0025 -2.3200
 1258SOL    HW215234   1.974   2.351  15.520 -0.4164 -0.8598  0.6923
 1259SOL     OW15235   3.202   4.432  13.219  0.6637 -0.4094 -0.0978
 1259SOL    HW115236   3.211   4.408  13.127  4.1299  0.1664  0.0980
 1259SOL    HW215237   3.241   4.519  13.214  0.2920 -0.2143  0.3898
 1260SOL     OW15238   1.768   3.605   8.549  0.4422  0.0645 -0.6071
 1260SOL    HW115239   1.807   3.693   8.542  0.6742 -0.0533 -0.7802
 1260SOL    HW215240   1.727   3.620   8.634  1.0221  1.3699 -0.5424
 1261SOL     OW15241   2.825   2.817   3.605 -0.1214 -0.4288  0.1401
 1261SOL    HW115242   2.763   2.867   3.658  0.5675 -0.3154  0.8348
 1261SOL    HW215243   2.889   2.797   3.673  0.3145  0.5396  0.0079
 1262SOL     OW15244   0.734   3.851   3.005 -0.2577 -0.3151 -0.0565
 1262SOL    HW115245   0.751   3.828   3.097  1.5854 -0.0387 -0.3311
 1262SOL    HW215246   0.780   3.774   2.972 -3.3869 -1.9717 -0.5374
 1263SOL     OW15247   0.955   0.805   8.511 -0.6045  0.1366  0.0149
 1263SOL    HW115248   0.902   0.883   8.521  0.8383  1.0113  0.7611
 1263SOL    HW215249   0.915   0.763   8.587 -0.0561  0.4873  0.4907
 1264SOL     OW15250   0.733   4.424   3.491  0.0793  0.7020 -0.1997
 1264SOL    HW115251   0.643   4.447   3.469  0.1161  1.0646  0.0345
 1264SOL    HW215252   0.713   4.367   3.566 -0.3985  0.2117 -0.6985
 1265SOL     OW15253   2.817   3.448  15.681  0.6351 -0.5659  0.0423
 1265SOL    HW115254   2.746   3.501  15.644  3.0493  2.2865 -0.5165
 1265SOL    HW215255   2.879   3.516  15.710 -1.2407  1.4033 -0.5680
 1266SOL     OW15256   2.716   0.855   6.783 -0.0929  0.3538  0.9752
 1266SOL    HW115257   2.660   0.919   6.740  1.8354 -0.7160 -3.0762
 1266SOL    HW215258   2.680   0.841   6.871 -0.5033  0.3485  0.8066
 1267SOL     OW15259   1.739   2.383  14.128 -0.8655 -0.5616  0.2407
 1267SOL    HW115260   1.783   2.386  14.213  1.4027  1.2928 -1.0335
 1267SOL    HW215261   1.743   2.291  14.103  1.7033 -0.3211 -0.1757
 1268SOL     OW15262   3.322   1.389  12.421 -0.5614  0.5019  1.0723
 1268SOL    HW115263   3.342   1.482  12.412 -1.4541  0.6936  1.0895
 1268SOL    HW215264   3.298   1.380  12.513 -0.7772 -0.0416  0.9622
 1269SOL     OW15265   3.674   3.227  13.812  0.0250 -0.1272 -0.2098
 1269SOL    HW115266   3.667   3.164  13.884  0.2140  2.5131  2.1056
 1269SOL    HW215267   3.690   3.305  13.865 -2.1476 -0.5514  1.0823
 1270SOL     OW15268   3.604   1.091   6.969  0.2089  0.0479  0.3760
 1270SOL    HW115269   3.576   1.092   7.061  1.8629  0.2496  0.8825
 1270SOL    HW215270   3.696   1.110   6.987  0.3183 -1.9996  1.9858
 1271SOL     OW15271   0.009   2.429  11.513  0.0356 -0.1114  0.0407
 1271SOL    HW115272   4.723   2.342  11.549  0.3424 -0.0778  0.2064
 1271SOL    HW215273   0.056   2.471  11.585 -0.4674  0.5246  0.0038
 1272SOL     OW15274   0.511   0.910  11.645  0.4665 -0.0764  0.3035
 1272SOL    HW115275   0.536   0.998  11.615 -2.4194  1.2602  1.7731
 1272SOL    HW215276   0.592   0.872  11.611  0.2824 -1.3823  1.3509
 1273SOL     OW15277   0.155   0.837  16.789 -0.1853  0.2633 -0.2858
 1273SOL    HW115278   0.067   0.866  16.814 -0.0424  1.0083 -0.6674
 1273SOL    HW215279   0.193   0.811  16.872  0.2410 -2.0915 -1.1946
 1274SOL     OW15280   3.250   2.415  15.154 -0.0378 -0.0951 -0.8882
 1274SOL    HW115281   3.221   2.419  15.063  2.7949 -0.5239 -1.7940
 1274SOL    HW215282   3.233   2.321  15.166 -1.4522  0.2901  0.2036
 1275SOL     OW15283   3.713   0.109  15.227 -0.0731  0.0509  0.5467
 1275SOL    HW115284   3.785   0.065  15.272  1.9345 -0.4984 -3.1603
 1275SOL    HW215285   3.655   0.035  15.212 -0.3040  0.3900 -0.2610
 1276SOL     OW15286   1.327   0.359   1.587 -0.4465 -0.5134 -0.2032
 1276SOL    HW115287   1.313   0.267   1.564 -0.4589 -0.6341  0.2995
 1276SOL    HW215288   1.299   0.404   1.507  1.1460 -0.7584 -0.9017
 1277SOL     OW15289   2.475   0.720   5.228 -0.6977  0.5332  0.1014
 1277SOL    HW115290   2.406   0.654   5.221  0.8611 -1.1495  0.7022
 1277SOL    HW215291   2.440   0.771   5.301 -0.7392  0.8902 -0.1662
 1278SOL     OW15292   0.073   0.666   0.190 -0.2886 -0.3383  0.0204
 1278SOL    HW115293   0.107   0.686   0.103 -0.4123 -1.3851 -0.2780
 1278SOL    HW215294   4.722   0.611   0.167 -0.9874  1.0436 -0.9848
 1279SOL     OW15295   0.643   0.339   6.961  0.3385  0.0073 -0.1004
 1279SOL    HW115296   0.609   0.428   6.960 -2.5922 -1.1095 -0.6552
 1279SOL    HW215297   0.686   0.333   7.046 -1.3429 -0.1161  0.7427
 1280SOL     OW15298   0.027   2.276   8.095  0.0453  0.5325  0.0391
 1280SOL    HW115299   0.050   2.323   8.174  0.8111 -1.4814  1.0224
 1280SOL    HW215300   4.657   2.270   8.106  0.3806 -0.6579  2.2095
 1281SOL     OW15301   2.687   3.451   5.978 -0.0488  0.5853  0.0188
 1281SOL    HW115302   2.598   3.432   6.007  0.1551  0.4312  0.5407
 1281SOL    HW215303   2.676   3.454   5.883  1.0690  1.0970 -0.0957
 1282SOL     OW15304   1.333   2.907  14.298 -0.0645  0.0811  0.6653
 1282SOL    HW115305   1.410   2.853  14.317  0.8558  1.3605  0.5586
 1282SOL    HW215306   1.288   2.855  14.231 -0.0159  4.2283 -2.5680
 1283SOL     OW15307   0.187   1.983   2.807 -0.2729 -0.6101  0.2974
 1283SOL    HW115308   0.191   2.042   2.732  2.9388 -0.2543  0.7400
 1283SOL    HW215309   0.278   1.971   2.834  0.8485  1.1290 -2.8101
 1284SOL     OW15310   0.894   3.759   4.000  0.1485 -0.2964  0.2521
 1284SOL    HW115311   0.827   3.737   3.936 -1.3115  1.0742  1.3063
 1284SOL    HW215312   0.858   3.843   4.029  0.4980  0.5973 -1.8252
 1285SOL     OW15313   1.825   1.005  11.791  0.3886  0.1035  0.0838
 1285SOL    HW115314   1.786   0.919  11.807 -1.1110  0.4454 -1.6713
 1285SOL    HW215315   1.806   1.016  11.698  2.0243 -0.8626 -0.3519
 1286SOL     OW15316   0.407   1.934   6.639  0.7861 -0.1527 -0.7743
 1286SOL    HW115317   0.421   1.923   6.733  0.6903 -0.1940 -0.7648
 1286SOL    HW215318   0.451   2.018   6.629  0.6112 -0.1843 -1.8855
 1287SOL     OW15319   2.744   4.458   1.139 -0.4051  0.5043  0.2719
 1287SOL    HW115320   2.697   4.407   1.073  1.1592  0.5250 -0.8648
 1287SOL    HW215321   2.809   4.393   1.167 -1.1720 -0.7642 -0.8967
 1288SOL     OW15322   2.243   1.316  11.774  0.0217 -0.1077 -0.1663
 1288SOL    HW115323   2.304   1.383  11.744  1.4369 -0.6270  1.4894
 1288SOL    HW215324   2.203   1.277  11.697  0.1313  0.7508 -0.6587
 1289SOL     OW15325   1.339   0.173   0.725 -0.6532 -0.3494 -0.0177
 1289SOL    HW115326   1.393   0.098   0.750 -0.6045 -0.6357 -0.9894
 1289SOL    HW215327   1.363   0.229   0.799  0.7872  0.9299 -1.4740
 1290SOL     OW15328   4.059   0.573   4.887 -0.1910  0.4845  0.0726
 1290SOL    HW115329   4.008   0.646   4.850 -0.6756 -0.1938 -0.6037
 1290SOL    HW215330   4.120   0.542   4.821 -0.5461  1.6359 -0.7962
 1291SOL     OW15331   1.248   3.953  12.035  0.6699  0.0542  0.1347
 1291SOL    HW115332   1.297   3.885  12.082 -2.0787 -0.8732  1.6912
 1291SOL    HW215333   1.321   4.014  12.027 -0.6844  1.3075 -2.5295
 1292SOL     OW15334   4.549   2.751   4.780 -0.3801 -0.4234 -0.0270
 1292SOL    HW115335   4.549   2.845   4.799 -0.0834 -0.4320  0.0231
 1292SOL    HW215336   4.623   2.739   4.720  1.4667  2.3078  1.7058
 1293SOL     OW15337   1.138   0.580   6.281 -1.2609  0.0159 -0.3219
 1293SOL    HW115338   1.054   0.541   6.306 -1.5693  1.3818  0.8508
 1293SOL    HW215339   1.124   0.586   6.187  0.0414 -2.2822 -0.6351
 1294SOL     OW15340   3.895   0.259   5.717 -0.2872 -0.0484 -0.3728
 1294SOL    HW115341   3.879   0.354   5.716  1.1974  0.2210  1.1249
 1294SOL    HW215342   3.985   0.246   5.748 -0.8348 -2.2006  0.2413
 1295SOL     OW15343   4.630   1.928   6.458  0.2144 -0.0648 -0.3818
 1295SOL    HW115344   4.608   1.842   6.495  2.5821 -1.1088 -1.4390
 1295SOL    HW215345   4.551   1.974   6.488 -0.3823  0.1074 -2.2455
 1296SOL     OW15346   0.870   3.017   4.807  0.5350  0.5739  0.4000
 1296SOL    HW115347   0.842   2.927   4.826  1.1897  0.9971  3.3621
 1296SOL    HW215348   0.962   3.011   4.834  1.3112 -2.2146 -2.8536
 1297SOL     OW15349   1.360   0.080   3.101 -0.3185 -0.1295  0.3568
 1297SOL    HW115350   1.268   0.079   3.127 -0.6674 -0.0096 -0.8747
 1297SOL    HW215351   1.395   0.123   3.179  0.9906  0.3900 -0.5144
 1298SOL     OW15352   3.722   1.814  13.989  0.1871  0.4654  0.4875
 1298SOL    HW115353   3.696   1.877  13.921  1.6939 -1.6382 -1.9910
 1298SOL    HW215354   3.678   1.738  13.950 -0.5302  1.7228 -1.1835
 1299SOL     OW15355   0.728   1.692   2.460  0.9347  0.2641 -0.2975
 1299SOL    HW115356   0.811   1.645   2.457  0.3897 -0.7760  1.2728
 1299SOL    HW215357   0.696   1.662   2.375  1.5665 -0.9015 -0.1224
 1300SOL     OW15358   0.743   0.556   1.760 -0.3519  0.5380 -0.1064
 1300SOL    HW115359   0.743   0.579   1.667 -0.7434 -0.4353 -0.3522
 1300SOL    HW215360   0.807   0.485   1.765  1.1216  1.8535 -0.1424
 1301SOL     OW15361   0.182   1.602   2.577 -0.0700  0.0878 -0.4435
 1301SOL    HW115362   0.269   1.634   2.553  0.1181 -1.2617 -1.5719
 1301SOL    HW215363   0.207   1.616   2.668  0.1380  3.2937 -1.0099
 1302SOL     OW15364   4.266   3.367   6.204  0.1323  0.1377  0.2653
 1302SOL    HW115365   4.254   3.362   6.109 -2.5427  0.3290  0.5940
 1302SOL    HW215366   4.180   3.351   6.243  0.4929 -3.9500 -0.6571
 1303SOL     OW15367   3.522   1.674   0.131  0.1469  0.1198  0.5850
 1303SOL    HW115368   3.430   1.665   0.106  0.0359  0.5319  0.8447
 1303SOL    HW215369   3.534   1.586   0.167  0.5335  0.3465  1.0102
 1304SOL     OW15370   2.036   0.479   6.073 -0.0546  0.0156  0.0525
 1304SOL    HW115371   1.980   0.482   6.150  1.3071 -1.1404  1.0970
 1304SOL    HW215372   2.040   0.383   6.064 -1.6619  0.1840 -2.2402
 1305SOL     OW15373   3.978   1.413   7.223  0.1675 -0.1853  0.5253
 1305SOL    HW115374   3.912   1.481   7.237  1.5598  1.3437 -0.3730
 1305SOL    HW215375   4.054   1.469   7.236  0.7648 -0.5397 -1.3278
 1306SOL     OW15376   3.010   2.619   9.322 -0.5655 -0.3884 -0.6755
 1306SOL    HW115377   3.103   2.640   9.329 -0.4334  0.1596 -3.9399
 1306SOL    HW215378   3.008   2.524   9.312 -1.1861 -0.6596  1.9489
 1307SOL     OW15379   3.665   0.681   7.646 -0.0944 -0.2720  0.7505
 1307SOL    HW115380   3.678   0.604   7.701 -2.7636 -1.1098  0.2095
 1307SOL    HW215381   3.574   0.671   7.617  0.2969 -0.1781 -0.5019
 1308SOL     OW15382   3.233   0.804   7.816 -0.4006 -0.0370  0.7915
 1308SOL    HW115383   3.198   0.748   7.886  2.3169  0.4910  2.5753
 1308SOL    HW215384   3.183   0.885   7.814  0.7710  0.6302 -1.7173
 1309SOL     OW15385   4.071   3.176   7.427  0.3794  0.3475  0.4666
 1309SOL    HW115386   4.084   3.177   7.522  0.0704 -1.3258  0.5287
 1309SOL    HW215387   4.029   3.262   7.417 -0.8919 -0.1259  1.7463
 1310SOL     OW15388   1.206   4.013   2.743 -0.1548  0.2093  0.5118
 1310SOL    HW115389   1.129   4.047   2.788 -0.6035  0.2147 -0.2628
 1310SOL    HW215390   1.231   3.941   2.801  1.2292 -0.1030 -0.4784
 1311SOL     OW15391   0.078   1.459   5.693  0.3254  0.3933 -0.0323
 1311SOL    HW115392   0.127   1.396   5.746  1.6078 -1.8677 -3.8205
 1311SOL    HW215393   0.103   1.534   5.746 -0.0603  0.3149  0.2589
 1312SOL     OW15394   0.140   2.360   2.927  0.2553  0.1511 -0.0033
 1312SOL    HW115395   0.168   2.425   2.863 -1.0232  0.3327 -0.3679
 1312SOL    HW215396   0.227   2.336   2.961  1.3066 -0.7711 -3.3634
 1313SOL     OW15397   1.320   3.369   4.892 -0.7111 -0.2308  0.3836
 1313SOL    HW115398   1.413   3.381   4.910 -0.9879  2.6359 -0.0831
 1313SOL    HW215399   1.317   3.289   4.838 -1.8442 -0.3008  0.5638
 1314SOL     OW15400   3.479   3.919   6.649  0.1879  0.3511 -0.2303
 1314SOL    HW115401   3.510   3.830   6.634  0.0485  0.4279 -0.9767
 1314SOL    HW215402   3.401   3.902   6.703  0.3757  1.1325  0.2831
 1315SOL     OW15403   0.481   0.955   4.629  0.7402  0.0624  0.4558
 1315SOL    HW115404   0.442   1.032   4.671  0.0076  0.2818 -0.6233
 1315SOL    HW215405   0.407   0.909   4.589 -0.3478  1.6960  0.5648
 1316SOL     OW15406   2.095   3.686   4.637  0.2912  0.5362 -0.5250
 1316SOL    HW115407   2.072   3.619   4.573 -1.5913 -0.4332  1.1491
 1316SOL    HW215408   2.051   3.767   4.610 -1.1783  0.0618  0.4204
 1317SOL     OW15409   1.678   3.896  11.989 -0.7933 -0.1515  0.3663
 1317SOL    HW115410   1.606   3.840  11.960  0.9678 -2.0319 -0.3930
 1317SOL    HW215411   1.657   3.918  12.080 -0.1110  4.6748 -0.6392
 1318SOL     OW15412   3.954   1.221   6.161 -0.4109 -0.4462  0.0348
 1318SOL    HW115413   3.978   1.147   6.217  1.1595  0.0004 -0.0473
 1318SOL    HW215414   3.860   1.209   6.174 -0.3701  2.0277  2.6091
 1319SOL     OW15415   0.596   1.364   3.132  0.1399 -0.3422 -0.0229
 1319SOL    HW115416   0.681   1.361   3.176 -0.0551  0.4262  0.3826
 1319SOL    HW215417   0.541   1.314   3.192 -0.7374 -0.0364 -0.5727
 1320SOL     OW15418   3.870   2.063   9.299 -0.1995 -0.3307 -0.7339
 1320SOL    HW115419   3.939   2.074   9.234  1.5684 -1.8533  0.8829
 1320SOL    HW215420   3.917   1.999   9.352  0.8969  0.5935 -0.5843
 1321SOL     OW15421   2.847   2.306   5.679 -0.2671 -0.1386 -0.3276
 1321SOL    HW115422   2.907   2.243   5.639 -0.1507 -0.0327 -0.3205
 1321SOL    HW215423   2.769   2.318   5.625 -0.6668  0.0550  0.2825
 1322SOL     OW15424   3.600   0.178   8.122 -0.6037  0.7446  0.0138
 1322SOL    HW115425   3.547   0.110   8.079  0.2789 -0.2994  0.5658
 1322SOL    HW215426   3.536   0.212   8.184  0.0817  0.6005  0.7938
 1323SOL     OW15427   1.416   3.101   7.157 -0.1007 -0.4902  0.3415
 1323SOL    HW115428   1.499   3.136   7.123 -2.1196  0.7793 -3.2631
 1323SOL    HW215429   1.396   3.045   7.083 -1.4035 -0.3106  0.5571
 1324SOL     OW15430   3.152   0.701   7.329 -0.4160 -0.0707  0.3804
 1324SOL    HW115431   3.175   0.637   7.261 -2.2945 -0.1002 -0.2310
 1324SOL    HW215432   3.206   0.672   7.402 -0.5393  0.2723  0.6040
 1325SOL     OW15433   3.380   3.402   8.215 -0.4765  0.1425  0.5878
 1325SOL    HW115434   3.348   3.492   8.204 -0.2411 -0.1009 -2.0465
 1325SOL    HW215435   3.309   3.341   8.196  0.4861 -0.2328 -1.6885
 1326SOL     OW15436   2.915   0.086  11.789  0.3329  0.7494  0.3127
 1326SOL    HW115437   3.009   0.105  11.793  1.1396 -3.1745 -0.4679
 1326SOL    HW215438   2.913   0.014  11.852 -1.2670 -1.0466 -1.8209
 1327SOL     OW15439   4.348   2.454   8.823 -0.0713 -0.1705 -0.5208
 1327SOL    HW115440   4.272   2.487   8.871 -1.5416 -1.0936 -2.2511
 1327SOL    HW215441   4.366   2.529   8.766  0.0859  0.1005 -0.1232
 1328SOL     OW15442   0.080   1.842   1.514 -0.8764 -0.2833  0.3627
 1328SOL    HW115443   0.133   1.898   1.458  2.4988 -1.3967  2.4573
 1328SOL    HW215444   0.094   1.756   1.474  0.9995  0.3091 -0.2521
 1329SOL     OW15445   3.507   3.742   5.372  0.0095 -0.0089  0.4989
 1329SOL    HW115446   3.455   3.811   5.412  0.1367 -1.0157  2.3852
 1329SOL    HW215447   3.577   3.791   5.329  0.2145 -0.3498  0.4407
 1330SOL     OW15448   2.851   3.047   5.319 -0.3650 -0.0910 -0.1814
 1330SOL    HW115449   2.836   3.108   5.247 -0.8404  1.2998  1.0938
 1330SOL    HW215450   2.946   3.049   5.332 -0.0490 -1.1978 -2.3746
 1331SOL     OW15451   4.541   0.006   8.394 -0.6415 -0.3718  0.0780
 1331SOL    HW115452   4.604   4.690   8.333  0.1026  0.5790  0.2127
 1331SOL    HW215453   4.457   4.695   8.366  0.2946 -2.6022  0.1008
 1332SOL     OW15454   3.089   2.457  10.618  0.0282 -0.1501 -0.6585
 1332SOL    HW115455   3.027   2.522  10.585 -0.0065  0.5613  0.7989
 1332SOL    HW215456   3.047   2.376  10.591 -1.3185  0.8456 -1.5116
 1333SOL     OW15457   4.347   0.310   9.023 -0.2310 -0.6643 -0.3431
 1333SOL    HW115458   4.279   0.306   9.091  0.5049 -2.4013  0.2935
 1333SOL    HW215459   4.294   0.273   8.953 -2.5900  0.5404  0.8282
 1334SOL     OW15460   2.176   2.215   7.786  0.6039  0.0659 -0.1693
 1334SOL    HW115461   2.132   2.299   7.775 -0.5962 -0.4469  0.6838
 1334SOL    HW215462   2.110   2.175   7.843  0.6194 -0.1958 -0.3338
 1335SOL     OW15463   4.650   0.065   7.891 -0.5424 -0.4783  0.1970
 1335SOL    HW115464   4.683   4.699   7.884  1.1859  0.0352  1.8147
 1335SOL    HW215465   4.697   0.091   7.970  0.1143  1.4595 -0.8280
 1336SOL     OW15466   3.034   4.229  15.082 -0.0192  0.3269  0.2309
 1336SOL    HW115467   3.000   4.142  15.059 -2.2957  1.5121 -0.9305
 1336SOL    HW215468   3.013   4.275  15.001 -0.6009 -2.5002 -1.2448
 1337SOL     OW15469   0.636   2.550   8.653  0.2317  0.5980  0.5093
 1337SOL    HW115470   0.607   2.498   8.578 -0.2463 -0.2755  1.2970
 1337SOL    HW215471   0.649   2.481   8.719 -1.2487 -1.8294 -1.7341
 1338SOL     OW15472   3.739   2.805   5.286  0.2494  0.1211  0.7514
 1338SOL    HW115473   3.767   2.741   5.352  1.1601 -0.9013 -0.6279
 1338SOL    HW215474   3.764   2.886   5.331  3.9035 -0.0936 -0.8764
 1339SOL     OW15475   3.087   1.270   5.649  0.2666 -0.1823 -0.1742
 1339SOL    HW115476   3.028   1.291   5.576 -1.0006  0.8193  1.1202
 1339SOL    HW215477   3.172   1.262   5.605  0.3500 -0.6396  0.0768
 1340SOL     OW15478   3.530   1.720   7.595  0.2061  0.2073  0.2597
 1340SOL    HW115479   3.547   1.627   7.611  0.0257  0.7368  3.5075
 1340SOL    HW215480   3.580   1.742   7.516  0.1476  0.2222  0.2263
 1341SOL     OW15481   1.092   1.425   3.515  0.6188 -0.4108  0.3139
 1341SOL    HW115482   1.028   1.472   3.569 -0.6921  0.3630 -1.9103
 1341SOL    HW215483   1.146   1.495   3.479 -1.8575  2.3762  2.0115
 1342SOL     OW15484   0.232   4.468   0.466 -0.1967 -0.2758 -0.7148
 1342SOL    HW115485   0.203   4.468   0.557 -2.9872  5.3417 -1.6123
 1342SOL    HW215486   0.328   4.467   0.474 -0.2139  1.6551 -0.3236
 1343SOL     OW15487   3.923   2.333   5.568 -0.4799  0.2350  0.6103
 1343SOL    HW115488   3.980   2.265   5.602 -1.8553 -0.1161  2.2248
 1343SOL    HW215489   3.934   2.321   5.474  1.6684 -1.6661  1.0986
 1344SOL     OW15490   0.270   1.670   5.045 -0.1915 -0.1031 -0.3049
 1344SOL    HW115491   0.258   1.575   5.048 -0.9655  0.0708  1.9493
 1344SOL    HW215492   0.364   1.678   5.027 -0.4869 -0.7803 -2.1315
 1345SOL     OW15493   1.457   1.924  12.588  0.0949 -0.1885  0.6137
 1345SOL    HW115494   1.382   1.882  12.630 -0.9471  0.6656 -0.3949
 1345SOL    HW215495   1.437   1.902  12.497 -0.9046 -0.0679  0.8050
 1346SOL     OW15496   1.636   2.236   4.868 -0.2350 -0.0058  0.5465
 1346SOL    HW115497   1.674   2.314   4.829 -0.7916  0.6189  1.2691
 1346SOL    HW215498   1.556   2.254   4.917  1.1640 -0.8004  3.1213
 1347SOL     OW15499   0.460   4.618   2.979  0.1223  0.1785 -0.2416
 1347SOL    HW115500   0.439   4.693   3.035  0.8011  0.7887 -0.7955
 1347SOL    HW215501   0.451   4.655   2.891  0.5461  1.9823  0.4632
 1348SOL     OW15502   3.254   2.891   1.471 -0.7382 -0.3271 -0.5153
 1348SOL    HW115503   3.336   2.940   1.463 -0.1757 -1.2814 -0.6936
 1348SOL    HW215504   3.292   2.814   1.514  1.1107 -0.1287 -1.7962
 1349SOL     OW15505   3.774   1.346   3.615 -0.1286 -0.2751  0.2778
 1349SOL    HW115506   3.804   1.294   3.540 -2.0178 -3.0547  1.4160
 1349SOL    HW215507   3.695   1.392   3.587  0.5591 -0.4235 -1.8646
 1350SOL     OW15508   3.040   3.482   6.230 -0.2370  0.1761  0.1100
 1350SOL    HW115509   3.090   3.515   6.156 -0.0295 -1.7065 -0.5998
 1350SOL    HW215510   3.084   3.532   6.299 -1.0414  1.6959 -0.5003
 1351SOL     OW15511   1.063   4.486   1.838 -0.2410 -0.4467  0.3732
 1351SOL    HW115512   1.054   4.580   1.826 -2.1939 -0.6814  0.1278
 1351SOL    HW215513   1.014   4.475   1.919 -1.7193  1.5818 -0.2644
 1352SOL     OW15514   2.220   4.720   3.677 -0.0241  0.3301  0.0832
 1352SOL    HW115515   2.202   0.019   3.768 -0.0479 -2.2208  0.7237
 1352SOL    HW215516   2.226   0.087   3.650 -1.3767  1.2073  2.7141
 1353SOL     OW15517   1.148   3.702   2.569  0.5062 -0.7554 -0.0123
 1353SOL    HW115518   1.171   3.795   2.570 -2.5195  0.0258 -2.4379
 1353SOL    HW215519   1.190   3.683   2.485  1.2975  0.0666  0.1972
 1354SOL     OW15520   3.690   4.615   2.284  0.0838  0.5345 -0.6205
 1354SOL    HW115521   3.641   4.623   2.366  1.4261  0.1850  0.2125
 1354SOL    HW215522   3.665   4.528   2.254 -1.6977  1.0257 -0.5603
 1355SOL     OW15523   0.997   4.459  16.777  0.6683  0.8313 -0.1873
 1355SOL    HW115524   0.962   4.481  16.691  2.2795 -1.1785 -1.3473
 1355SOL    HW215525   0.925   4.469  16.839 -0.0639  0.5185 -0.9819
 1356SOL     OW15526   2.303   3.574  14.051 -0.0459  0.4503  0.3477
 1356SOL    HW115527   2.346   3.488  14.048 -4.9901 -2.0689  1.4561
 1356SOL    HW215528   2.287   3.606  14.140  0.4689  0.2943  0.4954
 1357SOL     OW15529   1.378   4.596  16.920  0.1777  0.5730  0.0690
 1357SOL    HW115530   1.347   4.599  16.830 -0.7427  0.0830  0.3713
 1357SOL    HW215531   1.316   4.532  16.956 -0.4608  1.1775  0.0278
 1358SOL     OW15532   1.707   1.164  13.344 -0.2412  0.5237 -0.7821
 1358SOL    HW115533   1.720   1.078  13.305 -0.2492  0.2568 -0.2083
 1358SOL    HW215534   1.712   1.224  13.270 -0.0874  1.1856 -0.2305
 1359SOL     OW15535   3.105   1.392  12.230 -0.5973  0.0863 -0.4853
 1359SOL    HW115536   3.176   1.403  12.294 -0.0630  2.9018 -1.5741
 1359SOL    HW215537   3.033   1.402  12.292 -0.8413 -0.9593 -0.5984
 1360SOL     OW15538   2.703   2.547   2.540  0.2517 -0.3063  0.0174
 1360SOL    HW115539   2.719   2.459   2.507 -2.6743 -0.0151 -2.1935
 1360SOL    HW215540   2.650   2.586   2.470 -1.2917  1.8170  2.3499
 1361SOL     OW15541   3.098   1.593   0.466  0.3571 -0.0604 -0.4887
 1361SOL    HW115542   3.002   1.593   0.457  0.5124 -1.8333 -2.1476
 1361SOL    HW215543   3.101   1.512   0.517 -0.7610 -0.7520 -1.5250
 1362SOL     OW15544   4.090   2.475   1.594 -0.5853  0.1292 -0.1515
 1362SOL    HW115545   4.162   2.442   1.540  0.0316 -0.7012  1.1798
 1362SOL    HW215546   4.133   2.492   1.678 -1.0085  1.1843 -0.1530
 1363SOL     OW15547   1.052   0.787   0.555  0.1540 -0.7565 -0.5413
 1363SOL    HW115548   1.086   0.800   0.467  1.0645  2.0062  0.2009
 1363SOL    HW215549   1.097   0.858   0.601 -0.9687 -0.2634 -0.1926
 1364SOL     OW15550   0.503   3.985   7.154 -0.3082  0.2390  0.4406
 1364SOL    HW115551   0.563   4.036   7.209  0.7404  0.2506 -0.7015
 1364SOL    HW215552   0.484   3.910   7.210 -1.5431  0.2325  0.0050
 1365SOL     OW15553   2.083   4.347   1.598  0.3671 -0.2899  0.2852
 1365SOL    HW115554   2.114   4.436   1.582  1.6511 -0.8190 -0.1430
 1365SOL    HW215555   2.116   4.311   1.516  0.1933 -0.4935  0.3061
 1366SOL     OW15556   1.460   0.488   5.694  0.4404  0.2644 -0.3819
 1366SOL    HW115557   1.507   0.406   5.678 -1.6639 -0.6093 -2.0686
 1366SOL    HW215558   1.420   0.472   5.779 -1.3713 -0.2758 -1.3412
 1367SOL     OW15559   3.272   4.472   9.691  0.2126 -0.2282 -0.9601
 1367SOL    HW115560   3.342   4.500   9.750  0.2534  1.8612 -1.9835
 1367SOL    HW215561   3.287   4.378   9.702  0.7248  0.1959  2.0567
 1368SOL     OW15562   4.205   2.627   6.848 -0.0240 -0.2994 -0.0623
 1368SOL    HW115563   4.229   2.694   6.784  0.3250 -0.5974 -0.2505
 1368SOL    HW215564   4.208   2.545   6.799 -0.0187  0.8190 -1.9100
 1369SOL     OW15565   0.773   3.664  11.616 -0.2415  0.4175  0.2817
 1369SOL    HW115566   0.720   3.732  11.575  0.4683  0.5724 -0.3767
 1369SOL    HW215567   0.699   3.609  11.642  1.2083 -1.3030  0.7504
 1370SOL     OW15568   2.060   3.755  14.255 -0.6642 -0.0914  0.0964
 1370SOL    HW115569   2.024   3.671  14.284 -1.5639  0.5940  0.9517
 1370SOL    HW215570   2.142   3.759  14.303 -0.9785 -1.6514  0.7596
 1371SOL     OW15571   3.583   2.922   7.723 -0.1711  0.5893 -0.3867
 1371SOL    HW115572   3.569   2.937   7.629 -0.2418  3.4839  0.0850
 1371SOL    HW215573   3.674   2.947   7.734 -0.3155  0.9150  0.0409
 1372SOL     OW15574   2.442   4.497  17.671  0.9462 -0.0447  0.2618
 1372SOL    HW115575   2.417   4.454  17.589  2.2023  1.8043 -1.0938
 1372SOL    HW215576   2.453   4.575  17.616  1.5849  0.1958  0.7235
 1373SOL     OW15577   1.309   0.437   1.205 -0.5401 -0.2322 -0.7199
 1373SOL    HW115578   1.370   0.460   1.274 -1.0792  1.7113 -0.8700
 1373SOL    HW215579   1.324   0.344   1.191  0.6789  0.0684 -1.3610
 1374SOL     OW15580   0.548   1.011   8.228  0.1238 -0.3433  0.1114
 1374SOL    HW115581   0.562   1.047   8.316 -0.9652  1.1023 -0.3094
 1374SOL    HW215582   0.577   0.921   8.237  1.6861  0.2850  1.3531
 1375SOL     OW15583   0.891   3.375  15.005  0.8698  0.0287 -0.0942
 1375SOL    HW115584   0.928   3.433  15.073  0.0463 -0.6240  0.9045
 1375SOL    HW215585   0.861   3.433  14.935  0.0010  1.3878  1.3696
 1376SOL     OW15586   0.533   3.640  12.028  0.3663  0.3303 -1.0022
 1376SOL    HW115587   0.558   3.731  12.042  0.0109  0.5142 -1.5348
 1376SOL    HW215588   0.619   3.601  12.014  0.6375  0.6244 -0.1530
 1377SOL     OW15589   0.084   0.633   9.005  0.2842 -0.2382 -0.0541
 1377SOL    HW115590   0.084   0.578   9.083 -0.5039 -1.1613 -0.7085
 1377SOL    HW215591   0.012   0.595   8.956 -1.3141  0.0309  2.0821
 1378SOL     OW15592   2.433   3.473  10.720 -0.1687  0.1318 -0.2124
 1378SOL    HW115593   2.408   3.566  10.722 -1.0159 -0.0608 -1.8025
 1378SOL    HW215594   2.354   3.431  10.753  0.6440 -2.3227 -1.4179
 1379SOL     OW15595   4.248   0.503   6.741 -0.0557  0.7020  0.1176
 1379SOL    HW115596   4.209   0.584   6.708 -0.9416  1.2381  2.4921
 1379SOL    HW215597   4.330   0.530   6.784 -0.4768  0.7749  0.8703
 1380SOL     OW15598   3.395   1.365  12.068 -0.4742  0.3596  0.8197
 1380SOL    HW115599   3.311   1.406  12.088 -0.6959 -0.3912  1.4285
 1380SOL    HW215600   3.391   1.376  11.973  3.4401  2.6527  0.8749
 1381SOL     OW15601   2.173   4.575   5.541  0.4151  0.3282  0.3197
 1381SOL    HW115602   2.097   4.518   5.531  0.7514  0.5956 -3.9398
 1381SOL    HW215603   2.172   4.601   5.633  1.1272 -0.8824  0.6749
 1382SOL     OW15604   1.647   4.226   5.172  0.5019  0.2993 -0.3877
 1382SOL    HW115605   1.693   4.173   5.237 -0.2081 -0.7059 -0.7103
 1382SOL    HW215606   1.716   4.245   5.109  0.8623  0.2022 -0.0191
 1383SOL     OW15607   2.094   0.037   8.052 -0.3094 -0.7160 -0.0408
 1383SOL    HW115608   2.084   4.694   7.986  0.6476 -1.6079  0.7248
 1383SOL    HW215609   2.165   0.088   8.014 -3.1195  1.3796 -2.4835
 1384SOL     OW15610   0.101   0.568  16.870 -0.2466 -0.0287  0.0082
 1384SOL    HW115611   0.134   0.632  16.934 -2.1533  0.1085  0.8479
 1384SOL    HW215612   0.135   0.600  16.786  1.1284 -2.3479 -0.3286
 1385SOL     OW15613   4.390   3.327  12.725  0.0681 -0.2076  0.0550
 1385SOL    HW115614   4.441   3.407  12.715 -1.6999  0.9622  0.3413
 1385SOL    HW215615   4.366   3.341  12.817 -1.4244  0.9400 -0.5108
 1386SOL     OW15616   0.002   3.246  14.913 -0.1764 -0.2149 -0.1796
 1386SOL    HW115617   0.067   3.301  14.868  3.0231 -3.8773 -0.0288
 1386SOL    HW215618   4.653   3.269  14.856 -1.6610 -2.9073  0.6490
 1387SOL     OW15619   1.938   1.005  12.472 -0.0240  0.3861 -0.4347
 1387SOL    HW115620   1.871   0.976  12.534  0.3093  0.2084 -0.1560
 1387SOL    HW215621   1.893   1.079  12.433 -3.8525 -0.8707  1.5883
 1388SOL     OW15622   0.037   4.233   3.568  0.6802 -0.3038  0.2264
 1388SOL    HW115623   0.078   4.200   3.488 -1.3240  0.9002 -1.3101
 1388SOL    HW215624   4.678   4.263   3.530 -0.0858 -1.6470  0.8528
 1389SOL     OW15625   1.976   0.865   8.994  0.3685 -0.3059  0.1161
 1389SOL    HW115626   2.042   0.800   8.972  0.2915 -0.4550  0.3236
 1389SOL    HW215627   2.017   0.948   8.969  0.7337 -0.4483  0.2385
 1390SOL     OW15628   2.777   3.375  14.100  0.7796  0.2626 -0.5635
 1390SOL    HW115629   2.777   3.468  14.078  2.8469 -0.0204 -1.8070
 1390SOL    HW215630   2.867   3.347  14.082  0.7652 -0.1285 -0.0257
 1391SOL     OW15631   1.239   1.349   9.079  0.5663  1.0533  0.0038
 1391SOL    HW115632   1.202   1.282   9.021 -0.8208  1.0483  0.8853
 1391SOL    HW215633   1.292   1.295   9.138  0.8559  2.3293  0.9209
 1392SOL     OW15634   3.077   2.946   3.740 -0.8919 -0.3090 -0.2161
 1392SOL    HW115635   3.053   2.877   3.802  1.3004 -1.4513 -0.6370
 1392SOL    HW215636   3.132   2.889   3.686  0.3050  1.5379 -0.9422
 1393SOL     OW15637   0.674   1.341   5.301  0.4118 -0.2138 -0.0913
 1393SOL    HW115638   0.718   1.262   5.333 -0.9588 -1.2742 -0.8319
 1393SOL    HW215639   0.638   1.315   5.217  0.6475 -2.8685  0.6513
 1394SOL     OW15640   4.349   1.142   4.524  0.2919  0.1058 -0.1639
 1394SOL    HW115641   4.322   1.232   4.539 -2.0769 -0.9759  2.0781
 1394SOL    HW215642   4.312   1.135   4.436 -0.1004 -0.2296  0.0247
 1395SOL     OW15643   4.187   2.257   9.591  0.0800 -0.2463  0.1936
 1395SOL    HW115644   4.224   2.343   9.611  0.7347  0.2210 -3.0216
 1395SOL    HW215645   4.118   2.237   9.654 -1.9654  0.8808 -1.7153
 1396SOL     OW15646   3.127   1.005   0.924 -0.5610 -0.4702  0.1606
 1396SOL    HW115647   3.154   1.043   0.841 -1.9957 -0.9012 -0.5005
 1396SOL    HW215648   3.183   0.927   0.924  0.1396  0.0246  0.4407
 1397SOL     OW15649   1.637   4.183   4.891  0.3639 -0.0513 -0.6441
 1397SOL    HW115650   1.622   4.132   4.970 -0.1160 -1.6195 -1.7314
 1397SOL    HW215651   1.713   4.236   4.910  0.1547 -0.0268  0.1297
 1398SOL     OW15652   3.888   4.442  16.585 -0.2571  0.8823 -0.3452
 1398SOL    HW115653   3.905   4.433  16.491  0.2884  0.1207 -0.1719
 1398SOL    HW215654   3.865   4.351  16.604 -0.8055  0.5977 -2.3641
 1399SOL     OW15655   0.427   0.062  12.031  0.4697 -0.4872 -0.3136
 1399SOL    HW115656   0.470   0.146  12.046 -1.2192  0.4499 -0.7447
 1399SOL    HW215657   0.406   0.056  11.938 -0.2003 -1.0772 -0.1260
 1400SOL     OW15658   3.518   3.631   6.650 -0.4612  1.0190 -0.0012
 1400SOL    HW115659   3.553   3.678   6.726  3.1079  0.2750 -1.1508
 1400SOL    HW215660   3.470   3.561   6.694 -0.9048  1.0875 -0.3752
 1401SOL     OW15661   4.032   3.609   0.051 -0.3987  0.1761 -0.2835
 1401SOL    HW115662   3.979   3.541   0.093 -0.5760  0.6934  0.3316
 1401SOL    HW215663   4.026   3.671   0.124  1.6165  1.1307 -0.9268
 1402SOL     OW15664   0.352   0.747   3.498 -0.5706  0.2613 -0.1220
 1402SOL    HW115665   0.379   0.676   3.556  0.0776  0.1173 -0.5934
 1402SOL    HW215666   0.363   0.822   3.556 -1.3789 -0.7767  1.3512
 1403SOL     OW15667   4.329   0.797   5.540 -0.5949 -0.2472  0.1028
 1403SOL    HW115668   4.374   0.716   5.515 -2.9915 -1.1865 -1.1894
 1403SOL    HW215669   4.371   0.869   5.493 -1.0982  0.2407  0.4050
 1404SOL     OW15670   2.529   1.222   7.736 -0.3279 -0.0600  0.4956
 1404SOL    HW115671   2.564   1.282   7.802 -0.5378 -0.9760  1.4340
 1404SOL    HW215672   2.456   1.183   7.784 -1.1901  0.1025 -0.6878
 1405SOL     OW15673   1.400   3.072   5.033 -0.1199  0.9288 -0.3301
 1405SOL    HW115674   1.351   3.086   4.952 -0.0576  1.6468 -0.2403
 1405SOL    HW215675   1.330   3.043   5.092 -2.4027  0.6310 -3.1348
 1406SOL     OW15676   0.217   4.567  17.448 -0.2163  0.1557 -0.4115
 1406SOL    HW115677   0.165   4.571  17.368 -0.8955  2.5381  0.1492
 1406SOL    HW215678   0.170   4.491  17.480 -1.2423  1.7893  1.9617
 1407SOL     OW15679   1.102   2.545   0.244 -0.4823 -0.1464 -0.1335
 1407SOL    HW115680   1.166   2.499   0.191 -1.4056  0.5291 -1.8433
 1407SOL    HW215681   1.138   2.633   0.238 -0.7854  0.0527  1.0256
 1408SOL     OW15682   1.346   1.234   7.699  0.4890  0.4936 -0.4584
 1408SOL    HW115683   1.403   1.266   7.629  2.4539  1.2394  1.4937
 1408SOL    HW215684   1.329   1.143   7.674  0.0028  0.7928 -1.2441
 1409SOL     OW15685   0.243   2.375  11.820  0.0374 -0.0563 -0.2640
 1409SOL    HW115686   0.246   2.384  11.915  0.0913  2.1028 -0.4756
 1409SOL    HW215687   0.332   2.368  11.786  0.0975  0.5504 -0.2252
 1410SOL     OW15688   1.399   0.330   0.957  0.5644  0.6733  0.0756
 1410SOL    HW115689   1.435   0.284   1.033 -0.0746 -1.8432 -1.1415
 1410SOL    HW215690   1.341   0.393   1.000  1.9199  2.3241 -0.5120
 1411SOL     OW15691   1.859   0.488   4.601 -0.1528 -0.7630 -0.3485
 1411SOL    HW115692   1.870   0.557   4.536 -0.3048 -1.1077 -0.7427
 1411SOL    HW215693   1.782   0.524   4.645  0.2983 -0.1452 -0.0618
 1412SOL     OW15694   3.648   2.049   3.552 -0.0600 -0.1730  0.6889
 1412SOL    HW115695   3.581   2.028   3.488  0.5947 -0.0164 -0.0476
 1412SOL    HW215696   3.600   2.031   3.633 -0.4223  0.4522  0.6098
 1413SOL     OW15697   3.662   3.518  12.086  0.0499 -0.6851 -0.5454
 1413SOL    HW115698   3.646   3.575  12.161 -3.0757  0.4937 -2.1310
 1413SOL    HW215699   3.694   3.436  12.126  1.4103  0.7011  1.2330
 1414SOL     OW15700   0.333   2.671   5.947 -0.3814 -0.0990  0.1966
 1414SOL    HW115701   0.331   2.592   5.893 -0.4030 -0.8370  1.2666
 1414SOL    HW215702   0.242   2.699   5.957  0.0637  0.7143  2.0537
 1415SOL     OW15703   4.095   3.089   0.742  0.1845 -0.2385 -0.1097
 1415SOL    HW115704   4.036   3.164   0.737  0.2887 -0.0433  1.6222
 1415SOL    HW215705   4.163   3.126   0.798  0.2356  1.3680 -1.2154
 1416SOL     OW15706   3.189   3.763   6.530  0.2926 -0.2703  0.2242
 1416SOL    HW115707   3.115   3.784   6.473  0.2364 -1.9580 -0.3299
 1416SOL    HW215708   3.195   3.840   6.587  2.4414  0.3081 -0.7889
 1417SOL     OW15709   1.163   3.906   5.736 -0.0671  0.4119  0.0814
 1417SOL    HW115710   1.254   3.907   5.766  0.3992 -2.4237 -1.2463
 1417SOL    HW215711   1.145   3.998   5.758 -0.8567  0.8317 -2.2988
 1418SOL     OW15712   0.488   3.966   2.949 -0.0662 -0.0620 -0.1905
 1418SOL    HW115713   0.449   3.892   2.995 -1.2982 -0.2297 -1.4964
 1418SOL    HW215714   0.575   3.931   2.932 -0.6676 -1.9440  0.6583
 1419SOL     OW15715   4.312   2.408   0.921  0.1748  0.1766 -0.1476
 1419SOL    HW115716   4.266   2.379   0.842 -0.3455  1.6538 -0.3789
 1419SOL    HW215717   4.251   2.476   0.948 -0.8088 -1.4106  1.5564
 1420SOL     OW15718   4.084   2.844   4.201  0.2502  0.0056  0.3432
 1420SOL    HW115719   4.023   2.847   4.127  0.0711 -0.4051  0.4735
 1420SOL    HW215720   4.170   2.853   4.160  0.7438 -0.1678  1.3471
 1421SOL     OW15721   3.922   1.245   8.421  0.3012 -0.5221  0.2968
 1421SOL    HW115722   3.966   1.211   8.343  2.3147  1.5699  0.5210
 1421SOL    HW215723   3.885   1.169   8.466  0.1407  0.9749  2.7166
 1422SOL     OW15724   0.298   0.248  14.618  0.0114 -0.4264  0.2517
 1422SOL    HW115725   0.327   0.335  14.646  0.3807 -0.7759  0.9500
 1422SOL    HW215726   0.233   0.280  14.555 -0.8370  0.0160  1.3479
 1423SOL     OW15727   1.012   1.225   3.338 -0.2974  0.0579  0.4315
 1423SOL    HW115728   0.979   1.271   3.261 -0.3936  1.9346  1.5793
 1423SOL    HW215729   1.017   1.301   3.397  0.6824 -1.3934  2.2264
 1424SOL     OW15730   3.365   3.035   3.189 -0.3983 -0.4378 -0.2001
 1424SOL    HW115731   3.422   2.980   3.243  0.0166  0.4210  0.2357
 1424SOL    HW215732   3.324   2.969   3.134  0.3765  1.2312 -2.7572
 1425SOL     OW15733   1.395   0.185   1.210 -0.2842 -0.2590  0.2278
 1425SOL    HW115734   1.394   0.153   1.300 -2.3224  0.6158  0.5189
 1425SOL    HW215735   1.338   0.122   1.166  0.3878 -2.0835  2.0025
 1426SOL     OW15736   0.436   0.871   1.308 -0.1720  0.1838  0.3100
 1426SOL    HW115737   0.366   0.840   1.365 -0.1349 -0.9304 -0.2444
 1426SOL    HW215738   0.491   0.905   1.379  1.0968  1.0837 -1.1070
 1427SOL     OW15739   3.183   3.840   2.418  0.4121  0.0644  0.0170
 1427SOL    HW115740   3.156   3.751   2.437  0.6398 -0.0068 -0.0001
 1427SOL    HW215741   3.275   3.816   2.412  0.2407 -0.7038  0.4874
 1428SOL     OW15742   2.490   2.739  10.296 -0.0027 -0.2182  0.0002
 1428SOL    HW115743   2.412   2.728  10.242  1.0178 -0.8445 -1.3420
 1428SOL    HW215744   2.498   2.834  10.302 -2.9678 -0.1039  2.3909
 1429SOL     OW15745   3.332   2.057  10.102 -0.5488  0.5572 -0.1410
 1429SOL    HW115746   3.276   1.988  10.065  0.2843 -0.2420  0.0832
 1429SOL    HW215747   3.303   2.047  10.193  0.5522 -1.5553 -0.0301
 1430SOL     OW15748   0.326   4.285   2.731  0.9623 -0.4813  0.3128
 1430SOL    HW115749   0.264   4.230   2.779  0.0175 -1.5562 -2.1141
 1430SOL    HW215750   0.276   4.367   2.728  0.5423 -0.7098  1.0488
 1431SOL     OW15751   3.079   0.541  14.790 -0.4008 -0.2038  0.1464
 1431SOL    HW115752   3.109   0.479  14.856  1.3730 -0.5522 -1.0078
 1431SOL    HW215753   3.154   0.596  14.770  0.7600 -1.4583  1.0510
 1432SOL     OW15754   1.551   1.370  13.449  0.2409  0.2098  0.0585
 1432SOL    HW115755   1.621   1.424  13.488  0.2573 -1.1397  1.8853
 1432SOL    HW215756   1.600   1.291  13.428 -1.6809 -1.1832  0.8792
 1433SOL     OW15757   4.545   3.651   9.023 -0.8444  0.3298  0.2204
 1433SOL    HW115758   4.480   3.619   8.961 -0.4035 -1.5266  0.6920
 1433SOL    HW215759   4.622   3.603   8.993 -0.9140 -0.4811  1.3082
 1434SOL     OW15760   0.913   3.860   4.695 -0.1581 -0.4811 -0.4010
 1434SOL    HW115761   0.879   3.807   4.766 -0.7534 -0.0717 -0.3819
 1434SOL    HW215762   0.882   3.804   4.623 -2.2675  1.6315 -1.1296
 1435SOL     OW15763   3.058   3.283  17.123  0.1560 -0.3523 -0.1079
 1435SOL    HW115764   3.057   3.323  17.210  1.6839 -2.6476  0.9565
 1435SOL    HW215765   2.982   3.225  17.122 -1.0158  1.1424  1.4807
 1436SOL     OW15766   0.490   3.174   7.391  0.0480 -0.4247 -0.2068
 1436SOL    HW115767   0.516   3.085   7.416  1.3176 -0.0885 -0.3709
 1436SOL    HW215768   0.548   3.185   7.316  0.3541 -1.7862 -0.1739
 1437SOL     OW15769   2.418   2.367   7.809 -0.4966  0.0104 -0.3553
 1437SOL    HW115770   2.389   2.446   7.764 -3.2513 -0.9506 -0.2594
 1437SOL    HW215771   2.345   2.306   7.798 -1.0562  0.6787 -0.2860
 1438SOL     OW15772   3.014   4.355  11.068 -0.1545 -0.2110  0.1629
 1438SOL    HW115773   3.105   4.374  11.088 -0.2049 -0.2322  0.4197
 1438SOL    HW215774   2.959   4.409  11.125  0.8090  2.1062 -1.0989
 1439SOL     OW15775   1.239   3.080   0.758 -0.2354 -0.2048  0.0208
 1439SOL    HW115776   1.271   2.990   0.750  2.1876  0.7618 -1.1359
 1439SOL    HW215777   1.306   3.134   0.715  1.2397  0.9251  3.7319
 1440SOL     OW15778   4.410   1.639   5.805  0.1090 -0.4567  0.1407
 1440SOL    HW115779   4.441   1.606   5.721  1.8629  0.3908  0.4603
 1440SOL    HW215780   4.374   1.555   5.833  0.9087 -0.4944  1.0344
 1441SOL     OW15781   0.121   0.455  14.370  0.9043 -0.3952 -0.3904
 1441SOL    HW115782   0.031   0.487  14.381  1.3501  0.4588  0.8386
 1441SOL    HW215783   0.104   0.361  14.374  1.3021 -0.5391 -1.9943
 1442SOL     OW15784   0.830   0.375  14.084 -0.0998 -0.2163 -0.4837
 1442SOL    HW115785   0.753   0.418  14.123  0.0821 -1.1002  0.8406
 1442SOL    HW215786   0.794   0.288  14.099  0.4772 -0.6984 -1.9675
 1443SOL     OW15787   3.268   2.739   8.372 -0.4906  0.2273  0.1355
 1443SOL    HW115788   3.251   2.778   8.287  0.6517  2.2950  0.8500
 1443SOL    HW215789   3.299   2.653   8.343  1.5033  0.0356  2.7676
 1444SOL     OW15790   1.650   2.429   7.987 -0.0094 -0.0456 -0.2018
 1444SOL    HW115791   1.589   2.357   8.007 -0.0126 -0.0490 -0.2240
 1444SOL    HW215792   1.674   2.412   7.896  2.5648  0.9682  0.3138
 1445SOL     OW15793   3.453   2.070  16.610 -0.6055 -0.0499  0.1329
 1445SOL    HW115794   3.431   2.058  16.702  2.0051 -0.0387  0.7698
 1445SOL    HW215795   3.368   2.087  16.570 -0.4944 -2.5699 -1.1443
 1446SOL     OW15796   4.357   4.598   2.290 -0.1009 -0.2186  0.0386
 1446SOL    HW115797   4.300   4.551   2.351  0.2159 -2.5459 -1.4533
 1446SOL    HW215798   4.418   4.529   2.262  1.8437  0.5834  2.2754
 1447SOL     OW15799   4.640   2.171  17.108 -0.3901  0.2097  0.1598
 1447SOL    HW115800   4.584   2.151  17.183  1.9587 -0.1407  1.8340
 1447SOL    HW215801   4.663   2.079  17.093 -1.5925 -0.5838  3.0639
 1448SOL     OW15802   1.915   4.572   1.430  0.0695 -0.1709 -0.1580
 1448SOL    HW115803   1.999   4.601   1.466  0.2025 -0.6496 -0.0804
 1448SOL    HW215804   1.949   4.518   1.358  0.8592  2.4477 -1.7324
 1449SOL     OW15805   3.465   1.755   0.967  0.1089  0.6578  0.7943
 1449SOL    HW115806   3.547   1.803   0.980  1.7941 -2.3246  1.2345
 1449SOL    HW215807   3.405   1.829   0.974 -0.7147  0.1739 -1.3615
 1450SOL     OW15808   3.325   1.122   1.128  1.0196 -0.0587  0.0507
 1450SOL    HW115809   3.243   1.074   1.134 -0.0206  2.2161  3.8783
 1450SOL    HW215810   3.309   1.206   1.171  1.0342 -0.7907  1.4815
 1451SOL     OW15811   3.630   0.213   2.370  0.3068  0.2843  0.4053
 1451SOL    HW115812   3.550   0.248   2.329  0.4394 -1.6160 -1.4665
 1451SOL    HW215813   3.576   0.141   2.402 -0.3093 -0.4093 -2.1203
 1452SOL     OW15814   3.121   0.110  12.063  0.1817 -0.4050 -0.3123
 1452SOL    HW115815   3.161   0.036  12.108  0.9116 -1.4946 -2.7702
 1452SOL    HW215816   3.061   0.136  12.132  0.1894  1.0067 -0.8319
 1453SOL     OW15817   1.692   3.484   7.427  0.2629  0.6397 -0.2163
 1453SOL    HW115818   1.605   3.454   7.402  0.4895 -1.2554  1.2515
 1453SOL    HW215819   1.676   3.541   7.502  0.5285  1.7313 -0.9878
 1454SOL     OW15820   4.548   3.578   9.328 -0.0821 -0.0079 -0.6379
 1454SOL    HW115821   4.641   3.596   9.344 -0.6458  1.3686  1.1002
 1454SOL    HW215822   4.529   3.658   9.279  0.8877  1.8345  1.9963
 1455SOL     OW15823   0.180   1.856   8.104 -0.0410  0.0510  0.4939
 1455SOL    HW115824   0.210   1.781   8.156  1.0033  0.7772  0.9360
 1455SOL    HW215825   0.116   1.823   8.041  0.1735  0.8444 -0.1327
 1456SOL     OW15826   0.830   2.273   5.035 -0.4356  0.2548 -0.9902
 1456SOL    HW115827   0.874   2.217   4.972  0.2035  0.7994 -1.0305
 1456SOL    HW215828   0.842   2.355   4.985  0.8159  0.2689 -0.6705
 1457SOL     OW15829   2.622   2.471   7.543  0.6568 -0.0244 -0.3485
 1457SOL    HW115830   2.652   2.471   7.452 -0.6810 -3.0454 -0.7985
 1457SOL    HW215831   2.627   2.566   7.559 -0.8503 -0.4087  2.3593
 1458SOL     OW15832   2.021   0.021   4.149  0.1610 -0.2294  0.0370
 1458SOL    HW115833   2.110   0.043   4.177  0.3181 -1.2241  0.3217
 1458SOL    HW215834   1.969   0.065   4.217 -0.7287 -1.0843 -0.0881
 1459SOL     OW15835   0.009   2.715   8.030  0.0032  0.0343  0.2383
 1459SOL    HW115836   0.021   2.670   7.947 -0.1386 -0.4646  0.4902
 1459SOL    HW215837   0.032   2.807   8.017  0.9758 -0.0703  1.2224
 1460SOL     OW15838   3.851   2.207   6.254  0.0166  0.0183  0.3135
 1460SOL    HW115839   3.940   2.220   6.221  0.2125 -0.8414  0.4896
 1460SOL    HW215840   3.825   2.297   6.275  0.0439 -0.3076  1.7631
 1461SOL     OW15841   3.690   3.821   5.994  0.2122 -0.0651 -0.1246
 1461SOL    HW115842   3.687   3.840   6.088 -2.6184  0.3022 -0.2822
 1461SOL    HW215843   3.781   3.835   5.970 -0.0831  1.3551 -0.4088
 1462SOL     OW15844   3.473   3.698   2.899  0.5496  0.1662 -0.0438
 1462SOL    HW115845   3.545   3.721   2.840 -0.5651  0.8704 -1.1333
 1462SOL    HW215846   3.416   3.671   2.826  0.5873  0.5716 -0.2249
 1463SOL     OW15847   0.697   1.699   9.655  0.0908 -0.2917 -0.0422
 1463SOL    HW115848   0.683   1.640   9.729 -1.0412  2.5182  1.9865
 1463SOL    HW215849   0.709   1.634   9.586 -1.4598  0.3908 -0.9582
 1464SOL     OW15850   3.350   0.578   3.545 -0.3677 -0.3650 -0.6766
 1464SOL    HW115851   3.418   0.569   3.478  1.6674 -0.2799  1.4073
 1464SOL    HW215852   3.395   0.593   3.628 -2.8448  1.1155  0.3964
 1465SOL     OW15853   1.230   0.135  14.880 -0.0360 -0.3436  0.5208
 1465SOL    HW115854   1.256   0.071  14.814 -1.5948 -0.0804 -0.3266
 1465SOL    HW215855   1.257   0.088  14.959  2.2908  1.3721  0.7649
 1466SOL     OW15856   3.649   0.267  10.014 -0.2858 -0.3908  0.8227
 1466SOL    HW115857   3.554   0.261  10.011 -0.2627  0.1904 -1.4535
 1466SOL    HW215858   3.657   0.346  10.067  1.0450  0.6204 -0.8405
 1467SOL     OW15859   0.829   4.601   3.288  0.3848 -0.1813  0.1881
 1467SOL    HW115860   0.818   4.551   3.207  1.3285 -0.8832  0.4943
 1467SOL    HW215861   0.837   4.526   3.347  0.0189 -0.4303 -0.0825
 1468SOL     OW15862   1.196   1.635   6.673  0.3079  0.3612  0.1122
 1468SOL    HW115863   1.181   1.607   6.763  1.2552  1.2419  0.5460
 1468SOL    HW215864   1.193   1.731   6.679 -0.4808  0.2204  1.8836
 1469SOL     OW15865   3.137   1.155   9.482  0.1309 -0.3538  0.3211
 1469SOL    HW115866   3.109   1.234   9.435  1.3603 -0.3032 -0.3229
 1469SOL    HW215867   3.214   1.190   9.527  0.0471 -2.7301  2.2748
 1470SOL     OW15868   3.351   4.132  17.367 -0.7812 -0.5659 -0.1145
 1470SOL    HW115869   3.283   4.189  17.332 -0.2279  0.5811  0.6807
 1470SOL    HW215870   3.291   4.072  17.413 -1.1072  0.2466  0.5137
 1471SOL     OW15871   2.027   0.983  16.228 -1.0606  0.3303  0.4608
 1471SOL    HW115872   2.013   0.911  16.166 -1.3705  0.9202 -0.1544
 1471SOL    HW215873   2.076   0.935  16.295 -0.7042  1.8861  1.2933
 1472SOL     OW15874   1.252   0.261   6.127 -0.2471  0.5849 -0.0598
 1472SOL    HW115875   1.214   0.348   6.110 -0.8938  0.2853 -0.1376
 1472SOL    HW215876   1.336   0.273   6.083  0.1172  1.1631  0.7908
 1473SOL     OW15877   3.754   1.021   7.619  0.4488  0.6951 -0.3942
 1473SOL    HW115878   3.829   0.998   7.675 -0.2580  0.9204  0.6508
 1473SOL    HW215879   3.710   0.937   7.618 -1.1897  1.5064  2.2471
 1474SOL     OW15880   1.231   4.238   2.234 -0.3917 -0.0376  0.0140
 1474SOL    HW115881   1.298   4.211   2.171 -0.3195 -2.4323  1.1186
 1474SOL    HW215882   1.188   4.154   2.252  0.1489 -0.6326 -1.4686
 1475SOL     OW15883   3.873   0.461   5.358 -0.0209 -0.4664 -0.2345
 1475SOL    HW115884   3.925   0.438   5.281  1.0942 -0.6894  0.5925
 1475SOL    HW215885   3.938   0.479   5.425  1.4483 -0.9983 -1.5215
 1476SOL     OW15886   2.563   0.798   7.007 -0.0870 -0.1141 -0.1749
 1476SOL    HW115887   2.576   0.839   7.093  3.9944  0.0825 -0.8557
 1476SOL    HW215888   2.491   0.849   6.970  0.1670  0.3300 -0.0570
 1477SOL     OW15889   2.429   3.822   6.709 -0.2628 -0.2324  0.5036
 1477SOL    HW115890   2.412   3.839   6.616 -1.2445  1.5581  1.0166
 1477SOL    HW215891   2.511   3.776   6.690  0.2914  1.2702 -0.7361
 1478SOL     OW15892   2.099   1.404   2.335  0.1785 -0.6529 -0.1673
 1478SOL    HW115893   2.036   1.337   2.310 -0.5215  0.1141 -0.4585
 1478SOL    HW215894   2.137   1.425   2.250 -2.3735  1.3781 -0.8109
 1479SOL     OW15895   2.360   0.329  11.388  0.5322  0.4028  0.1106
 1479SOL    HW115896   2.305   0.252  11.372  0.2216  0.4316  1.0396
 1479SOL    HW215897   2.379   0.362  11.300  0.4175  0.8220  0.2438
 1480SOL     OW15898   3.068   2.500  15.348 -0.2411 -0.3164  0.6885
 1480SOL    HW115899   3.139   2.473  15.289 -0.9389  0.0162 -0.3072
 1480SOL    HW215900   2.992   2.504  15.289  0.1894 -0.0558  0.1525
 1481SOL     OW15901   2.146   2.732  14.488  0.3212  0.4012 -0.3979
 1481SOL    HW115902   2.140   2.650  14.438  1.2461 -0.4555  0.8766
 1481SOL    HW215903   2.210   2.779  14.434  0.6769  1.5749  1.0452
 1482SOL     OW15904   0.265   1.644   8.235  0.0123 -0.5603  0.4660
 1482SOL    HW115905   0.357   1.636   8.261 -0.4440 -1.3827  1.8724
 1482SOL    HW215906   0.222   1.613   8.315 -0.5286  3.4234  1.7749
 1483SOL     OW15907   1.752   4.482  10.971  0.1281  0.1929  0.0322
 1483SOL    HW115908   1.687   4.438  10.915 -1.1277  0.2285  1.4563
 1483SOL    HW215909   1.787   4.538  10.902 -1.6636 -0.8579 -1.7490
 1484SOL     OW15910   2.231   3.687   6.911 -0.5340 -0.2495 -0.3479
 1484SOL    HW115911   2.248   3.604   6.867 -3.0912 -0.0919 -1.5991
 1484SOL    HW215912   2.294   3.751   6.878 -0.5046  1.4217  2.8793
 1485SOL     OW15913   2.965   0.059  14.624  0.6093 -0.5807 -0.0604
 1485SOL    HW115914   2.909   0.127  14.662  3.1941  1.7540 -0.4922
 1485SOL    HW215915   3.046   0.081  14.669  1.2319 -0.6103 -1.1892
 1486SOL     OW15916   2.414   1.646   3.468  0.1618 -0.4959  0.0565
 1486SOL    HW115917   2.337   1.596   3.493  0.3547 -1.3104 -0.9754
 1486SOL    HW215918   2.374   1.714   3.415 -0.4826 -1.9307 -1.2937
 1487SOL     OW15919   1.409   3.844  10.843 -0.3621  0.6873  0.2028
 1487SOL    HW115920   1.469   3.885  10.904  1.7908 -1.7865 -0.2463
 1487SOL    HW215921   1.375   3.913  10.786 -3.4399 -0.8431  0.1664
 1488SOL     OW15922   3.972   2.671   8.196 -0.1486  0.6937  0.5794
 1488SOL    HW115923   3.994   2.580   8.176 -1.1815 -0.0255  2.7105
 1488SOL    HW215924   3.972   2.664   8.291  2.7472  0.4066  0.5817
 1489SOL     OW15925   2.889   3.090   4.822  0.2816 -0.0823 -0.4056
 1489SOL    HW115926   2.951   3.115   4.890  1.2264 -1.2035 -0.8501
 1489SOL    HW215927   2.831   3.166   4.817  0.3846  0.0637  0.5972
 1490SOL     OW15928   2.044   1.697   5.103  0.2822  0.6785  0.0236
 1490SOL    HW115929   2.009   1.623   5.052  1.0271 -0.3960  1.0760
 1490SOL    HW215930   2.029   1.669   5.193  0.5873  2.2761  0.5762
 1491SOL     OW15931   2.388   3.949   6.462  0.4448 -0.2328 -0.3740
 1491SOL    HW115932   2.481   3.963   6.443  0.8472 -0.7451  1.2224
 1491SOL    HW215933   2.339   4.021   6.420 -1.4148 -0.7607  0.9171
 1492SOL     OW15934   3.888   4.092   4.513 -0.0116 -0.7628  0.1872
 1492SOL    HW115935   3.911   4.089   4.420 -0.5411 -0.7535  0.0560
 1492SOL    HW215936   3.832   4.014   4.514  0.3544 -1.0384 -0.4352
 1493SOL     OW15937   1.430   2.907  17.121  0.2464 -0.7643 -0.0687
 1493SOL    HW115938   1.359   2.940  17.067  0.2554 -0.7421 -0.0669
 1493SOL    HW215939   1.387   2.918  17.206 -0.6917 -1.8835 -0.4033
 1494SOL     OW15940   1.498   0.866  10.486  0.5484 -0.0832  0.1357
 1494SOL    HW115941   1.529   0.927  10.553 -2.5109  1.0519  0.5106
 1494SOL    HW215942   1.584   0.851  10.445  1.2071 -0.8533  1.7743
 1495SOL     OW15943   2.824   1.520   3.883 -0.4522 -0.3226 -0.3616
 1495SOL    HW115944   2.855   1.529   3.973  1.0837  0.3773 -0.9546
 1495SOL    HW215945   2.893   1.572   3.840  0.3845  0.0312  1.4187
 1496SOL     OW15946   2.117   2.730  10.642  0.1622  0.7964  0.1716
 1496SOL    HW115947   2.068   2.808  10.669 -1.4921 -0.5329  1.0038
 1496SOL    HW215948   2.045   2.687  10.595  1.9949 -1.8438 -0.2340
 1497SOL     OW15949   2.649   2.879  12.698  0.1249 -0.6321  0.0861
 1497SOL    HW115950   2.687   2.802  12.741  1.6630  0.6895  1.0797
 1497SOL    HW215951   2.735   2.916  12.679 -1.4145  1.6091 -2.4521
 1498SOL     OW15952   3.772   3.797   3.344 -0.3863 -0.1606 -0.0511
 1498SOL    HW115953   3.728   3.725   3.299 -2.4618  1.0063  0.1131
 1498SOL    HW215954   3.728   3.867   3.296  1.2608  0.3368 -0.8507
 1499SOL     OW15955   4.133   3.336  13.172 -0.4888  0.1978 -0.2238
 1499SOL    HW115956   4.170   3.391  13.242  1.2774 -1.4187  0.1070
 1499SOL    HW215957   4.058   3.295  13.214 -1.0193  2.4977  1.1033
 1500SOL     OW15958   2.382   2.878  13.569  0.2783  0.0786 -0.1583
 1500SOL    HW115959   2.304   2.827  13.548 -0.2285  1.6752 -2.1502
 1500SOL    HW215960   2.398   2.846  13.658 -0.5971 -2.3941 -0.9162
 1501SOL     OW15961   1.185   4.120  16.180 -0.0954 -0.0167 -0.3925
 1501SOL    HW115962   1.162   4.083  16.096 -0.3049 -0.4525 -0.1400
 1501SOL    HW215963   1.279   4.115  16.198 -0.4295  0.9906  1.6886
 1502SOL     OW15964   2.940   2.169   0.406 -0.3749 -0.9460 -0.0835
 1502SOL    HW115965   2.921   2.075   0.409  2.7525 -1.5720  0.5509
 1502SOL    HW215966   3.020   2.179   0.458 -0.8987 -1.7403  0.8904
 1503SOL     OW15967   4.402   1.478  17.660 -0.5910  0.2364 -0.3859
 1503SOL    HW115968   4.373   1.412  17.597 -2.2184  1.3507 -0.7878
 1503SOL    HW215969   4.462   1.529  17.605 -1.6917  1.5960 -0.3024
 1504SOL     OW15970   3.733   4.531   4.351 -0.8277 -0.1823 -0.0586
 1504SOL    HW115971   3.741   4.448   4.398 -1.3138  0.8478  1.8444
 1504SOL    HW215972   3.826   4.552   4.360 -1.0808  0.2955  1.4759
 1505SOL     OW15973   3.032   3.701   4.399  0.7213  0.2593 -0.3851
 1505SOL    HW115974   3.126   3.700   4.419  0.7504  0.0550 -0.5228
 1505SOL    HW215975   3.003   3.778   4.447 -1.4144 -0.0558 -1.1792
 1506SOL     OW15976   4.111   0.434  13.241 -0.2001 -0.1673 -0.9059
 1506SOL    HW115977   4.143   0.448  13.330 -1.6081  0.7103 -0.5255
 1506SOL    HW215978   4.133   0.342  13.232 -1.1188 -0.4614 -0.1942
 1507SOL     OW15979   0.145   0.190  14.279  0.7298 -0.2525 -0.6199
 1507SOL    HW115980   0.067   0.201  14.224  0.2605 -0.9495 -0.0830
 1507SOL    HW215981   0.196   0.133  14.221  0.7780  0.1484 -0.9747
 1508SOL     OW15982   1.538   1.113   6.047 -0.0112 -0.5537 -0.1791
 1508SOL    HW115983   1.620   1.131   6.001 -0.9679  0.1068 -1.6362
 1508SOL    HW215984   1.505   1.199   6.074  1.2302 -0.7088  1.7862
 1509SOL     OW15985   1.649   1.391   5.244 -0.3228  0.5402 -0.3141
 1509SOL    HW115986   1.574   1.336   5.218 -0.3838 -0.2855  1.5992
 1509SOL    HW215987   1.633   1.473   5.199  0.1558  1.3618  0.9995
 1510SOL     OW15988   3.121   0.407   2.007 -0.3828 -0.2728  0.0240
 1510SOL    HW115989   3.080   0.440   2.087 -0.8481 -0.6381 -0.0631
 1510SOL    HW215990   3.215   0.420   2.021 -0.0585  0.2443 -2.6202
 1511SOL     OW15991   3.878   1.643   9.153 -0.2501 -0.2823 -0.7693
 1511SOL    HW115992   3.840   1.730   9.139  1.3358  0.5573  0.0683
 1511SOL    HW215993   3.966   1.658   9.117 -1.0824  2.2252 -1.7538
 1512SOL     OW15994   2.793   0.631  12.113  0.5247 -0.8260  0.0606
 1512SOL    HW115995   2.782   0.559  12.051 -1.0795 -0.8652  0.4035
 1512SOL    HW215996   2.819   0.582  12.191  1.5704 -1.9924 -0.9948
 1513SOL     OW15997   4.034   1.272  10.022 -0.5273 -0.1993 -0.2164
 1513SOL    HW115998   4.089   1.201  10.053 -2.1059 -0.7286  1.3755
 1513SOL    HW215999   4.004   1.237   9.938 -1.9378  0.8141 -0.1325
 1514SOL     OW16000   2.770   0.896   7.712 -0.3412 -0.3466 -1.0141
 1514SOL    HW116001   2.809   0.823   7.762 -1.7856 -0.6358 -0.3212
 1514SOL    HW216002   2.803   0.965   7.770 -2.6092  0.8522 -1.1655
 1515SOL     OW16003   0.427   1.709  15.835 -0.1751  0.0920  0.0342
 1515SOL    HW116004   0.388   1.635  15.880  0.7054 -1.0211 -1.0072
 1515SOL    HW216005   0.403   1.697  15.743  1.5573 -0.9307 -0.2946
 1516SOL     OW16006   4.634   3.239   2.350 -0.0715 -0.0715 -0.5484
 1516SOL    HW116007   4.700   3.198   2.293  0.5398  1.4042 -0.8949
 1516SOL    HW216008   4.560   3.211   2.296 -0.8253 -2.1874  1.5589
 1517SOL     OW16009   0.787   1.172   4.617  0.3754 -0.6226  0.2474
 1517SOL    HW116010   0.709   1.181   4.671 -0.5642 -2.3383 -0.8001
 1517SOL    HW216011   0.857   1.193   4.678  0.2969  2.3114 -0.7149
 1518SOL     OW16012   3.380   4.469   1.857  0.4624  0.2426 -0.1533
 1518SOL    HW116013   3.383   4.456   1.762  2.2916 -2.7470  0.3313
 1518SOL    HW216014   3.327   4.549   1.863 -1.0182 -0.5341 -2.7087
 1519SOL     OW16015   2.247   1.903   9.252 -0.1828  0.0935  0.1566
 1519SOL    HW116016   2.264   1.850   9.330  0.9313 -1.2984 -1.0358
 1519SOL    HW216017   2.306   1.975   9.272  0.7052 -0.6483  0.2209
 1520SOL     OW16018   3.979   3.437   6.177 -0.1717 -0.6195  0.1668
 1520SOL    HW116019   3.945   3.348   6.165 -0.9746  0.0146 -2.3028
 1520SOL    HW216020   3.897   3.483   6.195  0.4463  0.0847  1.1543
 1521SOL     OW16021   1.736   3.483   4.468  0.2464  0.2695 -0.0050
 1521SOL    HW116022   1.736   3.544   4.394 -2.5183  0.6492  0.2966
 1521SOL    HW216023   1.681   3.415   4.428 -0.5532  1.2536 -0.5991
 1522SOL     OW16024   3.122   0.342   7.838  0.8166 -0.3264 -0.2303
 1522SOL    HW116025   3.084   0.414   7.888  1.3658 -0.8295  0.8901
 1522SOL    HW216026   3.075   0.357   7.755  2.3859 -1.8142 -1.3900
 1523SOL     OW16027   0.497   0.708  17.210  0.1989  0.3198 -0.2119
 1523SOL    HW116028   0.482   0.617  17.234  2.1796  0.9115  3.1524
 1523SOL    HW216029   0.499   0.753  17.294 -2.6142 -0.1198  0.0799
 1524SOL     OW16030   1.348   3.612  14.657  0.3964  0.1012  0.4528
 1524SOL    HW116031   1.417   3.657  14.706  2.2719 -0.5399 -1.5569
 1524SOL    HW216032   1.397   3.544  14.610  0.2215 -1.3257  2.3295
 1525SOL     OW16033   0.876   4.005  16.397 -0.4861  0.1605 -0.3276
 1525SOL    HW116034   0.946   3.945  16.370  0.8632  0.3924  2.6915
 1525SOL    HW216035   0.856   3.948  16.471 -1.8492  2.1549  0.8361
 1526SOL     OW16036   0.611   0.693   7.138 -0.2684  0.6936  0.1827
 1526SOL    HW116037   0.519   0.717   7.146 -0.0435  2.2585 -1.8567
 1526SOL    HW216038   0.640   0.768   7.086 -1.7089  0.7232 -0.5820
 1527SOL     OW16039   3.280   2.615   9.060 -0.2071  0.5639  0.2448
 1527SOL    HW116040   3.359   2.668   9.050 -0.0574  0.2648 -0.1135
 1527SOL    HW216041   3.218   2.687   9.048 -0.3776  0.1439 -1.3407
 1528SOL     OW16042   4.163   1.421  12.499 -0.4953 -0.3128 -0.2614
 1528SOL    HW116043   4.151   1.476  12.421  1.0223 -2.0526 -1.7181
 1528SOL    HW216044   4.141   1.333  12.470 -3.5026  1.0948 -2.2008
 1529SOL     OW16045   3.217   1.101   5.852 -0.0711  0.1853 -0.0616
 1529SOL    HW116046   3.151   1.119   5.785 -0.8345 -1.1544  0.3500
 1529SOL    HW216047   3.291   1.082   5.794 -0.6637 -1.5843 -0.2295
 1530SOL     OW16048   2.281   1.952   1.952 -0.3168  0.2257 -0.0147
 1530SOL    HW116049   2.289   2.033   1.901 -2.2738 -0.1891 -0.9755
 1530SOL    HW216050   2.268   1.977   2.043 -1.4866 -1.2460  0.2078
 1531SOL     OW16051   3.354   2.276   4.616 -0.1837 -0.2917  0.0793
 1531SOL    HW116052   3.389   2.300   4.530 -0.9103 -0.2946 -0.2132
 1531SOL    HW216053   3.279   2.220   4.596 -1.0852  0.5883  0.9998
 1532SOL     OW16054   1.633   4.071   3.712  0.6846 -0.1790 -0.3356
 1532SOL    HW116055   1.539   4.071   3.728  0.7835 -0.2577  0.2359
 1532SOL    HW216056   1.650   4.154   3.666 -1.4379  0.6869  0.4419
 1533SOL     OW16057   1.719   1.918   3.912  1.2876  0.3914  0.2679
 1533SOL    HW116058   1.635   1.878   3.891  0.5501  1.9956  0.1145
 1533SOL    HW216059   1.778   1.845   3.892  0.7695  0.3044 -0.9455
 1534SOL     OW16060   0.117   2.657   6.471 -0.1413 -0.0666  0.1565
 1534SOL    HW116061   0.131   2.633   6.563  1.4909  1.7673  0.3792
 1534SOL    HW216062   0.115   2.573   6.425  0.3304  1.1046 -1.9716
 1535SOL     OW16063   2.645   3.266   4.407 -0.1850 -0.0088  0.2814
 1535SOL    HW116064   2.722   3.221   4.440 -1.8579 -4.1432 -1.4421
 1535SOL    HW216065   2.578   3.227   4.464 -0.8298  2.7404  1.3656
 1536SOL     OW16066   3.403   1.232   7.871 -0.2292  0.1094  0.6328
 1536SOL    HW116067   3.369   1.297   7.809  1.2898  0.7976  0.5207
 1536SOL    HW216068   3.456   1.287   7.928  0.3245  1.8994 -1.5984
 1537SOL     OW16069   0.477   3.795   5.693  0.1635  0.1988 -0.6532
 1537SOL    HW116070   0.497   3.701   5.690  0.1591  0.1738  0.1594
 1537SOL    HW216071   0.497   3.811   5.785  0.3990 -0.5129 -0.5769
 1538SOL     OW16072   2.701   1.469   4.883  0.2296  0.4363 -0.0285
 1538SOL    HW116073   2.697   1.526   4.960 -1.5236  2.3087 -1.5297
 1538SOL    HW216074   2.794   1.475   4.861  0.2587 -2.4141 -0.6646
 1539SOL     OW16075   0.402   3.313   4.459  0.8070 -0.2722  0.2433
 1539SOL    HW116076   0.312   3.315   4.426  0.7978 -1.7257  0.1756
 1539SOL    HW216077   0.437   3.402   4.449 -2.3748  0.8180 -1.0656
 1540SOL     OW16078   1.401   3.498   4.090  0.0161 -0.5173 -0.4278
 1540SOL    HW116079   1.324   3.475   4.039 -0.2063 -2.2838  0.7021
 1540SOL    HW216080   1.413   3.585   4.052  2.6527 -1.3894 -1.6190
 1541SOL     OW16081   4.024   3.430  12.555  0.4766 -0.2218  0.3930
 1541SOL    HW116082   4.040   3.509  12.607  1.6144 -0.4329  0.3718
 1541SOL    HW216083   3.976   3.481  12.490  1.0863  1.5755  1.3543
 1542SOL     OW16084   0.330   0.724   0.985 -0.0141 -0.5518 -0.0113
 1542SOL    HW116085   0.247   0.755   1.022 -0.0141  1.1085 -1.4114
 1542SOL    HW216086   0.306   0.639   0.948 -0.1229 -0.0639 -1.0395
 1543SOL     OW16087   1.712   4.603   0.479  0.8214  0.2697 -0.0004
 1543SOL    HW116088   1.727   4.523   0.529 -2.0390 -2.3153 -3.2979
 1543SOL    HW216089   1.629   4.588   0.434  0.6918 -1.0019  0.6473
 1544SOL     OW16090   0.616   3.559   5.712  0.6173 -0.6731 -0.3096
 1544SOL    HW116091   0.613   3.464   5.729  0.3747 -0.6715 -0.3495
 1544SOL    HW216092   0.701   3.579   5.753  0.5597 -0.9999 -0.0266
 1545SOL     OW16093   4.267   2.726   4.699 -0.2753  0.4450 -0.5572
 1545SOL    HW116094   4.356   2.702   4.724  0.2068  2.6636 -0.2113
 1545SOL    HW216095   4.244   2.773   4.779 -0.1420 -0.2996 -0.0774
 1546SOL     OW16096   0.019   2.293  15.790  0.5261 -0.5468 -0.9018
 1546SOL    HW116097   0.025   2.308  15.885 -0.0713  0.9269 -1.1075
 1546SOL    HW216098   4.652   2.306  15.766 -0.1301 -1.5841  1.0236
 1547SOL     OW16099   2.886   1.069   1.014  0.0959  0.1445 -0.3192
 1547SOL    HW116100   2.826   1.095   0.945 -0.8766 -1.5964 -0.1171
 1547SOL    HW216101   2.972   1.065   0.973  0.2190  0.4262 -0.0925
 1548SOL     OW16102   3.620   3.038   5.597  0.5912  0.5948  0.2727
 1548SOL    HW116103   3.693   3.018   5.655  1.1107  1.2861 -0.1465
 1548SOL    HW216104   3.551   2.981   5.632 -0.1959  0.8894 -0.8106
 1549SOL     OW16105   2.961   0.951  10.768 -0.1714 -0.3320 -0.2054
 1549SOL    HW116106   2.919   0.869  10.795  0.6131 -0.6432  0.0875
 1549SOL    HW216107   3.015   0.974  10.843 -2.5832  3.2410  0.3828
 1550SOL     OW16108   0.642   1.484  11.847 -0.2964  0.2371 -0.1633
 1550SOL    HW116109   0.663   1.411  11.788  2.4790 -0.3790  1.6051
 1550SOL    HW216110   0.570   1.526  11.800  0.5753  1.1767 -0.6507
 1551SOL     OW16111   2.098   1.568   5.922 -0.0421  0.3344  0.2826
 1551SOL    HW116112   2.097   1.651   5.970  1.4647  0.3063  0.3820
 1551SOL    HW216113   2.041   1.595   5.851  0.2817 -2.6341 -1.1294
 1552SOL     OW16114   4.435   0.513   3.090 -0.1988 -0.3435  0.1098
 1552SOL    HW116115   4.500   0.458   3.133  0.4005 -0.5751 -1.0804
 1552SOL    HW216116   4.489   0.546   3.018 -2.8249 -1.1111 -2.1833
 1553SOL     OW16117   1.333   1.619   4.652 -0.1561  0.3190 -0.0237
 1553SOL    HW116118   1.385   1.699   4.643 -0.4327  0.3460 -1.3829
 1553SOL    HW216119   1.387   1.564   4.595 -0.1962 -0.1096  0.3506
 1554SOL     OW16120   2.628   3.998   8.753  0.0993  0.2281  0.0267
 1554SOL    HW116121   2.671   4.076   8.718  0.6241 -0.5541 -1.0693
 1554SOL    HW216122   2.641   3.924   8.693  1.5610  1.4365 -1.1382
 1555SOL     OW16123   2.950   0.924  10.485 -0.1472 -0.3745 -0.0986
 1555SOL    HW116124   2.891   0.852  10.507  1.7789 -1.2192  2.3685
 1555SOL    HW216125   2.988   0.942  10.571 -2.8450 -0.9180  1.1993
 1556SOL     OW16126   1.914   0.129   3.029  0.6484  0.0958 -0.2117
 1556SOL    HW116127   1.913   0.044   3.075 -3.5207  1.3402  2.0267
 1556SOL    HW216128   1.861   0.185   3.085  0.9528 -1.5589  1.7596
 1557SOL     OW16129   4.148   4.471   1.156  0.5624  0.0294 -0.2631
 1557SOL    HW116130   4.168   4.379   1.141 -0.4557 -0.1135 -0.7286
 1557SOL    HW216131   4.190   4.484   1.241 -2.0748 -1.2649  1.2320
 1558SOL     OW16132   4.092   0.902   9.351 -0.1697 -0.3775  0.2097
 1558SOL    HW116133   4.085   0.870   9.260  0.2866  1.2143 -0.3753
 1558SOL    HW216134   4.122   0.993   9.351  0.0550 -0.4522  0.2709
 1559SOL     OW16135   4.517   4.085   9.149 -0.4477  0.0814  0.6272
 1559SOL    HW116136   4.568   4.140   9.208 -2.1638  0.4088  1.8204
 1559SOL    HW216137   4.426   4.107   9.172 -0.3219 -0.1563  1.3626
 1560SOL     OW16138   4.548   0.294   4.957  0.1084 -0.6912  0.6131
 1560SOL    HW116139   4.475   0.252   4.911 -0.3905 -0.0213  0.7877
 1560SOL    HW216140   4.519   0.385   4.954  2.0611 -0.0803  0.5193
 1561SOL     OW16141   2.804   0.486   0.879  0.6625  0.0300 -0.0696
 1561SOL    HW116142   2.745   0.502   0.805  2.0738 -0.7815 -1.3510
 1561SOL    HW216143   2.822   0.394   0.860  2.5543  0.1352  1.2091
 1562SOL     OW16144   2.574   2.487   3.385 -0.3478 -0.0192 -0.0503
 1562SOL    HW116145   2.543   2.397   3.386 -1.3464  0.3272  0.1166
 1562SOL    HW216146   2.569   2.517   3.475  0.5567  0.5982 -0.2002
 1563SOL     OW16147   4.576   0.245   6.035 -0.1432  0.3161  0.0752
 1563SOL    HW116148   4.559   0.277   5.947  1.8824  0.0704 -0.3830
 1563SOL    HW216149   4.640   0.311   6.063 -2.5406  2.3081  0.9387
 1564SOL     OW16150   4.544   1.650   8.221 -0.3762  0.2719  0.5907
 1564SOL    HW116151   4.457   1.691   8.228 -0.7658 -0.3364 -0.6576
 1564SOL    HW216152   4.558   1.613   8.308  0.2241  1.1432  0.8690
 1565SOL     OW16153   3.493   2.405   7.208  0.2969  0.2532  0.0471
 1565SOL    HW116154   3.489   2.310   7.195  1.1277 -0.2660  3.4746
 1565SOL    HW216155   3.402   2.425   7.186  0.3267 -0.0533 -0.3594
 1566SOL     OW16156   0.465   0.223   1.944 -0.1211  0.4148 -0.0681
 1566SOL    HW116157   0.450   0.220   2.039 -0.8246 -2.3606 -0.2703
 1566SOL    HW216158   0.444   0.314   1.922 -0.1339  0.6597  0.9418
 1567SOL     OW16159   4.248   1.326   3.509 -0.1892 -0.1961 -0.4855
 1567SOL    HW116160   4.299   1.249   3.482 -0.5770 -0.0900 -1.5207
 1567SOL    HW216161   4.182   1.286   3.565 -0.2885 -1.8707 -1.7871
 1568SOL     OW16162   0.771   1.740  13.239  0.7213  0.0190  0.3125
 1568SOL    HW116163   0.777   1.654  13.281 -2.3573 -0.5498 -0.3633
 1568SOL    HW216164   0.679   1.755  13.218  0.2231 -1.4694  1.4010
 1569SOL     OW16165   3.782   0.462   3.584 -0.1883  0.0277 -0.5826
 1569SOL    HW116166   3.833   0.384   3.566  1.0004  0.8794 -0.9135
 1569SOL    HW216167   3.726   0.434   3.657  1.1046  0.7872  0.7050
 1570SOL     OW16168   3.205   0.167  16.387  0.6001  0.1948 -0.2883
 1570SOL    HW116169   3.127   0.181  16.441 -1.3989 -4.8560 -1.7878
 1570SOL    HW216170   3.201   0.078  16.351 -0.2059  0.1019  0.0328
 1571SOL     OW16171   3.997   4.084   6.173 -0.1788  0.0628 -0.8212
 1571SOL    HW116172   4.060   4.145   6.212 -2.7575  1.6683  0.7792
 1571SOL    HW216173   4.015   4.005   6.224 -1.4158  0.9847  1.0349
 1572SOL     OW16174   3.317   4.150   6.551  0.1315  0.1136  0.4678
 1572SOL    HW116175   3.387   4.087   6.566  1.8165  1.6821 -0.6550
 1572SOL    HW216176   3.292   4.176   6.639 -1.0029 -0.8975  0.4422
 1573SOL     OW16177   1.118   4.668  16.468 -0.1798 -0.3548  0.3610
 1573SOL    HW116178   1.056   4.614  16.418 -1.6783  1.8396 -0.1655
 1573SOL    HW216179   1.054   4.708  16.526  0.4823  0.8103  0.2866
 1574SOL     OW16180   3.171   2.599   5.645 -0.4511 -0.8924  0.1070
 1574SOL    HW116181   3.143   2.614   5.735  1.0153  1.1479  0.1966
 1574SOL    HW216182   3.218   2.517   5.659  1.8110  0.6367  1.3539
 1575SOL     OW16183   1.521   3.223   5.919  0.5283  0.3605  0.1459
 1575SOL    HW116184   1.428   3.203   5.911  0.5326  0.1432  0.6369
 1575SOL    HW216185   1.540   3.230   6.012 -1.8124 -0.4788  0.6884
 1576SOL     OW16186   2.100   2.482   7.740 -0.1342 -0.1445  0.5783
 1576SOL    HW116187   2.084   2.555   7.799  1.6809 -1.4832  2.7470
 1576SOL    HW216188   2.185   2.502   7.700 -0.2281  0.4792  0.6976
 1577SOL     OW16189   0.360   3.752   3.101 -0.1222  0.4185  0.4428
 1577SOL    HW116190   0.430   3.708   3.149 -0.8217 -1.9299 -0.6685
 1577SOL    HW216191   0.313   3.676   3.065 -0.3933  1.4084 -1.2775
 1578SOL     OW16192   0.361   2.773   7.954  0.1642  0.2864 -0.2949
 1578SOL    HW116193   0.391   2.698   8.005 -0.1819 -0.8388 -1.7163
 1578SOL    HW216194   0.315   2.727   7.882 -0.3411 -0.4072  0.4690
 1579SOL     OW16195   1.801   1.941  17.568  0.1530  0.0210 -0.5018
 1579SOL    HW116196   1.854   1.887  17.627 -0.8906 -0.4683 -0.0250
 1579SOL    HW216197   1.740   1.873  17.538  0.3070  0.1211 -1.0536
 1580SOL     OW16198   3.041   4.492  16.246 -0.1987  0.2499  0.4103
 1580SOL    HW116199   3.109   4.532  16.300  2.4537 -2.7523 -0.7305
 1580SOL    HW216200   3.000   4.573  16.215  0.6267  0.4078 -0.2425
 1581SOL     OW16201   4.412   1.875   3.184 -0.1435  0.1686 -0.2960
 1581SOL    HW116202   4.461   1.953   3.158  1.1089 -0.9952 -1.4018
 1581SOL    HW216203   4.378   1.913   3.265 -3.3843 -0.9418 -1.1429
 1582SOL     OW16204   4.463   3.180   9.904  0.3065  0.1551 -0.4902
 1582SOL    HW116205   4.379   3.136   9.898 -1.1253  2.9296 -0.7002
 1582SOL    HW216206   4.446   3.253   9.845 -0.9256 -0.4731 -0.9080
 1583SOL     OW16207   2.083   2.315   0.274  0.3582 -0.4790 -0.2551
 1583SOL    HW116208   2.175   2.313   0.248  0.3583  0.3492 -0.3068
 1583SOL    HW216209   2.095   2.371   0.350 -1.8950  0.8375 -0.8709
 1584SOL     OW16210   0.348   3.607  13.924  0.0626 -0.3203  0.8781
 1584SOL    HW116211   0.360   3.674  13.992  1.5395  0.4945 -0.1780
 1584SOL    HW216212   0.359   3.527  13.975  1.3181 -0.9461 -0.3736
 1585SOL     OW16213   2.626   3.818  14.021 -0.1227 -0.0587 -0.2630
 1585SOL    HW116214   2.652   3.763  14.095  1.1191  0.9962  0.0812
 1585SOL    HW216215   2.626   3.899  14.073  0.3092  0.9145 -1.7711
 1586SOL     OW16216   0.773   3.191   4.132  0.2194 -0.0081 -0.3258
 1586SOL    HW116217   0.793   3.275   4.092 -1.6273  0.7890  0.4585
 1586SOL    HW216218   0.821   3.193   4.215  0.2355 -2.0204 -0.2809
 1587SOL     OW16219   3.774   4.385   2.890 -1.0417  0.4895  0.6277
 1587SOL    HW116220   3.754   4.304   2.842  2.3959 -1.1015  1.8848
 1587SOL    HW216221   3.825   4.429   2.822 -2.6997 -0.4288 -1.2084
 1588SOL     OW16222   1.709   0.517   7.641 -0.4311  0.2248 -0.2319
 1588SOL    HW116223   1.659   0.598   7.650 -1.4330 -0.8424  3.4691
 1588SOL    HW216224   1.791   0.531   7.687 -0.2928 -1.1151 -0.0786
 1589SOL     OW16225   0.761   2.842   1.575 -0.0810 -0.8992 -0.0695
 1589SOL    HW116226   0.687   2.854   1.514 -0.5760  0.6399  0.8476
 1589SOL    HW216227   0.730   2.904   1.641 -0.9306 -1.4077  0.0065
 1590SOL     OW16228   4.604   0.978  15.158 -0.2771 -0.0420  0.5083
 1590SOL    HW116229   4.670   0.955  15.223  2.0491  0.6272 -1.6358
 1590SOL    HW216230   4.579   1.067  15.184 -1.4864 -0.4629  0.8118
 1591SOL     OW16231   0.923   4.520  16.328  0.7012 -0.0401 -0.3907
 1591SOL    HW116232   0.903   4.530  16.235  0.2007 -0.9571 -0.3829
 1591SOL    HW216233   0.931   4.424  16.324  1.1066 -0.0926  1.3673
 1592SOL     OW16234   1.543   1.537   6.302  0.4431 -0.1775  0.2789
 1592SOL    HW116235   1.608   1.471   6.329  1.5195  1.8166  2.5538
 1592SOL    HW216236   1.490   1.531   6.381 -2.2562 -2.5560 -1.7449
 1593SOL     OW16237   2.825   1.648   6.148  0.3451  0.4605 -0.1627
 1593SOL    HW116238   2.796   1.559   6.128  2.2158  0.0539 -1.1348
 1593SOL    HW216239   2.910   1.620   6.181 -0.7850 -0.6355  1.7911
 1594SOL     OW16240   2.017   2.247  10.677 -0.6535 -0.0395 -0.7023
 1594SOL    HW116241   2.010   2.193  10.599  1.3497  0.9870 -1.5821
 1594SOL    HW216242   2.092   2.208  10.721  1.4681  1.2195 -3.2261
 1595SOL     OW16243   1.126   3.057   8.639  0.3550 -0.3071 -0.1706
 1595SOL    HW116244   1.112   3.040   8.732 -0.3176  0.7136 -0.0839
 1595SOL    HW216245   1.091   2.970   8.621 -0.3717  0.0494 -0.4918
 1596SOL     OW16246   2.284   3.414   9.481 -0.0862 -0.4990 -0.1700
 1596SOL    HW116247   2.331   3.337   9.511  2.1408  0.7205 -0.5359
 1596SOL    HW216248   2.278   3.449   9.570  0.6007  3.5007 -1.7029
 1597SOL     OW16249   2.354   2.877   2.136 -0.3948  0.9030 -0.2645
 1597SOL    HW116250   2.325   2.890   2.226  0.5138 -0.9685  0.3132
 1597SOL    HW216251   2.278   2.839   2.093 -0.8016  1.4196 -0.0027
 1598SOL     OW16252   3.934   0.223   7.138 -0.0127  0.0638  0.3803
 1598SOL    HW116253   4.004   0.213   7.073 -0.0276  0.1857  0.3446
 1598SOL    HW216254   3.859   0.197   7.084  2.5220  0.4290 -3.3612
 1599SOL     OW16255   0.499   3.387   4.951  0.3608  0.2813 -0.7112
 1599SOL    HW116256   0.532   3.477   4.947  0.9092  0.2079  1.6775
 1599SOL    HW216257   0.406   3.398   4.931  0.0057 -1.6797 -0.1487
 1600SOL     OW16258   0.831   4.693  10.534 -0.4441 -0.4163  0.3472
 1600SOL    HW116259   0.756   0.018  10.567  1.7810  2.3648  1.2294
 1600SOL    HW216260   0.855   0.021  10.458  2.0967 -2.3820 -0.1986
 1601SOL     OW16261   4.448   2.170  12.859 -0.1139 -0.3716  0.1198
 1601SOL    HW116262   4.353   2.179  12.850  0.0483 -0.2038 -1.3951
 1601SOL    HW216263   4.450   2.081  12.824 -1.4639 -0.4865  0.3440
 1602SOL     OW16264   1.771   3.661   7.887 -0.0826 -0.5034  0.2723
 1602SOL    HW116265   1.712   3.672   7.812 -0.8292  0.8459  1.0750
 1602SOL    HW216266   1.821   3.742   7.888 -0.3271 -0.3690  1.8760
 1603SOL     OW16267   3.960   3.976  12.874  0.1598  1.2840  0.3181
 1603SOL    HW116268   3.889   4.032  12.845  0.4934 -0.3017 -3.5308
 1603SOL    HW216269   3.990   4.025  12.950  1.5762  0.6930  0.1460
 1604SOL     OW16270   4.450   2.900   3.973  0.2129 -0.0990  0.3430
 1604SOL    HW116271   4.536   2.939   3.983 -0.4437  1.9662 -1.8974
 1604SOL    HW216272   4.472   2.814   3.936 -0.0736 -0.3638  0.7816
 1605SOL     OW16273   0.169   4.591   3.032  0.3795  0.3928  0.5926
 1605SOL    HW116274   0.132   4.544   3.106 -0.2897 -1.0157 -0.6498
 1605SOL    HW216275   0.198   4.664   3.087  1.6727 -0.4651  1.0471
 1606SOL     OW16276   2.393   2.117   5.443  0.4338 -0.5021 -0.4797
 1606SOL    HW116277   2.337   2.178   5.394  0.2524  0.2299  0.6350
 1606SOL    HW216278   2.479   2.154   5.427  0.6476 -0.6355  0.4012
 1607SOL     OW16279   3.269   0.615   1.525 -0.5974  0.1176 -0.0437
 1607SOL    HW116280   3.324   0.592   1.600  1.3604  1.6513 -0.9850
 1607SOL    HW216281   3.259   0.526   1.490 -0.0505 -0.8840  2.3831
 1608SOL     OW16282   2.003   0.807   8.616  0.1237  0.4933 -0.7203
 1608SOL    HW116283   2.080   0.798   8.559 -0.1036 -2.1806 -0.5590
 1608SOL    HW216284   1.991   0.901   8.629  0.5843  0.4556 -0.0469
 1609SOL     OW16285   2.575   1.128  15.741 -0.2576  0.2073  0.4111
 1609SOL    HW116286   2.547   1.218  15.728  1.2681  0.4931 -0.9182
 1609SOL    HW216287   2.495   1.094  15.781 -0.5738  1.6048  0.9650
 1610SOL     OW16288   2.619   2.423   5.575 -0.2349  0.3896  0.2051
 1610SOL    HW116289   2.622   2.517   5.595  1.3801  0.7539 -1.7356
 1610SOL    HW216290   2.596   2.432   5.483 -0.5379  0.3642  0.2780
 1611SOL     OW16291   0.741   0.119   2.320 -0.1508  0.2426 -0.5764
 1611SOL    HW116292   0.783   0.190   2.368  1.0206 -1.2759  0.6335
 1611SOL    HW216293   0.812   0.056   2.334  1.2036  2.0254  0.5358
 1612SOL     OW16294   1.419   1.899   8.184  0.0328  0.3627 -0.1331
 1612SOL    HW116295   1.358   1.825   8.180  1.0050 -0.4120 -0.4825
 1612SOL    HW216296   1.368   1.971   8.147 -1.0219 -1.2488 -1.8346
 1613SOL     OW16297   1.296   0.728   5.660  0.3209 -0.2668 -0.4771
 1613SOL    HW116298   1.351   0.652   5.643  1.9327  0.8626 -0.2826
 1613SOL    HW216299   1.365   0.793   5.666 -1.0101  1.1900 -0.9179
 1614SOL     OW16300   1.154   3.631   3.078  0.1695 -0.2180 -1.0012
 1614SOL    HW116301   1.183   3.719   3.053  1.6547 -0.4585 -0.1060
 1614SOL    HW216302   1.200   3.580   3.012 -1.1793 -2.0469 -0.5373
 1615SOL     OW16303   1.253   3.779   0.665  0.0942 -0.0624  0.2168
 1615SOL    HW116304   1.300   3.707   0.623  3.4152  1.5341  1.1451
 1615SOL    HW216305   1.328   3.839   0.664 -0.3114  0.4631  1.4093
 1616SOL     OW16306   0.423   0.001   6.572  0.0390 -0.0302 -0.1880
 1616SOL    HW116307   0.444   0.088   6.538 -1.2028  0.2354 -0.2761
 1616SOL    HW216308   0.334   4.718   6.538 -0.4453 -0.1674  1.1127
 1617SOL     OW16309   1.170   3.782   4.553  0.4138  0.1707  0.0390
 1617SOL    HW116310   1.124   3.731   4.621  0.3806  2.3622  1.6542
 1617SOL    HW216311   1.103   3.844   4.523 -1.1235 -1.2318  0.5343
 1618SOL     OW16312   2.758   2.628  12.839 -0.5043 -0.3512 -0.1363
 1618SOL    HW116313   2.842   2.586  12.821  1.0293  1.2727  3.3187
 1618SOL    HW216314   2.779   2.681  12.916 -0.6949  1.4726 -1.3457
 1619SOL     OW16315   3.149   2.680   2.278  0.1385  0.1704  0.5238
 1619SOL    HW116316   3.221   2.689   2.340  0.3391  2.0046  0.0196
 1619SOL    HW216317   3.080   2.694   2.342  0.4758  0.9074  0.7263
 1620SOL     OW16318   1.870   3.888  14.118 -0.1907 -0.3414 -0.3549
 1620SOL    HW116319   1.805   3.842  14.170  1.0349  0.1564  1.6035
 1620SOL    HW216320   1.948   3.858  14.165 -0.3068 -1.4289 -0.8614
 1621SOL     OW16321   4.022   4.407   5.460  0.2446 -0.0602  0.5461
 1621SOL    HW116322   4.080   4.331   5.467 -0.7635 -0.9621 -0.9300
 1621SOL    HW216323   3.955   4.388   5.526  0.9808  0.6961  1.5074
 1622SOL     OW16324   2.595   1.921  16.691  0.2214  0.1908  0.2555
 1622SOL    HW116325   2.576   1.886  16.603  2.0681 -2.0087  0.7264
 1622SOL    HW216326   2.586   2.016  16.683  0.9114  0.0839 -1.6747
 1623SOL     OW16327   4.357   3.940  11.079  0.2506  0.3458 -0.7025
 1623SOL    HW116328   4.324   4.001  11.012 -0.8003 -0.3619 -0.8371
 1623SOL    HW216329   4.328   3.984  11.159  1.0930  0.7993 -0.6523
 1624SOL     OW16330   3.537   1.892  14.173  0.2531  0.2748  0.4709
 1624SOL    HW116331   3.616   1.873  14.122 -0.1390  3.2933 -1.2209
 1624SOL    HW216332   3.495   1.807  14.158  0.5697 -0.1548  2.0536
 1625SOL     OW16333   3.364   1.450   8.986 -0.1001 -0.3399  0.7874
 1625SOL    HW116334   3.449   1.458   9.030 -0.3353  0.2720  1.1361
 1625SOL    HW216335   3.326   1.406   9.062 -1.5394 -1.1483 -0.4119
 1626SOL     OW16336   2.348   2.010   5.712 -0.5015  0.5815  0.0582
 1626SOL    HW116337   2.333   2.064   5.635  1.7058 -1.2848 -1.6913
 1626SOL    HW216338   2.434   2.042   5.739 -0.8719 -0.0845  2.0580
 1627SOL     OW16339   1.695   2.918  10.403  0.6469  0.1707  0.2594
 1627SOL    HW116340   1.679   2.921  10.308 -1.2038 -4.1913  0.4538
 1627SOL    HW216341   1.749   2.996  10.393  1.9533 -0.6616  0.9862
 1628SOL     OW16342   3.320   2.127   6.042 -0.2977  0.5284  0.8952
 1628SOL    HW116343   3.323   2.201   6.103 -0.5931  1.1544  0.1485
 1628SOL    HW216344   3.400   2.081   6.066 -0.7719 -0.5436  0.4220
 1629SOL     OW16345   3.428   2.738  15.281  0.1593  0.1442 -0.3557
 1629SOL    HW116346   3.522   2.750  15.285  0.3406 -1.4764  0.2190
 1629SOL    HW216347   3.409   2.733  15.374  1.1900 -1.1066 -0.2193
 1630SOL     OW16348   3.856   1.681   6.449 -0.0734  0.1617 -0.0115
 1630SOL    HW116349   3.863   1.586   6.440 -1.4669  0.1140 -0.5140
 1630SOL    HW216350   3.929   1.714   6.396 -0.0990  0.8834  0.3929
 1631SOL     OW16351   4.441   0.031   6.673  0.2638  0.3446  0.0051
 1631SOL    HW116352   4.430   4.720   6.761 -0.0929  0.8813  0.1781
 1631SOL    HW216353   4.447   0.125   6.689  1.7624  0.0363  1.1876
 1632SOL     OW16354   1.895   2.529  14.560 -0.3347 -0.1981 -0.3780
 1632SOL    HW116355   1.945   2.486  14.629  0.1902 -0.6809 -1.0649
 1632SOL    HW216356   1.846   2.455  14.525 -1.3026 -0.1255  0.8115
 1633SOL     OW16357   3.709   4.212  15.956  0.1011 -0.1452  0.2596
 1633SOL    HW116358   3.795   4.250  15.938  1.4717 -2.7128  1.2563
 1633SOL    HW216359   3.675   4.248  16.038 -3.5354  0.2399 -1.4749
 1634SOL     OW16360   3.053   4.466   2.751 -0.0167  0.3928  0.5185
 1634SOL    HW116361   3.066   4.553   2.789 -0.2289  1.0578 -0.9420
 1634SOL    HW216362   3.047   4.403   2.823  0.6140 -0.5371 -0.2488
 1635SOL     OW16363   2.050   1.672   6.657 -0.6912  0.2244  0.7032
 1635SOL    HW116364   2.131   1.643   6.613  0.6962  2.7798  1.5679
 1635SOL    HW216365   1.986   1.617   6.611  1.1086 -2.6985  1.6881
 1636SOL     OW16366   3.428   0.943   0.938  0.0465 -0.2067  0.4691
 1636SOL    HW116367   3.388   0.981   1.017  0.0816  0.3386  0.2297
 1636SOL    HW216368   3.463   1.019   0.891 -0.0083  0.9054  2.1956
 1637SOL     OW16369   1.828   3.647   6.062 -0.5160 -0.1000  0.3877
 1637SOL    HW116370   1.873   3.726   6.032  1.3053 -1.3571 -0.1598
 1637SOL    HW216371   1.836   3.599   5.979 -1.3694 -0.9917  0.8303
 1638SOL     OW16372   4.508   0.842  10.894 -0.3284  0.1890  0.3441
 1638SOL    HW116373   4.490   0.925  10.939  0.5013  0.7067 -0.2655
 1638SOL    HW216374   4.537   0.791  10.969  0.8599  0.3196 -0.0298
 1639SOL     OW16375   2.543   4.410   0.200 -0.2212 -0.4083  0.1187
 1639SOL    HW116376   2.509   4.450   0.120  0.1472 -1.0530 -0.3569
 1639SOL    HW216377   2.504   4.461   0.271 -1.4979 -0.0243 -0.8658
 1640SOL     OW16378   3.337   3.696   3.297 -0.3866 -0.5343  0.0312
 1640SOL    HW116379   3.407   3.677   3.235 -2.0987  2.7187 -2.9068
 1640SOL    HW216380   3.371   3.666   3.381 -1.1397 -0.4672  0.3596
 1641SOL     OW16381   0.693   2.742   8.463  0.0209 -0.0081  0.3198
 1641SOL    HW116382   0.605   2.761   8.431  0.3059 -0.1288 -0.5305
 1641SOL    HW216383   0.679   2.682   8.537 -2.5410  0.0616 -0.1193
 1642SOL     OW16384   3.660   3.860  14.521  0.3971 -0.2158  0.5179
 1642SOL    HW116385   3.644   3.890  14.610  2.9956  0.3231  0.7930
 1642SOL    HW216386   3.739   3.909  14.500  1.0157 -0.5292  2.1442
 1643SOL     OW16387   2.336   0.106   9.642 -0.6174  0.1914 -0.1142
 1643SOL    HW116388   2.418   0.088   9.688 -0.2162 -0.3688 -1.0425
 1643SOL    HW216389   2.326   0.020   9.601  3.1503  0.1982 -1.0462
 1644SOL     OW16390   0.929   1.850   6.022  0.0486 -0.1645  0.1630
 1644SOL    HW116391   1.005   1.792   6.020  0.7795  0.8014 -0.0565
 1644SOL    HW216392   0.854   1.797   5.995 -1.5838  1.0735  2.2179
 1645SOL     OW16393   2.651   2.771   8.518 -0.0887  0.5703  0.4249
 1645SOL    HW116394   2.700   2.701   8.560  0.3119  1.2623  1.1083
 1645SOL    HW216395   2.655   2.845   8.578 -1.6639 -0.2601  1.5748
 1646SOL     OW16396   3.227   2.296   0.304 -0.2162  0.1735  0.2241
 1646SOL    HW116397   3.223   2.203   0.281  1.6739  1.1413 -3.9686
 1646SOL    HW216398   3.175   2.329   0.231 -2.6809 -0.7165  1.5733
 1647SOL     OW16399   3.427   1.699   4.862  0.1578  0.4416 -0.3927
 1647SOL    HW116400   3.432   1.773   4.923  0.9041  0.1512 -0.0890
 1647SOL    HW216401   3.509   1.653   4.882  1.2659  2.7917  0.4228
 1648SOL     OW16402   0.998   4.264  17.160 -0.0767 -0.0550  0.1342
 1648SOL    HW116403   0.923   4.322  17.176 -0.0022 -0.4309  1.9308
 1648SOL    HW216404   0.964   4.192  17.107 -1.3530  0.2870  0.4773
 1649SOL     OW16405   3.647   0.045   6.097 -0.4748 -0.3981  0.6091
 1649SOL    HW116406   3.635   0.041   6.002 -1.5642 -0.9413  0.7781
 1649SOL    HW216407   3.630   4.681   6.127 -2.6971 -0.2310 -0.1503
 1650SOL     OW16408   0.820   4.533   0.098 -0.2977 -0.0912 -0.2736
 1650SOL    HW116409   0.840   4.481   0.175  0.4549  0.7412  0.1033
 1650SOL    HW216410   0.726   4.552   0.099 -0.1614  0.6380 -0.9924
 1651SOL     OW16411   2.710   3.679  14.233  0.4671 -0.1790  0.7448
 1651SOL    HW116412   2.694   3.683  14.327  0.2691 -0.4665  0.7206
 1651SOL    HW216413   2.788   3.735  14.237 -0.2467  0.8358  0.2784
 1652SOL     OW16414   3.636   2.303   5.296 -0.3798 -0.7095 -0.0371
 1652SOL    HW116415   3.641   2.357   5.375 -0.9797  4.1055 -3.3206
 1652SOL    HW216416   3.542   2.313   5.278  0.0836  2.4751 -0.6328
 1653SOL     OW16417   2.234   1.296   5.890  0.3929 -0.5906 -0.2282
 1653SOL    HW116418   2.152   1.247   5.899 -0.5350  1.1063  0.4427
 1653SOL    HW216419   2.211   1.389   5.886 -2.2221 -1.1807  1.5262
 1654SOL     OW16420   1.127   3.283  16.327  0.4477 -0.8049 -0.5195
 1654SOL    HW116421   1.118   3.377  16.340  0.5211 -0.9123  0.2735
 1654SOL    HW216422   1.212   3.266  16.367 -0.8520 -1.2366  2.0580
 1655SOL     OW16423   3.212   4.452   0.777  0.0142 -0.1673  0.0836
 1655SOL    HW116424   3.238   4.411   0.860 -0.5208 -1.3900 -0.3545
 1655SOL    HW216425   3.172   4.377   0.733  0.8081  0.2600 -1.3818
 1656SOL     OW16426   3.398   3.011  15.192  0.7290  0.2793 -0.0546
 1656SOL    HW116427   3.412   2.918  15.209  0.5379  0.4376  0.9504
 1656SOL    HW216428   3.488   3.034  15.171  1.4319 -0.8085  1.8390
 1657SOL     OW16429   0.231   3.776   7.625 -0.1833  0.0909  0.1820
 1657SOL    HW116430   0.285   3.703   7.654  0.0783  0.2651  0.1244
 1657SOL    HW216431   0.287   3.852   7.610 -0.9137  0.1878 -1.9658
 1658SOL     OW16432   0.703   4.459   3.078 -0.0925  0.6915  0.3914
 1658SOL    HW116433   0.628   4.514   3.055 -0.1173  0.0925 -0.9675
 1658SOL    HW216434   0.665   4.372   3.089 -1.4633  1.0248 -1.6264
 1659SOL     OW16435   3.279   2.376   9.258  0.0993  0.0072 -0.1036
 1659SOL    HW116436   3.254   2.430   9.183 -0.0908 -2.4367 -1.8116
 1659SOL    HW216437   3.321   2.438   9.317  0.2620  1.2848 -1.5538
 1660SOL     OW16438   4.222   3.124   2.603 -0.4270  0.2019 -0.6252
 1660SOL    HW116439   4.206   3.031   2.620  1.0567 -0.1159 -0.9912
 1660SOL    HW216440   4.294   3.115   2.541  0.6412 -1.6002  0.8942
 1661SOL     OW16441   3.388   0.067  14.526 -0.5355  0.2685 -0.1062
 1661SOL    HW116442   3.371   0.024  14.610 -1.0334  4.1261  1.7708
 1661SOL    HW216443   3.478   0.099  14.533  0.3795 -2.2479 -0.3644
 1662SOL     OW16444   1.519   3.011  10.760  0.2822  0.2580  0.2883
 1662SOL    HW116445   1.579   3.047  10.825 -0.4442 -0.3369  1.3096
 1662SOL    HW216446   1.516   2.925  10.804  1.1771  0.2560  0.3375
 1663SOL     OW16447   0.196   2.248   6.905 -0.1859 -0.2640  0.2919
 1663SOL    HW116448   0.264   2.302   6.946  0.4590 -0.2377 -0.7964
 1663SOL    HW216449   0.228   2.257   6.815 -0.6284 -1.1717  0.0497
 1664SOL     OW16450   1.955   0.203   7.378 -0.7422 -0.1481  0.3189
 1664SOL    HW116451   2.022   0.258   7.337 -0.4216 -2.6433 -2.5211
 1664SOL    HW216452   1.877   0.243   7.339 -1.3479  0.3424  2.0387
 1665SOL     OW16453   2.089   2.468   2.851  0.3422 -0.2497 -0.5519
 1665SOL    HW116454   2.047   2.414   2.785 -0.7889 -1.1391  0.9029
 1665SOL    HW216455   2.130   2.400   2.903 -1.0831 -0.1503  0.7041
 1666SOL     OW16456   2.248   1.031  17.267  0.0834  0.4069 -0.4307
 1666SOL    HW116457   2.189   1.088  17.316  1.0428 -0.3300  1.5972
 1666SOL    HW216458   2.188   0.980  17.214  0.5859 -1.2486  0.5892
 1667SOL     OW16459   0.830   4.046   7.955  0.5412  0.9222 -0.2887
 1667SOL    HW116460   0.844   4.116   7.891  0.7608  1.8612  0.7995
 1667SOL    HW216461   0.757   4.076   8.009  1.5145 -0.3684  1.7280
 1668SOL     OW16462   4.355   4.071   0.862 -0.2167  0.3341  0.1714
 1668SOL    HW116463   4.283   4.013   0.888 -0.3708  0.8118  0.8479
 1668SOL    HW216464   4.315   4.158   0.875  1.1962  1.2209 -1.4485
 1669SOL     OW16465   2.647   4.481   6.280 -0.2970  0.2175  0.2555
 1669SOL    HW116466   2.659   4.549   6.347 -1.1677  1.0327 -0.4084
 1669SOL    HW216467   2.656   4.405   6.337  0.6514  0.6894  0.7409
 1670SOL     OW16468   1.924   4.419   5.575  0.0201  0.0496  0.0284
 1670SOL    HW116469   1.908   4.417   5.669 -1.6057  1.3501 -0.2097
 1670SOL    HW216470   1.928   4.326   5.552 -0.4176 -0.0717  0.4418
 1671SOL     OW16471   0.362   0.616   7.601 -0.0627 -0.4364  0.1849
 1671SOL    HW116472   0.423   0.592   7.670  0.3739  0.7509  0.2180
 1671SOL    HW216473   0.332   0.705   7.623  0.1491 -0.3040 -0.0626
 1672SOL     OW16474   0.103   1.842   1.185  0.0965  0.2819 -0.5524
 1672SOL    HW116475   0.049   1.882   1.253 -0.0879 -3.1348  1.2764
 1672SOL    HW216476   0.054   1.769   1.150  2.0687 -0.7966 -1.0672
 1673SOL     OW16477   0.656   0.749   5.366 -0.2025 -0.1055  0.3113
 1673SOL    HW116478   0.573   0.747   5.413 -0.4952  2.6038 -0.0897
 1673SOL    HW216479   0.643   0.663   5.327 -1.0922  0.5519 -0.8296
 1674SOL     OW16480   4.517   1.953   7.797  0.0825  0.1448  0.4488
 1674SOL    HW116481   4.483   1.987   7.715  0.8559  0.8541  0.4188
 1674SOL    HW216482   4.492   2.022   7.859 -2.7520 -1.9768  1.6663
 1675SOL     OW16483   2.728   0.374  11.637 -0.7218 -0.0143 -0.1279
 1675SOL    HW116484   2.636   0.399  11.646 -0.3825  0.6868  1.2647
 1675SOL    HW216485   2.745   0.320  11.714 -2.6282  1.3844  1.2614
 1676SOL     OW16486   2.549   0.028  11.439  0.2220  0.1840 -0.0595
 1676SOL    HW116487   2.638   4.719  11.451 -1.0017 -2.2125  2.5227
 1676SOL    HW216488   2.571   0.115  11.406 -0.2646  0.3695  0.0952
 1677SOL     OW16489   0.545   3.836   2.479  0.4076 -0.0123 -0.0930
 1677SOL    HW116490   0.481   3.886   2.530  1.4764 -1.8912  3.1482
 1677SOL    HW216491   0.624   3.883   2.505  1.2692 -1.5533  0.1103
 1678SOL     OW16492   3.271   1.502   7.478  0.2249 -0.4880  0.6098
 1678SOL    HW116493   3.271   1.507   7.574  0.9426  1.2160  0.5224
 1678SOL    HW216494   3.180   1.477   7.463 -0.4452  0.9696  2.2945
 1679SOL     OW16495   2.120   1.163   2.613  0.0555  0.0719  0.3400
 1679SOL    HW116496   2.130   1.160   2.518 -2.8918  1.7129 -0.0508
 1679SOL    HW216497   2.162   1.081   2.637 -0.2646 -0.5343 -1.1437
 1680SOL     OW16498   3.184   4.061   7.154 -0.3777 -0.5258 -0.1057
 1680SOL    HW116499   3.249   4.009   7.107 -0.0016  0.8547 -1.0995
 1680SOL    HW216500   3.190   4.144   7.108  0.1692 -0.8895 -0.6919
 1681SOL     OW16501   1.996   3.043   2.547 -0.0078  0.0786  0.1662
 1681SOL    HW116502   1.936   3.017   2.477 -0.1508 -3.3979  1.5788
 1681SOL    HW216503   1.965   2.989   2.620 -0.3034  0.3745  0.2573
 1682SOL     OW16504   4.237   0.946   8.857  0.3326 -0.0983  0.0993
 1682SOL    HW116505   4.185   0.867   8.874  0.2107  0.1730  0.9991
 1682SOL    HW216506   4.188   0.992   8.789  0.0893  1.2309  1.1887
 1683SOL     OW16507   4.154   2.160   5.620  0.3351  0.0684  0.1004
 1683SOL    HW116508   4.180   2.068   5.630  4.6037  1.3876  1.1659
 1683SOL    HW216509   4.220   2.204   5.674 -0.3582  2.1688 -0.7530
 1684SOL     OW16510   2.347   4.684   5.370  0.8465 -0.2538  0.4303
 1684SOL    HW116511   2.298   0.040   5.353  0.9868 -0.3185 -0.2615
 1684SOL    HW216512   2.281   4.640   5.425  0.3801  2.0291  1.6785
 1685SOL     OW16513   4.706   3.151   8.328  0.0070  0.3755  0.1626
 1685SOL    HW116514   0.011   3.238   8.354 -0.5922  0.4472  0.6214
 1685SOL    HW216515   0.064   3.103   8.318 -0.3461 -0.5716  1.7404
 1686SOL     OW16516   3.002   0.194  16.629 -0.4320 -0.5637 -0.3254
 1686SOL    HW116517   3.066   0.186  16.700  1.7563 -2.0008 -2.4681
 1686SOL    HW216518   2.946   0.260  16.670 -0.4537 -2.1526  2.2194
 1687SOL     OW16519   0.921   3.987   3.434 -0.2884 -0.0337 -0.0514
 1687SOL    HW116520   0.911   4.071   3.390 -1.5613 -0.5906 -0.8224
 1687SOL    HW216521   0.989   4.010   3.498  1.0249 -0.7486 -1.1674
 1688SOL     OW16522   1.431   1.055   8.661  0.0293  0.4716 -0.4622
 1688SOL    HW116523   1.500   0.991   8.681 -0.8660  0.1540  1.5993
 1688SOL    HW216524   1.489   1.131   8.661  1.9836 -1.0273  2.0797
 1689SOL     OW16525   1.679   1.734   7.819 -0.2302 -0.5535 -0.0500
 1689SOL    HW116526   1.722   1.719   7.735  0.6923 -1.1636  0.5302
 1689SOL    HW216527   1.669   1.644   7.850 -3.5400  0.3261  1.4904
 1690SOL     OW16528   3.064   0.738   5.324 -0.0468 -0.3795  0.4130
 1690SOL    HW116529   3.051   0.828   5.354  1.0887 -0.1729  0.2809
 1690SOL    HW216530   3.016   0.729   5.241 -1.0032 -0.4877  0.9787
 1691SOL     OW16531   1.469   2.360   2.644  0.1708 -0.0218 -0.7454
 1691SOL    HW116532   1.420   2.332   2.722  1.0557  1.3516  0.3078
 1691SOL    HW216533   1.439   2.291   2.585 -0.7577  0.2203 -0.5628
 1692SOL     OW16534   4.624   3.952  12.051 -0.2118 -0.6948 -0.0877
 1692SOL    HW116535   4.573   3.872  12.063 -3.2501  1.0361 -1.5943
 1692SOL    HW216536   4.598   3.977  11.962  0.5359 -1.6386 -0.5803
 1693SOL     OW16537   3.215   2.361  17.074 -0.6565  0.7187  0.3549
 1693SOL    HW116538   3.254   2.338  16.990 -0.1986  0.6829  0.5764
 1693SOL    HW216539   3.258   2.299  17.133 -0.5537  0.5483  0.1017
 1694SOL     OW16540   1.790   0.024   6.898  0.0849  0.4185 -0.4118
 1694SOL    HW116541   1.721   4.695   6.859  0.6996 -0.7430  0.0785
 1694SOL    HW216542   1.847   4.679   6.933 -0.9477 -0.0717  0.2902
 1695SOL     OW16543   4.152   1.121  10.802 -0.1163  0.5944 -0.2323
 1695SOL    HW116544   4.167   1.030  10.829  0.1165  0.9761  0.9089
 1695SOL    HW216545   4.204   1.157  10.873 -1.4637  2.1109 -0.0317
 1696SOL     OW16546   4.161   3.828   8.058  0.3959 -0.1437 -0.1630
 1696SOL    HW116547   4.151   3.780   7.975 -3.0682 -0.4605  0.4157
 1696SOL    HW216548   4.071   3.819   8.091  0.7910 -1.2403  0.6153
 1697SOL     OW16549   4.211   1.568   2.681  0.8640  0.1064  0.2756
 1697SOL    HW116550   4.152   1.624   2.732  1.0593 -0.8993  1.5776
 1697SOL    HW216551   4.143   1.519   2.635  0.4548  0.8616  0.0645
 1698SOL     OW16552   3.544   1.813   7.281  0.1057  0.4272 -0.0084
 1698SOL    HW116553   3.492   1.890   7.256 -1.2598 -0.1926  0.9532
 1698SOL    HW216554   3.612   1.815   7.213 -0.4104  0.2180 -0.5279
 1699SOL     OW16555   0.858   3.663   0.440  0.1405 -0.3490  0.1986
 1699SOL    HW116556   0.897   3.691   0.523 -0.2854  1.8484 -0.3515
 1699SOL    HW216557   0.772   3.706   0.443 -0.0562 -0.7909  0.8728
 1700SOL     OW16558   2.374   3.663   5.972  0.2361 -0.0362 -0.3136
 1700SOL    HW116559   2.455   3.679   5.923  2.2918 -0.5357  2.9153
 1700SOL    HW216560   2.383   3.570   5.993  0.6151 -0.1895 -1.1360
 1701SOL     OW16561   0.824   4.162   4.065  0.4003 -0.8650 -0.5925
 1701SOL    HW116562   0.895   4.107   4.099  1.9501  1.2521 -0.4112
 1701SOL    HW216563   0.748   4.108   4.086  0.0784 -0.2264 -0.0766
 1702SOL     OW16564   1.435   2.844  16.062 -0.5045 -0.3288 -0.5858
 1702SOL    HW116565   1.423   2.842  15.967 -1.3772  2.5050 -0.5427
 1702SOL    HW216566   1.352   2.810  16.097 -1.0971 -0.5050 -2.1526
 1703SOL     OW16567   3.375   4.352   5.374  0.1275 -0.4704 -0.4208
 1703SOL    HW116568   3.284   4.368   5.349  0.4378  1.0864 -0.5576
 1703SOL    HW216569   3.412   4.436   5.346 -0.8445  0.0363 -0.2145
 1704SOL     OW16570   0.464   2.665   4.159  0.2205 -1.0832  0.2549
 1704SOL    HW116571   0.489   2.584   4.203  2.0298 -0.2888  0.7063
 1704SOL    HW216572   0.425   2.705   4.237 -1.2395 -0.8983 -0.5599
 1705SOL     OW16573   3.852   2.425   5.803 -0.2504 -0.3981 -0.1257
 1705SOL    HW116574   3.843   2.390   5.715  0.3432 -0.9468  0.0274
 1705SOL    HW216575   3.903   2.505   5.789 -0.4464 -0.0919  0.8911
 1706SOL     OW16576   3.995   4.109   0.722  0.4076 -0.1623  0.3652
 1706SOL    HW116577   4.054   4.137   0.652  0.1726  1.3322  0.7637
 1706SOL    HW216578   4.048   4.044   0.769 -0.1017 -1.1750 -0.4754
 1707SOL     OW16579   0.017   0.311  14.805  0.0728  0.3237 -0.0209
 1707SOL    HW116580   4.686   0.384  14.778 -1.7903 -0.4962  1.5904
 1707SOL    HW216581   0.079   0.352  14.865  1.8692 -1.8496 -0.3701
 1708SOL     OW16582   1.879   0.360   1.354  0.1328 -0.7697  0.1949
 1708SOL    HW116583   1.921   0.274   1.346  1.4598  0.0446 -1.4731
 1708SOL    HW216584   1.941   0.411   1.406  0.7480 -1.3413  0.0304
 1709SOL     OW16585   3.621   2.094   6.120  0.2842  0.1220  0.0114
 1709SOL    HW116586   3.607   2.135   6.034  2.8299  0.5678 -0.2118
 1709SOL    HW216587   3.707   2.126   6.147 -0.8269  0.7723  2.7208
 1710SOL     OW16588   4.579   2.826   7.096  0.2017 -0.4844  0.3238
 1710SOL    HW116589   4.550   2.752   7.042 -2.6939  0.5012  0.5197
 1710SOL    HW216590   4.581   2.785   7.183  1.7287  1.6040  1.2651
 1711SOL     OW16591   4.601   1.041  13.907 -0.0947 -0.4615 -0.0668
 1711SOL    HW116592   4.601   0.974  13.976  1.3654  1.0090  1.3910
 1711SOL    HW216593   4.530   1.094  13.941  0.3193  0.7331 -1.0752
 1712SOL     OW16594   2.393   3.279   3.693 -0.5173  0.2354  0.1025
 1712SOL    HW116595   2.483   3.248   3.703 -0.2947  1.4695  2.0644
 1712SOL    HW216596   2.344   3.198   3.687 -0.6134  0.4073 -1.3072
 1713SOL     OW16597   2.403   1.400   6.346  0.0356 -0.0818  0.1622
 1713SOL    HW116598   2.390   1.320   6.296  0.9137  0.9355 -1.7009
 1713SOL    HW216599   2.490   1.385   6.384  0.6235  0.2640 -1.0398
 1714SOL     OW16600   1.875   2.394   8.686 -0.0168 -0.1762 -0.0675
 1714SOL    HW116601   1.814   2.396   8.612  0.7076  0.1900 -0.6597
 1714SOL    HW216602   1.876   2.302   8.713  0.6683  0.2086  1.2395
 1715SOL     OW16603   4.133   2.677  10.285 -0.4461 -0.5778  0.3832
 1715SOL    HW116604   4.121   2.701  10.193  1.0514 -0.5940  0.1834
 1715SOL    HW216605   4.205   2.738  10.299  0.8797 -1.7745 -1.2547
 1716SOL     OW16606   1.779   4.057   5.333 -0.2956 -0.3140  0.5174
 1716SOL    HW116607   1.745   3.980   5.378 -1.8546 -0.3336 -0.6950
 1716SOL    HW216608   1.858   4.025   5.289 -0.2884 -0.3344  0.5455
 1717SOL     OW16609   2.842   4.524   5.817  0.0960  0.4072 -0.9840
 1717SOL    HW116610   2.826   4.607   5.771 -1.2536  1.4990  1.4573
 1717SOL    HW216611   2.834   4.541   5.911 -1.8953  0.8900 -1.2256
 1718SOL     OW16612   0.538   2.186   7.367  0.6629  0.5831 -0.4402
 1718SOL    HW116613   0.542   2.268   7.317 -0.9410  0.8731 -0.0732
 1718SOL    HW216614   0.628   2.187   7.400  0.4792 -0.8606  0.0993
 1719SOL     OW16615   2.142   1.717  10.215  0.0099 -0.2326  0.2438
 1719SOL    HW116616   2.048   1.697  10.220  0.4904 -1.9265  2.7711
 1719SOL    HW216617   2.161   1.678  10.130 -0.6252 -0.5469  0.2449
 1720SOL     OW16618   1.960   3.909   3.114 -0.2784 -0.3801 -0.6385
 1720SOL    HW116619   1.976   3.820   3.145 -1.2904  0.1902  1.4531
 1720SOL    HW216620   1.925   3.888   3.027 -1.2460 -1.7515  0.1011
 1721SOL     OW16621   4.575   1.613  17.510 -0.2252 -0.0697 -0.0259
 1721SOL    HW116622   4.644   1.651  17.455  1.2286 -0.5810  1.4494
 1721SOL    HW216623   4.622   1.614  17.593  1.0886  1.8793 -0.7928
 1722SOL     OW16624   3.503   1.926   2.731 -0.4728  0.4320 -0.0858
 1722SOL    HW116625   3.459   1.903   2.649 -0.4226 -2.1851  0.6137
 1722SOL    HW216626   3.475   1.855   2.789 -0.4111 -0.9790 -1.7655
 1723SOL     OW16627   1.091   4.403   3.640  0.2397  0.6340  1.0205
 1723SOL    HW116628   1.137   4.344   3.699  0.4970  0.4908  0.6821
 1723SOL    HW216629   1.008   4.355   3.632  1.5271 -1.2123 -1.6361
 1724SOL     OW16630   2.019   2.832  12.852  0.0737  0.2251  0.0711
 1724SOL    HW116631   1.959   2.790  12.791 -0.2614  2.3601 -1.0889
 1724SOL    HW216632   2.077   2.756  12.864 -1.4259 -0.9014  0.1788
 1725SOL     OW16633   3.307   1.452   5.947 -0.2131 -0.0616 -0.1816
 1725SOL    HW116634   3.220   1.491   5.938  1.0617  2.1041 -3.0361
 1725SOL    HW216635   3.333   1.421   5.860 -0.2838 -0.5531 -0.0304
 1726SOL     OW16636   0.184   4.414   9.786 -0.2527 -0.2205  0.4047
 1726SOL    HW116637   0.272   4.421   9.749 -0.1566  1.1882  0.9332
 1726SOL    HW216638   0.179   4.321   9.811  0.7823 -0.9589 -2.0712
 1727SOL     OW16639   2.453   3.092   4.504  0.1619  0.5195 -0.3345
 1727SOL    HW116640   2.455   3.027   4.433 -2.3180  2.4473 -2.1952
 1727SOL    HW216641   2.491   3.046   4.579  0.6482  1.4633 -0.0091
 1728SOL     OW16642   2.360   3.680   7.902 -0.5538  0.1051  0.2641
 1728SOL    HW116643   2.414   3.631   7.965 -0.5942 -0.8991 -0.4976
 1728SOL    HW216644   2.277   3.633   7.902  0.1192 -1.1028  1.8817
 1729SOL     OW16645   3.731   4.495   7.444  0.2319 -0.0529  0.1664
 1729SOL    HW116646   3.816   4.535   7.423  0.5321 -0.8595 -0.1493
 1729SOL    HW216647   3.674   4.571   7.447 -0.6520 -0.6692 -1.2666
 1730SOL     OW16648   2.410   2.731   3.199 -0.1988 -0.1092  0.0246
 1730SOL    HW116649   2.390   2.658   3.140 -0.7666 -0.7699  1.0288
 1730SOL    HW216650   2.412   2.695   3.288  1.6877 -0.1026 -0.0261
 1731SOL     OW16651   0.170   3.512  15.492  0.2002  0.5146 -0.1295
 1731SOL    HW116652   0.254   3.490  15.451 -0.3654 -1.8663 -0.0376
 1731SOL    HW216653   0.202   3.528  15.581 -0.7516  0.6345  0.1908
 1732SOL     OW16654   4.670   3.399   5.772 -0.7722  0.2791 -0.2213
 1732SOL    HW116655   0.039   3.408   5.752 -0.5165  1.4322  1.5149
 1732SOL    HW216656   4.682   3.369   5.862  0.6833  3.0276  0.5079
 1733SOL     OW16657   3.390   0.041  11.118 -0.3254  0.2480 -0.0686
 1733SOL    HW116658   3.442   4.685  11.115 -3.1486 -1.5575 -0.4403
 1733SOL    HW216659   3.343   0.043  11.035  2.4835  3.4600 -1.5885
 1734SOL     OW16660   2.646   4.313   8.317  0.1428 -0.3925 -0.4040
 1734SOL    HW116661   2.591   4.259   8.261 -2.1414 -0.1188  1.5735
 1734SOL    HW216662   2.698   4.244   8.359  2.0526  3.2419  3.1860
 1735SOL     OW16663   1.739   1.582   7.560 -0.2803 -0.2867 -0.0355
 1735SOL    HW116664   1.707   1.569   7.471 -2.2373 -0.4771  0.7065
 1735SOL    HW216665   1.783   1.497   7.572  3.2230  1.2252 -2.1776
 1736SOL     OW16666   1.961   0.904  17.402 -0.2064  0.2447 -0.3212
 1736SOL    HW116667   1.874   0.866  17.414 -0.1554  0.4953  0.8323
 1736SOL    HW216668   1.982   0.875  17.313  0.7252 -2.0163  0.6566
 1737SOL     OW16669   1.922   2.262   1.323 -0.4345 -0.5126 -0.2644
 1737SOL    HW116670   2.009   2.284   1.358 -0.6026  3.1144 -2.0510
 1737SOL    HW216671   1.960   2.200   1.261  2.1118  1.2454 -0.4731
 1738SOL     OW16672   2.606   0.401  11.195  0.3771 -0.5433 -0.4639
 1738SOL    HW116673   2.523   0.356  11.176  0.2354 -1.1021  1.3743
 1738SOL    HW216674   2.629   0.346  11.271 -1.2697  0.2724  0.6390
 1739SOL     OW16675   2.946   0.770  11.919 -0.1205  0.9975  0.0085
 1739SOL    HW116676   2.896   0.749  11.997  1.4631  1.3394  1.1146
 1739SOL    HW216677   2.907   0.710  11.856  0.6306 -0.9266  1.3649
 1740SOL     OW16678   3.132   0.130   2.043  0.1521 -0.0469 -0.1002
 1740SOL    HW116679   3.174   0.098   2.123  0.2093  0.0501 -0.0921
 1740SOL    HW216680   3.113   0.222   2.060  1.0499 -0.1001  1.1568
 1741SOL     OW16681   0.839   0.064   1.352  0.3112 -0.1021  0.9061
 1741SOL    HW116682   0.898   0.030   1.419  1.0899 -0.8188 -0.1440
 1741SOL    HW216683   0.791   4.715   1.314  2.4731 -0.2214 -1.6255
 1742SOL     OW16684   0.282   0.897   2.133  0.8729  0.1109  0.4224
 1742SOL    HW116685   0.327   0.980   2.120 -1.8132  1.7551  1.6768
 1742SOL    HW216686   0.355   0.835   2.128  0.7094 -0.3186  3.4530
 1743SOL     OW16687   4.607   3.368   4.346  0.2234 -0.4881  0.2008
 1743SOL    HW116688   4.604   3.360   4.251  0.8006 -1.5822  0.2677
 1743SOL    HW216689   4.519   3.404   4.360  0.5676 -0.1703  1.5454
 1744SOL     OW16690   0.819   4.443   6.201 -0.0465  0.0736  0.8553
 1744SOL    HW116691   0.765   4.447   6.280  0.3975 -1.9295  1.2479
 1744SOL    HW216692   0.841   4.537   6.198 -3.7526  0.9132  0.0615
 1745SOL     OW16693   4.001   4.027   2.974  0.0925 -0.7360 -0.4506
 1745SOL    HW116694   3.997   4.098   3.039  4.5660 -0.5912 -0.3196
 1745SOL    HW216695   4.079   4.048   2.922  0.0825 -1.5908 -0.7974
 1746SOL     OW16696   4.636   1.354   7.350  0.1188  0.0145  0.2461
 1746SOL    HW116697   4.648   1.300   7.428 -0.0241  0.2685  0.4433
 1746SOL    HW216698   4.723   1.391   7.337  0.9337 -0.7447  3.4978
 1747SOL     OW16699   0.173   4.153   8.959 -0.6430  0.4707  0.5856
 1747SOL    HW116700   0.194   4.244   8.979  1.2627 -0.1442  1.4104
 1747SOL    HW216701   0.258   4.127   8.923 -0.6733 -0.3717  1.1167
 1748SOL     OW16702   2.427   4.589   9.529 -0.0500 -0.1222 -0.0151
 1748SOL    HW116703   2.485   4.528   9.574 -1.2866  0.5867  2.5644
 1748SOL    HW216704   2.371   4.524   9.487  0.5654 -0.1179 -0.8290
 1749SOL     OW16705   2.571   1.489   3.329  0.2574 -0.7150  0.5242
 1749SOL    HW116706   2.547   1.563   3.385  2.5493  0.0827  0.4517
 1749SOL    HW216707   2.488   1.499   3.283  0.5398  1.8017  0.6006
 1750SOL     OW16708   1.727   0.761   3.627 -0.6009  0.2859 -0.0279
 1750SOL    HW116709   1.726   0.790   3.536  2.6203 -2.1306 -0.8169
 1750SOL    HW216710   1.810   0.797   3.659  0.1266 -1.2520 -0.1934
 1751SOL     OW16711   0.963   2.556  16.115 -0.3450 -0.3801  0.2981
 1751SOL    HW116712   0.955   2.472  16.159  1.4495 -0.0092  1.3546
 1751SOL    HW216713   0.875   2.593  16.117 -1.4119 -2.9470  0.7537
 1752SOL     OW16714   0.919   2.983  14.867  0.0587 -0.0423 -0.0096
 1752SOL    HW116715   0.855   3.018  14.804 -1.7052 -1.4732  0.9681
 1752SOL    HW216716   0.980   2.930  14.816 -0.7718 -1.6444  0.6494
 1753SOL     OW16717   0.777   0.246   1.560  0.0043  0.2275 -0.2023
 1753SOL    HW116718   0.802   0.183   1.493 -1.2486  0.1828 -0.6245
 1753SOL    HW216719   0.751   0.326   1.513 -0.6257  0.3582  0.3711
 1754SOL     OW16720   0.357   2.043   2.605 -0.6002 -0.4005 -0.9050
 1754SOL    HW116721   0.432   2.008   2.652 -1.5862 -0.5215  0.5549
 1754SOL    HW216722   0.373   2.004   2.518  1.7921 -1.9573  0.2357
 1755SOL     OW16723   3.787   2.510  12.956 -0.3769 -0.4452 -0.1828
 1755SOL    HW116724   3.800   2.580  12.892  1.3050  0.3089  0.9940
 1755SOL    HW216725   3.765   2.571  13.026  1.2040 -1.8994  1.5481
 1756SOL     OW16726   2.740   1.471   7.448 -0.6947  0.9603  0.3794
 1756SOL    HW116727   2.754   1.396   7.507 -0.0023  1.3124  0.6712
 1756SOL    HW216728   2.733   1.422   7.366  0.3193 -0.0795  0.9132
 1757SOL     OW16729   0.877   2.347  11.364  0.1951 -0.0825  0.1386
 1757SOL    HW116730   0.964   2.314  11.341  1.3302  1.2520  2.4772
 1757SOL    HW216731   0.877   2.434  11.324 -0.3952 -0.3048 -0.3436
 1758SOL     OW16732   1.569   2.892   3.080  0.4844  0.0323  0.3976
 1758SOL    HW116733   1.570   2.888   3.175  0.4469 -1.6331  0.3301
 1758SOL    HW216734   1.639   2.831   3.058 -0.0429 -0.0507 -1.0485
 1759SOL     OW16735   1.871   3.423   1.830 -0.4423  0.3516  0.1513
 1759SOL    HW116736   1.881   3.405   1.923  5.2700  1.8752 -0.1844
 1759SOL    HW216737   1.902   3.513   1.829 -0.4545  0.3500 -1.0340
 1760SOL     OW16738   0.389   4.656   5.654 -0.5577  0.3763  0.1931
 1760SOL    HW116739   0.483   4.670   5.668 -0.4971 -0.4402  0.6057
 1760SOL    HW216740   0.394   4.564   5.628  2.3071  0.6435 -0.2346
 1761SOL     OW16741   3.613   2.329   3.270  0.1462  0.2499 -0.2850
 1761SOL    HW116742   3.609   2.274   3.191  0.6679  2.7358 -2.0211
 1761SOL    HW216743   3.687   2.289   3.315  0.8723 -1.0119 -2.5682
 1762SOL     OW16744   2.774   2.137   9.450 -0.0694 -0.0076  0.6029
 1762SOL    HW116745   2.859   2.104   9.422 -0.4015  0.9347 -1.4895
 1762SOL    HW216746   2.708   2.068   9.438 -0.7684  0.7464  0.1079
 1763SOL     OW16747   0.636   2.836   2.147  0.3346  0.5183 -0.1803
 1763SOL    HW116748   0.578   2.761   2.138  0.4105  0.6514 -1.7419
 1763SOL    HW216749   0.567   2.902   2.158  2.3674  2.0888  3.1458
 1764SOL     OW16750   3.517   1.430   5.184  0.0688 -0.3527 -0.6842
 1764SOL    HW116751   3.554   1.407   5.099  0.0032 -2.0346 -0.2740
 1764SOL    HW216752   3.548   1.519   5.199  1.9238 -1.4283  1.9933
 1765SOL     OW16753   1.904   3.862   5.169  0.0862 -0.7241 -0.1736
 1765SOL    HW116754   1.949   3.906   5.097 -0.9081 -2.2696 -1.7306
 1765SOL    HW216755   1.817   3.860   5.131  0.1123 -3.3445 -0.1333
 1766SOL     OW16756   3.046   1.455   3.133 -0.2526  0.2426 -0.5450
 1766SOL    HW116757   2.981   1.420   3.194  1.0139 -1.0884  0.0518
 1766SOL    HW216758   3.055   1.377   3.077 -0.6174  0.2962 -0.6762
 1767SOL     OW16759   4.240   0.455   4.715 -0.1101 -0.6079 -0.7056
 1767SOL    HW116760   4.267   0.364   4.729  1.2408 -0.0812  0.1207
 1767SOL    HW216761   4.312   0.496   4.763  0.2756 -0.4370 -1.4397
 1768SOL     OW16762   1.029   4.315  11.880  0.3396  0.4882 -0.7015
 1768SOL    HW116763   0.947   4.356  11.852 -0.7903 -1.5277 -0.3316
 1768SOL    HW216764   1.094   4.385  11.867 -0.8883  1.7920  0.1989
 1769SOL     OW16765   2.929   3.893   4.577  0.1145  0.5411  0.6421
 1769SOL    HW116766   2.952   3.974   4.622 -1.5017  0.3408  1.8142
 1769SOL    HW216767   2.849   3.864   4.620  0.8390 -2.8097 -0.3051
 1770SOL     OW16768   0.603   1.567   6.630 -0.4962 -0.1774 -0.1728
 1770SOL    HW116769   0.606   1.636   6.564  3.4221 -1.1475 -0.9778
 1770SOL    HW216770   0.511   1.538   6.628 -0.2920 -0.7366 -1.6401
 1771SOL     OW16771   0.511   3.282   8.350 -1.0452 -0.1042  0.2738
 1771SOL    HW116772   0.556   3.201   8.329  0.9572  1.2941 -0.8560
 1771SOL    HW216773   0.502   3.288   8.445 -3.3042  0.3660  0.0482
 1772SOL     OW16774   1.212   0.534  17.549 -0.3490  0.5960 -0.3477
 1772SOL    HW116775   1.156   0.511  17.623 -0.8733 -0.3772 -1.0309
 1772SOL    HW216776   1.139   0.542  17.486  0.4021  0.8301 -1.1833
 1773SOL     OW16777   1.209   0.380  14.033 -0.1960 -0.3342 -0.0930
 1773SOL    HW116778   1.173   0.429  14.107  0.4486 -1.5585  1.0228
 1773SOL    HW216779   1.263   0.318  14.082  2.3009  0.5613 -1.7553
 1774SOL     OW16780   3.625   4.318   2.276 -0.3018  0.3944  0.4164
 1774SOL    HW116781   3.642   4.233   2.237  0.2837  0.0661  1.3620
 1774SOL    HW216782   3.546   4.304   2.329 -2.1140  1.9794 -1.8746
 1775SOL     OW16783   4.536   0.796   6.593  0.4278 -0.1257  0.7446
 1775SOL    HW116784   4.545   0.885   6.558 -2.4239 -0.1790 -0.1647
 1775SOL    HW216785   4.593   0.751   6.530  1.3096  1.7979  0.1519
 1776SOL     OW16786   0.073   2.348   3.508  0.0061 -0.2296 -0.5104
 1776SOL    HW116787   0.020   2.374   3.583  1.5009  0.4594  0.3094
 1776SOL    HW216788   0.010   2.319   3.442 -1.8643 -0.5763  1.4288
 1777SOL     OW16789   2.599   3.630   9.965  0.0516 -0.0001  0.0616
 1777SOL    HW116790   2.573   3.612  10.056 -2.4593  1.9059 -0.2593
 1777SOL    HW216791   2.625   3.722   9.967  1.9062 -0.5585  1.0868
 1778SOL     OW16792   1.748   0.245   5.727  0.3631 -0.1478 -0.6035
 1778SOL    HW116793   1.723   0.292   5.806  1.4775  0.0870 -0.3992
 1778SOL    HW216794   1.819   0.190   5.759 -1.8711 -2.7933 -0.0753
 1779SOL     OW16795   2.491   4.550   6.659 -0.7792  0.0349  0.1396
 1779SOL    HW116796   2.573   4.597   6.642 -0.4572  0.6310  3.2319
 1779SOL    HW216797   2.436   4.627   6.673  1.1550  1.4746 -0.1586
 1780SOL     OW16798   0.157   0.659  17.632  0.3341 -0.6068  0.6235
 1780SOL    HW116799   0.176   0.747  17.598  1.1611  0.8689  4.8091
 1780SOL    HW216800   0.074   0.643  17.588 -0.2751  2.1358  0.7784
 1781SOL     OW16801   3.390   4.359   4.717 -0.0845 -0.1528  0.0928
 1781SOL    HW116802   3.306   4.388   4.755  1.8824  1.4590  3.2917
 1781SOL    HW216803   3.372   4.266   4.728 -0.2553  0.1116  2.2230
 1782SOL     OW16804   0.282   1.937  13.332 -0.0157  0.5263  0.2424
 1782SOL    HW116805   0.260   1.876  13.262 -0.0112  2.0096 -1.0475
 1782SOL    HW216806   0.360   1.891  13.362  0.2726  0.6812 -0.2796
 1783SOL     OW16807   2.924   0.367   4.157 -0.3466  0.5238 -0.1480
 1783SOL    HW116808   2.966   0.416   4.228 -2.3820  0.9870  0.7496
 1783SOL    HW216809   3.005   0.329   4.123 -0.1203  1.3410 -0.5268
 1784SOL     OW16810   0.802   4.325   1.893 -0.2180  0.6023 -0.0749
 1784SOL    HW116811   0.724   4.329   1.947 -0.8239 -3.0787 -0.6798
 1784SOL    HW216812   0.852   4.269   1.952 -2.4968 -1.2578  0.0433
 1785SOL     OW16813   3.955   4.428  14.824 -0.1399  0.0782 -0.7665
 1785SOL    HW116814   3.968   4.523  14.828 -1.3799  0.2000  0.3991
 1785SOL    HW216815   3.943   4.418  14.919  0.5935 -0.8118 -0.7732
 1786SOL     OW16816   4.538   2.016  16.763 -0.2104  0.3394 -0.0490
 1786SOL    HW116817   4.492   1.996  16.845  1.4437 -2.2015  0.2445
 1786SOL    HW216818   4.488   1.971  16.694  1.8837 -0.7654 -0.8344
 1787SOL     OW16819   2.302   3.154   9.554 -0.0983  0.3791  0.2622
 1787SOL    HW116820   2.278   3.089   9.488  0.1293 -0.3897  0.9415
 1787SOL    HW216821   2.236   3.125   9.617  0.6120  0.5540  1.0965
 1788SOL     OW16822   1.436   1.584   2.494 -0.0675  0.0370  0.4370
 1788SOL    HW116823   1.514   1.533   2.513  0.3944  0.8053  0.5816
 1788SOL    HW216824   1.464   1.657   2.440  1.4127 -1.1076 -0.3439
 1789SOL     OW16825   2.629   0.120  14.540 -0.2661  0.5530  0.3790
 1789SOL    HW116826   2.648   0.042  14.592 -1.8704 -0.5524 -0.6805
 1789SOL    HW216827   2.684   0.189  14.577 -0.2045  1.2076 -0.9485
 1790SOL     OW16828   2.543   3.999   9.998 -0.3516  0.3788  0.6814
 1790SOL    HW116829   2.454   3.992  10.032  0.8201  0.4584  3.7542
 1790SOL    HW216830   2.543   4.090   9.970 -0.8123  0.5718  1.3248
 1791SOL     OW16831   1.205   2.077   3.685 -0.6304  0.0854  0.0225
 1791SOL    HW116832   1.300   2.073   3.676 -0.6988 -1.5964  0.0323
 1791SOL    HW216833   1.190   2.000   3.740  1.8141 -0.3486  0.0605
 1792SOL     OW16834   3.860   1.029   2.414  0.0872  0.1918  0.3122
 1792SOL    HW116835   3.822   0.945   2.390  0.2997  0.3731 -0.6320
 1792SOL    HW216836   3.814   1.056   2.494 -1.2407  0.5230 -0.5786
 1793SOL     OW16837   2.468   0.754  12.874 -0.7762  0.7065  0.0964
 1793SOL    HW116838   2.441   0.829  12.821  0.2363  1.1608  0.2251
 1793SOL    HW216839   2.458   0.684  12.809  0.4464  0.6593 -0.0397
 1794SOL     OW16840   2.011   0.642  15.868 -0.2071  0.0330  0.8171
 1794SOL    HW116841   1.964   0.562  15.891  0.8498  0.0439  3.1038
 1794SOL    HW216842   1.958   0.672  15.795 -1.6936  0.1079  1.9335
 1795SOL     OW16843   2.299   1.023   7.290  0.5098 -0.2801 -0.5899
 1795SOL    HW116844   2.207   1.001   7.278  0.2683  0.0177  0.7115
 1795SOL    HW216845   2.293   1.039   7.384  0.9539  0.9070 -0.7655
 1796SOL     OW16846   3.023   0.693   1.236 -0.5797 -0.7212 -0.0082
 1796SOL    HW116847   3.055   0.675   1.148 -0.8355 -1.2202 -0.0043
 1796SOL    HW216848   3.003   0.602   1.260  0.3064 -1.0621 -0.5588
 1797SOL     OW16849   1.496   0.447   4.606 -0.2495  0.2069 -0.2617
 1797SOL    HW116850   1.403   0.426   4.597 -0.2031  0.4359 -1.2976
 1797SOL    HW216851   1.531   0.421   4.521  0.1989  1.8008 -0.5548
 1798SOL     OW16852   0.137   1.623   5.899 -0.1205 -0.4961 -0.5083
 1798SOL    HW116853   0.230   1.630   5.878 -0.1931 -2.1114 -1.3862
 1798SOL    HW216854   0.132   1.645   5.992  0.1367  0.0772 -0.6269
 1799SOL     OW16855   1.189   1.153  11.461  0.2665  0.8980 -0.7370
 1799SOL    HW116856   1.185   1.247  11.448 -2.2046  0.9415  0.3901
 1799SOL    HW216857   1.259   1.148  11.526  2.4062  0.6569 -3.0657
 1800SOL     OW16858   4.513   4.620  17.187 -0.1502  0.0773  0.6721
 1800SOL    HW116859   4.605   4.594  17.194 -0.0116 -0.1253 -2.0445
 1800SOL    HW216860   4.502   4.663  17.272  0.3155 -0.4109  0.9823
 1801SOL     OW16861   4.643   4.047  11.565 -0.6157 -0.2325 -0.4027
 1801SOL    HW116862   0.009   4.020  11.585 -0.7601 -1.3984 -1.2770
 1801SOL    HW216863   4.613   3.989  11.495  0.1724  0.3838 -1.2560
 1802SOL     OW16864   1.330   3.196   3.936 -0.6455 -0.1538  0.0273
 1802SOL    HW116865   1.303   3.287   3.919 -0.4114  0.1468  1.2305
 1802SOL    HW216866   1.364   3.172   3.850 -0.7051  0.2649 -0.1144
 1803SOL     OW16867   2.336   4.418   2.067  0.5528 -0.0255 -0.5493
 1803SOL    HW116868   2.418   4.452   2.101  0.9878  0.3472 -1.9998
 1803SOL    HW216869   2.290   4.396   2.149  0.9164 -0.5849 -0.4991
 1804SOL     OW16870   2.478   4.696  14.376  0.5160 -0.2319  0.3790
 1804SOL    HW116871   2.546   0.029  14.412  1.5612  0.0563 -1.9901
 1804SOL    HW216872   2.430   4.664  14.451  1.2014 -0.0157  0.9092
 1805SOL     OW16873   0.573   2.066   6.871  0.4020  0.0709  0.2911
 1805SOL    HW116874   0.514   2.085   6.944  0.2039 -0.6317  0.3072
 1805SOL    HW216875   0.646   2.116   6.907  0.1939  1.0366 -0.5919
 1806SOL     OW16876   3.824   2.623   3.378 -0.3953  0.4656  0.1523
 1806SOL    HW116877   3.890   2.685   3.408 -1.3165  1.1625  0.7540
 1806SOL    HW216878   3.881   2.560   3.334 -1.1950 -1.5354  1.9390
 1807SOL     OW16879   1.226   2.067   5.643 -0.1038 -0.3139 -0.6732
 1807SOL    HW116880   1.147   2.022   5.676 -0.1441 -1.7791 -2.7577
 1807SOL    HW216881   1.279   1.988   5.633 -1.9991 -1.5790 -0.8671
 1808SOL     OW16882   4.334   2.749   1.870 -0.2807 -0.8137 -0.0845
 1808SOL    HW116883   4.393   2.722   1.940 -0.8668 -1.8038  0.0309
 1808SOL    HW216884   4.393   2.785   1.804 -1.7197 -0.6420 -1.2789
 1809SOL     OW16885   1.819   4.157   5.586  0.0999  0.1792  0.3337
 1809SOL    HW116886   1.741   4.186   5.633  0.1814  0.0968  0.5212
 1809SOL    HW216887   1.791   4.164   5.495 -0.7911 -0.5060  0.5588
 1810SOL     OW16888   2.835   3.131  17.117  0.2147 -0.1187  0.2775
 1810SOL    HW116889   2.858   3.117  17.209  1.2917  2.9287  0.4769
 1810SOL    HW216890   2.765   3.195  17.127 -1.5688 -1.7818 -1.6259
 1811SOL     OW16891   1.469   3.848   1.003 -0.1900 -0.1585  0.4539
 1811SOL    HW116892   1.421   3.788   1.060 -1.1727  0.2950  0.1110
 1811SOL    HW216893   1.483   3.929   1.051  0.0757 -0.7872  1.4326
 1812SOL     OW16894   4.231   3.101   0.474  0.2872 -0.2125 -0.5380
 1812SOL    HW116895   4.198   3.012   0.465 -0.0920 -0.1871  0.6875
 1812SOL    HW216896   4.174   3.130   0.544  0.7146 -0.4547 -0.0837
 1813SOL     OW16897   1.689   2.024   8.666 -0.2061 -0.6767  0.2655
 1813SOL    HW116898   1.625   1.992   8.603 -0.3502  0.5526 -0.2018
 1813SOL    HW216899   1.633   2.051   8.739 -2.7583 -2.3851 -1.0349
 1814SOL     OW16900   2.044   1.793   7.136  0.2920  0.5506 -0.3540
 1814SOL    HW116901   2.133   1.827   7.127  0.7965 -0.6508  0.0564
 1814SOL    HW216902   2.029   1.738   7.059  0.6422  0.3347 -0.2674
 1815SOL     OW16903   1.233   3.931   1.897 -0.3608  0.1982  0.1711
 1815SOL    HW116904   1.148   3.890   1.883  0.8938 -2.4755  0.2853
 1815SOL    HW216905   1.268   3.875   1.966 -1.5878  0.0834  0.6858
 1816SOL     OW16906   0.755   2.843   6.003 -0.2716  0.1616 -0.2667
 1816SOL    HW116907   0.794   2.785   5.938 -1.8986 -1.3240  0.0744
 1816SOL    HW216908   0.662   2.839   5.981  0.1161  0.8372 -2.0054
 1817SOL     OW16909   1.113   0.853   2.386  0.3396  0.4044  0.2221
 1817SOL    HW116910   1.086   0.825   2.474  0.8967 -1.0511 -0.0840
 1817SOL    HW216911   1.208   0.850   2.398  0.4322  3.0886  0.1662
 1818SOL     OW16912   1.011   1.714  16.956  0.6390  0.0403 -0.1233
 1818SOL    HW116913   0.983   1.796  16.916 -1.2450 -1.2205 -1.3197
 1818SOL    HW216914   1.101   1.730  16.985 -1.0553  4.4746  2.6618
 1819SOL     OW16915   2.554   2.731  14.741  0.2018 -0.2144  0.3626
 1819SOL    HW116916   2.466   2.695  14.728  0.3516 -0.8242  1.0521
 1819SOL    HW216917   2.602   2.655  14.773  1.8405  0.1540 -1.1718
 1820SOL     OW16918   0.944   3.188   1.590  0.2922 -0.3276  0.7665
 1820SOL    HW116919   0.981   3.271   1.619  0.0566  0.2180 -0.4726
 1820SOL    HW216920   0.924   3.210   1.499 -2.9547  2.1092  2.0698
 1821SOL     OW16921   4.222   0.398   7.912 -0.2676 -0.2822  0.0368
 1821SOL    HW116922   4.173   0.399   7.830  1.3163 -4.0735 -0.8994
 1821SOL    HW216923   4.166   0.466   7.952  0.3667  1.4066 -1.9461
 1822SOL     OW16924   3.988   1.400   2.569  0.6555 -0.2871  0.0896
 1822SOL    HW116925   4.047   1.335   2.530  0.6576  1.2648 -2.5073
 1822SOL    HW216926   3.919   1.345   2.606  1.7373 -1.0968  0.9174
 1823SOL     OW16927   2.117   3.648   1.362  0.3087 -0.3995 -0.5561
 1823SOL    HW116928   2.181   3.668   1.431 -0.6678  2.6262 -0.5542
 1823SOL    HW216929   2.034   3.656   1.408  0.0909 -1.6388 -0.7387
 1824SOL     OW16930   3.344   2.716  14.451  0.3919  0.1625  0.0600
 1824SOL    HW116931   3.402   2.756  14.386 -0.1312 -1.3504 -1.3153
 1824SOL    HW216932   3.264   2.698  14.403  0.0939  1.5285  0.0349
 1825SOL     OW16933   4.182   3.928   6.832 -0.3886 -0.0150  0.6282
 1825SOL    HW116934   4.224   3.985   6.768 -0.3888 -0.4160  0.2750
 1825SOL    HW216935   4.214   3.840   6.811 -1.4888 -0.0759 -0.7617
 1826SOL     OW16936   1.837   4.027   2.246 -0.1849 -0.4207  0.6040
 1826SOL    HW116937   1.789   4.061   2.170 -0.1091  0.7895  1.0911
 1826SOL    HW216938   1.921   4.018   2.201  0.0832  2.0015  0.6021
 1827SOL     OW16939   2.817   3.588   6.643  0.2103  0.5221  0.9054
 1827SOL    HW116940   2.728   3.585   6.608 -0.8443  1.1979  3.5558
 1827SOL    HW216941   2.795   3.526   6.712 -4.1208 -1.6045 -2.3678
 1828SOL     OW16942   2.390   2.191   2.620  0.8561  0.0832 -0.4741
 1828SOL    HW116943   2.417   2.278   2.593  0.3443  0.2551 -0.4204
 1828SOL    HW216944   2.316   2.209   2.678  1.9783  1.2064  0.6320
 1829SOL     OW16945   2.918   1.166   6.266  0.2048  0.1690  0.2397
 1829SOL    HW116946   2.970   1.209   6.334  0.0846  2.1519 -0.9200
 1829SOL    HW216947   2.983   1.170   6.195  0.5268  0.1506  0.5307
 1830SOL     OW16948   1.462   0.865   7.119 -0.2205  0.1947 -0.6522
 1830SOL    HW116949   1.546   0.893   7.082 -0.0452  1.8525  0.9557
 1830SOL    HW216950   1.440   0.786   7.070 -3.8812  1.7215 -1.4622
 1831SOL     OW16951   2.667   0.708  13.501  0.5032  0.5363  0.7921
 1831SOL    HW116952   2.751   0.662  13.507  1.7084  3.0495  3.4280
 1831SOL    HW216953   2.605   0.653  13.550 -1.3160 -0.0103 -2.1107
 1832SOL     OW16954   3.218   4.289   4.441  0.0680 -0.2046  0.3082
 1832SOL    HW116955   3.209   4.250   4.354 -0.7357  1.6217 -0.4301
 1832SOL    HW216956   3.297   4.245   4.470  0.6473 -0.4184 -1.6175
 1833SOL     OW16957   1.322   1.454   2.061  0.0818 -0.0894  0.2165
 1833SOL    HW116958   1.235   1.456   2.020  0.4616  0.8315 -0.5555
 1833SOL    HW216959   1.335   1.548   2.076 -3.5162  0.3916  0.3933
 1834SOL     OW16960   2.620   2.366   7.961 -0.1256 -0.6982 -0.1030
 1834SOL    HW116961   2.644   2.458   7.951  1.1558 -1.0108  0.0928
 1834SOL    HW216962   2.545   2.374   7.902 -0.0161 -2.5847 -0.5002
 1835SOL     OW16963   4.083   2.040   5.245  0.2683  0.1611  0.2682
 1835SOL    HW116964   4.025   2.112   5.268 -0.5755 -0.2743 -0.4887
 1835SOL    HW216965   4.155   2.092   5.209  0.4293 -0.3222 -0.1227
 1836SOL     OW16966   2.710   2.899  10.485 -0.1134 -0.0525  0.0697
 1836SOL    HW116967   2.750   2.922  10.401  0.1119  0.1812  0.2428
 1836SOL    HW216968   2.790   2.900  10.537  0.7751  1.1837 -1.3073
 1837SOL     OW16969   0.300   1.037  16.644  0.1476 -0.5420 -0.2780
 1837SOL    HW116970   0.261   0.981  16.711 -1.7625  0.5962 -0.4528
 1837SOL    HW216971   0.388   0.998  16.643  0.7495  0.8588 -2.0330
 1838SOL     OW16972   0.840   1.741  14.861  0.3247 -0.2860 -0.6859
 1838SOL    HW116973   0.915   1.697  14.822 -0.6995 -1.6579 -1.0937
 1838SOL    HW216974   0.885   1.785  14.933 -3.1516  3.0019 -0.4980
 1839SOL     OW16975   1.049   1.293   5.042  0.1351  0.2628  0.1906
 1839SOL    HW116976   1.123   1.348   5.015  1.5103 -1.9409 -0.5585
 1839SOL    HW216977   0.985   1.309   4.972  1.7331  2.2512 -0.8390
 1840SOL     OW16978   2.330   3.584   8.657  0.5329  0.1434 -0.4231
 1840SOL    HW116979   2.255   3.556   8.604 -0.0685 -1.3050  1.2156
 1840SOL    HW216980   2.333   3.518   8.727 -2.6770  2.8684  2.2249
 1841SOL     OW16981   1.924   2.159   3.286 -0.1159 -0.2385 -0.2103
 1841SOL    HW116982   1.911   2.065   3.280  0.4438 -0.2501 -1.1846
 1841SOL    HW216983   1.855   2.177   3.350 -0.2564  1.5948 -0.8596
 1842SOL     OW16984   4.085   3.008  16.293  0.0734  0.7656 -0.1277
 1842SOL    HW116985   4.165   2.955  16.287 -0.0844  0.4632  0.4056
 1842SOL    HW216986   4.029   2.966  16.228  1.2410 -0.8302 -0.1097
 1843SOL     OW16987   3.592   4.214   4.977 -0.3237 -0.5184  0.0091
 1843SOL    HW116988   3.511   4.208   5.026 -1.6741 -0.9735 -2.2817
 1843SOL    HW216989   3.563   4.245   4.891  2.7986  2.4824  0.0299
 1844SOL     OW16990   0.590   1.429   4.956  0.0869  0.1688 -0.5734
 1844SOL    HW116991   0.503   1.404   4.988 -0.1879  0.7058 -0.9019
 1844SOL    HW216992   0.582   1.524   4.953  0.3501  0.3033  2.7362
 1845SOL     OW16993   2.706   0.750   2.750  0.0375  0.2849  0.0461
 1845SOL    HW116994   2.730   0.842   2.764 -1.7085  0.6512  0.7206
 1845SOL    HW216995   2.683   0.729   2.841  1.3309  0.4905  0.4230
 1846SOL     OW16996   1.104   4.157   0.806  0.1263 -0.0167  0.2227
 1846SOL    HW116997   1.112   4.066   0.835  0.5592  0.0260  0.2352
 1846SOL    HW216998   1.022   4.181   0.850  0.2766 -1.3115  1.2135
 1847SOL     OW16999   4.036   2.483   7.127  0.5011  0.0250  0.1275
 1847SOL    HW117000   4.024   2.428   7.050 -0.7944  2.2573 -1.2531
 1847SOL    HW217001   3.948   2.468   7.161  0.4737  0.9969  0.4789
 1848SOL     OW17002   0.992   1.779   4.808  0.1047  0.1534  0.4686
 1848SOL    HW117003   1.037   1.735   4.736  0.0885  1.6940 -0.4772
 1848SOL    HW217004   0.974   1.709   4.872  1.6847 -0.4836  0.2056
 1849SOL     OW17005   1.800   4.184   0.491 -0.7099 -0.4303  0.6752
 1849SOL    HW117006   1.805   4.107   0.434 -1.3901  0.0073  0.0218
 1849SOL    HW217007   1.857   4.251   0.453 -0.3215 -0.3137  1.4667
 1850SOL     OW17008   1.865   2.052   8.452  0.3432  0.2640  0.1200
 1850SOL    HW117009   1.806   2.062   8.527  0.2383 -4.1087  0.6586
 1850SOL    HW217010   1.905   2.136   8.430  0.5098  0.6075  1.7352
 1851SOL     OW17011   4.606   3.998   7.107 -0.7584 -0.7416 -0.4016
 1851SOL    HW117012   4.655   4.050   7.171 -1.2695 -0.3856 -0.2990
 1851SOL    HW217013   4.584   4.064   7.041 -1.3194 -0.1311  0.3951
 1852SOL     OW17014   1.198   0.869   6.712  0.0696 -0.1787  0.0406
 1852SOL    HW117015   1.251   0.793   6.736  0.4848 -0.7959 -2.8937
 1852SOL    HW217016   1.181   0.841   6.622  0.7155 -1.2866  0.2667
 1853SOL     OW17017   4.262   2.423  10.485  0.1571 -0.1296  0.0441
 1853SOL    HW117018   4.350   2.444  10.517 -0.3140  2.3953 -0.3549
 1853SOL    HW217019   4.207   2.420  10.564 -1.3969 -1.7786 -1.0993
 1854SOL     OW17020   0.789   2.401   7.551 -0.3103 -0.5695  0.0179
 1854SOL    HW117021   0.716   2.458   7.576  0.0623  0.9255 -2.3197
 1854SOL    HW217022   0.854   2.423   7.618  0.4513 -3.3309  0.1832
 1855SOL     OW17023   2.174   3.467   3.354 -0.6913  0.0907  0.0187
 1855SOL    HW117024   2.258   3.441   3.315 -0.6507 -0.5991  0.5758
 1855SOL    HW217025   2.192   3.505   3.440 -3.5636 -0.9341  1.0614
 1856SOL     OW17026   4.319   3.902  15.372 -0.4655 -0.2373 -0.1231
 1856SOL    HW117027   4.392   3.942  15.325  0.7792 -1.1199  1.0408
 1856SOL    HW217028   4.248   3.889  15.310 -0.6721  0.5641 -0.0479
 1857SOL     OW17029   0.215   4.573   6.343  0.3724  0.1611 -0.7032
 1857SOL    HW117030   0.174   4.578   6.429  2.5287 -1.6385  0.3890
 1857SOL    HW217031   0.163   4.637   6.294  0.8698  1.5317  0.5626
 1858SOL     OW17032   4.441   3.650   2.680 -0.5441  0.3572  0.3263
 1858SOL    HW117033   4.481   3.571   2.716  0.9293  0.7381 -0.4759
 1858SOL    HW217034   4.496   3.670   2.604  1.0505  0.4851  1.4956
 1859SOL     OW17035   0.112   1.781  17.610 -0.3370  0.0953  0.1661
 1859SOL    HW117036   0.062   1.735  17.678 -1.2375 -0.7240 -1.0578
 1859SOL    HW217037   0.127   1.862  17.659 -0.4714  1.5568 -2.2127
 1860SOL     OW17038   0.081   1.776  11.172  0.5301 -0.5450  0.2922
 1860SOL    HW117039   0.100   1.684  11.193 -1.7413 -0.8388  1.0430
 1860SOL    HW217040   4.711   1.774  11.161  1.0219 -0.5346 -3.9905
 1861SOL     OW17041   3.448   1.360   3.513 -0.0972  0.0806  0.2191
 1861SOL    HW117042   3.452   1.354   3.418 -0.9300  0.5679  0.1573
 1861SOL    HW217043   3.493   1.444   3.522  1.6983 -0.8614  0.1896
 1862SOL     OW17044   2.298   4.683   3.965  0.2028 -0.4906  0.1113
 1862SOL    HW117045   2.223   4.625   3.978  0.3051 -1.1832 -2.3987
 1862SOL    HW217046   2.311   0.008   4.046  0.8281 -1.3150  0.5177
 1863SOL     OW17047   3.667   2.950  12.487  0.2163 -0.0216  0.4930
 1863SOL    HW117048   3.722   3.028  12.478 -0.8985  0.9413  1.8983
 1863SOL    HW217049   3.734   2.888  12.518  1.1908  1.4335  1.3079
 1864SOL     OW17050   2.700   3.258   8.286 -0.4213  0.2213 -0.6525
 1864SOL    HW117051   2.724   3.167   8.306 -0.2217  0.7481  1.4764
 1864SOL    HW217052   2.671   3.254   8.195 -1.9947  1.9791 -0.2208
 1865SOL     OW17053   3.721   0.295   6.937 -0.3717 -0.6574 -0.5040
 1865SOL    HW117054   3.733   0.385   6.965  0.2570 -0.8846 -0.0416
 1865SOL    HW217055   3.782   0.297   6.863 -0.9167 -1.1268 -0.9766
 1866SOL     OW17056   1.807   0.919   4.644  0.3838  0.4471 -0.0318
 1866SOL    HW117057   1.843   0.863   4.713  1.5600 -0.7845 -1.6734
 1866SOL    HW217058   1.767   0.865   4.575  0.0764  0.7840 -0.1169
 1867SOL     OW17059   2.019   4.023   5.746 -0.4391 -0.0502 -0.1373
 1867SOL    HW117060   1.961   4.057   5.678 -1.5816 -1.3141  0.2076
 1867SOL    HW217061   2.100   4.050   5.702 -0.7765  1.3092  0.0680
 1868SOL     OW17062   1.416   3.682  12.576 -0.4865  0.1659 -1.2565
 1868SOL    HW117063   1.440   3.774  12.560 -1.6019  0.8934  1.2464
 1868SOL    HW217064   1.492   3.661  12.632 -0.0744 -0.6376 -2.1139
 1869SOL     OW17065   1.224   0.494  16.519  0.0803 -0.3179 -0.6135
 1869SOL    HW117066   1.242   0.563  16.454 -1.9504  0.2039 -0.6246
 1869SOL    HW217067   1.300   0.505  16.575  0.0513  0.5289 -0.7268
 1870SOL     OW17068   3.989   1.810   7.864 -0.3073 -0.0610 -0.3977
 1870SOL    HW117069   3.897   1.807   7.837 -1.2438  1.0756  2.7546
 1870SOL    HW217070   4.024   1.849   7.784  0.9000  0.6589  0.4915
 1871SOL     OW17071   3.754   2.269  10.573  0.3380  0.6176 -0.4135
 1871SOL    HW117072   3.683   2.307  10.521  0.0607  0.7048  0.0296
 1871SOL    HW217073   3.808   2.345  10.552  2.0125 -0.5405 -0.2837
 1872SOL     OW17074   3.681   1.842   7.056 -0.1633  0.9184  0.3288
 1872SOL    HW117075   3.771   1.816   7.074 -0.0719  0.3163 -0.9538
 1872SOL    HW217076   3.693   1.871   6.965  0.5837  0.0214  0.1405
 1873SOL     OW17077   3.620   3.254   7.228  0.6026  0.1492  0.0327
 1873SOL    HW117078   3.558   3.181   7.226  1.2031 -0.3073 -2.0339
 1873SOL    HW217079   3.696   3.208   7.193  2.0232  1.2942  1.5752
 1874SOL     OW17080   2.140   1.251   4.198 -0.3415  0.2826  0.3623
 1874SOL    HW117081   2.053   1.264   4.160  0.7816  2.0078 -1.6280
 1874SOL    HW217082   2.194   1.311   4.147  0.5475 -0.8398 -0.0386
 1875SOL     OW17083   2.213   0.319  13.391  0.6998 -1.0412  0.0506
 1875SOL    HW117084   2.171   0.399  13.425 -0.3566 -1.2496 -0.7809
 1875SOL    HW217085   2.290   0.365  13.357  0.6026 -0.1621  0.9981
 1876SOL     OW17086   2.186   0.965  15.421  0.3864  0.4018 -0.2746
 1876SOL    HW117087   2.181   1.057  15.447  3.7570  0.4499  0.1713
 1876SOL    HW217088   2.150   0.912  15.493 -0.5007 -0.7911 -1.5922
 1877SOL     OW17089   0.056   0.025  10.135  0.2577  0.2005  0.4252
 1877SOL    HW117090   0.066   0.066  10.221  1.1168 -0.2922  0.5567
 1877SOL    HW217091   0.030   4.661  10.159 -1.0286  1.0877  2.3679
 1878SOL     OW17092   3.054   3.159   4.270  0.6214 -0.2353 -0.2593
 1878SOL    HW117093   3.033   3.152   4.363  0.9231 -0.8961 -0.2371
 1878SOL    HW217094   3.149   3.173   4.267  0.6304 -0.1648  0.3842
 1879SOL     OW17095   1.595   0.583   6.612  0.1831 -0.3702  0.2593
 1879SOL    HW117096   1.574   0.493   6.635 -2.9340  0.1865 -0.4141
 1879SOL    HW217097   1.509   0.618   6.589 -0.1506 -0.1242  1.9131
 1880SOL     OW17098   1.960   0.157   0.128 -0.4082 -0.0890  0.2945
 1880SOL    HW117099   1.966   0.118   0.215  0.9764 -0.8716 -0.1485
 1880SOL    HW217100   1.868   0.175   0.108  0.0640  1.0321 -0.8507
 1881SOL     OW17101   2.069   1.919   0.985  0.0933  0.7902 -0.3032
 1881SOL    HW117102   2.156   1.904   0.948  0.9703  1.3088  1.5488
 1881SOL    HW217103   2.036   1.829   0.989  2.2504 -0.0804 -2.0383
 1882SOL     OW17104   0.451   2.323   5.624 -0.1334 -0.5322  0.4518
 1882SOL    HW117105   0.391   2.259   5.663 -1.0371  0.0077 -0.0509
 1882SOL    HW217106   0.410   2.407   5.639  0.8371  0.1293 -0.5942
 1883SOL     OW17107   1.935   2.647   3.644  0.0435 -0.5841 -0.2794
 1883SOL    HW117108   1.968   2.563   3.610  1.7955  0.0511 -0.1581
 1883SOL    HW217109   1.854   2.618   3.685  0.3972  1.1593  1.6259
 1884SOL     OW17110   4.589   2.909  11.138  0.0620 -0.2623 -0.2133
 1884SOL    HW117111   4.637   2.943  11.062 -0.0785  0.3507 -0.0273
 1884SOL    HW217112   4.570   2.992  11.180 -3.0667 -1.4217  0.6198
 1885SOL     OW17113   3.812   3.256   2.723 -0.5835  0.1191  0.7047
 1885SOL    HW117114   3.906   3.254   2.745 -0.5460  2.8149  0.8298
 1885SOL    HW217115   3.787   3.164   2.714 -0.8278  0.2232  0.3384
 1886SOL     OW17116   0.172   3.783   6.437 -0.1353  0.2721 -0.8864
 1886SOL    HW117117   0.137   3.714   6.381  0.4801  0.2302 -1.2190
 1886SOL    HW217118   0.088   3.826   6.453 -0.3409  0.6797 -3.0931
 1887SOL     OW17119   0.217   2.519   4.423 -0.0711 -0.0872  0.1773
 1887SOL    HW117120   0.296   2.533   4.475  1.1278  0.6096 -1.8739
 1887SOL    HW217121   0.259   2.481   4.347  1.4943 -1.7470  1.8593
 1888SOL     OW17122   2.425   2.295   5.808  0.5969 -0.4450 -0.2747
 1888SOL    HW117123   2.464   2.327   5.727  1.7111 -1.9669 -0.3343
 1888SOL    HW217124   2.489   2.228   5.832  0.4191 -0.7658 -0.6815
 1889SOL     OW17125   4.539   2.229   6.424  0.0973 -0.6126 -0.0851
 1889SOL    HW117126   4.628   2.236   6.457 -0.3802 -1.9762  1.5381
 1889SOL    HW217127   4.499   2.175   6.493  0.1690 -0.5783 -0.0164
 1890SOL     OW17128   3.392   1.695   2.674 -0.4167  0.1027 -0.1375
 1890SOL    HW117129   3.314   1.683   2.619 -1.3954  2.1282  0.7993
 1890SOL    HW217130   3.362   1.637   2.744 -0.2960 -1.1837 -1.1699
 1891SOL     OW17131   1.477   0.981  10.752 -0.0779 -0.3970 -0.3948
 1891SOL    HW117132   1.435   0.910  10.801 -1.4484  1.4304  1.0389
 1891SOL    HW217133   1.528   1.025  10.820 -1.0775  0.9925 -0.5467
 1892SOL     OW17134   3.072   4.378  16.633  0.0207 -0.5156  0.4905
 1892SOL    HW117135   3.013   4.364  16.560 -1.3050  1.3108  1.2247
 1892SOL    HW217136   3.156   4.390  16.589  0.1483 -1.7974  0.3867
 1893SOL     OW17137   3.942   1.366   7.569  0.0659  0.1283  0.3216
 1893SOL    HW117138   3.947   1.273   7.548  0.1428 -0.1226  1.4213
 1893SOL    HW217139   4.033   1.394   7.556  0.0837  0.2640  0.7405
 1894SOL     OW17140   0.339   1.276  13.402  0.6352 -0.0882 -0.0940
 1894SOL    HW117141   0.330   1.190  13.360  1.9945 -1.2071  1.8520
 1894SOL    HW217142   0.262   1.288  13.458 -0.3565  1.9689 -1.8994
 1895SOL     OW17143   2.476   4.212   3.346 -0.4421  0.0381 -0.7098
 1895SOL    HW117144   2.408   4.144   3.352  0.3211 -0.7173 -0.6623
 1895SOL    HW217145   2.544   4.166   3.298 -0.4595  0.8846 -1.5410
 1896SOL     OW17146   4.672   0.477   8.793 -0.5985 -0.0885 -0.1323
 1896SOL    HW117147   4.579   0.499   8.792  0.2645  3.4656 -1.2120
 1896SOL    HW217148   4.682   0.438   8.880 -1.6531 -0.3744 -0.1458
 1897SOL     OW17149   4.171   1.906  13.340  0.1591 -0.4970  0.1069
 1897SOL    HW117150   4.112   1.978  13.364  3.7031  2.2248  0.6022
 1897SOL    HW217151   4.176   1.866  13.427  2.5989  0.0635  0.2228
 1898SOL     OW17152   3.059   2.368   0.113  0.3911 -0.3039 -0.2669
 1898SOL    HW117153   3.114   2.308   0.063 -1.0851 -2.6141  0.9175
 1898SOL    HW217154   2.978   2.377   0.063  0.7774 -1.5079 -1.1067
 1899SOL     OW17155   2.605   0.064   0.470 -0.2714  0.1847 -0.0180
 1899SOL    HW117156   2.636   0.155   0.472  1.1401 -0.2169 -2.7628
 1899SOL    HW217157   2.685   0.024   0.435 -0.0860  0.2160  0.3690
 1900SOL     OW17158   2.350   2.602   7.644 -0.0667 -0.5390  0.1408
 1900SOL    HW117159   2.414   2.665   7.610  1.2332 -0.6463  2.4100
 1900SOL    HW217160   2.344   2.541   7.570  0.1264 -1.5751  0.9839
 1901SOL     OW17161   0.953   3.972  12.075  0.0823  0.4925  0.7596
 1901SOL    HW117162   0.917   4.048  12.119 -0.2268  0.9724 -0.3172
 1901SOL    HW217163   1.044   3.992  12.056  0.1029  1.3736  1.8257
 1902SOL     OW17164   1.212   1.976  10.599  0.6317  0.1940 -0.2945
 1902SOL    HW117165   1.222   2.044  10.532 -1.3827  0.3548 -0.4504
 1902SOL    HW217166   1.264   1.910  10.554 -0.4790 -1.5313  0.9644
 1903SOL     OW17167   1.353   4.436   6.460  0.2640  0.2613 -0.2528
 1903SOL    HW117168   1.296   4.507   6.488 -2.2048 -1.7301 -0.2166
 1903SOL    HW217169   1.423   4.462   6.520  1.3911 -0.6530 -1.1601
 1904SOL     OW17170   3.730   3.709   5.194 -0.1825 -0.3764 -0.5501
 1904SOL    HW117171   3.726   3.674   5.282 -0.8745  1.1128  0.0028
 1904SOL    HW217172   3.821   3.682   5.178 -0.2635  0.2613 -2.1344
 1905SOL     OW17173   2.110   0.332   6.731  0.5671  0.4354  0.0436
 1905SOL    HW117174   2.089   0.348   6.823  0.2645  1.1552 -0.1476
 1905SOL    HW217175   2.184   0.393   6.724 -0.8922  1.5710 -5.7178
 1906SOL     OW17176   0.047   3.835   8.392 -0.1465  0.0862 -0.3837
 1906SOL    HW117177   4.683   3.834   8.430  0.1411 -0.4932  0.2568
 1906SOL    HW217178   0.064   3.921   8.354  0.3144 -0.7236 -2.0069
 1907SOL     OW17179   0.721   2.587   1.507  0.4953  0.2106  0.1524
 1907SOL    HW117180   0.684   2.615   1.423 -0.8281 -0.8466  0.3943
 1907SOL    HW217181   0.737   2.670   1.552 -1.7382  0.9348 -0.3645
 1908SOL     OW17182   2.523   3.404   7.390 -0.2421 -0.1592 -0.2552
 1908SOL    HW117183   2.606   3.449   7.409 -1.0058  0.3934  1.7308
 1908SOL    HW217184   2.473   3.441   7.462 -0.4546 -0.6248 -0.1639
 1909SOL     OW17185   2.752   3.482  10.415  0.2459 -0.5515 -0.3133
 1909SOL    HW117186   2.770   3.569  10.381 -2.9155  0.2910  0.1434
 1909SOL    HW217187   2.784   3.496  10.504 -0.0309 -1.8539  0.0029
 1910SOL     OW17188   1.351   2.296   5.718 -0.1089 -0.7344  0.2985
 1910SOL    HW117189   1.312   2.214   5.687 -0.5298  0.3066 -1.9451
 1910SOL    HW217190   1.269   2.337   5.746 -0.4070 -0.6227 -0.7376
 1911SOL     OW17191   0.423   4.187   2.499 -0.0142 -0.5862 -0.7259
 1911SOL    HW117192   0.387   4.187   2.588  1.6945  0.4733 -0.0417
 1911SOL    HW217193   0.426   4.281   2.483  0.9553 -0.6620 -1.0165
 1912SOL     OW17194   0.070   2.674   5.793 -0.3246 -0.4890 -1.2328
 1912SOL    HW117195   4.704   2.649   5.812 -0.1491  0.7748  1.3507
 1912SOL    HW217196   0.074   2.743   5.860  1.5835 -0.9624 -0.8425
 1913SOL     OW17197   2.331   2.176   7.022  0.1786 -0.5183 -0.8794
 1913SOL    HW117198   2.257   2.137   7.067  0.1423 -1.7402 -1.9856
 1913SOL    HW217199   2.378   2.232   7.084  2.8960 -4.3455  0.5045
 1914SOL     OW17200   3.103   0.816   1.498 -0.0736 -0.1763 -0.2555
 1914SOL    HW117201   3.060   0.782   1.420  2.0486  3.3419 -2.9691
 1914SOL    HW217202   3.170   0.748   1.509 -0.0422 -0.1591 -0.3431
 1915SOL     OW17203   4.691   4.614  13.897  0.8136 -0.3204 -0.5225
 1915SOL    HW117204   4.704   4.697  13.944  2.4983 -1.1990  0.5669
 1915SOL    HW217205   0.029   4.556  13.939  1.3728 -0.0637 -1.0061
 1916SOL     OW17206   2.373   4.056   8.459 -0.2698 -0.6236 -0.1850
 1916SOL    HW117207   2.378   4.104   8.377 -0.5127 -2.1500 -1.0882
 1916SOL    HW217208   2.364   3.966   8.428 -1.0875 -1.6840  3.0895
 1917SOL     OW17209   1.057   0.515   6.786 -0.3739  0.1909 -0.0995
 1917SOL    HW117210   1.032   0.596   6.831  0.8944 -0.1422  1.1687
 1917SOL    HW217211   0.990   0.451   6.809 -1.7804  1.9298  0.6486
 1918SOL     OW17212   2.648   2.950   3.812 -0.1888  0.0340  0.0793
 1918SOL    HW117213   2.674   2.903   3.892  0.2381  0.1366 -0.0003
 1918SOL    HW217214   2.554   2.945   3.828 -0.4031  2.9837 -0.3054
 1919SOL     OW17215   3.080   0.945   8.876 -0.0151 -0.0944  0.0044
 1919SOL    HW117216   3.148   1.011   8.888 -0.5768  0.5057 -0.1456
 1919SOL    HW217217   3.039   0.940   8.962 -0.8977  0.6788 -0.3762
 1920SOL     OW17218   1.779   4.124   8.790 -0.0959  0.2726 -0.6494
 1920SOL    HW117219   1.743   4.042   8.755  0.5956 -1.0777  1.8131
 1920SOL    HW217220   1.717   4.191   8.762 -0.4889  0.2951  0.3122
 1921SOL     OW17221   0.427   1.552   0.391 -0.1153 -0.1655  0.2990
 1921SOL    HW117222   0.516   1.524   0.369  0.2404  0.5217  0.8498
 1921SOL    HW217223   0.379   1.569   0.310  0.5011 -0.1970 -0.0700
 1922SOL     OW17224   3.589   4.153   6.342  0.7064 -0.0480  0.0371
 1922SOL    HW117225   3.627   4.240   6.355 -1.0792  0.8955 -1.0995
 1922SOL    HW217226   3.618   4.101   6.418  1.6685  1.4666  0.7092
 1923SOL     OW17227   4.577   3.012   4.717  0.1495 -0.3513  0.0892
 1923SOL    HW117228   4.654   3.032   4.772  0.3199  0.5753 -0.4856
 1923SOL    HW217229   4.600   3.053   4.634  1.7262  0.2409  0.8072
 1924SOL     OW17230   3.709   0.000   0.673  0.0027  0.2063 -0.2306
 1924SOL    HW117231   3.684   4.635   0.695  1.2163  0.2317  1.2676
 1924SOL    HW217232   3.730   0.042   0.757  1.2050 -0.7241 -0.0599
 1925SOL     OW17233   4.564   1.870   3.823 -0.3578  0.1643 -0.0577
 1925SOL    HW117234   4.576   1.951   3.773  2.3122  0.8344  1.6427
 1925SOL    HW217235   4.518   1.826   3.751 -0.7276  1.2308 -0.4730
 1926SOL     OW17236   2.979   3.919   3.310  0.1706 -0.3299 -0.2690
 1926SOL    HW117237   2.947   3.920   3.400 -1.4900  1.4960 -0.8646
 1926SOL    HW217238   2.994   3.826   3.295  1.9663 -0.0933  0.0836
 1927SOL     OW17239   0.617   3.920   4.864 -0.2395 -0.2750  0.0702
 1927SOL    HW117240   0.672   3.966   4.927  0.6825 -0.1164 -0.8363
 1927SOL    HW217241   0.529   3.939   4.896 -0.3968  0.4957 -0.7895
 1928SOL     OW17242   4.286   3.049  14.078  0.2687 -0.0237  0.4878
 1928SOL    HW117243   4.327   3.135  14.093 -2.5038  1.2808  0.5777
 1928SOL    HW217244   4.349   2.987  14.115  0.5623  0.9622  1.6454
 1929SOL     OW17245   2.414   1.008   3.288  0.8010  0.2476 -0.5697
 1929SOL    HW117246   2.320   1.022   3.296  0.4365 -1.2349 -2.1720
 1929SOL    HW217247   2.453   1.024   3.374  1.1560 -0.0527 -0.6744
 1930SOL     OW17248   2.827   2.691  14.055 -0.6274 -0.4397 -0.0086
 1930SOL    HW117249   2.748   2.647  14.024 -0.5576 -0.8532  0.4020
 1930SOL    HW217250   2.846   2.750  13.982  0.1681 -1.1860 -0.4115
 1931SOL     OW17251   3.546   0.904   3.994  0.9744 -0.1242  0.0281
 1931SOL    HW117252   3.494   0.826   4.011 -0.2312  0.4831 -0.8475
 1931SOL    HW217253   3.472   0.964   4.004  1.8452  1.0013 -0.1979
 1932SOL     OW17254   1.656   0.685   1.828  0.3539 -0.5298  0.2571
 1932SOL    HW117255   1.745   0.702   1.798  0.3385  0.5853  0.8442
 1932SOL    HW217256   1.648   0.594   1.801  2.6436 -0.3934 -0.8838
 1933SOL     OW17257   1.836   0.570   2.445  0.9932 -0.3656  0.2497
 1933SOL    HW117258   1.820   0.519   2.524 -1.2569 -0.4939 -0.2825
 1933SOL    HW217259   1.916   0.529   2.412 -1.1852 -2.0985 -2.9444
 1934SOL     OW17260   0.620   0.785   5.862 -0.4070  0.1150 -0.3330
 1934SOL    HW117261   0.669   0.866   5.874 -2.1653  1.0279  0.6402
 1934SOL    HW217262   0.532   0.818   5.879 -1.5261 -2.8411 -0.4602
 1935SOL     OW17263   1.245   3.444   3.879 -0.0989 -0.4426 -0.3048
 1935SOL    HW117264   1.248   3.468   3.787  1.7751 -1.8820 -0.6251
 1935SOL    HW217265   1.171   3.502   3.894 -0.0054  0.0288 -1.6573
 1936SOL     OW17266   1.571   0.016   2.949 -0.5185  0.3863  0.1508
 1936SOL    HW117267   1.495   0.063   2.984 -1.2787  1.0323 -2.3707
 1936SOL    HW217268   1.582   4.686   3.026  1.5976 -1.3145 -1.3761
 1937SOL     OW17269   0.673   3.552   3.604 -0.0197  0.0497 -0.8191
 1937SOL    HW117270   0.754   3.594   3.575  0.6817 -0.0791  0.9521
 1937SOL    HW217271   0.678   3.571   3.698  2.4005 -1.3068 -0.6711
 1938SOL     OW17272   2.207   3.257  14.363  0.9772  0.7680  0.3255
 1938SOL    HW117273   2.161   3.198  14.423 -1.0310 -0.0825 -2.0464
 1938SOL    HW217274   2.274   3.300  14.416 -1.5155  2.6815  1.9056
 1939SOL     OW17275   0.017   4.430   5.136  0.1213  0.6376  0.1095
 1939SOL    HW117276   0.088   4.403   5.195  0.2674 -0.3205 -0.5012
 1939SOL    HW217277   4.717   4.345   5.099  1.5801  0.4088 -0.3484
 1940SOL     OW17278   0.925   0.222   7.363 -0.4356 -0.1366 -0.7809
 1940SOL    HW117279   0.868   0.286   7.406 -1.0382 -1.7612  0.8195
 1940SOL    HW217280   0.994   0.284   7.337  0.2202 -0.1851  0.8699
 1941SOL     OW17281   0.963   0.319  14.463 -0.0657  0.3361 -0.1965
 1941SOL    HW117282   0.891   0.376  14.434  0.0057  1.1718  1.2642
 1941SOL    HW217283   0.953   0.323  14.558  0.3353 -1.1331 -0.0930
 1942SOL     OW17284   0.366   0.330   6.185 -0.6226 -0.0150 -0.3612
 1942SOL    HW117285   0.319   0.411   6.164  2.0628  1.3997 -0.8355
 1942SOL    HW217286   0.420   0.316   6.108  1.9116 -0.8760  1.5918
 1943SOL     OW17287   3.671   4.444   0.734 -0.0946 -0.0018  0.4282
 1943SOL    HW117288   3.602   4.400   0.684  0.5908  0.5750 -1.0393
 1943SOL    HW217289   3.615   4.470   0.807  1.6004  0.3141  1.6182
 1944SOL     OW17290   0.364   0.418  11.120 -0.0738 -0.4836 -0.2364
 1944SOL    HW117291   0.448   0.382  11.149 -1.3204 -2.3698  1.0195
 1944SOL    HW217292   0.390   0.510  11.116 -2.1287  0.1879  1.6311
 1945SOL     OW17293   0.415   1.288  16.744  0.3388 -0.4040 -0.1404
 1945SOL    HW117294   0.423   1.243  16.828 -1.7633  0.9842  0.7888
 1945SOL    HW217295   0.428   1.213  16.686 -1.3136 -0.4056 -0.5132
 1946SOL     OW17296   0.847   3.450   4.041 -0.0174 -0.5126  0.5220
 1946SOL    HW117297   0.886   3.460   3.955 -1.2711 -2.3824 -0.2743
 1946SOL    HW217298   0.754   3.467   4.022 -0.0856  1.1761  2.2826
 1947SOL     OW17299   4.719   2.802   6.269 -1.2826  0.2719  0.0169
 1947SOL    HW117300   4.631   2.770   6.289 -1.4396 -0.4164 -1.7345
 1947SOL    HW217301   0.036   2.758   6.343  0.0120  1.9962  0.3192
 1948SOL     OW17302   1.344   4.564   6.210 -1.0910 -0.2663  0.3019
 1948SOL    HW117303   1.338   4.652   6.246  1.0722 -0.2173  0.5372
 1948SOL    HW217304   1.353   4.522   6.296 -0.1517  0.2844  0.4726
 1949SOL     OW17305   2.143   2.368  16.851  0.1046  0.4392 -0.1675
 1949SOL    HW117306   2.156   2.287  16.802 -0.2146 -0.7846  1.7612
 1949SOL    HW217307   2.052   2.353  16.879  0.2472  1.8578  1.0644
 1950SOL     OW17308   4.083   3.149   1.890 -0.2292  0.3007 -0.0477
 1950SOL    HW117309   3.996   3.150   1.850 -0.8186  2.5852  1.2724
 1950SOL    HW217310   4.146   3.188   1.830  1.5367 -1.8715  0.4298
 1951SOL     OW17311   4.362   1.993  16.136 -0.3923  0.2076 -0.1243
 1951SOL    HW117312   4.282   1.944  16.116  1.1103 -0.5898 -4.3954
 1951SOL    HW217313   4.431   1.928  16.146 -1.5588 -1.1389 -0.7905
 1952SOL     OW17314   1.008   0.180   5.799  0.7929  0.1494  0.6408
 1952SOL    HW117315   0.981   0.133   5.878  0.5827 -1.6347 -0.4937
 1952SOL    HW217316   0.977   0.129   5.724 -1.8567  1.1544  1.0626
 1953SOL     OW17317   0.448   3.695  13.157  0.0980  0.4908  0.3457
 1953SOL    HW117318   0.422   3.603  13.161 -1.2950  0.9343  1.4316
 1953SOL    HW217319   0.362   3.733  13.143  0.2339 -0.0469 -1.9604
 1954SOL     OW17320   3.724   0.699   6.761 -0.1955  0.5241 -0.1803
 1954SOL    HW117321   3.722   0.718   6.855 -1.3625 -1.3626  0.1737
 1954SOL    HW217322   3.631   0.681   6.751 -0.3027 -0.2494  2.1952
 1955SOL     OW17323   1.860   2.965  10.174  0.2633 -0.0723  0.3718
 1955SOL    HW117324   1.862   2.942  10.081 -0.0361 -0.6988  0.5216
 1955SOL    HW217325   1.921   2.899  10.207  1.3625  0.8525  0.1891
 1956SOL     OW17326   0.479   0.642   1.536  0.5603 -0.5147 -0.7407
 1956SOL    HW117327   0.417   0.626   1.607  0.6504  1.2087 -0.2526
 1956SOL    HW217328   0.535   0.698   1.590 -3.7045  3.4861 -0.4600
 1957SOL     OW17329   0.778   2.635   2.300  0.3878  0.0030  0.6798
 1957SOL    HW117330   0.714   2.591   2.245 -0.2791  0.6343  0.9570
 1957SOL    HW217331   0.800   2.558   2.354  0.0395  0.5708  1.6408
 1958SOL     OW17332   3.547   0.364   5.667 -0.4226 -0.4040 -0.0229
 1958SOL    HW117333   3.570   0.322   5.585 -0.2785  0.3060 -0.3454
 1958SOL    HW217334   3.630   0.399   5.702  0.2353 -0.4217 -1.5780
 1959SOL     OW17335   2.500   1.681   0.543  0.4395  0.2917  0.0538
 1959SOL    HW117336   2.572   1.727   0.501  0.7867  1.4830  1.9719
 1959SOL    HW217337   2.537   1.661   0.629  0.2384  1.6267  0.4526
 1960SOL     OW17338   0.643   4.317   2.119  0.3732  0.0253 -0.3953
 1960SOL    HW117339   0.659   4.257   2.193  0.6114  2.5724  1.6237
 1960SOL    HW217340   0.651   4.397   2.170 -0.4664  0.7810 -1.4591
 1961SOL     OW17341   3.376   3.462   1.297  0.4920  0.3113 -0.5074
 1961SOL    HW117342   3.337   3.375   1.284  0.8064  0.1571 -0.4145
 1961SOL    HW217343   3.348   3.510   1.219 -0.5753 -0.8516 -0.8451
 1962SOL     OW17344   2.654   3.280   4.124 -0.3986  0.1631  0.1639
 1962SOL    HW117345   2.645   3.340   4.049  0.3012 -1.2336 -1.0368
 1962SOL    HW217346   2.602   3.320   4.194 -1.3188  0.6329 -0.7742
 1963SOL     OW17347   1.449   2.077  15.649  0.0665  0.2057  0.3279
 1963SOL    HW117348   1.453   2.169  15.674  0.5352  0.6622 -1.4057
 1963SOL    HW217349   1.504   2.039  15.717 -0.0339 -0.9519 -0.2414
 1964SOL     OW17350   3.953   0.605  17.431 -0.2117 -0.1453 -0.1773
 1964SOL    HW117351   3.946   0.673  17.499 -2.6564 -0.0217 -0.5472
 1964SOL    HW217352   3.975   0.660  17.356  0.3069  0.8097  0.6743
 1965SOL     OW17353   1.937   4.215   5.916  0.0639  0.4863  0.2432
 1965SOL    HW117354   1.978   4.137   5.878 -0.4210 -0.2147  1.1346
 1965SOL    HW217355   1.991   4.290   5.890  0.0864  1.6927  3.7898
 1966SOL     OW17356   2.095   4.544  14.545  0.1489  0.0353 -0.3515
 1966SOL    HW117357   2.186   4.542  14.572 -0.6852  0.1810  2.4930
 1966SOL    HW217358   2.078   4.634  14.519  1.3707  0.2341 -0.4486
 1967SOL     OW17359   1.667   4.033  13.248  0.3316 -0.1718 -0.3344
 1967SOL    HW117360   1.665   4.033  13.344 -2.2353 -1.1790 -0.3779
 1967SOL    HW217361   1.681   4.127  13.239  5.0880 -0.7385  0.9049
 1968SOL     OW17362   4.446   2.196   4.000 -0.0996  0.4794  0.1175
 1968SOL    HW117363   4.422   2.189   3.908 -1.5795  1.2578  0.4420
 1968SOL    HW217364   4.360   2.223   4.031 -0.2139 -0.5649  0.7268
 1969SOL     OW17365   0.130   1.310   0.697 -0.3379  0.2424  0.1469
 1969SOL    HW117366   0.100   1.401   0.685 -0.2529  0.0147 -1.8573
 1969SOL    HW217367   0.202   1.320   0.759  0.2193  0.7511 -0.5798
 1970SOL     OW17368   2.895   0.813   4.843 -0.2434 -0.0661 -0.3551
 1970SOL    HW117369   2.852   0.887   4.886 -1.8795 -0.2101 -1.7834
 1970SOL    HW217370   2.892   0.830   4.749 -0.0635  2.6918  0.1448
 1971SOL     OW17371   1.862   3.944   2.493  0.4632 -0.1853 -0.1179
 1971SOL    HW117372   1.777   3.950   2.537  0.5479  0.3083 -0.0147
 1971SOL    HW217373   1.835   3.957   2.402  1.7205  3.0060 -0.0379
 1972SOL     OW17374   3.746   2.378   2.786 -0.1036 -0.4117 -0.1353
 1972SOL    HW117375   3.827   2.329   2.774 -0.8066 -1.6132 -0.0948
 1972SOL    HW217376   3.685   2.304   2.793 -1.4398  0.7384  0.4248
 1973SOL     OW17377   0.842   3.087   4.473  0.8742  0.2142  0.3317
 1973SOL    HW117378   0.864   3.169   4.429 -1.2868  1.1059  0.9639
 1973SOL    HW217379   0.773   3.119   4.531 -0.6328  0.3294 -1.5169
 1974SOL     OW17380   0.951   3.545   0.221 -0.4087 -1.1595 -0.2171
 1974SOL    HW117381   0.908   3.463   0.244 -0.6926 -1.0341 -0.2948
 1974SOL    HW217382   0.923   3.588   0.301  0.1890 -0.8288 -0.1875
 1975SOL     OW17383   3.028   1.721   7.873  0.1172  0.1302  0.1591
 1975SOL    HW117384   2.995   1.770   7.949  0.7162 -0.5924  0.8789
 1975SOL    HW217385   2.942   1.689   7.847  1.1852 -2.6092 -0.0033
 1976SOL     OW17386   1.999   2.041   3.013  0.0052  0.2420 -0.3466
 1976SOL    HW117387   2.049   1.986   2.953 -1.1098  0.1165 -1.1522
 1976SOL    HW217388   1.970   1.982   3.083 -1.9922 -0.4913 -1.8180
 1977SOL     OW17389   1.889   3.523   5.818  0.0566 -0.6363  0.3811
 1977SOL    HW117390   1.852   3.576   5.747  0.1193  0.3698  1.1151
 1977SOL    HW217391   1.961   3.480   5.771  2.4058  2.0555  1.5525
 1978SOL     OW17392   1.134   3.176  16.091 -0.0642  0.3115 -0.3756
 1978SOL    HW117393   1.113   3.217  16.175 -3.0096  1.7159 -1.7900
 1978SOL    HW217394   1.057   3.122  16.072 -0.7342  0.5998  1.5621
 1979SOL     OW17395   0.104   2.831   6.026 -0.1100  0.1546  0.1556
 1979SOL    HW117396   0.063   2.817   6.112  1.2597  1.4018  1.0074
 1979SOL    HW217397   0.153   2.913   6.030  0.4370 -0.0542 -2.2628
 1980SOL     OW17398   3.570   2.640   9.243  0.2531 -0.1980  0.3417
 1980SOL    HW117399   3.552   2.567   9.183  0.7913 -0.1069  0.0728
 1980SOL    HW217400   3.663   2.647   9.262  0.6046 -0.1400 -1.3982
 1981SOL     OW17401   4.564   1.136  15.646 -0.0500 -0.7632 -0.0021
 1981SOL    HW117402   4.587   1.136  15.739  0.3315 -2.1849 -0.0928
 1981SOL    HW217403   4.648   1.113  15.606 -0.4424  0.5053 -1.5541
 1982SOL     OW17404   4.368   2.726   8.659 -0.2550 -0.4028 -0.4319
 1982SOL    HW117405   4.451   2.774   8.655 -0.5322  0.0453 -0.8967
 1982SOL    HW217406   4.318   2.804   8.682 -2.6189 -1.9662 -0.3502
 1983SOL     OW17407   0.252   3.694   6.122 -0.5144  0.0080  0.2682
 1983SOL    HW117408   0.198   3.659   6.192 -1.1826 -1.2992 -0.9067
 1983SOL    HW217409   0.291   3.620   6.076 -1.0686  0.0909 -0.3308
 1984SOL     OW17410   3.526   1.589   9.404 -0.1166 -0.4315 -0.0217
 1984SOL    HW117411   3.473   1.532   9.459 -0.9967 -0.1857 -0.5969
 1984SOL    HW217412   3.455   1.639   9.362  0.7737  1.6028  0.8766
 1985SOL     OW17413   2.447   2.767  12.957  0.0049 -0.0845 -0.0129
 1985SOL    HW117414   2.417   2.821  12.884  0.0430  0.2340  0.2064
 1985SOL    HW217415   2.499   2.709  12.901 -0.2041  0.6515 -0.9594
 1986SOL     OW17416   2.348   1.624   6.949  0.4675  0.1697  0.0560
 1986SOL    HW117417   2.400   1.636   6.869  0.2229 -0.9766 -0.2671
 1986SOL    HW217418   2.382   1.701   6.995  1.8516 -1.0193  1.0647
 1987SOL     OW17419   4.629   0.050   9.609  1.0585  0.2277  0.2352
 1987SOL    HW117420   4.644   4.697   9.663  1.5027 -1.3432 -2.1135
 1987SOL    HW217421   4.562   0.086   9.667  0.8106  1.1025 -0.5969
 1988SOL     OW17422   4.126   4.210   4.606  0.2463 -0.1244  0.1883
 1988SOL    HW117423   4.050   4.154   4.589  1.1965 -0.8801 -1.6364
 1988SOL    HW217424   4.158   4.239   4.520  0.4845  0.1853  0.3812
 1989SOL     OW17425   4.327   2.969   2.413  0.0936 -0.1058 -0.4775
 1989SOL    HW117426   4.374   3.010   2.340 -0.1113  2.1432  0.6675
 1989SOL    HW217427   4.307   2.880   2.381 -0.3071 -0.0232 -0.4630
 1990SOL     OW17428   0.025   1.290   3.650 -0.0183 -0.1710 -0.4238
 1990SOL    HW117429   4.690   1.321   3.582 -2.7487  0.8155  2.4333
 1990SOL    HW217430   4.710   1.344   3.717  0.1701 -1.3849  0.6660
 1991SOL     OW17431   2.910   0.629   4.564 -0.0358 -0.1430 -0.1159
 1991SOL    HW117432   2.891   0.722   4.553  0.1679 -0.4228 -2.8081
 1991SOL    HW217433   2.820   0.596   4.574 -0.5124  0.1034 -3.5894
 1992SOL     OW17434   3.709   2.995   6.957 -0.0652  0.0249 -0.4133
 1992SOL    HW117435   3.736   2.934   7.026 -0.3535 -1.8001 -1.9247
 1992SOL    HW217436   3.726   2.945   6.877 -0.8933 -3.9338  1.8573
 1993SOL     OW17437   2.379   2.286   3.842  0.5127  0.3121  0.3098
 1993SOL    HW117438   2.380   2.262   3.935  1.7537 -1.0033 -0.0436
 1993SOL    HW217439   2.309   2.351   3.837 -0.2921 -0.6288 -0.5232
 1994SOL     OW17440   4.424   4.623   0.932  0.6228  0.8621  0.5274
 1994SOL    HW117441   4.507   4.575   0.932 -0.0117 -0.2424  2.3297
 1994SOL    HW217442   4.365   4.554   0.960  0.3733 -0.2614 -2.7538
 1995SOL     OW17443   4.058   2.755  11.157  0.0496 -0.1437 -0.5665
 1995SOL    HW117444   4.074   2.698  11.082  1.4644 -0.5334  0.0266
 1995SOL    HW217445   3.990   2.713  11.210 -0.4568 -0.3137 -1.3678
 1996SOL     OW17446   0.213   1.752   6.253  0.1719 -0.5995 -0.3622
 1996SOL    HW117447   0.221   1.798   6.337  3.0774 -3.1354  0.7517
 1996SOL    HW217448   0.206   1.662   6.287 -2.1538  0.1287  1.1469
 1997SOL     OW17449   2.459   2.438   5.244  0.3207 -0.2824 -0.1837
 1997SOL    HW117450   2.544   2.394   5.246  0.2067 -0.4209  1.5083
 1997SOL    HW217451   2.483   2.507   5.306  0.4886  0.5654 -1.1939
 1998SOL     OW17452   4.660   2.033   2.343 -0.2521 -0.5587  0.1898
 1998SOL    HW117453   4.633   2.001   2.257 -1.7632  2.0227 -0.2854
 1998SOL    HW217454   4.651   1.951   2.392 -2.0287 -0.8876 -0.6947
 1999SOL     OW17455   3.520   0.523  13.995 -0.0597 -0.0427 -0.3858
 1999SOL    HW117456   3.537   0.436  14.032  2.3427 -0.7604 -3.0788
 1999SOL    HW217457   3.605   0.559  14.019 -1.1626  2.0299  0.3815
 2000SOL     OW17458   0.820   3.015  10.617 -0.1765 -0.2063 -0.1541
 2000SOL    HW117459   0.823   2.958  10.540 -0.8278 -0.9517  0.3772
 2000SOL    HW217460   0.731   3.002  10.648 -0.4330  1.1653 -0.2998
 2001SOL     OW17461   1.458   2.553   2.479 -0.1261  0.4974  0.0563
 2001SOL    HW117462   1.459   2.481   2.542 -1.0445 -1.0721 -1.7247
 2001SOL    HW217463   1.366   2.578   2.481 -0.9012 -2.2758 -0.0339
 2002SOL     OW17464   2.251   1.558   6.495  0.3220  0.6239 -0.2719
 2002SOL    HW117465   2.323   1.531   6.438 -0.7072 -0.0515 -1.2482
 2002SOL    HW217466   2.225   1.477   6.540 -1.6692  0.7441 -1.1863
 2003SOL     OW17467   1.630   1.725   8.720 -0.0239 -0.3719 -0.1072
 2003SOL    HW117468   1.546   1.763   8.749 -1.1756 -2.2383 -0.9874
 2003SOL    HW217469   1.664   1.801   8.673 -0.1045 -1.0505 -1.2521
 2004SOL     OW17470   3.808   2.929   6.693  0.2647  0.1872 -0.1192
 2004SOL    HW117471   3.891   2.976   6.698 -0.6945  1.9193 -0.4262
 2004SOL    HW217472   3.842   2.858   6.747  1.9743  0.3951 -0.9141
 2005SOL     OW17473   1.727   0.426  17.297 -0.6025 -0.0597 -0.3705
 2005SOL    HW117474   1.665   0.447  17.227 -0.2727  1.0837 -0.3182
 2005SOL    HW217475   1.712   0.334  17.321 -1.2476  0.6119  1.8672
 2006SOL     OW17476   3.307   4.189   3.763 -0.8938 -0.3505 -0.2832
 2006SOL    HW117477   3.379   4.129   3.778  1.7532  2.5398 -1.4866
 2006SOL    HW217478   3.322   4.208   3.670 -1.7322 -2.3080 -0.8171
 2007SOL     OW17479   2.110   3.946   9.576  0.3400 -0.0605  0.2164
 2007SOL    HW117480   2.120   4.018   9.513 -3.4179  0.3864  0.1105
 2007SOL    HW217481   2.181   3.897   9.537  0.1909  2.1313 -2.7903
 2008SOL     OW17482   4.513   2.395  16.522 -0.6408 -0.1853  0.4150
 2008SOL    HW117483   4.606   2.405  16.540 -0.1200 -2.6814 -0.9596
 2008SOL    HW217484   4.474   2.455  16.585 -0.3393 -2.0370  2.3625
 2009SOL     OW17485   2.005   3.920   4.556  0.0306  0.3584 -0.7849
 2009SOL    HW117486   1.912   3.906   4.574 -0.2088  1.2830 -1.3106
 2009SOL    HW217487   1.987   3.997   4.502 -2.5522 -0.7610 -1.5249
 2010SOL     OW17488   2.019   1.654  11.548  0.0389 -1.1651  0.0592
 2010SOL    HW117489   2.011   1.726  11.485  0.8020 -0.9074  0.2644
 2010SOL    HW217490   1.928   1.626  11.563 -0.2084 -1.7419 -2.4160
 2011SOL     OW17491   0.711   1.612   5.206  0.0543 -0.1221  0.8093
 2011SOL    HW117492   0.717   1.520   5.232 -1.3861 -0.0921  1.2193
 2011SOL    HW217493   0.640   1.638   5.264 -0.0098  3.4055 -0.8151
 2012SOL     OW17494   0.591   0.306   0.617  0.0433 -0.6746  0.7948
 2012SOL    HW117495   0.672   0.343   0.654  0.3485  0.0482 -0.5905
 2012SOL    HW217496   0.540   0.381   0.585 -0.6531 -1.0129  1.1377
 2013SOL     OW17497   4.301   0.782  10.723  0.2525 -0.0543 -0.5152
 2013SOL    HW117498   4.291   0.699  10.769  0.6998  0.5019  0.6048
 2013SOL    HW217499   4.370   0.814  10.781 -1.1515  0.1954  1.0213
 2014SOL     OW17500   2.869   3.222   2.235 -0.2247  0.2220 -0.1896
 2014SOL    HW117501   2.914   3.155   2.286  0.9854  1.1835  0.0281
 2014SOL    HW217502   2.781   3.185   2.236 -0.6676  1.2387 -1.2824
 2015SOL     OW17503   1.261   2.916   5.597  0.3391  0.2013 -0.5717
 2015SOL    HW117504   1.318   2.877   5.531  1.1808 -0.3843  0.5108
 2015SOL    HW217505   1.277   3.010   5.587 -0.0388 -0.0970 -4.0039
 2016SOL     OW17506   3.955   3.154   9.147  0.0502  0.5984  0.2717
 2016SOL    HW117507   4.043   3.165   9.183  1.0340  1.9203 -2.5576
 2016SOL    HW217508   3.964   3.175   9.054  0.5605  0.5604  0.3133
 2017SOL     OW17509   3.610   0.547   2.327  0.4586  0.0771 -0.0703
 2017SOL    HW117510   3.580   0.471   2.277  2.2892 -1.5291  1.2950
 2017SOL    HW217511   3.565   0.614   2.276  0.6359 -0.5193 -1.0005
 2018SOL     OW17512   4.165   2.518  10.023  0.0271  0.4415 -0.0169
 2018SOL    HW117513   4.163   2.453   9.953 -0.2733  0.0033  0.3947
 2018SOL    HW217514   4.197   2.600   9.986 -3.0223  1.4859 -0.3212
 2019SOL     OW17515   2.231   2.855   3.034  0.2668 -0.5950  0.2065
 2019SOL    HW117516   2.162   2.789   3.044  1.2238 -1.4071  1.5056
 2019SOL    HW217517   2.302   2.821   3.089 -0.9541 -1.4585  1.2476
 2020SOL     OW17518   2.797   0.154   4.014 -0.2773  0.3153 -0.0663
 2020SOL    HW117519   2.843   0.224   4.061  0.9307 -1.4422  1.3656
 2020SOL    HW217520   2.854   0.147   3.938 -0.0951 -2.7101  0.3528
 2021SOL     OW17521   2.770   3.275  14.484 -0.9964 -0.2819 -0.2987
 2021SOL    HW117522   2.823   3.196  14.495  3.5105  2.6928 -0.5852
 2021SOL    HW217523   2.683   3.237  14.497 -1.0853  0.1510  0.3458
 2022SOL     OW17524   1.091   2.493  15.872 -0.3496 -0.2706  0.3121
 2022SOL    HW117525   1.075   2.587  15.857  0.5409 -0.9418 -4.8580
 2022SOL    HW217526   1.079   2.487  15.966 -2.5430  0.2622  0.0738
 2023SOL     OW17527   0.249   1.702   7.432  0.0648 -0.2265  0.1605
 2023SOL    HW117528   0.337   1.719   7.399  0.1420  0.6065  0.8085
 2023SOL    HW217529   0.253   1.718   7.526  1.2156 -0.4937  0.1523
 2024SOL     OW17530   4.000   0.736   7.843  0.1657 -0.0039 -0.5272
 2024SOL    HW117531   3.959   0.811   7.885  0.3331 -0.2297  0.0416
 2024SOL    HW217532   3.963   0.661   7.889  3.7264 -1.3502  0.1735
 2025SOL     OW17533   1.653   4.071  13.514 -0.2317  0.0583 -0.2501
 2025SOL    HW117534   1.705   4.144  13.548 -0.7933  1.0242 -1.4574
 2025SOL    HW217535   1.568   4.075  13.557  0.2480 -3.3637  1.0149
 2026SOL     OW17536   1.655   2.590   8.879  0.5788  0.9472  0.3455
 2026SOL    HW117537   1.590   2.645   8.835  0.2665  1.6603  1.6914
 2026SOL    HW217538   1.707   2.564   8.803 -0.4854  3.1168 -1.1115
 2027SOL     OW17539   0.808   2.234   6.909  0.0634 -0.5911 -0.2745
 2027SOL    HW117540   0.842   2.161   6.857  1.9499  1.1217 -1.4453
 2027SOL    HW217541   0.874   2.298   6.882  0.1785 -0.7523 -0.3783
 2028SOL     OW17542   2.927   3.443   4.754  0.3957  0.2137 -0.1909
 2028SOL    HW117543   2.958   3.464   4.843 -1.3662 -0.3468  0.5516
 2028SOL    HW217544   2.857   3.382   4.779 -0.8920  1.3439 -1.0430
 2029SOL     OW17545   2.629   2.964   8.709 -0.2116 -0.1782 -0.4706
 2029SOL    HW117546   2.662   3.044   8.748  0.4212  0.0240 -1.4258
 2029SOL    HW217547   2.566   2.997   8.645 -0.2298 -1.5992 -1.1880
 2030SOL     OW17548   0.750   0.277  15.364 -0.1165 -0.2738  0.2725
 2030SOL    HW117549   0.683   0.323  15.313 -0.9333  0.5474  2.0951
 2030SOL    HW217550   0.813   0.244  15.300 -0.0741  0.6197 -0.1527
 2031SOL     OW17551   3.555   1.943   4.289 -0.5157  0.2730  0.2387
 2031SOL    HW117552   3.498   1.920   4.215 -2.0676  2.6057  0.7032
 2031SOL    HW217553   3.639   1.913   4.253  1.2240  2.3019  2.5847
 2032SOL     OW17554   1.726   3.410   8.339  0.7598 -0.1319  0.2270
 2032SOL    HW117555   1.755   3.442   8.424 -0.3346  0.1753  0.4784
 2032SOL    HW217556   1.752   3.490   8.293  2.1758  0.2501  1.6871
 2033SOL     OW17557   0.043   1.618  12.190  0.2892 -0.0288  0.6831
 2033SOL    HW117558   0.128   1.574  12.188 -0.6584 -1.7328 -1.9443
 2033SOL    HW217559   4.708   1.556  12.232 -1.3312 -1.0408 -3.0479
 2034SOL     OW17560   3.035   1.338   2.490  0.1117 -0.2182  0.3417
 2034SOL    HW117561   2.969   1.284   2.446  2.0617 -2.3230  0.0170
 2034SOL    HW217562   2.981   1.357   2.567 -2.3502 -1.2534 -1.1203
 2035SOL     OW17563   4.237   1.666   4.936 -0.3597 -0.2384  0.3463
 2035SOL    HW117564   4.141   1.673   4.939 -0.0162  4.0456  0.1019
 2035SOL    HW217565   4.253   1.664   4.842 -1.8947 -0.2987  0.0834
 2036SOL     OW17566   1.770   4.427   6.050 -0.3704 -0.0800  0.8663
 2036SOL    HW117567   1.710   4.455   5.980  0.5923  0.4312  0.2521
 2036SOL    HW217568   1.792   4.336   6.029 -0.6180  0.1050 -0.1908
 2037SOL     OW17569   3.149   2.659   4.803  0.6176 -0.4250 -0.0666
 2037SOL    HW117570   3.214   2.626   4.740  0.3016 -1.1713 -0.0083
 2037SOL    HW217571   3.077   2.600   4.782 -0.2295 -0.3367  2.6469
 2038SOL     OW17572   3.122   2.763  15.412  0.4912  0.1145 -0.5727
 2038SOL    HW117573   3.123   2.686  15.356  1.0104 -0.8154  0.7246
 2038SOL    HW217574   3.203   2.761  15.462  0.4631  1.7432 -0.4553
 2039SOL     OW17575   2.966   2.394  12.401  0.3559 -0.1579 -0.1347
 2039SOL    HW117576   2.872   2.375  12.403  0.8111 -2.3705  1.0421
 2039SOL    HW217577   2.971   2.439  12.317  0.2203 -0.7195 -0.4479
 2040SOL     OW17578   2.909   1.789   4.836  0.7700  0.3642  0.2699
 2040SOL    HW117579   2.963   1.851   4.786 -0.1535  0.3857 -0.6861
 2040SOL    HW217580   2.957   1.707   4.825 -0.0303  0.3834 -3.2161
 2041SOL     OW17581   1.176   0.383   8.862 -0.6372 -0.0047  0.3290
 2041SOL    HW117582   1.200   0.348   8.948 -0.0030 -0.0988  0.1065
 2041SOL    HW217583   1.085   0.353   8.864 -0.6624  0.0522 -0.0806
 2042SOL     OW17584   0.944   0.242   8.694 -0.1143 -0.0144 -0.0104
 2042SOL    HW117585   0.864   0.295   8.686 -0.4065 -0.2048  1.5572
 2042SOL    HW217586   0.915   0.180   8.761  0.5548  0.1378  0.4132
 2043SOL     OW17587   0.461   0.684   5.582 -0.0880  0.6112  0.5127
 2043SOL    HW117588   0.391   0.620   5.594 -0.5078  0.8701 -0.5330
 2043SOL    HW217589   0.451   0.734   5.662  1.4267  0.2396  0.9453
 2044SOL     OW17590   1.745   0.010   8.674 -0.4271 -0.5655  0.2414
 2044SOL    HW117591   1.714   4.671   8.610  0.9319 -0.6356 -0.3318
 2044SOL    HW217592   1.810   0.049   8.615  0.3846 -1.1496  0.7644
 2045SOL     OW17593   2.346   4.428   5.197 -0.6174 -0.3510  0.5340
 2045SOL    HW117594   2.417   4.370   5.225 -1.0763 -0.9621  0.4291
 2045SOL    HW217595   2.393   4.507   5.221 -0.8783  0.6074 -2.1094
 2046SOL     OW17596   1.377   1.181   2.637  0.1085 -0.0103 -0.1671
 2046SOL    HW117597   1.445   1.158   2.700 -1.6279 -4.1568  0.1414
 2046SOL    HW217598   1.301   1.162   2.691 -0.1150 -1.9488 -1.1634
 2047SOL     OW17599   1.958   2.447   9.826 -0.3468 -0.3154 -0.2000
 2047SOL    HW117600   1.867   2.420   9.813 -0.7709  1.5333 -1.0453
 2047SOL    HW217601   1.965   2.464   9.920 -3.0624  0.7268 -0.2066
 2048SOL     OW17602   0.183   4.640   5.277 -0.2899  0.2475 -0.1240
 2048SOL    HW117603   0.160   4.587   5.353  0.2480  0.6147  0.2889
 2048SOL    HW217604   0.265   4.677   5.310 -0.5371 -1.7412  2.6846
 2049SOL     OW17605   0.112   2.241   2.496  0.3327  0.3725  0.3834
 2049SOL    HW117606   0.191   2.228   2.444  0.2089  0.7912  0.0893
 2049SOL    HW217607   0.058   2.171   2.460 -1.4263  2.1332 -0.4286
 2050SOL     OW17608   3.137   4.476   7.257  0.0946 -0.1620  0.2142
 2050SOL    HW117609   3.064   4.480   7.319  0.2834  2.2974  0.2512
 2050SOL    HW217610   3.126   4.564   7.221  1.0396 -0.0234  0.2614
 2051SOL     OW17611   3.384   0.618  13.768  0.3961 -0.0041 -0.1173
 2051SOL    HW117612   3.455   0.671  13.732  0.7151 -0.2086  0.2083
 2051SOL    HW217613   3.420   0.605  13.856  3.5516  2.7315 -1.0130
 2052SOL     OW17614   1.689   3.139   2.137 -0.3323 -0.1891 -0.1217
 2052SOL    HW117615   1.751   3.090   2.191  1.8796  0.3476 -2.1344
 2052SOL    HW217616   1.709   3.225   2.174  2.6001 -0.9738  0.0906
 2053SOL     OW17617   1.075   1.590   4.625  0.3836  0.4883 -0.0434
 2053SOL    HW117618   1.170   1.580   4.629  0.5047  0.9310 -1.8589
 2053SOL    HW217619   1.057   1.586   4.531  3.5033 -1.5530 -0.5432
 2054SOL     OW17620   4.558   4.445   6.124  0.0790 -0.3122 -0.6151
 2054SOL    HW117621   4.596   4.482   6.204  0.4331 -1.3826 -0.2903
 2054SOL    HW217622   4.469   4.480   6.120  1.6077  3.5732 -0.2907
 2055SOL     OW17623   2.384   0.350  17.574 -0.2177  0.2133 -0.4275
 2055SOL    HW117624   2.342   0.358  17.488  1.1614  3.8400 -0.7745
 2055SOL    HW217625   2.474   0.364  17.544 -0.8435  2.4406 -1.2769
 2056SOL     OW17626   1.216   2.119   4.249  0.5055  0.2327 -0.0011
 2056SOL    HW117627   1.211   2.204   4.205  2.1245  0.8685  1.0303
 2056SOL    HW217628   1.149   2.121   4.317  0.1120  1.6144 -0.4074
 2057SOL     OW17629   3.371   1.047   6.272 -0.6380  0.1161 -0.6166
 2057SOL    HW117630   3.289   1.000   6.285 -1.0269  0.6831 -1.0518
 2057SOL    HW217631   3.342   1.116   6.213  0.5573  1.1545  0.0040
 2058SOL     OW17632   4.679   2.956   3.317 -0.2357  0.3139 -0.2374
 2058SOL    HW117633   4.660   2.937   3.226 -2.0520  1.3537 -0.0731
 2058SOL    HW217634   0.044   2.922   3.327 -0.3793 -0.4521 -1.7164
 2059SOL     OW17635   3.050   4.699   3.415 -0.1340  0.9820 -0.1708
 2059SOL    HW117636   2.967   4.678   3.458  0.5927  0.6926  1.0928
 2059SOL    HW217637   3.103   4.631   3.457 -1.1226 -0.7509 -1.7181
 2060SOL     OW17638   2.310   3.482  16.012  0.0870 -0.0552 -0.4010
 2060SOL    HW117639   2.254   3.426  15.958 -0.0751 -0.0028 -0.2853
 2060SOL    HW217640   2.310   3.560  15.956  1.1204  1.3458  1.5832
 2061SOL     OW17641   2.642   1.488   7.854  0.2983  0.0975  0.3921
 2061SOL    HW117642   2.600   1.565   7.816  0.1576  0.5202  1.4074
 2061SOL    HW217643   2.627   1.516   7.944  0.9118 -1.0402  0.8521
 2062SOL     OW17644   2.247   4.530  15.811  0.1045 -0.8151 -0.8078
 2062SOL    HW117645   2.247   4.477  15.891 -2.5659  0.1913 -0.1375
 2062SOL    HW217646   2.320   4.493  15.762  1.5553  2.3624 -1.0013
 2063SOL     OW17647   2.837   1.950  16.476  0.1222 -0.1997  0.2063
 2063SOL    HW117648   2.886   1.890  16.532 -0.3271  0.0343  0.8527
 2063SOL    HW217649   2.867   2.037  16.501 -0.6258 -0.4564  1.9962
 2064SOL     OW17650   2.372   3.358   7.100  0.8410  0.5277  0.5089
 2064SOL    HW117651   2.368   3.402   7.185 -1.2814 -0.1278  0.7511
 2064SOL    HW217652   2.441   3.410   7.057  0.2231 -0.8058 -2.0988
 2065SOL     OW17653   0.859   2.660   3.495 -0.1613  0.3921  0.3230
 2065SOL    HW117654   0.946   2.675   3.458  0.1493  0.8208  1.2317
 2065SOL    HW217655   0.858   2.567   3.520 -1.8271 -0.1370 -1.6956
 2066SOL     OW17656   4.177   4.153   1.788 -0.5287 -0.0293  0.1116
 2066SOL    HW117657   4.158   4.177   1.697  0.5386 -0.4467 -0.2213
 2066SOL    HW217658   4.092   4.110   1.797 -0.9291  0.9118  0.9375
 2067SOL     OW17659   2.483   3.461  16.765  0.0774 -0.1830  0.5183
 2067SOL    HW117660   2.548   3.530  16.749 -1.8229  1.5882  0.3707
 2067SOL    HW217661   2.498   3.419  16.849  1.8647 -1.9215 -0.6701
 2068SOL     OW17662   0.025   3.348  14.206  0.1168 -0.0692 -0.4261
 2068SOL    HW117663   4.710   3.425  14.164  0.0499  1.5002  2.5671
 2068SOL    HW217664   0.001   3.289  14.134  0.5460 -0.5815 -0.1464
 2069SOL     OW17665   1.169   2.098  12.557  0.5002  0.3215  0.1453
 2069SOL    HW117666   1.193   2.055  12.474 -1.4185  2.0813 -1.3206
 2069SOL    HW217667   1.246   2.081  12.612 -1.2161 -1.1225  2.1311
 2070SOL     OW17668   2.659   4.470  17.063  0.3727  0.2465 -0.1692
 2070SOL    HW117669   2.603   4.394  17.050 -3.7245  3.5230 -1.7945
 2070SOL    HW217670   2.715   4.432  17.130 -2.6994  2.3397  3.5808
 2071SOL     OW17671   4.610   3.685   6.569 -0.5235 -0.0997  0.1415
 2071SOL    HW117672   4.620   3.778   6.547 -0.4422  0.3508  2.1219
 2071SOL    HW217673   4.678   3.681   6.636 -0.5968  3.3910  0.4343
 2072SOL     OW17674   1.345   4.370  17.630 -0.0957  1.1219  0.0530
 2072SOL    HW117675   1.318   4.371  17.539 -0.5735 -0.7459  0.1529
 2072SOL    HW217676   1.319   4.279  17.649 -1.1786  1.3245 -0.4293
 2073SOL     OW17677   4.442   3.156  10.400  0.5834 -0.5553  0.0164
 2073SOL    HW117678   4.517   3.108  10.363  0.9105  0.1626 -0.2441
 2073SOL    HW217679   4.384   3.149  10.325  3.1204 -3.0324 -1.7516
 2074SOL     OW17680   4.724   4.000   5.003  0.0133 -0.4671  0.1154
 2074SOL    HW117681   4.701   4.062   5.074  0.5703  2.1694 -2.0183
 2074SOL    HW217682   4.712   3.917   5.049 -1.1211  0.0717  0.7951
 2075SOL     OW17683   2.109   4.302  13.767 -0.0848  0.2358 -0.2847
 2075SOL    HW117684   2.175   4.260  13.711 -0.5258  1.4175 -1.6950
 2075SOL    HW217685   2.127   4.268  13.854  1.2028  0.7666 -0.3452
 2076SOL     OW17686   1.767   0.978  16.491  0.0691  0.1463  0.4680
 2076SOL    HW117687   1.849   1.008  16.529 -0.6183  0.0806  2.0563
 2076SOL    HW217688   1.780   0.883  16.493  2.3809  0.4481 -1.7094
 2077SOL     OW17689   2.680   0.543   3.393  0.6353  0.0929  0.0771
 2077SOL    HW117690   2.748   0.575   3.452  1.1922 -2.0843  0.5949
 2077SOL    HW217691   2.690   0.594   3.312 -1.1248  0.0459 -0.1679
 2078SOL     OW17692   2.092   3.404  15.842  0.0468 -0.1823  0.0438
 2078SOL    HW117693   2.152   3.337  15.808  1.2111  1.4612 -1.1106
 2078SOL    HW217694   2.081   3.447  15.758 -1.0673 -0.7343 -0.0972
 2079SOL     OW17695   4.081   4.288   9.529  0.1060 -0.0103  0.0515
 2079SOL    HW117696   4.085   4.366   9.473  1.0987 -0.0895  0.0009
 2079SOL    HW217697   4.035   4.229   9.469  1.4730 -1.7815  0.7554
 2080SOL     OW17698   4.113   3.454   2.447 -0.1209 -0.4457 -0.3604
 2080SOL    HW117699   4.018   3.445   2.445  0.0220 -1.5007 -2.0949
 2080SOL    HW217700   4.118   3.455   2.543  2.1095 -0.2510 -0.4873
 2081SOL     OW17701   2.795   3.112   7.519  0.6773  0.3893 -0.0912
 2081SOL    HW117702   2.880   3.067   7.523  1.5022  2.0275  0.8590
 2081SOL    HW217703   2.734   3.062   7.574  0.4833  1.6897  0.8879
 2082SOL     OW17704   4.410   3.747   8.133 -0.0741 -0.7485 -0.1118
 2082SOL    HW117705   4.471   3.769   8.063  1.7624  0.5169  1.8642
 2082SOL    HW217706   4.324   3.774   8.100  0.9119  0.4153 -1.7297
 2083SOL     OW17707   3.120   2.456   4.293  0.0306 -0.0714 -1.0315
 2083SOL    HW117708   3.087   2.383   4.346 -0.9572  2.1650  1.4823
 2083SOL    HW217709   3.033   2.494   4.274  0.4057  1.3491  0.0329
 2084SOL     OW17710   3.637   0.822  13.289 -0.7287  0.8399  0.5677
 2084SOL    HW117711   3.553   0.785  13.262  0.8619 -1.5737 -1.0433
 2084SOL    HW217712   3.649   0.780  13.374  0.5164  3.1827  1.5478
 2085SOL     OW17713   0.725   0.274   8.411  0.4544 -0.0572  0.0279
 2085SOL    HW117714   0.797   0.254   8.351  1.8631 -0.3233  1.8231
 2085SOL    HW217715   0.758   0.209   8.472 -1.1608 -0.1060  0.8386
 2086SOL     OW17716   4.659   1.368   0.991 -0.3522  0.1401 -0.6184
 2086SOL    HW117717   4.628   1.283   0.960 -0.2387 -0.0536 -0.1911
 2086SOL    HW217718   4.612   1.427   0.931 -0.5614  1.8267  1.2151
 2087SOL     OW17719   1.260   1.056  12.499  0.0446 -0.0496 -0.0485
 2087SOL    HW117720   1.326   1.040  12.566  0.0178 -2.0808 -0.4948
 2087SOL    HW217721   1.182   1.021  12.544 -0.4945  0.5534 -0.5106
 2088SOL     OW17722   1.417   2.659   6.799  0.2372 -0.3755  0.1105
 2088SOL    HW117723   1.361   2.629   6.727  0.3600 -0.0854 -0.1065
 2088SOL    HW217724   1.478   2.720   6.757  0.8733 -1.1458 -0.0681
 2089SOL     OW17725   2.075   2.006   3.645 -0.3768  0.1447 -0.1481
 2089SOL    HW117726   2.053   1.913   3.640  0.6088 -0.0666 -0.5498
 2089SOL    HW217727   2.077   2.027   3.738 -0.9067 -0.0320 -0.0982
 2090SOL     OW17728   0.159   2.600  11.722  0.2878 -0.0282  0.5467
 2090SOL    HW117729   0.126   2.630  11.807 -1.8614  0.5231 -0.4747
 2090SOL    HW217730   0.207   2.522  11.750  1.6683  0.4223 -0.5455
 2091SOL     OW17731   4.562   3.001   6.029 -0.3285 -0.2572  0.3738
 2091SOL    HW117732   4.625   2.937   5.995 -0.5318  0.6756 -1.7533
 2091SOL    HW217733   4.489   2.946   6.059  0.0940 -1.3014 -0.5224
 2092SOL     OW17734   2.295   3.735   9.401 -0.2928 -0.3901 -0.4006
 2092SOL    HW117735   2.219   3.677   9.402 -0.9692  0.5149  0.5079
 2092SOL    HW217736   2.350   3.692   9.466 -1.6564 -0.3110  0.7942
 2093SOL     OW17737   4.546   2.385   0.287  0.2620 -0.1296 -0.4620
 2093SOL    HW117738   4.608   2.319   0.255 -0.5030 -0.7665 -0.6140
 2093SOL    HW217739   4.590   2.409   0.369 -0.2882 -1.2642  0.1753
 2094SOL     OW17740   1.729   1.431   6.810  0.3048  0.3967  0.1936
 2094SOL    HW117741   1.771   1.437   6.896  0.0747  1.6986  0.2220
 2094SOL    HW217742   1.679   1.513   6.807 -1.9145 -0.9258  1.3337
 2095SOL     OW17743   4.503   3.879   8.475  0.2929 -0.5681  0.2059
 2095SOL    HW117744   4.477   3.917   8.559 -0.9337  0.7806 -0.7884
 2095SOL    HW217745   4.525   3.960   8.429  0.7943 -0.8717 -0.0909
 2096SOL     OW17746   0.673   3.972   5.561 -0.3370 -0.5187 -0.4633
 2096SOL    HW117747   0.601   3.910   5.574 -1.1098  0.1534 -1.6413
 2096SOL    HW217748   0.743   3.921   5.603  0.2766  2.9529  2.6673
 2097SOL     OW17749   0.623   1.963   5.005  0.7971  0.3554  0.4347
 2097SOL    HW117750   0.706   1.995   4.968  0.1249 -1.0087 -2.2714
 2097SOL    HW217751   0.645   1.981   5.096 -1.5272  3.1456  0.4298
 2098SOL     OW17752   0.608   3.837   1.315 -0.1767  0.2654  0.3317
 2098SOL    HW117753   0.685   3.787   1.287 -0.4875 -0.0868  0.1128
 2098SOL    HW217754   0.543   3.769   1.305 -1.2026  1.3920 -0.6257
 2099SOL     OW17755   1.922   2.955  13.532 -0.4524 -0.1310 -0.4730
 2099SOL    HW117756   2.001   3.002  13.558 -0.0426 -1.7225  1.2227
 2099SOL    HW217757   1.886   3.029  13.484  1.2734  1.7190  1.0800
 2100SOL     OW17758   2.750   4.228  10.832 -0.2244  0.4851 -0.2201
 2100SOL    HW117759   2.743   4.195  10.922  1.0105 -1.8600 -0.9735
 2100SOL    HW217760   2.760   4.149  10.778 -2.1112  0.3019 -0.2782
 2101SOL     OW17761   4.513   2.670   2.058  0.0576  0.4158 -0.3069
 2101SOL    HW117762   4.484   2.640   2.144  0.1237  3.3487  0.7560
 2101SOL    HW217763   4.602   2.637   2.048  0.1939  1.0570 -1.2443
 2102SOL     OW17764   1.602   0.514   6.224 -0.6435  0.1571 -0.4933
 2102SOL    HW117765   1.688   0.493   6.261 -0.9019  1.3128  0.7684
 2102SOL    HW217766   1.591   0.609   6.234  0.3223  0.2904 -0.6668
 2103SOL     OW17767   1.376   3.171   6.519  0.0764  0.1422 -0.5503
 2103SOL    HW117768   1.362   3.168   6.614 -0.2825 -0.0048 -0.6073
 2103SOL    HW217769   1.429   3.249   6.504 -3.0894  2.0859 -1.4063
 2104SOL     OW17770   3.883   2.814   7.576  0.1119 -0.0903  0.2310
 2104SOL    HW117771   3.902   2.844   7.665  0.1360  1.2860 -0.2305
 2104SOL    HW217772   3.895   2.895   7.526 -0.1002  0.1636  0.5885
 2105SOL     OW17773   2.278   1.217  12.041 -0.3687 -0.6149  0.2756
 2105SOL    HW117774   2.318   1.223  11.954 -0.1325 -1.1349  0.3468
 2105SOL    HW217775   2.355   1.227  12.098  0.0957  0.0852 -0.4582
 2106SOL     OW17776   2.230   1.390   7.627  0.1715 -1.0383 -0.2602
 2106SOL    HW117777   2.241   1.485   7.614  1.3136 -0.9586  1.4106
 2106SOL    HW217778   2.308   1.364   7.578 -0.1058  0.5976 -1.6005
 2107SOL     OW17779   3.364   2.382   4.038 -0.0217  0.0410  0.5012
 2107SOL    HW117780   3.343   2.405   3.947 -0.2611 -0.8450  0.3311
 2107SOL    HW217781   3.409   2.464   4.057  2.3396 -1.2203  0.3671
 2108SOL     OW17782   4.258   3.443   7.875  0.0074 -0.1033  0.1623
 2108SOL    HW117783   4.348   3.416   7.895 -0.6776 -1.4045  1.4670
 2108SOL    HW217784   4.245   3.508   7.943  1.0741  0.1682  0.1073
 2109SOL     OW17785   2.518   3.364   9.665 -0.4601 -0.1191 -0.0382
 2109SOL    HW117786   2.586   3.350   9.731 -1.8983 -0.4349  1.3624
 2109SOL    HW217787   2.434   3.350   9.708 -0.4407 -0.6135 -0.1627
 2110SOL     OW17788   2.467   3.364   5.395 -0.0124 -0.0897 -0.0582
 2110SOL    HW117789   2.526   3.319   5.334 -0.5206  0.6843 -1.1285
 2110SOL    HW217790   2.382   3.320   5.383 -0.1936  0.0374  0.7670
 2111SOL     OW17791   1.453   3.955   5.306 -0.4442  0.0768  0.0622
 2111SOL    HW117792   1.464   3.926   5.397 -0.7677  1.3462  0.5180
 2111SOL    HW217793   1.399   3.883   5.273  2.2527 -1.5887 -0.7274
 2112SOL     OW17794   0.384   2.417   5.276 -0.2164  0.3896 -0.2303
 2112SOL    HW117795   0.337   2.487   5.231 -1.5049  0.2763  0.9257
 2112SOL    HW217796   0.344   2.427   5.363  1.8261  4.3808  0.2418
 2113SOL     OW17797   0.518   3.102   3.631 -0.1205 -0.2751 -0.1321
 2113SOL    HW117798   0.505   3.038   3.701 -0.1371  0.4898  0.5610
 2113SOL    HW217799   0.580   3.061   3.570  0.4891 -0.0084  0.3080
 2114SOL     OW17800   4.098   3.972   6.521 -0.5728  0.2793  0.1572
 2114SOL    HW117801   4.079   3.952   6.430  1.3588 -0.1638 -0.1381
 2114SOL    HW217802   4.092   4.067   6.530  0.9737  0.4862 -1.0764
 2115SOL     OW17803   2.502   1.410   4.712 -0.0384 -0.3994  0.2135
 2115SOL    HW117804   2.425   1.387   4.765  1.0415 -3.4683  0.4308
 2115SOL    HW217805   2.563   1.440   4.780 -0.1302  2.3727 -0.9045
 2116SOL     OW17806   0.670   0.836  16.589  0.2717  0.0134  0.0137
 2116SOL    HW117807   0.600   0.869  16.645 -0.3301  2.4102 -2.1534
 2116SOL    HW217808   0.677   0.749  16.627 -1.1655 -0.3690 -0.6341
 2117SOL     OW17809   2.209   1.408   2.644  0.2871 -0.1879  0.8129
 2117SOL    HW117810   2.299   1.378   2.631  0.9568  2.2771 -0.3612
 2117SOL    HW217811   2.164   1.324   2.643  0.5026 -0.2909 -0.1884
 2118SOL     OW17812   2.958   3.158   5.763 -0.3381 -0.0745  0.4325
 2118SOL    HW117813   2.948   3.229   5.826  1.8792 -0.8872  1.6843
 2118SOL    HW217814   2.901   3.183   5.690 -1.0968  0.1170  1.0964
 2119SOL     OW17815   2.765   3.829   0.698  0.1083  0.0452  0.2068
 2119SOL    HW117816   2.844   3.807   0.747 -1.3829 -1.1944  2.1048
 2119SOL    HW217817   2.793   3.908   0.652 -1.7742  1.7303  1.9673
 2120SOL     OW17818   2.727   0.776   5.353 -0.8445 -0.0817 -0.0988
 2120SOL    HW117819   2.785   0.708   5.388 -0.5952 -0.1162 -0.5767
 2120SOL    HW217820   2.673   0.715   5.302 -2.4188 -0.0186  1.4874
 2121SOL     OW17821   4.473   3.012   7.362 -0.3403  0.3993 -0.5225
 2121SOL    HW117822   4.534   3.013   7.435 -1.4021 -1.3227  0.4016
 2121SOL    HW217823   4.423   2.931   7.378 -1.0211  0.9986  0.4552
 2122SOL     OW17824   2.454   1.199   5.766 -0.1812 -0.3760  0.4531
 2122SOL    HW117825   2.411   1.220   5.683  1.1140 -1.9181 -0.6085
 2122SOL    HW217826   2.375   1.214   5.818 -0.6872 -0.9858 -0.1489
 2123SOL     OW17827   2.182   3.526   1.111  0.3822 -0.2751  0.4733
 2123SOL    HW117828   2.184   3.575   1.193 -2.5386 -0.9449  0.9435
 2123SOL    HW217829   2.168   3.591   1.042 -2.5734 -1.9893 -0.5441
 2124SOL     OW17830   0.340   0.730   7.162 -0.1312  0.4227 -0.3600
 2124SOL    HW117831   0.265   0.704   7.109  1.4470 -1.0804 -1.8247
 2124SOL    HW217832   0.300   0.752   7.247 -1.7557  0.5290 -1.1521
 2125SOL     OW17833   0.275   2.047   4.605 -0.5665 -0.1663 -0.4938
 2125SOL    HW117834   0.356   2.079   4.645 -1.2932 -0.2153  1.0485
 2125SOL    HW217835   0.278   2.094   4.522  1.9050 -2.0744 -1.4909
 2126SOL     OW17836   1.667   2.943  16.816  0.7289  0.3566  0.2373
 2126SOL    HW117837   1.691   2.963  16.725 -0.0761  1.4047  0.2571
 2126SOL    HW217838   1.573   2.953  16.802  0.9292 -0.2651 -1.5466
 2127SOL     OW17839   2.849   2.612   4.285  0.0212  0.6178 -0.0846
 2127SOL    HW117840   2.858   2.696   4.331 -0.2711  1.2540 -1.2033
 2127SOL    HW217841   2.861   2.630   4.192  1.2221 -0.3873 -0.1226
 2128SOL     OW17842   4.326   3.311  13.001 -0.3482 -0.2883  0.3328
 2128SOL    HW117843   4.287   3.229  12.970 -2.7224  1.4917 -1.4290
 2128SOL    HW217844   4.264   3.345  13.066 -2.2029  1.0723 -2.1663
 2129SOL     OW17845   3.684   2.038  17.635 -0.9382  0.5764  0.4351
 2129SOL    HW117846   3.696   1.948  17.666 -2.0423  0.0375 -0.7147
 2129SOL    HW217847   3.729   2.043  17.550 -0.5840  0.4667  0.6183
 2130SOL     OW17848   2.144   1.783   4.590  0.1191  0.3188  0.1597
 2130SOL    HW117849   2.239   1.794   4.597  0.5254 -2.9167 -0.0439
 2130SOL    HW217850   2.101   1.865   4.611 -0.5150  0.3038 -1.1262
 2131SOL     OW17851   2.271   2.212  15.066 -0.3552 -0.6430 -0.7773
 2131SOL    HW117852   2.324   2.134  15.044 -0.5697 -1.0689  0.2231
 2131SOL    HW217853   2.296   2.269  14.993 -0.1267 -0.5432 -0.6198
 2132SOL     OW17854   4.583   0.563   6.038 -0.1802 -0.4920  0.9308
 2132SOL    HW117855   4.596   0.652   6.007 -0.5496 -0.3057  1.2980
 2132SOL    HW217856   4.507   0.538   5.985  1.0781 -0.0594 -1.0332
 2133SOL     OW17857   1.107   4.508   4.712 -0.3001 -0.2299 -0.4903
 2133SOL    HW117858   1.166   4.469   4.776  0.0306 -1.4151 -1.5215
 2133SOL    HW217859   1.054   4.563   4.770 -3.0249 -0.8563 -2.4169
 2134SOL     OW17860   4.382   3.977  12.363 -0.5187 -0.0661 -0.7927
 2134SOL    HW117861   4.376   3.883  12.382 -0.4783 -0.0285 -0.5958
 2134SOL    HW217862   4.361   4.020  12.446  2.8050  1.8565 -0.9457
 2135SOL     OW17863   4.349   0.198   4.805  0.4856 -0.4869  0.3560
 2135SOL    HW117864   4.331   0.158   4.720  0.1123  0.3220  0.0536
 2135SOL    HW217865   4.358   0.119   4.858  0.7241 -0.1171  0.8683
 2136SOL     OW17866   0.010   0.545   4.056  0.4896 -0.1019  0.5515
 2136SOL    HW117867   0.046   0.552   4.145 -0.1040 -0.2650  0.8033
 2136SOL    HW217868   4.651   0.585   4.080 -0.5283 -2.2085  0.5183
 2137SOL     OW17869   2.996   2.470  12.833  0.1364  0.0907 -0.0095
 2137SOL    HW117870   2.988   2.396  12.772  2.3620 -0.6062  0.5582
 2137SOL    HW217871   2.989   2.430  12.919  1.4286 -1.9349 -0.8567
 2138SOL     OW17872   1.415   2.133   2.948 -0.0759  0.1449 -0.0147
 2138SOL    HW117873   1.449   2.070   3.012  1.6619  0.5926 -0.5149
 2138SOL    HW217874   1.476   2.125   2.875 -1.2402  1.3508 -1.1270
 2139SOL     OW17875   1.834   1.175   6.817  0.6174 -0.2393  0.7090
 2139SOL    HW117876   1.842   1.151   6.725 -1.7211  0.0825  0.4109
 2139SOL    HW217877   1.784   1.256   6.808  0.6651 -0.3495 -0.5699
 2140SOL     OW17878   0.227   1.042   7.655 -0.2084 -0.0576  0.3296
 2140SOL    HW117879   0.202   0.961   7.699  1.3301  0.6152  2.4279
 2140SOL    HW217880   0.298   1.066   7.715  0.3034  0.4990 -0.5031
 2141SOL     OW17881   2.473   4.077   1.654 -0.8863  0.1138 -0.0879
 2141SOL    HW117882   2.451   4.146   1.591  0.1439 -1.9588 -2.6650
 2141SOL    HW217883   2.459   4.001   1.598 -1.5664  0.9033 -0.9930
 2142SOL     OW17884   1.847   3.466   6.671  0.1832  0.5928  0.4555
 2142SOL    HW117885   1.876   3.375   6.666  3.1408  1.4984  1.2933
 2142SOL    HW217886   1.872   3.486   6.761  1.2325  0.6369  0.1503
 2143SOL     OW17887   3.981   1.490  13.889  0.5943  0.3492 -0.2794
 2143SOL    HW117888   3.973   1.586  13.886 -0.9161  0.2644  1.1420
 2143SOL    HW217889   4.074   1.483  13.869  0.6904 -1.0837  0.7320
 2144SOL     OW17890   2.152   2.149   5.110  0.1642 -0.4817 -0.1748
 2144SOL    HW117891   2.066   2.188   5.125  0.3043 -0.1156 -0.3167
 2144SOL    HW217892   2.208   2.192   5.174  0.3523 -0.1948 -0.5299
 2145SOL     OW17893   1.953   3.624   7.450  0.2626 -0.2670 -0.2992
 2145SOL    HW117894   1.990   3.556   7.506  2.3769 -0.5784 -2.1004
 2145SOL    HW217895   1.909   3.573   7.381 -2.1139 -1.5449  2.1374
 2146SOL     OW17896   4.631   0.479   3.423 -0.2915 -0.0588  0.0784
 2146SOL    HW117897   4.632   0.571   3.451  1.0187  0.8548 -3.0316
 2146SOL    HW217898   4.541   0.459   3.450 -0.2086  0.4882  0.7802
 2147SOL     OW17899   1.136   2.717  14.409  0.2107 -0.1783  0.4141
 2147SOL    HW117900   1.193   2.644  14.431 -0.5880 -1.1773 -0.8198
 2147SOL    HW217901   1.157   2.795  14.461  1.0711 -1.1296  1.4792
 2148SOL     OW17902   2.520   3.664   5.082  0.6587 -0.3295 -0.5322
 2148SOL    HW117903   2.519   3.713   5.000  0.9470  0.4954 -0.0415
 2148SOL    HW217904   2.427   3.643   5.089  0.8060 -1.1058 -0.8339
 2149SOL     OW17905   3.324   0.944   8.473 -0.3542 -0.6435  0.2546
 2149SOL    HW117906   3.243   0.986   8.441 -0.4621 -1.1281 -0.1219
 2149SOL    HW217907   3.387   0.970   8.407 -0.2159  3.2231  1.9493
 2150SOL     OW17908   2.495   0.288   5.839 -0.3749 -0.4629 -0.2762
 2150SOL    HW117909   2.487   0.215   5.778 -1.0713 -1.2680  0.7666
 2150SOL    HW217910   2.590   0.291   5.835 -0.4436 -0.0713 -1.4767
 2151SOL     OW17911   0.089   0.154  12.940  0.4480 -0.0073 -0.2287
 2151SOL    HW117912   0.174   0.146  12.897  0.5514 -0.3775  0.0430
 2151SOL    HW217913   0.077   0.061  12.960  1.0119 -0.2517 -1.0292
 2152SOL     OW17914   3.648   0.801   2.853  0.5156  1.1793  0.5321
 2152SOL    HW117915   3.599   0.759   2.924  0.2290 -1.9463 -1.5524
 2152SOL    HW217916   3.732   0.759   2.867 -0.6210 -0.8286  1.2451
 2153SOL     OW17917   3.141   2.656   5.390 -0.6683  0.3236  0.9592
 2153SOL    HW117918   3.146   2.647   5.485 -0.0433  2.0170  1.0818
 2153SOL    HW217919   3.233   2.665   5.365 -1.1779  1.9039 -0.3231
 2154SOL     OW17920   2.792   0.096   8.372 -0.2254  0.0189  0.1122
 2154SOL    HW117921   2.766   0.008   8.400 -1.6377  0.5229  0.3867
 2154SOL    HW217922   2.808   0.076   8.280  1.2578 -1.4115  0.6666
 2155SOL     OW17923   1.731   2.813   9.404  0.0798  0.5433 -0.0341
 2155SOL    HW117924   1.675   2.768   9.468 -2.5257  1.6036 -1.5708
 2155SOL    HW217925   1.733   2.748   9.334 -0.6099  2.2733 -1.6280
 2156SOL     OW17926   0.101   0.202  13.959  0.1411 -0.5051  0.0477
 2156SOL    HW117927   0.152   0.275  13.924 -3.3162  2.8391  2.0146
 2156SOL    HW217928   0.012   0.237  13.962  0.6473  0.8295 -0.6346
 2157SOL     OW17929   2.363   1.107  12.872 -0.0002  0.0482  0.1134
 2157SOL    HW117930   2.394   1.066  12.952  1.5284 -0.2582 -0.6317
 2157SOL    HW217931   2.296   1.046  12.843  0.1362 -0.3630  0.6771
 2158SOL     OW17932   0.713   0.149   4.804 -0.5483 -0.0641 -0.1005
 2158SOL    HW117933   0.669   0.076   4.847 -1.8976  1.0714  0.4481
 2158SOL    HW217934   0.806   0.126   4.804 -0.0921  1.7615  1.2393
 2159SOL     OW17935   2.665   4.706  14.057  0.2446  0.3084 -0.3071
 2159SOL    HW117936   2.688   4.618  14.085 -1.1771 -0.1352 -0.5061
 2159SOL    HW217937   2.719   0.030  14.119  0.4967 -0.2484 -0.0979
 2160SOL     OW17938   0.680   2.410   8.893  0.1421 -0.3958  0.3211
 2160SOL    HW117939   0.586   2.429   8.896  0.3911  0.7831  0.7956
 2160SOL    HW217940   0.680   2.315   8.878  0.6721 -0.4283  0.5193
 2161SOL     OW17941   0.892   4.433  17.559 -0.5001 -0.6234  0.2101
 2161SOL    HW117942   0.863   4.505  17.504  1.1068 -0.2567 -0.1706
 2161SOL    HW217943   0.882   4.479  17.642 -0.2550 -0.8476  0.3652
 2162SOL     OW17944   0.427   3.622   7.415 -0.0452  0.0208  0.6373
 2162SOL    HW117945   0.460   3.550   7.468  0.8495  0.5267  0.7672
 2162SOL    HW217946   0.431   3.577   7.330 -2.3585 -2.3489  1.7962
 2163SOL     OW17947   0.179   3.759   4.855  0.2767 -0.4460 -0.2387
 2163SOL    HW117948   0.092   3.773   4.893  0.5393  1.8895 -0.4511
 2163SOL    HW217949   0.168   3.802   4.770  1.0209 -1.0457 -0.6298
 2164SOL     OW17950   4.683   2.139   4.694 -0.0287  0.5551  0.1873
 2164SOL    HW117951   4.664   2.071   4.759  2.7293 -1.2682 -0.8979
 2164SOL    HW217952   0.054   2.133   4.690 -0.2838 -2.2472 -1.8644
 2165SOL     OW17953   2.997   1.237   1.484  0.2856  0.1700 -0.1566
 2165SOL    HW117954   3.086   1.210   1.504 -0.3426 -0.6601  1.4891
 2165SOL    HW217955   2.946   1.181   1.542 -0.1684 -0.5510 -1.2466
 2166SOL     OW17956   2.578   2.425   4.261  0.1105  0.4926 -0.1358
 2166SOL    HW117957   2.564   2.454   4.351  0.1439  1.3154 -0.4032
 2166SOL    HW217958   2.511   2.477   4.217 -0.2126 -2.2602 -2.9663
 2167SOL     OW17959   0.687   0.507  17.519 -0.3551  0.5057 -0.0969
 2167SOL    HW117960   0.669   0.506  17.425  1.9198 -0.0673 -0.5119
 2167SOL    HW217961   0.608   0.558  17.536 -1.2037 -0.5021 -1.0090
 2168SOL     OW17962   2.367   0.510   7.178 -0.4089  0.4788 -0.0667
 2168SOL    HW117963   2.378   0.603   7.200  1.0337 -0.3728  2.7097
 2168SOL    HW217964   2.447   0.495   7.128 -2.4842  0.8294 -3.5556
 2169SOL     OW17965   3.152   3.050   5.612 -0.0329  0.5585  0.1832
 2169SOL    HW117966   3.161   3.122   5.550 -2.9363  0.7089 -0.0623
 2169SOL    HW217967   3.116   3.089   5.692  0.4293  2.7442 -0.6560
 2170SOL     OW17968   4.372   1.360  12.218  0.1929 -0.0249 -0.2380
 2170SOL    HW117969   4.387   1.290  12.155  0.2686 -0.5851  0.4117
 2170SOL    HW217970   4.317   1.426  12.175 -1.7712 -2.1798 -1.0354
 2171SOL     OW17971   4.574   3.569   6.118 -0.3369 -0.1801 -0.2161
 2171SOL    HW117972   4.630   3.590   6.043  0.4251 -0.2896  0.3184
 2171SOL    HW217973   4.531   3.653   6.132  0.8652  0.5843 -1.0443
 2172SOL     OW17974   0.172   3.784   7.363 -0.3151  0.3736 -0.2578
 2172SOL    HW117975   0.166   3.793   7.458 -2.6980  3.2231 -0.6773
 2172SOL    HW217976   0.244   3.721   7.363  0.8984  1.7338  0.6271
 2173SOL     OW17977   1.767   0.869   7.630  0.6591 -0.6056 -0.2196
 2173SOL    HW117978   1.826   0.932   7.671 -1.1348 -0.2335  1.7825
 2173SOL    HW217979   1.729   0.826   7.707 -0.5221  0.7410 -0.0511
 2174SOL     OW17980   0.899   0.739  16.474 -0.4870 -0.1310 -0.0889
 2174SOL    HW117981   0.839   0.773  16.540  0.3761 -2.3379  1.8396
 2174SOL    HW217982   0.835   0.709  16.409  1.5375  0.4700 -2.3240
 2175SOL     OW17983   0.872   3.338   7.952  0.4354 -0.2292 -0.0760
 2175SOL    HW117984   0.791   3.334   7.902  0.1667 -1.9706  0.4945
 2175SOL    HW217985   0.935   3.345   7.881 -0.9595  3.6463 -0.9496
 2176SOL     OW17986   4.238   0.961   8.496  0.1695  0.8535 -0.1910
 2176SOL    HW117987   4.165   0.988   8.552 -0.0710 -1.6692  0.7052
 2176SOL    HW217988   4.294   0.903   8.547  2.5960  1.5257 -2.0946
 2177SOL     OW17989   2.064   0.318   3.320 -0.2295 -0.1343  0.2682
 2177SOL    HW117990   2.137   0.303   3.259 -0.3614  0.8850 -0.1559
 2177SOL    HW217991   1.982   0.286   3.283 -0.4286  0.0755  0.5251
 2178SOL     OW17992   1.596   1.979   4.982 -0.2309  0.6995 -0.0070
 2178SOL    HW117993   1.675   1.935   5.011 -1.6016 -1.7186  0.0711
 2178SOL    HW217994   1.628   2.069   4.984 -0.2069  0.6668  0.9318
 2179SOL     OW17995   2.790   4.249   9.961 -0.5844  0.5756  0.4244
 2179SOL    HW117996   2.739   4.327   9.938 -0.3336  0.9833  1.2407
 2179SOL    HW217997   2.806   4.213   9.874  0.1169  1.6143  0.1198
 2180SOL     OW17998   4.507   4.668   3.450 -0.8751  0.0133  0.8347
 2180SOL    HW117999   4.426   4.617   3.450  0.0356 -1.4479 -2.8294
 2180SOL    HW218000   4.472   0.030   3.426 -2.1437 -0.9478 -0.8110
 2181SOL     OW18001   3.581   2.627   3.980  0.4225 -0.3673  0.3311
 2181SOL    HW118002   3.642   2.670   4.041  0.0827 -0.8225  0.9898
 2181SOL    HW218003   3.642   2.575   3.928  0.6544 -2.1436  2.3677
 2182SOL     OW18004   2.130   2.782   1.991  0.0777  0.4382  0.0369
 2182SOL    HW118005   2.117   2.712   2.055 -1.4698 -0.7604 -1.5772
 2182SOL    HW218006   2.069   2.744   1.928  0.2214  1.1592 -0.5245
 2183SOL     OW18007   2.932   2.522   4.005  0.4708  0.2664  0.0108
 2183SOL    HW118008   2.979   2.439   4.017  0.3264 -0.2625 -3.1760
 2183SOL    HW218009   2.841   2.494   3.996 -0.1264  1.1195  3.4858
 2184SOL     OW18010   0.285   2.987   2.161 -0.3168 -0.7407  0.3235
 2184SOL    HW118011   0.375   3.021   2.158 -1.0724  1.0624 -2.2643
 2184SOL    HW218012   0.301   2.903   2.203  1.9015  0.4858  1.9334
 2185SOL     OW18013   1.276   4.382   0.965  0.5623  0.2896 -0.3086
 2185SOL    HW118014   1.340   4.422   0.906 -1.0363  1.3087 -1.3443
 2185SOL    HW218015   1.198   4.409   0.917  0.9842  0.3909 -0.9312
 2186SOL     OW18016   3.139   0.173  16.868  0.0987  0.2673 -0.1023
 2186SOL    HW118017   3.182   0.122  16.936 -2.5683 -0.5208  1.0055
 2186SOL    HW218018   3.184   0.257  16.876 -2.6815  1.7947 -0.2354
 2187SOL     OW18019   0.648   0.789  15.020  0.0748 -0.0729 -0.5487
 2187SOL    HW118020   0.722   0.845  14.998 -0.4490  0.9986  0.3888
 2187SOL    HW218021   0.659   0.786  15.115  1.3625 -3.1289 -0.8027
 2188SOL     OW18022   2.935   2.053  16.732  0.2226  0.7077  0.5401
 2188SOL    HW118023   2.861   2.006  16.769 -0.5988  0.7803 -1.0215
 2188SOL    HW218024   3.009   2.041  16.792  0.0259 -2.8398  0.1088
 2189SOL     OW18025   4.146   1.173  12.371  0.0211 -0.2633 -0.4562
 2189SOL    HW118026   4.161   1.079  12.384  0.8608  0.0907  1.1272
 2189SOL    HW218027   4.180   1.182  12.282  0.0238  1.9612 -0.2253
 2190SOL     OW18028   0.593   3.406  17.080 -0.2461 -0.2012 -0.0155
 2190SOL    HW118029   0.537   3.483  17.066  1.2155  0.5350 -1.9503
 2190SOL    HW218030   0.660   3.438  17.140 -0.3945 -0.2167  0.1560
 2191SOL     OW18031   1.621   3.255   7.069  0.3717 -0.4002 -0.6434
 2191SOL    HW118032   1.692   3.263   7.132 -0.5487 -1.0142  0.4670
 2191SOL    HW218033   1.563   3.323   7.103  1.1390 -0.5396  0.9075
 2192SOL     OW18034   3.879   3.732   4.172  0.3293 -0.3500  0.4295
 2192SOL    HW118035   3.818   3.669   4.210  0.7314 -1.1328 -0.2424
 2192SOL    HW218036   3.929   3.753   4.251  3.2165 -1.3012 -1.1743
 2193SOL     OW18037   4.686   0.251   3.959  0.5241  0.5155 -0.0679
 2193SOL    HW118038   4.606   0.303   3.963 -1.4994 -2.6062  0.8221
 2193SOL    HW218039   4.676   0.196   3.881  0.4964  0.6986 -0.1923
 2194SOL     OW18040   2.130   2.949   4.327  0.5537  0.6694 -0.0950
 2194SOL    HW118041   2.181   2.871   4.352 -1.9065 -0.5585  1.1235
 2194SOL    HW218042   2.066   2.952   4.398  1.9668 -2.0397  1.2988
 2195SOL     OW18043   3.168   0.409   6.786  0.5168  0.1713 -0.5276
 2195SOL    HW118044   3.255   0.376   6.762  0.7230  0.5201 -0.2477
 2195SOL    HW218045   3.189   0.502   6.792 -0.1462  0.2590  0.3864
 2196SOL     OW18046   0.735   4.474   4.156 -0.2223  0.1264 -0.1309
 2196SOL    HW118047   0.784   4.410   4.208 -1.4495 -1.1936 -0.6080
 2196SOL    HW218048   0.643   4.449   4.160  0.3044 -1.5897  1.3607
 2197SOL     OW18049   4.210   3.092  12.932  0.4167 -0.0731  0.0079
 2197SOL    HW118050   4.160   3.047  12.863 -1.5302 -0.0690  1.4292
 2197SOL    HW218051   4.160   3.058  13.006  1.0837 -0.8017  0.1356
 2198SOL     OW18052   3.214   3.915   8.164  0.6744 -0.3487 -0.3528
 2198SOL    HW118053   3.155   3.990   8.158 -1.1302 -1.6032  1.5624
 2198SOL    HW218054   3.296   3.961   8.182  0.8531  0.3706 -3.0689
 2199SOL     OW18055   0.215   1.192   2.820  0.0962 -0.0235 -0.1680
 2199SOL    HW118056   0.188   1.174   2.910  0.3965  0.8061  0.0843
 2199SOL    HW218057   0.308   1.206   2.838 -0.0995  0.4069  0.5185
 2200SOL     OW18058   3.195   0.355   3.750  0.4188 -0.9017  0.2015
 2200SOL    HW118059   3.269   0.411   3.773 -0.1238  0.0236 -0.3252
 2200SOL    HW218060   3.241   0.271   3.748 -0.6093 -1.4135 -1.6006
 2201SOL     OW18061   3.098   2.622   5.909 -0.7641 -0.3409 -0.1947
 2201SOL    HW118062   3.008   2.653   5.904 -1.1638 -1.8991 -2.3581
 2201SOL    HW218063   3.094   2.559   5.980 -0.2921 -1.4236 -1.1400
 2202SOL     OW18064   1.667   4.247   0.240 -0.2031 -0.2735  0.0059
 2202SOL    HW118065   1.581   4.282   0.264 -0.8232 -1.2233 -0.8554
 2202SOL    HW218066   1.725   4.286   0.306  2.0134  0.7069 -2.5394
 2203SOL     OW18067   4.391   4.074   3.950 -0.1570 -0.1154 -0.2302
 2203SOL    HW118068   4.468   4.119   3.985 -0.7228  0.2655  0.5088
 2203SOL    HW218069   4.364   4.032   4.032 -0.9434 -0.5513 -0.7125
 2204SOL     OW18070   3.597   3.318   1.482 -0.0341 -0.1944  0.0209
 2204SOL    HW118071   3.606   3.236   1.532  0.7465  0.8581  1.5858
 2204SOL    HW218072   3.526   3.301   1.420 -1.2806 -2.8764  2.1549
 2205SOL     OW18073   1.758   2.835  15.666 -0.3579 -0.2061  0.1491
 2205SOL    HW118074   1.778   2.815  15.758  0.8768  1.7426  0.3017
 2205SOL    HW218075   1.740   2.749  15.628  0.1100 -0.8496  1.3819
 2206SOL     OW18076   3.822   2.788   7.074  0.0799  0.2697 -0.1073
 2206SOL    HW118077   3.859   2.735   7.145  1.0097 -0.3835 -1.0752
 2206SOL    HW218078   3.873   2.751   7.001 -1.3931 -2.4489  0.2370
 2207SOL     OW18079   0.701   1.395   6.966 -0.7089  0.1672  0.1866
 2207SOL    HW118080   0.750   1.423   7.043  0.1461 -2.0830  0.4420
 2207SOL    HW218081   0.678   1.307   6.995 -0.3750 -0.1100 -0.3790
 2208SOL     OW18082   1.933   4.387   0.351  0.2100  0.6769  0.3110
 2208SOL    HW118083   1.950   4.439   0.429 -1.2326  1.1861  0.2835
 2208SOL    HW218084   2.001   4.423   0.293  0.0398 -1.7941 -1.3985
 2209SOL     OW18085   1.710   1.580  15.070 -0.1889 -0.7093 -0.0431
 2209SOL    HW118086   1.736   1.533  15.149  2.1577 -0.4998 -0.7033
 2209SOL    HW218087   1.799   1.599  15.042 -0.8766  2.6154  0.0435
 2210SOL     OW18088   2.868   4.081   0.644 -0.0080 -0.0855  0.4310
 2210SOL    HW118089   2.943   4.128   0.680  0.4750  0.5994 -1.5068
 2210SOL    HW218090   2.808   4.156   0.646  0.0203  0.0003 -2.1119
 2211SOL     OW18091   3.623   1.309  10.467 -0.3528  0.0431  0.0713
 2211SOL    HW118092   3.637   1.389  10.416  3.0252 -0.4742  0.1846
 2211SOL    HW218093   3.666   1.244  10.411  3.8973  1.7409  1.3443
 2212SOL     OW18094   1.468   0.717   1.613 -0.3120  0.2493  0.4771
 2212SOL    HW118095   1.483   0.765   1.695  2.0901 -0.4222  0.4277
 2212SOL    HW218096   1.480   0.624   1.634  1.3062  0.5664  0.9685
 2213SOL     OW18097   0.916   3.340   6.898  0.2420 -0.2869  0.0933
 2213SOL    HW118098   0.899   3.412   6.960  0.8683  1.3246 -1.6120
 2213SOL    HW218099   1.007   3.327   6.927  0.4512  1.0104  0.0083
 2214SOL     OW18100   3.275   1.789  13.093  0.1386  0.2093 -0.4432
 2214SOL    HW118101   3.269   1.873  13.138 -0.5863  0.4422 -0.9936
 2214SOL    HW218102   3.196   1.751  13.131 -0.6810  1.8815 -0.4787
 2215SOL     OW18103   1.260   2.185  10.381 -0.1029  0.4616  0.0760
 2215SOL    HW118104   1.278   2.217  10.292 -1.7747 -0.1232 -0.4771
 2215SOL    HW218105   1.244   2.261  10.437 -2.6917 -0.4371  0.5682
 2216SOL     OW18106   0.338   1.966   5.235  0.0140  0.2570  0.0331
 2216SOL    HW118107   0.354   1.898   5.170  0.0688 -1.1120  1.4616
 2216SOL    HW218108   0.413   2.022   5.218  0.5860 -1.2293 -2.3010
 2217SOL     OW18109   1.674   1.232  17.601  0.2588 -0.4897 -0.3598
 2217SOL    HW118110   1.685   1.206  17.692 -0.9855 -2.6773 -0.8428
 2217SOL    HW218111   1.605   1.297  17.607 -2.7042 -3.7480  0.8999
 2218SOL     OW18112   1.274   3.252  11.610  0.4785 -0.3326  0.5148
 2218SOL    HW118113   1.253   3.333  11.563 -0.9631 -0.8203  0.3251
 2218SOL    HW218114   1.261   3.280  11.701 -1.9712 -0.9120  0.3279
 2219SOL     OW18115   2.741   1.362  17.124  0.2974  0.5965 -0.2617
 2219SOL    HW118116   2.799   1.330  17.055  0.0275  0.1808 -0.2910
 2219SOL    HW218117   2.721   1.451  17.096 -0.1588 -0.1493 -2.2789
 2220SOL     OW18118   4.552   4.308  11.536  0.1601 -0.5095  0.0654
 2220SOL    HW118119   4.462   4.311  11.570  0.2673 -0.1361  0.3135
 2220SOL    HW218120   4.575   4.218  11.559  1.0652  0.0317  1.2992
 2221SOL     OW18121   3.435   1.303   4.362  0.1858 -0.2741  0.3604
 2221SOL    HW118122   3.392   1.218   4.369 -0.4256 -0.0883 -1.2076
 2221SOL    HW218123   3.404   1.325   4.275  0.5893  0.9662  0.5210
 2222SOL     OW18124   3.361   0.257  13.916 -0.5396 -0.0561 -0.0881
 2222SOL    HW118125   3.444   0.271  13.963 -1.2994  1.2163  0.8493
 2222SOL    HW218126   3.402   0.236  13.832 -0.5939  1.3466 -0.4682
 2223SOL     OW18127   4.437   0.034   9.381 -0.7546  0.0311 -0.3672
 2223SOL    HW118128   4.405   4.671   9.403 -0.5405  0.3831  1.3222
 2223SOL    HW218129   4.499   0.042   9.453 -2.0005  1.0889  0.5861
 2224SOL     OW18130   1.011   0.843  12.928  0.1439 -0.4705 -0.2613
 2224SOL    HW118131   1.006   0.748  12.935  0.9198 -0.2862  2.6744
 2224SOL    HW218132   0.987   0.873  12.840  1.2704 -3.1874 -1.4839
 2225SOL     OW18133   1.866   1.463   3.011 -0.0665 -0.0603  0.2989
 2225SOL    HW118134   1.875   1.417   2.927  0.1205  3.4264 -1.6008
 2225SOL    HW218135   1.954   1.456   3.047  0.5647 -1.5283 -1.4898
 2226SOL     OW18136   2.905   1.355   5.152 -0.4318  0.0391 -0.9003
 2226SOL    HW118137   2.815   1.364   5.122 -0.9627 -3.4224 -0.3418
 2226SOL    HW218138   2.950   1.410   5.087 -1.0980  2.3141  0.5460
 2227SOL     OW18139   3.139   2.158   9.104  0.3282 -0.4072 -0.2316
 2227SOL    HW118140   3.125   2.240   9.149  2.4670  0.2000 -0.6704
 2227SOL    HW218141   3.211   2.118   9.153  1.8673  0.0016 -2.1403
 2228SOL     OW18142   0.432   3.392   5.270  0.3890  0.2273  0.1822
 2228SOL    HW118143   0.362   3.342   5.228  0.6764 -1.5108  1.7472
 2228SOL    HW218144   0.497   3.390   5.200 -0.6764 -2.5116 -0.7037
 2229SOL     OW18145   4.313   1.043   1.507 -0.8777  0.0011  0.2446
 2229SOL    HW118146   4.280   1.132   1.508  1.6954  0.9605 -0.6338
 2229SOL    HW218147   4.228   1.005   1.485 -0.5358 -1.6157  1.7456
 2230SOL     OW18148   2.285   1.462   4.413  0.0440  0.3412  0.1841
 2230SOL    HW118149   2.217   1.517   4.374  0.2091  0.6178  0.2818
 2230SOL    HW218150   2.238   1.383   4.438  0.9309 -0.3415 -0.2630
 2231SOL     OW18151   4.024   3.173   2.363 -0.0659  1.1424 -0.7263
 2231SOL    HW118152   4.031   3.220   2.280  0.6043  0.0807 -1.2741
 2231SOL    HW218153   4.079   3.219   2.426  0.0713 -0.5409  0.3644
 2232SOL     OW18154   2.124   0.696   6.514  0.3529  0.2839 -0.2195
 2232SOL    HW118155   2.047   0.659   6.557  3.0168 -3.3839  1.4364
 2232SOL    HW218156   2.171   0.615   6.494  1.1126  0.0996  2.2812
 2233SOL     OW18157   0.250   1.038   4.309  0.2514  0.3762  0.3005
 2233SOL    HW118158   0.324   0.989   4.275  2.2977  2.8945  1.1568
 2233SOL    HW218159   0.195   1.044   4.230 -0.0426 -1.1676  0.3836
 2234SOL     OW18160   4.076   0.474   0.688  0.0006 -1.1524 -0.1836
 2234SOL    HW118161   4.085   0.470   0.783 -0.2437  0.7703 -0.0973
 2234SOL    HW218162   4.104   0.564   0.676  3.1718 -1.9594  0.9875
 2235SOL     OW18163   4.451   3.849   3.540 -0.2245 -0.1900 -0.4950
 2235SOL    HW118164   4.452   3.778   3.475 -0.6019 -0.7189  0.0711
 2235SOL    HW218165   4.429   3.923   3.483  1.8332 -0.1836 -1.2827
 2236SOL     OW18166   0.661   3.017  13.071  0.4294 -0.1008  0.1409
 2236SOL    HW118167   0.742   3.013  13.020  0.6657 -0.7690  0.5604
 2236SOL    HW218168   0.675   2.928  13.105 -0.3902  0.2067  1.2799
 2237SOL     OW18169   4.715   3.695   4.479  0.0799  0.0484 -1.0485
 2237SOL    HW118170   4.659   3.694   4.556  1.5000  0.5473 -0.0123
 2237SOL    HW218171   4.649   3.719   4.413 -0.8423 -0.8686 -0.4497
 2238SOL     OW18172   3.564   4.026   3.742 -0.2266  0.4443  0.4523
 2238SOL    HW118173   3.628   3.957   3.754 -0.0519  0.9836  2.7244
 2238SOL    HW218174   3.530   3.989   3.661  0.9562 -0.1222  0.2237
 2239SOL     OW18175   0.447   1.123   2.126  0.2955 -0.1751  0.2966
 2239SOL    HW118176   0.455   1.186   2.198 -1.5200 -0.9995  1.2144
 2239SOL    HW218177   0.531   1.118   2.080 -0.1451  1.0301 -0.6548
 2240SOL     OW18178   0.860   0.857   8.071  0.0343  0.1807  0.9155
 2240SOL    HW118179   0.828   0.934   8.023  0.4122  0.6493  1.4200
 2240SOL    HW218180   0.935   0.900   8.113 -0.3547  0.8332  0.9434
 2241SOL     OW18181   3.088   3.871   2.145  0.1185  0.0020 -0.2332
 2241SOL    HW118182   2.994   3.855   2.149  0.3280 -0.4379  2.5876
 2241SOL    HW218183   3.115   3.873   2.237  2.5816 -0.8005 -0.9602
 2242SOL     OW18184   4.629   0.864   2.348  0.3127 -0.4794 -0.7054
 2242SOL    HW118185   4.629   0.819   2.264  1.5035  1.2179 -1.6095
 2242SOL    HW218186   4.584   0.944   2.323  0.6375  0.1122  0.6352
 2243SOL     OW18187   0.984   2.376   0.435 -0.3273  0.3493 -0.7903
 2243SOL    HW118188   1.023   2.420   0.359 -3.4475  3.0673 -0.7915
 2243SOL    HW218189   0.989   2.442   0.504  2.1220  0.6715 -1.2504
 2244SOL     OW18190   4.607   1.444  12.328  0.4499 -0.1388 -0.1871
 2244SOL    HW118191   4.610   1.389  12.406  0.8710  0.0043 -0.1026
 2244SOL    HW218192   4.520   1.424  12.295  0.3327 -0.7119  0.4813
 2245SOL     OW18193   1.882   1.191   6.347  0.2981  0.2250 -0.3010
 2245SOL    HW118194   1.916   1.146   6.424  0.8662  0.8455 -0.1895
 2245SOL    HW218195   1.959   1.198   6.290  0.1538  2.5222 -0.2051
 2246SOL     OW18196   1.642   2.173   8.283 -0.0273  0.3122  0.3787
 2246SOL    HW118197   1.659   2.254   8.332 -1.1451 -0.1605  1.5349
 2246SOL    HW218198   1.662   2.096   8.337  1.6466 -0.0643 -0.8000
 2247SOL     OW18199   1.209   0.393  10.049  0.1588 -0.2791 -0.5829
 2247SOL    HW118200   1.178   0.394   9.959  0.6571  1.4097 -0.7418
 2247SOL    HW218201   1.297   0.361  10.030 -0.0115 -2.0182  1.5807
 2248SOL     OW18202   2.637   4.120   3.848 -0.3032 -0.0858 -0.1997
 2248SOL    HW118203   2.728   4.112   3.819 -0.2613 -1.4743  0.2922
 2248SOL    HW218204   2.596   4.167   3.776  0.2961  0.0177 -0.4707
 2249SOL     OW18205   4.069   0.720  11.927  0.1099  0.8472  0.0923
 2249SOL    HW118206   4.016   0.781  11.876  0.0505 -1.5574 -2.6962
 2249SOL    HW218207   4.095   0.653  11.863 -0.1569  1.0501 -0.2305
 2250SOL     OW18208   1.285   3.815   9.090  0.2201  0.1504  0.4486
 2250SOL    HW118209   1.232   3.874   9.143 -1.2228  1.1985 -2.1714
 2250SOL    HW218210   1.343   3.780   9.158 -0.2994 -0.3967  0.6139
 2251SOL     OW18211   4.115   3.402   2.725 -0.6211 -0.7369 -0.0951
 2251SOL    HW118212   4.150   3.317   2.698 -1.8632 -0.5407 -2.3978
 2251SOL    HW218213   4.156   3.413   2.810  0.9507 -0.8426 -0.8345
 2252SOL     OW18214   0.547   4.284   4.301  0.0481 -0.3267  0.0948
 2252SOL    HW118215   0.637   4.257   4.281  0.9846  1.1813  2.3117
 2252SOL    HW218216   0.534   4.217   4.369  0.9435 -1.1144 -0.5075
 2253SOL     OW18217   0.407   2.734   7.585  0.0845 -0.2089  0.2679
 2253SOL    HW118218   0.364   2.715   7.502 -1.7613 -1.3128  1.4707
 2253SOL    HW218219   0.355   2.685   7.648  1.8126 -1.2644  0.8680
 2254SOL     OW18220   1.125   1.789  13.513  0.2237  0.3278  0.0440
 2254SOL    HW118221   1.201   1.782  13.572 -1.9119 -1.7008  2.5878
 2254SOL    HW218222   1.076   1.853  13.565 -1.4639 -0.3107 -0.7877
 2255SOL     OW18223   1.943   1.004   7.848 -0.0071  0.3183  0.4113
 2255SOL    HW118224   1.864   0.994   7.901 -0.8019 -0.7467 -0.9504
 2255SOL    HW218225   1.972   1.080   7.898  1.3209  0.1114 -0.0432
 2256SOL     OW18226   2.082   3.591   2.701 -0.5485  0.1007  0.8324
 2256SOL    HW118227   2.077   3.501   2.671  0.0364 -0.7488  3.2745
 2256SOL    HW218228   2.050   3.647   2.630  2.2001 -0.6209 -0.9762
 2257SOL     OW18229   4.062   0.719   6.978  0.6456  0.3652 -0.1547
 2257SOL    HW118230   4.058   0.634   7.021 -3.3899  0.9701  0.6794
 2257SOL    HW218231   4.109   0.770   7.044  2.1286 -0.0126 -0.9313
 2258SOL     OW18232   2.843   4.508  14.667 -0.2222 -0.0597 -0.5136
 2258SOL    HW118233   2.759   4.494  14.710  0.5742 -0.4779  0.9013
 2258SOL    HW218234   2.877   4.419  14.667  1.7064  0.6651 -2.6141
 2259SOL     OW18235   2.613   0.486   5.418 -0.0424  0.9568 -0.0222
 2259SOL    HW118236   2.610   0.484   5.323  1.0921  0.0347 -0.0432
 2259SOL    HW218237   2.705   0.473   5.439 -0.0100  0.6813 -0.3465
 2260SOL     OW18238   3.864   4.551   6.699  0.1521 -0.3216 -0.2574
 2260SOL    HW118239   3.937   4.572   6.758  0.2817 -0.7160 -0.2767
 2260SOL    HW218240   3.849   4.459   6.719  1.1315 -0.8891 -2.1140
 2261SOL     OW18241   3.267   4.240   9.289  0.1472  0.3286  0.4512
 2261SOL    HW118242   3.201   4.178   9.258  2.7233 -2.8556  1.4104
 2261SOL    HW218243   3.258   4.318   9.233  1.0486 -1.6267 -2.4434
 2262SOL     OW18244   0.096   3.577   8.676 -0.5818 -0.3892  0.3400
 2262SOL    HW118245   0.130   3.630   8.749 -1.3427 -0.9792  1.1161
 2262SOL    HW218246   0.178   3.572   8.626 -0.2796  0.2336  0.7609
 2263SOL     OW18247   1.200   0.443   1.821 -0.1895  1.1105 -0.1035
 2263SOL    HW118248   1.242   0.407   1.743 -0.9231 -1.1774  0.5706
 2263SOL    HW218249   1.109   0.453   1.795 -0.3413 -1.1083 -0.3830
 2264SOL     OW18250   4.330   4.524   8.543 -0.5504 -0.2390 -0.3479
 2264SOL    HW118251   4.360   4.598   8.596 -0.6566 -0.3370 -0.1495
 2264SOL    HW218252   4.260   4.487   8.597 -1.8142 -1.3135 -2.7498
 2265SOL     OW18253   0.906   0.719  14.600 -0.2852  0.1389 -0.1793
 2265SOL    HW118254   0.992   0.746  14.569 -0.0623 -1.1955 -0.7202
 2265SOL    HW218255   0.896   0.629  14.570 -0.2544 -0.2235  0.8870
 2266SOL     OW18256   1.359   3.711   3.689 -0.0997  0.3965 -0.5956
 2266SOL    HW118257   1.343   3.617   3.679 -1.9177  0.5098  1.1904
 2266SOL    HW218258   1.329   3.728   3.778 -0.2047 -0.8934 -0.3845
 2267SOL     OW18259   2.643   3.988   6.424 -0.1502 -0.1006 -0.1276
 2267SOL    HW118260   2.681   3.953   6.505  2.8343 -0.7180 -1.8104
 2267SOL    HW218261   2.722   4.012   6.375 -0.1460 -0.5848 -0.3578
 2268SOL     OW18262   1.539   0.854   5.637 -0.1138 -0.4301  0.1233
 2268SOL    HW118263   1.542   0.937   5.588  2.7138 -1.2574 -1.0847
 2268SOL    HW218264   1.622   0.864   5.683  0.0423 -0.7273 -0.0944
 2269SOL     OW18265   4.407   3.401   7.199 -0.1737 -0.3437 -0.1729
 2269SOL    HW118266   4.359   3.319   7.213 -0.0567 -0.0424  1.9223
 2269SOL    HW218267   4.417   3.434   7.288  2.1922  1.5996 -1.1358
 2270SOL     OW18268   3.005   4.341  14.503 -0.2502 -0.2041  0.2797
 2270SOL    HW118269   2.993   4.254  14.541 -0.7288 -0.1216  0.3173
 2270SOL    HW218270   2.974   4.330  14.414 -1.2420 -1.9208  0.8414
 2271SOL     OW18271   0.180   0.546  17.183  0.1146 -0.5041 -0.1638
 2271SOL    HW118272   0.210   0.516  17.269 -1.5812 -0.3524  0.4814
 2271SOL    HW218273   0.180   0.467  17.129 -0.1350 -0.4857 -0.1900
 2272SOL     OW18274   4.232   4.326  12.025  0.2874 -0.4852 -0.0175
 2272SOL    HW118275   4.160   4.388  12.027  1.5196  0.9488 -0.0549
 2272SOL    HW218276   4.191   4.255  12.075 -0.8950  0.2254  0.0121
 2273SOL     OW18277   0.318   1.586   0.147  0.6625 -0.2903 -0.1806
 2273SOL    HW118278   0.334   1.554   0.058 -0.6441 -0.0278 -0.5065
 2273SOL    HW218279   0.230   1.624   0.141  1.4059  1.4372 -0.1532
 2274SOL     OW18280   2.648   2.010   2.039  0.1073 -0.2332  0.0528
 2274SOL    HW118281   2.604   1.945   1.985  0.6501  1.9652 -3.0336
 2274SOL    HW218282   2.739   2.022   2.013  0.2853  0.0951  0.8140
 2275SOL     OW18283   2.781   1.515   6.540  0.2371 -0.2614  0.2809
 2275SOL    HW118284   2.770   1.426   6.506  0.9618 -0.6231  0.9697
 2275SOL    HW218285   2.729   1.563   6.476  1.1453 -0.0672 -0.3180
 2276SOL     OW18286   0.472   1.009   6.593  0.4586  0.4591  0.9301
 2276SOL    HW118287   0.436   1.088   6.553 -0.4121 -0.6089 -0.4127
 2276SOL    HW218288   0.395   0.980   6.642 -0.0775  0.5869  0.1598
 2277SOL     OW18289   3.728   3.534   6.228  0.4328 -0.0184 -0.2459
 2277SOL    HW118290   3.673   3.609   6.248  0.3722 -0.7145  2.3145
 2277SOL    HW218291   3.717   3.484   6.309  0.3583  0.4081  0.0049
 2278SOL     OW18292   4.318   4.651  10.537 -0.6837  0.7920  0.3222
 2278SOL    HW118293   4.258   4.588  10.496 -0.9329  2.6690 -2.2133
 2278SOL    HW218294   4.276   0.009  10.513 -0.6114  1.2813  1.8734
 2279SOL     OW18295   1.403   2.851   2.298 -0.1891 -0.1401 -0.3697
 2279SOL    HW118296   1.494   2.821   2.308  0.1358  1.1213  0.5008
 2279SOL    HW218297   1.414   2.946   2.309  0.8740 -0.3682  0.5594
 2280SOL     OW18298   0.929   0.733   4.398 -0.7525  0.4917 -0.0787
 2280SOL    HW118299   0.877   0.808   4.430 -0.3815  0.9243 -0.4931
 2280SOL    HW218300   0.870   0.682   4.343 -1.4866 -0.4179  1.5659
 2281SOL     OW18301   0.799   4.150  14.090 -0.0235  0.1889  0.1415
 2281SOL    HW118302   0.747   4.191  14.159 -0.1749  0.8968 -0.3979
 2281SOL    HW218303   0.738   4.132  14.019 -0.1340 -0.9471  0.5288
 2282SOL     OW18304   3.302   1.102  16.712  0.2432  0.2635 -0.3442
 2282SOL    HW118305   3.322   1.062  16.627 -0.7581 -2.2731  0.6189
 2282SOL    HW218306   3.383   1.138  16.748  0.2053 -1.4178  1.3766
 2283SOL     OW18307   1.275   0.369   4.434 -0.5075  0.3889  0.0698
 2283SOL    HW118308   1.297   0.438   4.372 -0.2779 -0.3290 -0.6503
 2283SOL    HW218309   1.193   0.341   4.394  0.5321  0.1949 -1.9255
 2284SOL     OW18310   0.789   4.562  16.581 -0.0124  0.2425  0.4515
 2284SOL    HW118311   0.725   4.493  16.561  0.4675  1.0246 -3.8344
 2284SOL    HW218312   0.843   4.587  16.506  0.0926 -0.5414  0.2734
 2285SOL     OW18313   0.078   1.961   7.450 -0.3376  0.4635  0.0463
 2285SOL    HW118314   0.061   2.054   7.461  0.3322  0.8278 -1.8544
 2285SOL    HW218315   0.165   1.952   7.489  1.0319 -0.8871 -3.2282
 2286SOL     OW18316   2.328   2.630  14.657  0.0091  0.2038  0.7942
 2286SOL    HW118317   2.277   2.551  14.639 -0.4199  1.4132 -3.2651
 2286SOL    HW218318   2.268   2.690  14.612  0.0328 -1.1534 -1.0667
 2287SOL     OW18319   4.009   2.183   8.538  0.1256 -0.4655  0.7011
 2287SOL    HW118320   4.088   2.160   8.586  0.9558  1.9526  0.4810
 2287SOL    HW218321   3.972   2.254   8.589 -0.5464 -0.8621  0.7724
 2288SOL     OW18322   4.046   3.013   5.326 -0.0803 -0.0328 -0.5078
 2288SOL    HW118323   3.952   3.003   5.312 -0.1081 -0.3172 -0.1178
 2288SOL    HW218324   4.041   3.101   5.364  0.2444  0.7060 -2.1813
 2289SOL     OW18325   4.091   3.478   4.156 -0.0371  0.4174  0.1247
 2289SOL    HW118326   4.009   3.438   4.127 -1.1592  2.4953  0.4928
 2289SOL    HW218327   4.091   3.452   4.249 -0.2628 -0.0229  0.0003
 2290SOL     OW18328   3.092   2.760   1.305  0.3415  0.0008  0.3984
 2290SOL    HW118329   3.156   2.792   1.369 -1.0503 -0.7733  2.1683
 2290SOL    HW218330   3.070   2.673   1.338  1.7582 -0.1281  0.9852
 2291SOL     OW18331   0.054   2.795  14.824 -0.4718  0.0605 -0.4871
 2291SOL    HW118332   4.695   2.814  14.867 -0.7121 -2.6656  0.2590
 2291SOL    HW218333   0.109   2.852  14.878 -0.6500 -1.3804  1.2190
 2292SOL     OW18334   0.077   4.639   9.033  0.1121 -0.7323 -0.5209
 2292SOL    HW118335   0.024   4.671   8.960 -0.2447 -0.8068 -0.2967
 2292SOL    HW218336   0.039   4.684   9.109 -1.4165 -3.7923  0.5398
 2293SOL     OW18337   0.522   0.318   5.680 -0.0817  1.0041 -0.3104
 2293SOL    HW118338   0.551   0.288   5.766  0.0114  0.4252 -0.5478
 2293SOL    HW218339   0.584   0.390   5.666  1.6597 -0.5611 -0.5336
 2294SOL     OW18340   1.725   3.379   2.258  0.1481  0.2326  0.4165
 2294SOL    HW118341   1.787   3.430   2.310 -1.2743  2.7642 -0.3703
 2294SOL    HW218342   1.645   3.431   2.268  0.3022  0.7127 -0.8586
 2295SOL     OW18343   3.653   2.339   9.090  0.1644 -0.0216  0.0069
 2295SOL    HW118344   3.695   2.252   9.094 -0.4065 -0.3811 -1.7056
 2295SOL    HW218345   3.561   2.314   9.092  0.1464 -0.0812 -1.2139
 2296SOL     OW18346   1.157   1.942   7.523  0.1216 -0.1442  0.5501
 2296SOL    HW118347   1.080   1.900   7.561 -0.6676  0.9757  0.2042
 2296SOL    HW218348   1.224   1.929   7.590  1.1340 -0.8575 -0.5996
 2297SOL     OW18349   1.423   3.361   1.965 -0.4514 -0.3235  0.3182
 2297SOL    HW118350   1.426   3.446   1.922  2.1268 -2.2587 -3.3271
 2297SOL    HW218351   1.452   3.306   1.892 -2.5763  0.0595 -0.7810
 2298SOL     OW18352   2.023   4.220   3.364  1.0249  0.1972 -0.6345
 2298SOL    HW118353   2.028   4.161   3.440  2.4156  3.9570  2.2236
 2298SOL    HW218354   2.078   4.162   3.310  0.0729  0.2614 -1.6674
 2299SOL     OW18355   0.403   0.552  11.975  0.4913  0.9957 -0.7192
 2299SOL    HW118356   0.468   0.560  12.044 -0.8474 -2.2151  0.9428
 2299SOL    HW218357   0.377   0.644  11.977 -0.3735  0.7328  0.4033
 2300SOL     OW18358   1.705   0.099   6.592  0.0757  0.9793  0.2730
 2300SOL    HW118359   1.744   0.093   6.505  1.0664  0.2672  0.7732
 2300SOL    HW218360   1.774   0.147   6.639  2.1766  0.6771 -2.4994
 2301SOL     OW18361   3.717   3.517   4.253 -0.3328  0.3535 -0.0061
 2301SOL    HW118362   3.654   3.452   4.223 -2.0363  2.1601 -0.3841
 2301SOL    HW218363   3.784   3.483   4.193  1.2772 -1.7769  3.0676
 2302SOL     OW18364   3.367   1.599   4.454  0.8592 -0.0404 -0.2409
 2302SOL    HW118365   3.434   1.589   4.386  0.4523  0.2152 -0.6769
 2302SOL    HW218366   3.412   1.542   4.517  0.2517 -0.4399 -0.1732
 2303SOL     OW18367   3.578   2.169   2.753 -0.0216  0.5139  0.4206
 2303SOL    HW118368   3.558   2.076   2.750 -1.2113  0.8410 -1.7321
 2303SOL    HW218369   3.616   2.171   2.666 -1.6151  0.9361 -0.2691
 2304SOL     OW18370   4.193   4.717  12.508 -0.1080  0.1744 -0.1152
 2304SOL    HW118371   4.103   4.700  12.481  0.3349  0.0523 -1.4827
 2304SOL    HW218372   4.218   0.061  12.446 -0.6663  1.6569  1.2813
 2305SOL     OW18373   2.863   4.101   3.715  0.8487  0.3261  0.0984
 2305SOL    HW118374   2.935   4.039   3.706 -0.9015 -1.6855 -0.0283
 2305SOL    HW218375   2.917   4.170   3.755  1.4850  0.8781 -1.7137
 2306SOL     OW18376   1.570   4.355   2.836 -0.1345  0.1720  0.0790
 2306SOL    HW118377   1.591   4.447   2.851  2.4434 -0.4716  0.3546
 2306SOL    HW218378   1.660   4.324   2.834  0.3734  1.6368  0.4219
 2307SOL     OW18379   0.989   4.699   6.845 -0.6263  0.2933  0.5726
 2307SOL    HW118380   1.022   0.028   6.918 -3.6212  0.6466  1.6606
 2307SOL    HW218381   0.988   0.037   6.773  1.0235 -1.9567 -1.4032
 2308SOL     OW18382   1.060   0.162   4.054 -0.2765 -0.0254  0.3857
 2308SOL    HW118383   1.033   0.072   4.074 -0.2639 -0.2170 -0.4701
 2308SOL    HW218384   1.141   0.148   4.004 -0.2597  2.4647 -0.2950
 2309SOL     OW18385   4.221   2.858   3.144  0.4652  0.0149  0.3647
 2309SOL    HW118386   4.152   2.899   3.093  0.4694 -0.8901 -0.3493
 2309SOL    HW218387   4.186   2.864   3.233 -0.4659 -1.6361  0.1036
 2310SOL     OW18388   1.496   0.080   5.002  0.1787  0.2591 -0.8577
 2310SOL    HW118389   1.508   0.009   4.938 -0.7486 -0.2477 -0.4661
 2310SOL    HW218390   1.403   0.093   4.988 -0.1211 -1.8074 -0.8333
 2311SOL     OW18391   4.670   0.698   6.353 -0.2778  0.0426  0.2886
 2311SOL    HW118392   4.649   0.762   6.286 -0.3240 -0.4930 -0.2132
 2311SOL    HW218393   4.600   0.633   6.345 -0.2939 -0.1578  2.0454
 2312SOL     OW18394   3.950   4.257   3.720 -0.5043  0.1924 -0.1064
 2312SOL    HW118395   3.942   4.190   3.652  2.4352 -0.4500  0.1918
 2312SOL    HW218396   4.000   4.211   3.786 -1.8457 -1.4577 -0.2545
 2313SOL     OW18397   1.817   2.672  11.820 -0.0156  0.1890 -0.0278
 2313SOL    HW118398   1.858   2.758  11.816  1.7494 -0.6488  0.1004
 2313SOL    HW218399   1.752   2.674  11.890  0.0059  1.9285 -0.0486
 2314SOL     OW18400   1.286   3.065   4.487 -0.0156 -0.0735  0.1950
 2314SOL    HW118401   1.339   3.005   4.435  0.0158 -0.5180  0.7414
 2314SOL    HW218402   1.291   3.148   4.438  1.5967 -0.6704 -0.6586
 2315SOL     OW18403   1.521   3.840  13.878  0.0776  0.3195  0.2475
 2315SOL    HW118404   1.611   3.830  13.847  0.0351 -0.5792  0.4195
 2315SOL    HW218405   1.500   3.933  13.867 -0.9540 -0.1851 -2.0647
 2316SOL     OW18406   3.814   2.743  12.770  0.0429 -0.3915  0.0168
 2316SOL    HW118407   3.866   2.747  12.690 -1.2223  0.9704 -0.7165
 2316SOL    HW218408   3.729   2.719  12.733  0.1762 -3.1521  1.4214
 2317SOL     OW18409   3.192   3.927   9.577  0.0392  0.5454  0.1369
 2317SOL    HW118410   3.102   3.897   9.586 -0.8284  2.8171 -0.8782
 2317SOL    HW218411   3.202   3.920   9.483 -0.2847  1.6203  0.0242
 2318SOL     OW18412   1.621   0.339   8.693 -0.0444 -0.4716  0.9410
 2318SOL    HW118413   1.713   0.363   8.685 -0.4447 -0.4590 -3.4282
 2318SOL    HW218414   1.588   0.395   8.764 -1.2249  0.7295 -0.5394
 2319SOL     OW18415   1.528   1.306  15.523 -0.7784  0.3710  0.3283
 2319SOL    HW118416   1.553   1.331  15.612 -1.0007  0.6770  0.3063
 2319SOL    HW218417   1.454   1.362  15.499 -0.1493  1.3147  0.5801
 2320SOL     OW18418   2.535   2.809   4.381  0.4389  0.4786 -0.1362
 2320SOL    HW118419   2.576   2.728   4.410  1.9071  1.1554 -0.3308
 2320SOL    HW218420   2.447   2.773   4.368 -0.9500  3.2050  1.8033
 2321SOL     OW18421   2.633   2.702  10.926  0.3941  0.2457 -0.6097
 2321SOL    HW118422   2.709   2.644  10.929  1.5462  1.7828  0.1309
 2321SOL    HW218423   2.627   2.713  10.831 -0.9642  1.3304 -0.4090
 2322SOL     OW18424   1.024   1.574   7.249 -0.0933  0.3511  0.3117
 2322SOL    HW118425   1.095   1.514   7.275  1.1919  0.7130 -2.3394
 2322SOL    HW218426   1.077   1.653   7.255  1.3535 -0.5038 -1.1620
 2323SOL     OW18427   1.691   2.777  16.147  0.1669 -0.5513 -0.1306
 2323SOL    HW118428   1.732   2.757  16.063  0.3554 -0.5634 -0.0356
 2323SOL    HW218429   1.605   2.806  16.116  1.0796  1.7789 -0.4475
 2324SOL     OW18430   0.207   0.087  17.575 -0.2194  0.0313  0.3457
 2324SOL    HW118431   0.122   0.074  17.617 -0.0067  0.8188  1.0236
 2324SOL    HW218432   0.209   0.011  17.516 -0.8085  0.9000 -0.7787
 2325SOL     OW18433   3.464   1.269   3.226  0.6958 -0.2460  0.2116
 2325SOL    HW118434   3.387   1.223   3.261  0.9756 -1.2464 -0.5011
 2325SOL    HW218435   3.490   1.213   3.153  0.1119 -1.7936  1.1710
 2326SOL     OW18436   2.664   3.151   9.947 -0.1682  0.1654  0.2217
 2326SOL    HW118437   2.698   3.227   9.900  1.7976 -1.0581 -0.3396
 2326SOL    HW218438   2.744   3.103   9.966 -0.9288 -0.6126  1.4360
 2327SOL     OW18439   1.182   4.526   0.522 -0.4986  0.3923  0.7546
 2327SOL    HW118440   1.127   4.448   0.530 -1.2463  0.8355 -0.0790
 2327SOL    HW218441   1.272   4.496   0.536 -0.6641  0.1613  1.3018
 2328SOL     OW18442   2.692   1.423  12.592  0.3306 -0.2627  0.0933
 2328SOL    HW118443   2.690   1.486  12.664  0.2354  0.0483 -0.1818
 2328SOL    HW218444   2.622   1.363  12.615  1.0884 -1.4054 -0.5868
 2329SOL     OW18445   1.368   0.871  17.687 -0.4335  0.2009 -0.4075
 2329SOL    HW118446   1.347   0.861   0.080 -1.1698  0.9534 -0.4980
 2329SOL    HW218447   1.381   0.962  17.662  0.6170  0.4063  0.8803
 2330SOL     OW18448   2.353   2.627  13.196  0.0858 -0.2774 -0.2611
 2330SOL    HW118449   2.368   2.697  13.133  1.6376 -0.2750  0.1086
 2330SOL    HW218450   2.442   2.593  13.210 -1.8708 -5.4888 -0.6001
 2331SOL     OW18451   2.817   2.084  16.129 -0.2539 -0.2205  0.3302
 2331SOL    HW118452   2.789   1.999  16.161 -0.6965 -0.8751 -1.7998
 2331SOL    HW218453   2.742   2.122  16.082 -0.5910 -0.5252  0.6282
 2332SOL     OW18454   3.516   2.468   9.441  0.1542 -0.2336  0.1719
 2332SOL    HW118455   3.536   2.523   9.365  0.5310  0.2271  0.6057
 2332SOL    HW218456   3.594   2.413   9.433  1.7460  1.6899  2.4689
 2333SOL     OW18457   0.289   0.616   8.662  0.4161  0.4942  0.2253
 2333SOL    HW118458   0.238   0.696   8.658  1.5532  1.1418 -1.3356
 2333SOL    HW218459   0.334   0.618   8.746  0.0616  1.6939  0.3791
 2334SOL     OW18460   3.166   0.203  12.501  0.2351  0.4712  0.0932
 2334SOL    HW118461   3.216   0.260  12.558  0.8961 -2.1607  2.1412
 2334SOL    HW218462   3.110   0.154  12.561  1.0816 -0.3930  0.1747
 2335SOL     OW18463   1.938   4.388   4.510  0.0057  0.2686 -0.2367
 2335SOL    HW118464   1.961   4.421   4.422 -0.8527 -0.5943 -0.7820
 2335SOL    HW218465   1.905   4.470   4.546 -0.5386 -0.1583  0.2305
 2336SOL     OW18466   2.048   0.550   5.793  0.2723 -0.1890 -0.1616
 2336SOL    HW118467   2.067   0.561   5.886 -0.9329  0.2537  0.0407
 2336SOL    HW218468   1.952   0.551   5.795  0.2796  0.2812 -0.0919
 2337SOL     OW18469   2.626   3.370   2.796  0.0375 -0.1314  0.7491
 2337SOL    HW118470   2.622   3.370   2.892 -0.7270  0.8309  0.7226
 2337SOL    HW218471   2.701   3.428   2.783  0.3586 -0.6334  0.3428
 2338SOL     OW18472   1.223   3.645  14.229 -0.3338  0.4564 -0.0469
 2338SOL    HW118473   1.172   3.617  14.153  0.7126 -0.8783 -0.2608
 2338SOL    HW218474   1.224   3.738  14.211  0.0735 -0.2602 -3.6850
 2339SOL     OW18475   0.165   0.565   5.831 -0.5005 -0.0076  0.0019
 2339SOL    HW118476   0.165   0.469   5.824  0.2979  0.2334 -3.3168
 2339SOL    HW218477   0.071   0.581   5.830 -0.5503 -0.3142 -0.3441
 2340SOL     OW18478   1.466   0.128   0.140  0.5647 -0.6635 -0.0561
 2340SOL    HW118479   1.486   0.097   0.229 -1.0241 -0.5921  0.3246
 2340SOL    HW218480   1.380   0.090   0.125  0.3093  0.3637 -1.1670
 2341SOL     OW18481   2.855   2.322   2.859 -0.4794  0.3768  0.1502
 2341SOL    HW118482   2.787   2.259   2.880 -1.0431  1.1691  0.7070
 2341SOL    HW218483   2.839   2.303   2.767 -1.2415  0.5924  0.2408
 2342SOL     OW18484   4.695   4.559   9.750 -0.2329  0.4371  0.4414
 2342SOL    HW118485   4.635   4.488   9.769  0.5599 -0.6509 -1.1520
 2342SOL    HW218486   0.051   4.507   9.745 -0.6604 -0.2139  0.5092
 2343SOL     OW18487   2.452   2.247   4.685 -0.2410 -0.2482  0.4903
 2343SOL    HW118488   2.445   2.215   4.775 -0.9396 -0.1672  0.4672
 2343SOL    HW218489   2.447   2.342   4.695  1.9158  0.0827 -1.7014
 2344SOL     OW18490   1.909   0.963   0.467 -0.7318  0.3578 -0.5737
 2344SOL    HW118491   1.960   0.985   0.389 -2.3881  0.1961 -1.6895
 2344SOL    HW218492   1.954   0.883   0.493 -0.4688  0.1721 -1.6290
 2345SOL     OW18493   3.209   0.732   4.260  0.4352 -0.4143 -0.3863
 2345SOL    HW118494   3.258   0.750   4.340 -3.7168 -0.4145  2.1915
 2345SOL    HW218495   3.159   0.652   4.278 -0.9821  0.5140 -0.1880
 2346SOL     OW18496   1.293   1.568   1.319 -0.4929 -0.0215 -0.3358
 2346SOL    HW118497   1.319   1.568   1.227 -1.5405 -1.8199 -0.6384
 2346SOL    HW218498   1.285   1.661   1.337 -1.4942  0.2523 -2.1425
 2347SOL     OW18499   2.994   0.199  12.296 -0.0501 -0.1957 -0.0819
 2347SOL    HW118500   2.969   0.291  12.303  0.5284  0.0100 -0.8358
 2347SOL    HW218501   3.060   0.192  12.365 -3.6034 -1.5046  3.1964
 2348SOL     OW18502   1.776   2.972   2.391  0.4967 -0.2184  0.4076
 2348SOL    HW118503   1.717   3.017   2.451 -1.4392 -1.6398 -0.4307
 2348SOL    HW218504   1.738   2.886   2.371  0.1694  0.5375 -2.2290
 2349SOL     OW18505   3.635   1.326   8.655  0.7380 -0.3693 -0.0734
 2349SOL    HW118506   3.618   1.254   8.595  0.3536 -2.1593  2.2059
 2349SOL    HW218507   3.723   1.303   8.684  0.1545 -0.9284  1.2204
 2350SOL     OW18508   0.146   4.649  10.607 -0.2144  0.8059 -0.6694
 2350SOL    HW118509   0.173   4.580  10.547  0.7420  1.5558 -1.1147
 2350SOL    HW218510   0.124   4.720  10.546 -3.4754  0.1053 -0.3139
 2351SOL     OW18511   2.683   3.889   7.884 -0.3722  0.0416  0.6972
 2351SOL    HW118512   2.757   3.898   7.824 -1.6820  0.1164 -0.9066
 2351SOL    HW218513   2.622   3.951   7.846  1.9098  3.1214  2.0659
 2352SOL     OW18514   2.577   4.689  17.492  0.1831 -0.6851  0.0724
 2352SOL    HW118515   2.558   4.703  17.399 -0.9185  0.0201  0.4039
 2352SOL    HW218516   2.509   0.011  17.540 -0.0227  0.3422 -1.2051
 2353SOL     OW18517   3.925   1.838   8.845  0.4840 -0.1957  0.3214
 2353SOL    HW118518   3.926   1.837   8.941 -0.8244  0.7161  0.3539
 2353SOL    HW218519   3.855   1.899   8.821  1.2809  0.0704 -1.3588
 2354SOL     OW18520   1.527   0.340   6.820  0.2793  0.2452  0.8014
 2354SOL    HW118521   1.544   0.407   6.886  0.0988 -1.3636  2.4688
 2354SOL    HW218522   1.520   0.262   6.875  0.0684 -1.2530 -1.3283
 2355SOL     OW18523   2.207   4.619   1.537  0.2428  0.2330 -0.3665
 2355SOL    HW118524   2.215   4.710   1.566  0.1404 -0.0839  0.6594
 2355SOL    HW218525   2.294   4.580   1.552 -0.4170 -0.7682  0.9249
 2356SOL     OW18526   4.611   0.831   7.429 -0.0848 -0.2146 -0.2336
 2356SOL    HW118527   4.603   0.736   7.441  1.4783 -0.3232 -0.0471
 2356SOL    HW218528   4.582   0.860   7.516 -1.3730 -1.3516 -0.2810
 2357SOL     OW18529   2.499   1.160  17.286 -0.4932 -0.6033  0.1234
 2357SOL    HW118530   2.471   1.251  17.278  0.4517 -0.3606 -0.4332
 2357SOL    HW218531   2.419   1.108  17.277 -0.9862  0.0517  0.6748
 2358SOL     OW18532   2.476   1.625   4.500 -0.2131  0.1736 -0.6427
 2358SOL    HW118533   2.401   1.567   4.487 -0.4505  0.5963 -1.1571
 2358SOL    HW218534   2.533   1.583   4.564 -0.4287  0.3089 -0.3614
 2359SOL     OW18535   0.039   0.111   0.835  0.3009  0.3851  0.4993
 2359SOL    HW118536   0.114   0.074   0.881 -0.4986  0.1438  1.6003
 2359SOL    HW218537   0.095   0.152   0.769 -1.3401  2.2685  0.2881
 2360SOL     OW18538   3.051   4.362   9.450 -0.1195  0.3723 -0.2349
 2360SOL    HW118539   2.969   4.315   9.432  1.8424 -2.7103 -1.1550
 2360SOL    HW218540   3.115   4.302   9.410 -0.9742 -0.9433  0.3660
 2361SOL     OW18541   2.721   2.303   6.107  0.0174 -0.0128 -0.3812
 2361SOL    HW118542   2.783   2.273   6.040 -0.9973 -3.5032  0.2450
 2361SOL    HW218543   2.656   2.234   6.124 -0.2869  0.7152  1.4262
 2362SOL     OW18544   1.393   4.077   2.562 -0.1599 -0.2464  0.3976
 2362SOL    HW118545   1.323   4.050   2.622 -1.9463  3.4300 -0.0359
 2362SOL    HW218546   1.401   4.172   2.574 -0.4599 -0.2688  0.7792
 2363SOL     OW18547   4.610   0.958   4.292  0.3781  0.1197 -0.1577
 2363SOL    HW118548   4.679   0.913   4.242 -0.8391 -2.0444  0.1122
 2363SOL    HW218549   4.616   1.050   4.265  0.5941 -0.0468 -0.6817
 2364SOL     OW18550   0.191   2.451   9.585  0.0084 -0.3080  0.1923
 2364SOL    HW118551   0.252   2.520   9.612  0.1728 -0.7612  0.9906
 2364SOL    HW218552   0.163   2.416   9.670  1.4016 -0.9262  0.4079
 2365SOL     OW18553   3.809   3.120   0.487 -0.0997  0.3664 -0.4203
 2365SOL    HW118554   3.844   3.185   0.548 -0.4624 -0.5379  0.7576
 2365SOL    HW218555   3.804   3.049   0.552  0.0744 -0.2921 -1.1319
 2366SOL     OW18556   2.494   0.795   0.147  0.2921 -0.0845  0.6558
 2366SOL    HW118557   2.436   0.719   0.147 -2.0133  1.6629 -1.1529
 2366SOL    HW218558   2.480   0.824   0.057  0.9232  1.0771  0.9317
 2367SOL     OW18559   4.236   2.987  14.378 -0.3458  0.1106 -0.7349
 2367SOL    HW118560   4.321   3.027  14.399 -0.5003  0.3504 -0.5724
 2367SOL    HW218561   4.260   2.898  14.404  1.4026  1.0621  0.9300
 2368SOL     OW18562   3.932   3.030   3.804  0.1189 -0.0420 -0.0839
 2368SOL    HW118563   3.978   2.948   3.819  0.3147  0.1838  0.5644
 2368SOL    HW218564   3.985   3.088   3.860 -0.4741  0.8227 -0.4125
 2369SOL     OW18565   3.997   1.016   5.031 -0.1012 -0.3708  0.3396
 2369SOL    HW118566   3.934   1.049   4.967 -0.4377 -0.3759  0.6653
 2369SOL    HW218567   3.954   1.060   5.105  0.3253  0.2110  0.2428
 2370SOL     OW18568   4.370   3.471  12.139  0.3584 -0.8445 -0.3696
 2370SOL    HW118569   4.390   3.378  12.125  1.1287 -0.9584  1.5649
 2370SOL    HW218570   4.319   3.466  12.220  0.0034 -1.6309 -0.6354
 2371SOL     OW18571   2.043   3.584   8.748  0.5423  0.0727  0.2517
 2371SOL    HW118572   2.077   3.539   8.825 -0.5182 -0.3166  0.4892
 2371SOL    HW218573   2.068   3.672   8.777 -2.6329  0.8584  0.6029
 2372SOL     OW18574   1.937   1.290   2.801 -0.6076 -0.3467 -0.0681
 2372SOL    HW118575   1.978   1.261   2.719  0.2143 -3.4889  1.4604
 2372SOL    HW218576   1.997   1.259   2.870 -1.0930 -1.1500 -0.0018
 2373SOL     OW18577   1.901   2.491   4.018  0.2699 -0.3371  1.0370
 2373SOL    HW118578   1.909   2.580   4.051  1.2552 -0.0541  0.0265
 2373SOL    HW218579   1.866   2.513   3.932  0.3828  0.8523  1.2926
 2374SOL     OW18580   3.506   2.896   3.385  0.1143 -0.1125 -0.0256
 2374SOL    HW118581   3.495   2.937   3.471 -0.3897  1.2181 -0.7241
 2374SOL    HW218582   3.521   2.804   3.405  3.6135  0.5147  0.2089
 2375SOL     OW18583   1.788   3.168   4.626 -0.1540  0.4313 -0.3340
 2375SOL    HW118584   1.806   3.182   4.719  2.8171 -0.9393 -0.7002
 2375SOL    HW218585   1.805   3.250   4.580  0.8112 -0.4694 -1.5709
 2376SOL     OW18586   0.279   4.482   8.414  0.5627  0.1955 -0.0746
 2376SOL    HW118587   0.271   4.401   8.363 -0.2509  1.7480 -2.4241
 2376SOL    HW218588   0.371   4.490   8.438  0.0739  0.7927  1.6178
 2377SOL     OW18589   1.969   1.089   8.680 -0.1184 -0.1148  0.2879
 2377SOL    HW118590   1.999   1.179   8.664  1.1064 -0.9274 -2.0916
 2377SOL    HW218591   1.925   1.106   8.763  1.4278  1.2598  0.8218
 2378SOL     OW18592   1.900   2.685   9.623 -0.0650 -0.0108 -0.4125
 2378SOL    HW118593   1.948   2.672   9.705  0.6603  3.0512 -0.3622
 2378SOL    HW218594   1.820   2.717   9.665  0.3414 -1.8151  1.7241
 2379SOL     OW18595   0.910   3.186   6.121  0.5108 -0.1316  0.3870
 2379SOL    HW118596   0.832   3.229   6.155 -0.5188 -2.1554  0.5269
 2379SOL    HW218597   0.973   3.258   6.111  1.7034 -0.9659  1.8231
 2380SOL     OW18598   4.519   0.318   7.771  0.6654  0.0338  0.3120
 2380SOL    HW118599   4.559   0.234   7.748 -0.7770 -0.7141  0.5768
 2380SOL    HW218600   4.584   0.381   7.738  0.3918 -0.5950 -1.4186
 2381SOL     OW18601   2.382   1.279  16.747  0.3980 -0.2422  0.2979
 2381SOL    HW118602   2.400   1.360  16.701 -0.9381  1.4340  2.7258
 2381SOL    HW218603   2.440   1.291  16.822  0.0827  0.3702  0.4411
 2382SOL     OW18604   2.718   3.128   7.277  0.7290 -0.8550 -0.3667
 2382SOL    HW118605   2.749   3.211   7.243  1.4433 -0.6343  0.8331
 2382SOL    HW218606   2.745   3.133   7.369 -2.8503 -3.2633  0.8255
 2383SOL     OW18607   3.231   2.722  15.091 -0.5735  0.2122  0.2455
 2383SOL    HW118608   3.196   2.633  15.100 -0.3617  0.2177  1.0984
 2383SOL    HW218609   3.319   2.716  15.126 -0.7622  0.1075  0.6957
 2384SOL     OW18610   1.757   0.887   6.651  0.0097  0.1578  0.0428
 2384SOL    HW118611   1.681   0.880   6.710 -0.3327  2.2788 -0.1244
 2384SOL    HW218612   1.763   0.798   6.616  0.4945  0.6417 -1.0957
 2385SOL     OW18613   1.899   4.491   2.684  0.3099  0.1384 -0.0628
 2385SOL    HW118614   1.882   4.527   2.771 -1.4664 -0.6386 -0.1055
 2385SOL    HW218615   1.934   4.403   2.700  0.1664  0.3334  1.3354
 2386SOL     OW18616   4.671   1.262  16.194  1.3973 -0.6775 -0.0257
 2386SOL    HW118617   4.591   1.312  16.211  0.2251 -2.4813 -0.1245
 2386SOL    HW218618   4.665   1.185  16.251 -1.4098  1.2701  2.3422
 2387SOL     OW18619   4.710   1.411   4.458 -0.1896  0.2227 -0.4082
 2387SOL    HW118620   0.023   1.326   4.482  1.3492  1.3074  0.9814
 2387SOL    HW218621   4.710   1.460   4.540 -0.7696  0.8028 -0.7534
 2388SOL     OW18622   0.084   3.546   7.708 -0.1049  0.3075 -0.1335
 2388SOL    HW118623   0.103   3.640   7.714 -1.0683  0.4546  0.5983
 2388SOL    HW218624   0.010   3.550   7.648 -0.8920 -0.6918  0.7771
 2389SOL     OW18625   2.231   1.655   7.405  0.2462  0.1575 -0.2653
 2389SOL    HW118626   2.196   1.721   7.344  1.0281  0.2438 -0.6261
 2389SOL    HW218627   2.306   1.633   7.350 -1.1477 -1.0473 -1.6836
 2390SOL     OW18628   0.176   0.216  11.161 -0.2003  0.3099  0.8929
 2390SOL    HW118629   0.232   0.140  11.176  1.4668  1.6168  1.2346
 2390SOL    HW218630   0.242   0.285  11.153  0.4513 -0.1138  2.6384
 2391SOL     OW18631   1.355   2.541   9.115 -0.4547 -0.8964  0.0873
 2391SOL    HW118632   1.265   2.557   9.142 -0.1853  0.8614 -0.0814
 2391SOL    HW218633   1.368   2.633   9.090  1.0949 -1.0147  0.4558
 2392SOL     OW18634   2.043   0.553   2.996  0.5707  0.3853 -0.1268
 2392SOL    HW118635   2.000   0.558   2.911  0.9248  0.7479 -0.2858
 2392SOL    HW218636   2.084   0.466   3.007  1.9961  1.2092  1.1391
 2393SOL     OW18637   1.052   2.840   2.968  0.4154  0.0173 -0.1316
 2393SOL    HW118638   1.093   2.832   2.882 -2.9317  0.9961 -1.8222
 2393SOL    HW218639   1.123   2.832   3.031  1.4121 -1.8594 -1.4990
 2394SOL     OW18640   2.267   3.811   1.566  0.4482  0.8010  0.8995
 2394SOL    HW118641   2.340   3.822   1.504 -1.2774 -1.8461 -1.6246
 2394SOL    HW218642   2.198   3.874   1.546 -1.7816 -1.9585 -0.1557
 2395SOL     OW18643   2.041   4.227  10.383  0.0229  0.1997 -0.6332
 2395SOL    HW118644   1.950   4.226  10.413  0.2620 -4.2126 -0.0205
 2395SOL    HW218645   2.093   4.201  10.459 -0.5828 -1.6379 -0.8467
 2396SOL     OW18646   0.297   4.383   6.780  0.6790  0.0882 -0.0216
 2396SOL    HW118647   0.268   4.413   6.866  1.1392  0.0361  0.1547
 2396SOL    HW218648   0.391   4.397   6.793  0.8595  0.6166 -2.0010
 2397SOL     OW18649   0.941   2.926  15.664 -0.0633 -0.0583  0.0949
 2397SOL    HW118650   0.920   2.861  15.597 -3.0698  1.8193 -0.7748
 2397SOL    HW218651   0.953   3.003  15.608 -0.2506 -0.1953 -0.1366
 2398SOL     OW18652   3.652   1.271   7.439  0.4187 -0.0501 -0.7551
 2398SOL    HW118653   3.558   1.270   7.420  0.3750  2.2280 -0.6216
 2398SOL    HW218654   3.667   1.183   7.472 -1.4397  0.2430  0.8154
 2399SOL     OW18655   2.467   2.355  10.633 -0.5500  0.1051 -0.0687
 2399SOL    HW118656   2.552   2.391  10.658 -2.0443  2.6682  1.2854
 2399SOL    HW218657   2.418   2.432  10.604  0.3853  0.2418 -1.3047
 2400SOL     OW18658   3.547   2.593   5.732  0.3421  0.5128  0.3378
 2400SOL    HW118659   3.613   2.651   5.769 -0.1350  1.9668 -1.0569
 2400SOL    HW218660   3.470   2.640   5.764 -1.1117 -0.3767 -1.8348
 2401SOL     OW18661   1.897   3.146   1.813  0.0341 -0.1228  0.4506
 2401SOL    HW118662   1.973   3.103   1.853  0.6593  0.6275  0.0863
 2401SOL    HW218663   1.930   3.236   1.804 -0.5467  0.0106 -0.3079
 2402SOL     OW18664   0.174   2.078   0.511 -0.3271 -0.5216 -0.2881
 2402SOL    HW118665   0.122   2.054   0.588  0.1983 -0.3547  0.1230
 2402SOL    HW218666   0.204   1.990   0.487  1.8480 -0.7556  3.2242
 2403SOL     OW18667   4.309   2.928   1.422 -0.0986  0.2372 -0.4428
 2403SOL    HW118668   4.241   2.990   1.395 -1.6223 -0.7706  1.0258
 2403SOL    HW218669   4.252   2.851   1.428 -0.5307  0.6015  0.1744
 2404SOL     OW18670   2.783   1.137  12.773  0.1092  0.4803  0.2103
 2404SOL    HW118671   2.822   1.224  12.769 -3.0005  1.6958 -3.3964
 2404SOL    HW218672   2.692   1.159  12.755 -0.0052  0.0239  0.2197
 2405SOL     OW18673   4.343   4.648   4.445  0.3110  0.3130  0.3785
 2405SOL    HW118674   4.310   4.558   4.451 -1.5482  1.1980  3.0165
 2405SOL    HW218675   4.391   4.650   4.528 -0.2594 -1.5684  0.7542
 2406SOL     OW18676   1.284   3.544   5.340 -0.1557  0.5982  0.1921
 2406SOL    HW118677   1.191   3.564   5.353 -1.1202 -2.8049 -1.3271
 2406SOL    HW218678   1.312   3.532   5.431  0.6531 -4.2525 -0.6892
 2407SOL     OW18679   0.702   1.464   5.542 -0.4581 -0.6307  0.2798
 2407SOL    HW118680   0.675   1.437   5.454 -0.5943 -0.4467  0.2662
 2407SOL    HW218681   0.649   1.543   5.542  3.4277  1.9609  0.3529
 2408SOL     OW18682   4.712   4.686   6.857 -0.5745  0.7219 -0.0360
 2408SOL    HW118683   4.716   0.057   6.852  0.9858  0.6962  0.4709
 2408SOL    HW218684   4.620   4.662   6.846 -0.1038 -1.3324  0.5300
 2409SOL     OW18685   0.305   0.645   2.868  0.2624  0.5494 -0.1341
 2409SOL    HW118686   0.252   0.650   2.948  1.1896  1.2516  0.4329
 2409SOL    HW218687   0.280   0.726   2.825 -0.5126  1.2993  1.6965
 2410SOL     OW18688   2.246   2.036   4.889  0.5711 -0.4920 -0.0552
 2410SOL    HW118689   2.255   1.942   4.904 -0.4908 -0.2780  2.0002
 2410SOL    HW218690   2.219   2.054   4.979  1.2141 -4.0877  0.8659
 2411SOL     OW18691   2.965   4.555  16.848 -0.8044  0.0294  0.7196
 2411SOL    HW118692   2.940   4.641  16.815  1.7467  0.6985  0.5729
 2411SOL    HW218693   3.002   4.517  16.768  0.0447 -0.2048  1.2242
 2412SOL     OW18694   2.581   1.749   7.728 -0.4067  0.0283  0.1464
 2412SOL    HW118695   2.546   1.837   7.710  0.2595  0.0688 -0.9490
 2412SOL    HW218696   2.660   1.734   7.677 -0.6760  0.4816 -0.4117
 2413SOL     OW18697   2.502   1.496  12.286 -0.5291 -0.2941 -0.4764
 2413SOL    HW118698   2.479   1.489  12.379 -0.6958 -0.3915 -0.5260
 2413SOL    HW218699   2.478   1.407  12.260  0.1429 -1.3967  2.5865
 2414SOL     OW18700   1.383   3.645  11.345 -0.1895  0.7257  0.4535
 2414SOL    HW118701   1.333   3.720  11.312  0.5541  1.4360  0.9106
 2414SOL    HW218702   1.465   3.662  11.298 -0.1335 -0.2109  0.2151
 2415SOL     OW18703   0.239   1.118   3.823 -0.1141  0.5101 -0.4121
 2415SOL    HW118704   0.291   1.167   3.887 -2.1421  2.5596 -0.3488
 2415SOL    HW218705   0.211   1.186   3.762 -2.3219 -0.2977 -0.2910
 2416SOL     OW18706   0.961   3.084   3.641 -0.1117  0.0972 -0.0796
 2416SOL    HW118707   1.047   3.095   3.602 -0.9526  3.6331 -0.9279
 2416SOL    HW218708   0.921   3.168   3.621  2.1408  1.2506  0.2683
 2417SOL     OW18709   0.883   0.998  10.336  0.0272  0.1757 -0.3705
 2417SOL    HW118710   0.798   0.961  10.358 -0.0681  1.0459  0.7360
 2417SOL    HW218711   0.944   0.955  10.397 -0.1360  0.0582 -0.2889
 2418SOL     OW18712   1.628   4.437   5.405  0.3335  0.2406 -0.2265
 2418SOL    HW118713   1.619   4.509   5.342  1.1419 -0.7896 -1.5099
 2418SOL    HW218714   1.655   4.361   5.354  1.6646  0.4367  0.2011
 2419SOL     OW18715   2.061   2.976   6.995 -0.3288  0.0675 -0.6216
 2419SOL    HW118716   2.099   2.955   6.909  1.8699 -0.2911  0.4207
 2419SOL    HW218717   2.084   2.890   7.031  1.8874  2.0359  2.6071
 2420SOL     OW18718   3.741   0.776   7.987  0.1148 -0.7067 -0.1545
 2420SOL    HW118719   3.758   0.729   8.069 -0.7446 -0.0831  0.3904
 2420SOL    HW218720   3.661   0.734   7.957  0.3191 -2.3431  1.6068
 2421SOL     OW18721   0.094   1.167   4.521  0.4002 -0.3757 -0.2463
 2421SOL    HW118722   0.084   1.101   4.590  1.6998  0.4269  0.7191
 2421SOL    HW218723   0.135   1.119   4.449  1.8023  0.8061 -0.2329
 2422SOL     OW18724   1.272   1.145   0.890 -0.3324  0.9795 -0.4021
 2422SOL    HW118725   1.280   1.217   0.952  0.9964  1.9320 -1.6963
 2422SOL    HW218726   1.248   1.076   0.953 -1.3945  0.7506 -1.0711
 2423SOL     OW18727   2.377   1.926   6.862  0.5716 -0.1170  0.4267
 2423SOL    HW118728   2.356   2.016   6.836  0.0581 -0.1741  0.6520
 2423SOL    HW218729   2.381   1.939   6.956 -1.5067 -1.5179  0.7111
 2424SOL     OW18730   1.442   2.883   3.781  0.4292  0.7745 -0.1185
 2424SOL    HW118731   1.421   2.976   3.789  0.7635  0.6756  2.0388
 2424SOL    HW218732   1.354   2.853   3.804  2.0205 -4.0352 -0.3213
 2425SOL     OW18733   3.003   4.566   3.905  0.2342 -0.4849  0.1592
 2425SOL    HW118734   3.021   4.576   3.998 -0.1932 -0.2475  0.2166
 2425SOL    HW218735   3.036   4.477   3.898  0.8935 -0.0779 -2.1046
 2426SOL     OW18736   0.137   0.667  12.180 -0.3764  0.0600 -0.0075
 2426SOL    HW118737   0.069   0.733  12.191 -1.0960 -1.0426  2.1680
 2426SOL    HW218738   0.211   0.727  12.179  0.3458 -0.8278 -0.8432
 2427SOL     OW18739   4.219   4.581   5.644  0.2335  0.0637 -0.0043
 2427SOL    HW118740   4.131   4.614   5.628 -0.6095 -2.1751  0.0256
 2427SOL    HW218741   4.202   4.500   5.692  0.7805  0.3957  0.7495
 2428SOL     OW18742   2.575   2.768  12.436  0.4901  0.2201 -0.0063
 2428SOL    HW118743   2.595   2.766  12.529 -0.9202  0.0452  0.2830
 2428SOL    HW218744   2.521   2.846  12.431  0.7367  0.2393 -2.3409
 2429SOL     OW18745   0.687   2.434  17.342 -0.2017 -0.1025  0.2318
 2429SOL    HW118746   0.609   2.401  17.386 -0.4409  0.0126 -0.1054
 2429SOL    HW218747   0.735   2.477  17.414 -0.7326  0.3995  0.2865
 2430SOL     OW18748   2.707   1.973  16.941  0.4985  0.2798 -0.2334
 2430SOL    HW118749   2.634   1.982  17.001  0.2649  2.6895 -0.8836
 2430SOL    HW218750   2.663   1.933  16.866  0.3703  0.1310 -0.0776
 2431SOL     OW18751   0.261   2.202   2.210  0.2648  0.4301 -0.2628
 2431SOL    HW118752   0.231   2.165   2.128  1.6035 -0.6140 -0.2702
 2431SOL    HW218753   0.311   2.130   2.246 -0.8379 -0.2278 -0.0363
 2432SOL     OW18754   0.866   2.325  15.852  0.1739  0.2211  0.3872
 2432SOL    HW118755   0.887   2.232  15.860 -1.5452 -0.2677 -0.7441
 2432SOL    HW218756   0.950   2.369  15.861  1.1898 -1.3615 -1.4967
 2433SOL     OW18757   2.158   4.058   3.182 -0.4546  0.7099  0.0200
 2433SOL    HW118758   2.079   4.003   3.182 -1.6397  2.4331 -0.1667
 2433SOL    HW218759   2.229   3.998   3.206  0.4915  1.3917 -1.0596
 2434SOL     OW18760   2.557   2.031   6.140 -0.4726 -0.0927 -0.2287
 2434SOL    HW118761   2.506   1.956   6.167  0.3702 -0.8774 -0.7927
 2434SOL    HW218762   2.615   1.990   6.076 -1.5140 -1.1494 -0.4859
 2435SOL     OW18763   1.847   3.522   7.172 -0.3959 -0.9855  0.2689
 2435SOL    HW118764   1.851   3.431   7.203 -0.5542 -1.1262 -0.1321
 2435SOL    HW218765   1.764   3.533   7.218  0.5069 -0.8889  1.8794
 2436SOL     OW18766   3.092   1.699  10.767  0.1015  0.0096  0.0907
 2436SOL    HW118767   3.183   1.702  10.797 -0.1088  0.1652  0.7274
 2436SOL    HW218768   3.052   1.622  10.809 -2.2750  0.9342 -0.5098
 2437SOL     OW18769   1.026   0.063   7.988  0.3915 -0.5991 -0.0627
 2437SOL    HW118770   1.078   0.017   8.054  0.7688  0.3720  0.3068
 2437SOL    HW218771   1.051   0.025   7.904 -0.8397 -1.1729 -0.1682
 2438SOL     OW18772   1.722   0.378   5.954 -0.6251 -0.1839  0.1860
 2438SOL    HW118773   1.755   0.299   5.997 -2.7660 -0.6580  1.0003
 2438SOL    HW218774   1.742   0.453   6.009 -1.2727  0.0475  0.1069
 2439SOL     OW18775   4.639   0.368   9.041  0.5882 -0.0394 -0.3819
 2439SOL    HW118776   4.549   0.336   9.028 -0.0112  1.9984 -1.3051
 2439SOL    HW218777   4.665   0.340   9.129 -0.2777  3.1630  0.9194
 2440SOL     OW18778   4.684   0.535   8.540  0.7050  0.4207 -0.0889
 2440SOL    HW118779   4.708   0.553   8.631  0.5479  1.3496 -0.2307
 2440SOL    HW218780   4.679   0.439   8.546 -1.9586  0.6534  1.4492
 2441SOL     OW18781   1.227   2.273   7.052 -0.0591  0.4265  0.2527
 2441SOL    HW118782   1.238   2.307   7.141  0.9933 -1.5500  0.8720
 2441SOL    HW218783   1.312   2.240   7.023 -0.8475 -0.8063 -0.6731
 2442SOL     OW18784   2.902   1.239   5.448  0.2426 -0.0806  0.3269
 2442SOL    HW118785   2.847   1.310   5.481  0.2454  1.0270 -2.1097
 2442SOL    HW218786   2.859   1.219   5.365  0.2204  0.0969  0.2964
 2443SOL     OW18787   4.392   1.603   6.258 -0.2500 -0.0314 -0.2753
 2443SOL    HW118788   4.442   1.599   6.177 -0.6665 -1.7396 -0.4631
 2443SOL    HW218789   4.315   1.561   6.219 -1.3428 -0.4451  2.3090
 2444SOL     OW18790   1.402   0.822   1.227 -0.6575 -0.3035  0.2745
 2444SOL    HW118791   1.347   0.751   1.261  1.4620 -2.4604 -0.8152
 2444SOL    HW218792   1.485   0.801   1.269 -0.0210  1.1403 -0.2449
 2445SOL     OW18793   1.283   1.006   5.261 -0.5695 -0.0178  0.1419
 2445SOL    HW118794   1.273   0.945   5.187  3.3741  0.3986 -0.7340
 2445SOL    HW218795   1.221   0.958   5.315 -0.3402  0.2443  0.6408
 2446SOL     OW18796   4.141   1.656   9.050  0.2245  0.3512  0.1315
 2446SOL    HW118797   4.189   1.737   9.068 -1.3517  1.2746  0.1530
 2446SOL    HW218798   4.201   1.592   9.090 -0.4855  0.2301  1.0001
 2447SOL     OW18799   4.018   1.979  15.127  0.4801  0.2781 -0.0974
 2447SOL    HW118800   4.057   2.039  15.190  0.9521  2.2984 -2.2966
 2447SOL    HW218801   4.097   1.934  15.098  0.0120  0.5465 -1.8057
 2448SOL     OW18802   4.348   3.399   4.754 -0.2770  0.2361 -0.1092
 2448SOL    HW118803   4.416   3.432   4.695  0.0448  1.2451  0.8254
 2448SOL    HW218804   4.324   3.311   4.727  1.0368 -0.1227 -0.1145
 2449SOL     OW18805   2.498   4.419   3.971  0.0019  0.3633  0.2056
 2449SOL    HW118806   2.534   4.498   3.931 -1.1571 -0.4349 -2.3976
 2449SOL    HW218807   2.582   4.391   4.007 -0.8248 -0.1129  1.7801
 2450SOL     OW18808   4.520   0.508   2.782  0.2416  0.3425 -0.0954
 2450SOL    HW118809   4.513   0.565   2.706 -1.2490  0.0688 -0.1653
 2450SOL    HW218810   4.567   0.564   2.844 -0.4867 -0.9433  1.6390
 2451SOL     OW18811   4.234   3.655   6.741  0.2042  0.2498 -0.5301
 2451SOL    HW118812   4.283   3.611   6.811 -1.1863 -0.7726 -0.1887
 2451SOL    HW218813   4.292   3.630   6.669 -1.0244 -2.1147 -0.7055
 2452SOL     OW18814   2.827   3.270   1.129 -0.2264 -0.0956 -0.1209
 2452SOL    HW118815   2.761   3.228   1.185  1.2403 -0.9330  0.9854
 2452SOL    HW218816   2.769   3.325   1.076  0.2390 -0.4781 -1.0269
 2453SOL     OW18817   0.999   4.492   5.838 -0.5074 -0.4145 -0.3268
 2453SOL    HW118818   1.022   4.547   5.913  0.7104 -0.6743 -0.4998
 2453SOL    HW218819   1.086   4.488   5.798 -0.0835  0.6249  0.4756
 2454SOL     OW18820   3.805   2.576   2.978 -0.3999  0.3097  0.3539
 2454SOL    HW118821   3.772   2.523   2.906 -0.3401  0.3992  0.2611
 2454SOL    HW218822   3.722   2.601   3.020 -0.2253  1.0589  0.2398
 2455SOL     OW18823   1.093   2.739   6.627 -0.2174 -0.0294  0.3483
 2455SOL    HW118824   1.092   2.645   6.609 -2.6997 -0.1440  1.1430
 2455SOL    HW218825   1.156   2.779   6.567 -0.4140 -2.0457 -1.1715
 2456SOL     OW18826   1.584   1.703  16.062 -0.2450 -0.6047  0.5981
 2456SOL    HW118827   1.602   1.633  15.999 -0.4800 -0.9113  0.8748
 2456SOL    HW218828   1.607   1.662  16.145  3.0117  0.4783  0.2228
 2457SOL     OW18829   1.617   3.678   5.407 -0.0040 -0.1020 -0.3944
 2457SOL    HW118830   1.583   3.669   5.317  0.6476 -3.1984 -0.3203
 2457SOL    HW218831   1.538   3.711   5.450  0.4137 -1.4038  1.3613
 2458SOL     OW18832   1.769   1.191  12.345  0.6208  0.2945  0.1735
 2458SOL    HW118833   1.801   1.177  12.255  0.2515 -1.3356  0.2869
 2458SOL    HW218834   1.674   1.200  12.336  0.5205 -0.6677  0.2889
 2459SOL     OW18835   2.766   3.214   8.766 -0.0324  0.7042 -0.2383
 2459SOL    HW118836   2.771   3.280   8.696 -0.5021  1.8404  0.8042
 2459SOL    HW218837   2.854   3.224   8.802 -0.8095  0.8861  1.5956
 2460SOL     OW18838   1.066   1.008   4.843  0.2111 -0.2826 -0.2233
 2460SOL    HW118839   1.142   1.045   4.799 -1.0805 -0.0174 -2.2038
 2460SOL    HW218840   1.023   0.964   4.769 -1.2677  1.3453 -0.3220
 2461SOL     OW18841   1.375   0.829   2.241 -0.7429  0.3201  0.3510
 2461SOL    HW118842   1.327   0.901   2.200 -0.0067  0.3963 -0.3849
 2461SOL    HW218843   1.402   0.769   2.172 -0.0959 -0.3845  1.2198
 2462SOL     OW18844   3.864   3.171   4.489  0.2399 -0.1526 -0.4121
 2462SOL    HW118845   3.799   3.110   4.523 -0.7067  0.1376 -1.7235
 2462SOL    HW218846   3.805   3.240   4.458  0.6266  0.7575  0.8745
 2463SOL     OW18847   3.867   3.616   6.891  0.0400 -0.2974  0.2671
 2463SOL    HW118848   3.888   3.595   6.800  1.0208 -1.7945  0.8464
 2463SOL    HW218849   3.941   3.581   6.940  0.6906 -1.4247 -1.5482
 2464SOL     OW18850   2.375   3.946  12.196 -0.3030  0.3512 -0.2926
 2464SOL    HW118851   2.437   3.989  12.138  0.0123  0.7404  0.3295
 2464SOL    HW218852   2.307   4.013  12.188 -1.3904 -0.5922  0.9901
 2465SOL     OW18853   2.496   0.099   1.616  0.1264  0.9759  0.9127
 2465SOL    HW118854   2.577   0.104   1.565  0.1158 -2.8465  0.5103
 2465SOL    HW218855   2.527   0.056   1.696  1.6190 -0.7039 -0.5417
 2466SOL     OW18856   1.985   3.216  17.169 -0.5490  0.0984 -0.3869
 2466SOL    HW118857   1.990   3.136  17.221 -0.0394 -0.7070 -1.6719
 2466SOL    HW218858   2.070   3.235  17.129 -0.2930 -0.8012 -0.2793
 2467SOL     OW18859   1.484   1.307   7.223 -0.1738 -0.1480 -0.1285
 2467SOL    HW118860   1.574   1.334   7.242 -0.6574 -0.0247  2.0848
 2467SOL    HW218861   1.487   1.311   7.128 -2.1763  0.7417 -0.1720
 2468SOL     OW18862   3.056   1.424   9.882 -0.6233  0.9191  0.0719
 2468SOL    HW118863   3.047   1.404   9.975  0.1461 -1.4193 -0.3703
 2468SOL    HW218864   3.059   1.335   9.847  2.1103 -0.1651  2.9820
 2469SOL     OW18865   1.861   2.375   2.670 -0.3676  0.3454 -0.1869
 2469SOL    HW118866   1.794   2.328   2.620 -0.9316  0.2428  0.6602
 2469SOL    HW218867   1.858   2.319   2.748  0.0059 -0.0019 -0.4242
 2470SOL     OW18868   2.908   3.886   9.569  0.3533  0.3184  0.4649
 2470SOL    HW118869   2.869   3.928   9.492 -2.7427 -0.6644  1.4813
 2470SOL    HW218870   2.852   3.916   9.640  0.4232 -2.3985  1.6760
 2471SOL     OW18871   2.891   1.311   7.070 -0.1605 -0.6419  0.7372
 2471SOL    HW118872   2.891   1.230   7.019 -0.5620  0.7563 -1.4639
 2471SOL    HW218873   2.935   1.287   7.152 -1.2309 -0.2629  1.4144
 2472SOL     OW18874   1.504   2.752  14.096  0.2281  0.0708  0.0033
 2472SOL    HW118875   1.415   2.724  14.117  0.4069 -1.3838 -1.2366
 2472SOL    HW218876   1.515   2.728  14.004  1.3230  0.9972 -0.1197
 2473SOL     OW18877   2.598   4.294   2.318 -0.0003  0.2849 -0.3290
 2473SOL    HW118878   2.525   4.237   2.295  1.2257 -0.6226 -1.9782
 2473SOL    HW218879   2.656   4.279   2.243  2.4554  0.6778  1.4662
 2474SOL     OW18880   0.710   2.460  17.052 -0.0508  0.2415  0.5883
 2474SOL    HW118881   0.704   2.462  17.148  2.7453  1.2114  0.7384
 2474SOL    HW218882   0.717   2.554  17.036 -0.3754  0.0911 -0.4406
 2475SOL     OW18883   0.158   3.938   3.503  0.1283 -0.3157 -0.1893
 2475SOL    HW118884   0.254   3.943   3.499  0.1311  0.4424  0.8255
 2475SOL    HW218885   0.135   3.845   3.505  1.2765 -0.5950  0.1689
 2476SOL     OW18886   0.879   2.476  10.382 -0.3353 -0.1170  0.0821
 2476SOL    HW118887   0.793   2.517  10.390 -0.4635 -0.5460  0.9814
 2476SOL    HW218888   0.870   2.399  10.439 -2.4731  0.2058  0.1810
 2477SOL     OW18889   0.793   1.646   1.933  0.0020  0.6077 -0.0212
 2477SOL    HW118890   0.740   1.574   1.899 -0.2449  1.0938 -0.6609
 2477SOL    HW218891   0.753   1.720   1.887  2.3611  2.2137  0.5212
 2478SOL     OW18892   1.053   0.593   1.219  0.2171 -0.2068 -0.7332
 2478SOL    HW118893   1.138   0.563   1.253 -1.1339 -1.1647  1.7533
 2478SOL    HW218894   1.013   0.521   1.169  1.4915 -0.5177 -1.3384
 2479SOL     OW18895   0.672   3.193   3.386  0.5436  0.1845  0.2132
 2479SOL    HW118896   0.586   3.153   3.376  0.0096  1.1702  0.8967
 2479SOL    HW218897   0.739   3.125   3.380 -2.1316 -2.2531 -2.3120
 2480SOL     OW18898   4.524   0.843  15.977  0.1926 -0.0203 -0.1397
 2480SOL    HW118899   4.562   0.931  15.979 -0.1752  0.2277 -3.4347
 2480SOL    HW218900   4.502   0.828  16.069 -0.7023 -1.5852 -0.6085
 2481SOL     OW18901   0.306   1.334   2.566 -0.5561  1.0656  0.2590
 2481SOL    HW118902   0.279   1.267   2.628 -0.7839  1.7918  0.9358
 2481SOL    HW218903   0.261   1.412   2.598  0.0370  2.0731 -1.3631
 2482SOL     OW18904   1.355   1.174   4.401 -0.2979 -0.2951  0.5886
 2482SOL    HW118905   1.332   1.130   4.320  0.1703 -1.0691  0.8744
 2482SOL    HW218906   1.405   1.107   4.447 -0.6992 -0.1124  1.2916
 2483SOL     OW18907   0.578   3.171  15.768 -0.4052 -0.0628 -0.1044
 2483SOL    HW118908   0.627   3.227  15.707 -0.2803  0.2144  0.2462
 2483SOL    HW218909   0.621   3.086  15.769  0.9782  0.6265 -0.2352
 2484SOL     OW18910   2.246   2.849   2.756 -0.2904  0.3068 -0.4924
 2484SOL    HW118911   2.233   2.863   2.850  0.0172  0.9355 -0.5403
 2484SOL    HW218912   2.260   2.935   2.716  0.6270  0.2953 -0.1859
 2485SOL     OW18913   3.534   2.020   9.011 -0.3272 -0.1239  0.0263
 2485SOL    HW118914   3.479   2.048   9.085  0.4556 -0.1431  0.6154
 2485SOL    HW218915   3.470   2.004   8.942 -0.1392  0.0694 -0.1897
 2486SOL     OW18916   0.318   2.370   6.051  0.3057  0.1292 -0.1230
 2486SOL    HW118917   0.263   2.324   6.115  0.3823  0.7139  0.3713
 2486SOL    HW218918   0.272   2.365   5.968  1.9628 -3.1331 -0.8298
 2487SOL     OW18919   1.833   1.478   8.513 -0.0977 -0.3358  0.6361
 2487SOL    HW118920   1.876   1.422   8.449  0.9343 -1.3974  2.2626
 2487SOL    HW218921   1.763   1.502   8.453  0.9076 -0.7123 -0.6872
 2488SOL     OW18922   2.191   2.419   4.847  0.1205  0.1656 -0.0534
 2488SOL    HW118923   2.111   2.454   4.887 -0.1632 -0.5616  0.0111
 2488SOL    HW218924   2.190   2.335   4.892 -0.7411 -0.5739 -1.4471
 2489SOL     OW18925   4.236   0.466   6.369  0.4785  0.8755  0.4947
 2489SOL    HW118926   4.189   0.520   6.305 -0.9261 -0.9344 -0.0004
 2489SOL    HW218927   4.174   0.399   6.399  1.9846 -0.0930  1.4281
 2490SOL     OW18928   0.742   3.635   5.986  0.0876 -0.1822 -0.4822
 2490SOL    HW118929   0.740   3.624   6.081  1.8780  2.1097 -0.1837
 2490SOL    HW218930   0.653   3.622   5.954 -0.3680  1.8348 -0.0488
 2491SOL     OW18931   2.496   1.454   1.525  0.4316 -0.0944 -0.8473
 2491SOL    HW118932   2.549   1.492   1.595  3.4210 -1.3911 -2.4374
 2491SOL    HW218933   2.472   1.370   1.564 -0.2558 -0.2402 -1.5847
 2492SOL     OW18934   2.049   4.642  11.814  0.1279 -0.1523  0.3392
 2492SOL    HW118935   2.024   0.001  11.854 -1.1351 -0.8084  0.9461
 2492SOL    HW218936   2.050   4.579  11.887  1.4316  0.2354  0.6478
 2493SOL     OW18937   1.916   0.386   8.651  0.1722  0.3666  0.4431
 2493SOL    HW118938   1.925   0.297   8.686 -0.6986  0.7847  1.7193
 2493SOL    HW218939   2.006   0.417   8.660  1.0291 -1.6584 -1.0206
 2494SOL     OW18940   1.624   2.616   3.196 -0.4947  0.8783  0.6962
 2494SOL    HW118941   1.689   2.546   3.186  0.1669  1.6147 -0.1857
 2494SOL    HW218942   1.679   2.689   3.166  0.1717 -0.3810 -1.1028
 2495SOL     OW18943   0.376   4.299   1.222  0.2697 -0.5663  0.3859
 2495SOL    HW118944   0.460   4.341   1.240 -1.2782  2.8341 -0.4780
 2495SOL    HW218945   0.406   4.211   1.197 -0.7212 -1.0414  0.8800
 2496SOL     OW18946   3.985   3.910  15.170  0.3147 -0.1338  0.0608
 2496SOL    HW118947   3.904   3.859  15.169  0.0971  0.1966  1.5959
 2496SOL    HW218948   4.053   3.842  15.172  0.4783  0.0230 -0.2238
 2497SOL     OW18949   1.641   0.900   8.680 -0.3977  0.1168 -0.1920
 2497SOL    HW118950   1.664   0.871   8.592  0.6686  1.6248 -0.4200
 2497SOL    HW218951   1.696   0.835   8.726 -1.3395 -1.4461 -1.2802
 2498SOL     OW18952   1.507   2.862   7.265 -0.5330 -0.4366 -0.4720
 2498SOL    HW118953   1.553   2.834   7.186  1.4432  0.0246  0.5349
 2498SOL    HW218954   1.478   2.951   7.249 -0.8099 -0.1392  1.6373
 2499SOL     OW18955   2.628   0.424  16.095  0.4133 -0.6370  0.4571
 2499SOL    HW118956   2.580   0.442  16.015 -0.5612  1.9662  1.6247
 2499SOL    HW218957   2.694   0.494  16.095  0.4851 -0.6958  3.6253
 2500SOL     OW18958   0.855   0.225  12.840 -0.3032  0.1232 -0.1454
 2500SOL    HW118959   0.929   0.221  12.779  0.0501 -2.1874  0.4242
 2500SOL    HW218960   0.883   0.163  12.907 -1.3552 -1.2091 -0.9209
 2501SOL     OW18961   2.173   1.834  11.349  0.0361  0.4363 -0.0652
 2501SOL    HW118962   2.086   1.870  11.363 -0.3680  0.3514 -2.4051
 2501SOL    HW218963   2.220   1.918  11.354 -1.6460  1.2977  0.9038
 2502SOL     OW18964   3.556   0.154   2.805 -0.8810  0.0025 -0.5464
 2502SOL    HW118965   3.499   0.089   2.845 -0.4228 -0.8227 -1.2503
 2502SOL    HW218966   3.519   0.188   2.723 -1.3988 -0.3245 -0.4471
 2503SOL     OW18967   1.651   0.567  10.575 -0.0140  0.0389  0.6851
 2503SOL    HW118968   1.577   0.585  10.633 -0.9194  1.3994 -0.9177
 2503SOL    HW218969   1.602   0.528  10.503  2.2979  0.3774 -1.0692
 2504SOL     OW18970   3.970   4.238   3.240  0.3699 -0.1821 -0.2293
 2504SOL    HW118971   3.887   4.218   3.283  2.0739 -0.4656  2.9101
 2504SOL    HW218972   3.956   4.326   3.205  0.9200  0.3138  0.7948
 2505SOL     OW18973   4.492   3.278  13.530 -0.8497  0.3232 -0.0358
 2505SOL    HW118974   4.500   3.250  13.439 -0.2276 -1.0690  0.4480
 2505SOL    HW218975   4.509   3.372  13.527 -0.7972  0.4098  3.0186
 2506SOL     OW18976   1.837   4.476  15.206  0.3434  0.5866 -0.0859
 2506SOL    HW118977   1.884   4.393  15.215 -0.0621  0.3625 -0.0344
 2506SOL    HW218978   1.786   4.467  15.126 -0.2147 -0.5798  0.4081
 2507SOL     OW18979   3.166   3.032  15.012 -0.0081 -0.3310  0.1273
 2507SOL    HW118980   3.243   3.084  14.990 -0.7760  0.7384 -0.0323
 2507SOL    HW218981   3.187   3.005  15.101 -0.2992  0.1632  0.3417
 2508SOL     OW18982   3.030   4.152   6.754 -0.2449 -0.0253  0.3747
 2508SOL    HW118983   2.971   4.179   6.684 -0.7695 -0.0286  0.8198
 2508SOL    HW218984   3.100   4.217   6.757 -0.9607  0.9013 -3.4709
 2509SOL     OW18985   0.509   3.040   8.600 -0.0926  0.0026 -0.0744
 2509SOL    HW118986   0.425   3.045   8.645 -0.4323 -0.5943 -0.6413
 2509SOL    HW218987   0.477   3.061   8.513  0.8360  1.1286 -0.1433
 2510SOL     OW18988   2.398   3.171  13.813  0.4247  0.5496 -0.0379
 2510SOL    HW118989   2.470   3.121  13.849  0.2390  1.8577  2.1411
 2510SOL    HW218990   2.388   3.243  13.876  2.2033  2.1276 -1.5496
 2511SOL     OW18991   2.015   0.763   0.210 -0.5018  0.1697  1.1232
 2511SOL    HW118992   1.940   0.705   0.219 -0.9079  0.5025 -0.1923
 2511SOL    HW218993   2.031   0.772   0.116 -1.4445 -0.6790  0.8917
 2512SOL     OW18994   0.771   4.555   7.384  0.1705 -0.1243  0.7062
 2512SOL    HW118995   0.747   4.528   7.295  0.4289  1.3222  0.1992
 2512SOL    HW218996   0.857   4.589   7.361 -0.0145  1.5872  2.5846
 2513SOL     OW18997   2.367   0.766   7.293 -0.4725 -0.0336  0.1218
 2513SOL    HW118998   2.394   0.735   7.380  0.2463 -3.6986 -1.3995
 2513SOL    HW218999   2.336   0.852   7.320  1.7275  0.5266  0.8027
 2514SOL     OW19000   0.985   3.516   2.193  0.2371 -0.4678 -0.2292
 2514SOL    HW119001   0.918   3.549   2.133  0.2239 -1.4607 -0.7746
 2514SOL    HW219002   0.932   3.452   2.239 -2.7585  1.6908 -0.7248
 2515SOL     OW19003   4.611   2.913   4.264 -0.0141 -0.5993  0.0598
 2515SOL    HW119004   4.585   2.976   4.331 -0.3220  0.2449 -0.8457
 2515SOL    HW219005   4.679   2.866   4.312 -0.5568 -1.1550  0.2821
 2516SOL     OW19006   2.403   1.764   2.209  0.1407  0.5872  0.1904
 2516SOL    HW119007   2.374   1.722   2.290 -0.1972  1.1257  0.3461
 2516SOL    HW219008   2.335   1.829   2.196 -0.4425 -0.4386 -1.7901
 2517SOL     OW19009   1.381   4.562   2.173 -0.1739  0.2569 -0.3256
 2517SOL    HW119010   1.446   4.492   2.169 -2.0018 -1.5188  1.1151
 2517SOL    HW219011   1.301   4.509   2.171 -0.6608  0.9236  1.4730
 2518SOL     OW19012   2.038   2.786  12.173  0.3996  0.3759 -0.5594
 2518SOL    HW119013   2.007   2.858  12.118 -0.5465  0.3445 -0.0735
 2518SOL    HW219014   2.115   2.759  12.124 -0.3098 -1.2284 -0.7916
 2519SOL     OW19015   3.281   4.722  16.017  0.4803  0.1485 -0.0280
 2519SOL    HW119016   3.256   0.073  15.963  0.6869  0.4806  0.3332
 2519SOL    HW219017   3.371   0.012  15.989 -0.0486 -0.1758 -1.9151
 2520SOL     OW19018   1.036   3.433   1.577 -0.4331  0.3633 -0.4219
 2520SOL    HW119019   0.989   3.496   1.523 -1.0866  0.5179  0.3310
 2520SOL    HW219020   1.098   3.492   1.620 -0.1114 -1.4778  1.6139
 2521SOL     OW19021   3.339   2.787   0.738  0.3513  0.0179  0.2487
 2521SOL    HW119022   3.301   2.718   0.792  2.6196 -1.1309  0.3808
 2521SOL    HW219023   3.264   2.796   0.679  0.3513 -0.0727  0.2348
 2522SOL     OW19024   4.523   1.068   3.895  0.0431 -0.3676  0.1625
 2522SOL    HW119025   4.575   1.148   3.888  1.0286 -1.1525 -1.7002
 2522SOL    HW219026   4.440   1.111   3.913 -0.0336 -0.5389  0.2182
 2523SOL     OW19027   0.760   2.856  10.394  0.4530  0.4363 -0.2821
 2523SOL    HW119028   0.685   2.858  10.335 -0.6164  0.5030  1.0698
 2523SOL    HW219029   0.727   2.814  10.473 -0.5792 -0.0645 -0.9737
 2524SOL     OW19030   2.965   3.822  11.761 -0.2663  0.3135 -0.2984
 2524SOL    HW119031   3.011   3.906  11.763 -0.3773  0.3995 -1.2129
 2524SOL    HW219032   3.037   3.764  11.735 -1.5812 -2.1788  1.6107
 2525SOL     OW19033   4.216   4.587   6.367 -0.1959  0.6249 -0.1687
 2525SOL    HW119034   4.232   4.682   6.374 -0.7772  0.7140 -0.0435
 2525SOL    HW219035   4.254   4.571   6.281 -1.3561 -0.7307 -0.4187
 2526SOL     OW19036   1.925   0.515   6.604  0.3098 -0.2492  0.3130
 2526SOL    HW119037   1.871   0.550   6.675  1.0643  0.7738  0.3765
 2526SOL    HW219038   1.952   0.430   6.637 -0.4814 -0.6346 -0.0211
 2527SOL     OW19039   4.084   0.542  11.728  0.0269  0.3271 -0.1648
 2527SOL    HW119040   4.010   0.545  11.667  0.3299 -1.5694 -0.6059
 2527SOL    HW219041   4.148   0.493  11.677 -0.4112  0.0411 -0.4372
 2528SOL     OW19042   2.227   0.704   4.382 -0.0369 -0.6938 -0.5184
 2528SOL    HW119043   2.183   0.628   4.344  0.3178 -0.3991 -1.5269
 2528SOL    HW219044   2.252   0.747   4.300  1.7462 -4.3984 -1.9242
 2529SOL     OW19045   2.164   1.618  11.135  0.1422 -0.7877 -0.0042
 2529SOL    HW119046   2.183   1.675  11.209  0.2047  0.4788 -0.9859
 2529SOL    HW219047   2.223   1.546  11.154 -0.2175 -1.8845 -2.9873
 2530SOL     OW19048   1.187   2.134   8.696  0.1207  0.6757  0.1881
 2530SOL    HW119049   1.212   2.185   8.619 -1.2959  1.4732  0.2745
 2530SOL    HW219050   1.100   2.167   8.715  0.6537  1.7959  0.6878
 2531SOL     OW19051   0.032   3.396   3.517  0.1074  0.2711  0.0365
 2531SOL    HW119052   0.097   3.436   3.458 -0.0452  0.2020 -0.1754
 2531SOL    HW219053   0.091   3.329   3.551 -0.0284 -0.8948 -2.0047
 2532SOL     OW19054   4.261   0.235   6.726  0.0516 -0.3430 -0.5219
 2532SOL    HW119055   4.262   0.331   6.721 -0.1179 -0.3772 -1.2494
 2532SOL    HW219056   4.214   0.215   6.645  1.5166  0.5846 -1.5829
 2533SOL     OW19057   1.858   0.003  15.333 -0.2207  0.8874  0.0156
 2533SOL    HW119058   1.951   0.013  15.312 -0.3902  1.3889 -0.4875
 2533SOL    HW219059   1.841   4.642  15.293 -0.9887 -0.4751  3.2638
 2534SOL     OW19060   0.483   4.053   6.660  0.5436  0.2612  0.1600
 2534SOL    HW119061   0.529   4.135   6.641  1.0223  0.2728  1.3682
 2534SOL    HW219062   0.508   4.032   6.750 -2.9557 -0.0684  1.0619
 2535SOL     OW19063   2.370   0.106   9.295  0.4822 -0.3860 -0.1490
 2535SOL    HW119064   2.338   0.195   9.283 -1.3570 -0.5158  3.9522
 2535SOL    HW219065   2.403   0.114   9.384  1.5655  4.0476 -0.9131
 2536SOL     OW19066   3.817   2.079   9.589 -0.4664  0.4741  0.2423
 2536SOL    HW119067   3.729   2.045   9.608 -1.3141  2.2073 -0.6539
 2536SOL    HW219068   3.861   1.998   9.562  0.1972  0.9350 -0.0241
 2537SOL     OW19069   1.387   3.407   3.020  0.1487  0.3129 -0.0960
 2537SOL    HW119070   1.358   3.412   3.112 -1.3964  0.1752 -0.5705
 2537SOL    HW219071   1.459   3.345   3.033  1.1115  0.7071 -3.5893
 2538SOL     OW19072   1.855   3.146   8.256  0.2944 -0.3370  0.2570
 2538SOL    HW119073   1.881   3.162   8.347 -2.2121  0.2388  0.8776
 2538SOL    HW219074   1.826   3.234   8.234 -2.2544 -1.0066  0.8980
 2539SOL     OW19075   4.055   4.233   8.518  0.4302 -0.3498  0.6445
 2539SOL    HW119076   4.047   4.314   8.568  2.7792  0.9509 -1.0944
 2539SOL    HW219077   4.019   4.259   8.433 -0.1149 -0.0220  0.9743
 2540SOL     OW19078   3.369   2.326   3.430  0.2451 -0.9102  0.2367
 2540SOL    HW119079   3.443   2.325   3.370 -0.7195 -0.3841 -0.9757
 2540SOL    HW219080   3.302   2.268   3.394 -0.6431 -1.2913  2.5171
 2541SOL     OW19081   3.541   4.149   9.622 -0.0628  0.0851  0.1291
 2541SOL    HW119082   3.633   4.158   9.646 -0.5834  4.0271  0.6128
 2541SOL    HW219083   3.498   4.115   9.701 -1.0830  0.1247 -0.4038
 2542SOL     OW19084   2.046   2.052   2.551  0.0282  0.3468 -0.5217
 2542SOL    HW119085   1.990   2.008   2.487  0.4036 -0.6826 -0.1476
 2542SOL    HW219086   2.107   1.984   2.580 -0.6819 -0.0094  0.1113
 2543SOL     OW19087   0.597   2.887   7.498 -0.7023 -0.1602  0.2504
 2543SOL    HW119088   0.523   2.839   7.537 -1.1769  0.5565  0.2366
 2543SOL    HW219089   0.631   2.929   7.576  1.4853 -1.7928  0.1633
 2544SOL     OW19090   2.530   1.214  12.694  0.3386  0.1027  0.0509
 2544SOL    HW119091   2.470   1.201  12.768  0.5639 -0.3261  0.1574
 2544SOL    HW219092   2.473   1.186  12.622  0.3780 -1.8861  0.7937
 2545SOL     OW19093   0.601   0.754  16.974  0.4816 -0.1281 -0.3836
 2545SOL    HW119094   0.688   0.717  16.986  1.1823  0.8854 -2.3055
 2545SOL    HW219095   0.556   0.720  17.051  0.8197  2.0464  0.7529
 2546SOL     OW19096   1.510   0.259   6.376 -0.3524 -0.6566  0.7250
 2546SOL    HW119097   1.524   0.346   6.339 -1.2078 -0.0569  1.8045
 2546SOL    HW219098   1.567   0.253   6.453  1.1933  0.5174 -0.3517
 2547SOL     OW19099   3.396   1.921   2.418  0.1260  0.2294 -0.1408
 2547SOL    HW119100   3.488   1.902   2.433  0.7912  0.5780 -3.9708
 2547SOL    HW219101   3.384   1.935   2.324 -0.2932 -3.5152 -0.6383
 2548SOL     OW19102   4.029   0.977   1.472  0.0166  0.2086 -0.0647
 2548SOL    HW119103   3.937   0.952   1.484 -0.9885  1.4281 -5.0534
 2548SOL    HW219104   4.049   0.931   1.390  0.6849  0.0555  0.1816
 2549SOL     OW19105   2.825   0.589   5.756 -0.1425  0.3401 -0.1695
 2549SOL    HW119106   2.855   0.598   5.665 -1.3087  1.0908 -0.4922
 2549SOL    HW219107   2.887   0.528   5.795 -0.3205  1.3774  1.7107
 2550SOL     OW19108   1.236   1.440  11.842  0.3416  0.0408  0.0615
 2550SOL    HW119109   1.301   1.413  11.777 -0.6535 -0.2919 -0.8064
 2550SOL    HW219110   1.206   1.355  11.875  0.3651 -0.6052 -1.5926
 2551SOL     OW19111   4.208   2.941   3.643 -0.3460 -0.2991 -0.6355
 2551SOL    HW119112   4.207   3.035   3.626  0.2730  0.0255  1.1310
 2551SOL    HW219113   4.300   2.920   3.626 -0.0931 -0.0166  0.4279
 2552SOL     OW19114   3.340   0.710   2.768  0.9055  0.0024 -0.4632
 2552SOL    HW119115   3.354   0.772   2.696  1.0904  0.4374 -0.0508
 2552SOL    HW219116   3.325   0.623   2.731  0.3224  0.8928 -2.3308
 2553SOL     OW19117   3.003   2.564   1.477  0.5480  0.2976  0.4155
 2553SOL    HW119118   2.919   2.522   1.459  2.2029 -3.4676  1.5839
 2553SOL    HW219119   3.034   2.504   1.544  1.3023 -0.0549 -0.2421
 2554SOL     OW19120   1.664   3.669  17.338 -0.4997  0.0452  0.3156
 2554SOL    HW119121   1.720   3.684  17.262  1.2233  3.9580  2.3632
 2554SOL    HW219122   1.684   3.579  17.362  1.1516  0.2765 -0.1779
 2555SOL     OW19123   0.078   1.715   3.808  0.3430 -0.1163  0.0593
 2555SOL    HW119124   4.708   1.719   3.796  0.1784 -1.9988  0.6858
 2555SOL    HW219125   0.103   1.764   3.730  0.2369  1.3870  0.9575
 2556SOL     OW19126   2.420   0.394   1.617  0.1686  0.4149 -0.0539
 2556SOL    HW119127   2.451   0.304   1.615  0.5613  0.4972  1.9782
 2556SOL    HW219128   2.364   0.402   1.694  0.3645 -3.6667  0.5117
 2557SOL     OW19129   2.099   1.226   1.512 -0.5503  0.0147  0.0071
 2557SOL    HW119130   2.079   1.157   1.576 -0.8437 -1.0507 -1.2254
 2557SOL    HW219131   2.043   1.300   1.536  1.6276  1.8135 -0.5123
 2558SOL     OW19132   1.823   0.831  14.420 -0.0456  0.0446 -0.1582
 2558SOL    HW119133   1.899   0.784  14.452 -0.5282 -1.7632 -1.6694
 2558SOL    HW219134   1.796   0.765  14.356  0.2067 -0.2013 -0.0060
 2559SOL     OW19135   4.524   2.029   8.174  0.5391  0.1527  0.4550
 2559SOL    HW119136   4.463   1.973   8.221  1.1121 -0.6601  0.2274
 2559SOL    HW219137   4.605   1.983   8.193 -0.2050 -0.8038  1.2894
 2560SOL     OW19138   1.580   4.250   1.301  0.6205 -0.5718 -0.4966
 2560SOL    HW119139   1.644   4.228   1.368 -0.2107  3.4447  1.6057
 2560SOL    HW219140   1.527   4.317   1.344  0.7540  0.0110 -1.2522
 2561SOL     OW19141   1.767   3.826  12.796  0.3328 -0.3211  0.0366
 2561SOL    HW119142   1.832   3.893  12.817 -1.2375  0.8223  1.2170
 2561SOL    HW219143   1.712   3.819  12.875  1.7285 -0.8700  0.9614
 2562SOL     OW19144   2.312   3.829  13.952  0.3759 -0.1473  0.4533
 2562SOL    HW119145   2.312   3.736  13.978  1.2765 -0.0549  0.8109
 2562SOL    HW219146   2.235   3.842  13.897  0.5900 -1.0449 -0.0596
 2563SOL     OW19147   0.351   0.659  12.702 -0.8189  0.6015  0.6563
 2563SOL    HW119148   0.343   0.739  12.649  1.6270  0.9080  0.7843
 2563SOL    HW219149   0.270   0.668  12.752  0.1376  1.7408  1.9796
 2564SOL     OW19150   4.220   2.283   2.331  0.6601 -0.1621  0.4147
 2564SOL    HW119151   4.198   2.372   2.306  1.5178 -0.3160 -0.9064
 2564SOL    HW219152   4.270   2.307   2.409 -1.9419  1.4368  1.5669
 2565SOL     OW19153   1.453   0.253  10.019 -0.6065  0.5491  0.1957
 2565SOL    HW119154   1.513   0.202  10.074  0.0053  1.5169  0.4232
 2565SOL    HW219155   1.486   0.338  10.048  1.7973 -0.7935  1.4212
 2566SOL     OW19156   3.083   2.674   3.450  0.0796 -0.6121 -0.0639
 2566SOL    HW119157   3.115   2.630   3.372  1.4786 -1.0089  0.7302
 2566SOL    HW219158   3.011   2.735   3.433 -1.7936 -2.8469 -0.1506
 2567SOL     OW19159   1.812   2.181   8.984 -0.5948  0.6300 -0.9559
 2567SOL    HW119160   1.872   2.253   9.004  1.7116 -0.7793 -2.8102
 2567SOL    HW219161   1.732   2.232   8.995 -1.2052 -0.5338 -0.0167
 2568SOL     OW19162   1.331   3.153   6.788 -0.2347  0.2332  0.6489
 2568SOL    HW119163   1.320   3.068   6.831  1.4533 -1.3133 -1.9481
 2568SOL    HW219164   1.298   3.219   6.849 -1.2390 -0.4620  0.8505
 2569SOL     OW19165   3.581   4.270   5.524  0.3456  0.0869  0.0715
 2569SOL    HW119166   3.505   4.235   5.570  0.8560 -0.3793  0.5501
 2569SOL    HW219167   3.544   4.315   5.448 -0.3330 -1.0592 -0.2814
 2570SOL     OW19168   3.638   3.362   5.725 -0.1978 -0.6205  0.4073
 2570SOL    HW119169   3.638   3.379   5.820  0.0891  1.9395 -0.0578
 2570SOL    HW219170   3.580   3.285   5.728  0.0667 -0.7983  1.0601
 2571SOL     OW19171   2.250   2.131  12.488 -0.9293  0.5085  0.5332
 2571SOL    HW119172   2.268   2.037  12.493 -0.9764  0.3998 -1.4160
 2571SOL    HW219173   2.155   2.135  12.488 -1.0246 -1.5804 -1.1091
 2572SOL     OW19174   3.257   1.839  15.416  0.0223 -0.2102  0.0549
 2572SOL    HW119175   3.337   1.877  15.451 -0.3031 -0.3627  0.9723
 2572SOL    HW219176   3.277   1.819  15.325  1.7516  1.6507  0.0364
 2573SOL     OW19177   3.024   2.265  12.639 -0.2614  0.2338  0.0943
 2573SOL    HW119178   2.944   2.217  12.657 -0.8411  2.2146  2.8704
 2573SOL    HW219179   3.005   2.290  12.549  0.1009 -0.5627 -0.2041
 2574SOL     OW19180   0.314   3.300   8.569  0.3883 -0.5323 -0.2743
 2574SOL    HW119181   0.264   3.235   8.618  1.1691 -1.8949 -1.2833
 2574SOL    HW219182   0.348   3.359   8.636 -1.7056 -0.4706  0.7162
 2575SOL     OW19183   3.048   1.763  10.259 -0.1441  0.0430 -0.1785
 2575SOL    HW119184   2.978   1.735  10.318  0.6049 -0.9528  0.2308
 2575SOL    HW219185   3.133   1.739  10.296  0.1564  1.0151 -0.2462
 2576SOL     OW19186   2.481   2.027  14.992  0.0308 -0.5273 -0.1237
 2576SOL    HW119187   2.473   1.945  14.944 -1.3123 -1.1022  1.0653
 2576SOL    HW219188   2.574   2.048  14.986  0.4722 -2.6354 -0.4719
 2577SOL     OW19189   1.101   4.128   8.014 -0.4240 -0.1867  0.3353
 2577SOL    HW119190   1.128   4.107   8.103 -0.5702  2.9604  1.1154
 2577SOL    HW219191   1.018   4.082   8.002  0.1822 -1.0737 -0.4232
 2578SOL     OW19192   1.971   2.891   6.185 -0.5554  0.0221  0.5691
 2578SOL    HW119193   1.973   2.832   6.260  0.9372  0.2947  0.7290
 2578SOL    HW219194   2.008   2.976   6.208 -5.6584  2.1857  0.8136
 2579SOL     OW19195   1.306   2.320  15.719 -0.5447 -0.4334  0.1945
 2579SOL    HW119196   1.248   2.352  15.788 -2.0934  1.8772 -2.2086
 2579SOL    HW219197   1.255   2.249  15.680 -1.0032 -1.5682  2.8517
 2580SOL     OW19198   2.098   3.252   7.002 -0.4257  0.8131 -0.4892
 2580SOL    HW119199   2.060   3.189   7.063 -0.0030  0.4702 -0.5760
 2580SOL    HW219200   2.147   3.310   7.059  0.5280 -0.5922  0.1309
 2581SOL     OW19201   2.588   4.277   5.983 -0.8692  0.6818 -0.1112
 2581SOL    HW119202   2.567   4.188   5.955  0.7515  0.8062 -1.8050
 2581SOL    HW219203   2.523   4.290   6.052  0.0685 -1.8975  1.2193
 2582SOL     OW19204   3.505   2.256   8.208 -0.4794 -0.2374 -0.1067
 2582SOL    HW119205   3.467   2.182   8.256  1.3939 -0.1947  1.4440
 2582SOL    HW219206   3.486   2.226   8.120 -2.6946 -0.8272  0.5695
 2583SOL     OW19207   0.766   4.190   9.602 -0.2000  0.2909 -0.0535
 2583SOL    HW119208   0.751   4.283   9.622 -0.5457  0.1812  0.1923
 2583SOL    HW219209   0.711   4.153   9.671 -1.1587  3.0389  0.6586
 2584SOL     OW19210   2.887   1.615   9.340  0.5599 -0.1014  0.7635
 2584SOL    HW119211   2.863   1.693   9.291  1.2527  2.4138  4.3596
 2584SOL    HW219212   2.823   1.617   9.411  0.6311  0.5044  0.8127
 2585SOL     OW19213   4.527   4.098   5.569  0.3344  0.0306 -0.3300
 2585SOL    HW119214   4.478   4.112   5.650 -3.6004  1.1926 -2.9410
 2585SOL    HW219215   4.477   4.035   5.517  0.7489  0.7796 -1.6528
 2586SOL     OW19216   0.178   0.090   6.194  0.2452 -0.1887 -0.0071
 2586SOL    HW119217   0.273   0.097   6.192  0.4049 -1.3968  2.5447
 2586SOL    HW219218   0.158   0.182   6.177  2.9267  0.2004 -1.0115
 2587SOL     OW19219   2.722   2.509   6.283 -0.0629  0.3061  0.6521
 2587SOL    HW119220   2.671   2.463   6.350 -1.4009  1.8587  0.7131
 2587SOL    HW219221   2.736   2.432   6.228 -1.2162  2.0608 -2.1376
 2588SOL     OW19222   4.095   0.066   4.931  0.0608  0.4489  0.2130
 2588SOL    HW119223   4.116   0.117   5.009 -0.2074  0.5835  0.1984
 2588SOL    HW219224   4.085   0.138   4.868  1.5096  0.3053 -0.1868
 2589SOL     OW19225   1.851   1.388  12.521 -0.0963  0.1541  0.8155
 2589SOL    HW119226   1.814   1.321  12.463  2.7166 -0.7306  0.0382
 2589SOL    HW219227   1.880   1.333  12.593  2.2686 -0.1247 -0.3632
 2590SOL     OW19228   2.873   1.123   8.326 -0.0010 -0.4376 -0.2818
 2590SOL    HW119229   2.936   1.062   8.362  0.5268 -0.0884 -0.6144
 2590SOL    HW219230   2.909   1.209   8.347 -0.2143 -0.2293 -0.7588
 2591SOL     OW19231   4.358   3.164   3.913 -0.9737  0.5415 -0.4272
 2591SOL    HW119232   4.395   3.091   3.963  0.9090  0.8979 -1.3272
 2591SOL    HW219233   4.429   3.213   3.872 -1.4341 -0.2820 -2.2157
 2592SOL     OW19234   1.734   4.448   6.720 -0.5914 -0.4517  0.2755
 2592SOL    HW119235   1.683   4.378   6.679 -0.9370 -1.6769  2.7956
 2592SOL    HW219236   1.802   4.457   6.653  0.3554 -0.1004  1.3041
 2593SOL     OW19237   2.899   0.737   9.478  0.3595  0.1716  0.1752
 2593SOL    HW119238   2.957   0.664   9.495 -1.2733 -0.4717  2.9905
 2593SOL    HW219239   2.890   0.742   9.383 -0.8362 -2.7057  0.1633
 2594SOL     OW19240   2.639   2.479   8.513  0.1246 -0.4180  0.0170
 2594SOL    HW119241   2.606   2.511   8.429 -1.1263 -1.1950  0.2083
 2594SOL    HW219242   2.594   2.395   8.519 -0.9911  0.2485  1.0950
 2595SOL     OW19243   2.186   3.472  12.211  0.3693 -1.0137  0.2738
 2595SOL    HW119244   2.124   3.544  12.223 -0.3528 -1.1175 -2.7958
 2595SOL    HW219245   2.274   3.500  12.235  0.7659 -0.5398 -1.7224
 2596SOL     OW19246   4.170   4.086   7.758  0.2901 -0.0043  0.0110
 2596SOL    HW119247   4.153   4.075   7.664  0.0407  0.6941 -0.0225
 2596SOL    HW219248   4.168   4.181   7.753 -2.2470 -0.1924 -2.9676
 2597SOL     OW19249   2.975   2.222   7.062  0.2666  0.4943 -0.0015
 2597SOL    HW119250   2.934   2.287   7.005  0.1356  2.0665  1.8976
 2597SOL    HW219251   3.000   2.162   6.991 -1.7835  1.1926 -1.2953
 2598SOL     OW19252   3.025   1.978   2.203  0.0724  0.0623  0.0141
 2598SOL    HW119253   3.071   1.940   2.128 -1.3997 -1.1600 -0.2833
 2598SOL    HW219254   3.077   2.056   2.221 -0.9191  0.4371  1.2962
 2599SOL     OW19255   0.891   4.153   1.293 -0.0140  0.2998 -0.1521
 2599SOL    HW119256   0.984   4.165   1.314  0.4564 -2.9924 -0.2835
 2599SOL    HW219257   0.857   4.235   1.327 -0.3994  0.1184 -0.1032
 2600SOL     OW19258   2.565   1.571   3.915 -0.1309 -0.2385 -0.2135
 2600SOL    HW119259   2.655   1.539   3.915 -0.0753 -0.0723 -1.2988
 2600SOL    HW219260   2.537   1.559   4.006  1.3517 -1.9783  0.0038
 2601SOL     OW19261   0.851   3.241   8.463  0.0933 -0.5695  0.0212
 2601SOL    HW119262   0.858   3.263   8.370  0.5796  1.3168  0.4886
 2601SOL    HW219263   0.839   3.147   8.468 -1.1419 -0.3862  0.5115
 2602SOL     OW19264   3.625   4.213  15.679  0.1042  0.9327  0.3969
 2602SOL    HW119265   3.543   4.256  15.656 -0.8889 -0.6459  0.9981
 2602SOL    HW219266   3.621   4.220  15.775 -0.6996 -0.1388  0.4398
 2603SOL     OW19267   2.368   2.699   1.817  0.2053 -0.3358 -0.1237
 2603SOL    HW119268   2.308   2.645   1.766 -0.9286  0.6022  0.2141
 2603SOL    HW219269   2.311   2.753   1.872 -0.6162 -2.1723  0.7968
 2604SOL     OW19270   4.507   2.700   5.152 -0.4116  0.3365  0.2498
 2604SOL    HW119271   4.502   2.639   5.079  0.3919  1.3022 -0.6002
 2604SOL    HW219272   4.441   2.666   5.213 -0.8052  0.9723  0.1771
 2605SOL     OW19273   1.538   0.806   6.802  0.1454 -0.3939  0.0487
 2605SOL    HW119274   1.468   0.745   6.783  1.0689 -1.2720 -0.5168
 2605SOL    HW219275   1.489   0.878   6.841  0.9008  0.9918 -1.5588
 2606SOL     OW19276   4.439   1.316   0.638  0.3541  0.4917  0.7476
 2606SOL    HW119277   4.452   1.390   0.697 -0.7118  0.9941  0.3620
 2606SOL    HW219278   4.440   1.353   0.549 -1.0127 -0.0826  0.5034
 2607SOL     OW19279   0.216   1.488   3.023  0.0685 -0.6825  0.5972
 2607SOL    HW119280   0.219   1.576   3.062  1.6671 -0.1054 -0.7949
 2607SOL    HW219281   0.244   1.503   2.932  0.5102  2.9632  1.3391
 2608SOL     OW19282   2.213   3.810   8.774  0.0466 -0.6937 -0.3305
 2608SOL    HW119283   2.263   3.815   8.856 -1.2726 -1.1540  0.5055
 2608SOL    HW219284   2.266   3.741   8.732  2.4979  1.0419 -0.0664
 2609SOL     OW19285   2.145   4.300   8.379  0.1160  0.3741 -0.2473
 2609SOL    HW119286   2.179   4.389   8.372  2.3705 -0.3710  1.2204
 2609SOL    HW219287   2.143   4.291   8.474  1.8728  0.3993 -0.2146
 2610SOL     OW19288   4.139   4.493   4.236 -0.2177  0.4338 -0.3625
 2610SOL    HW119289   4.182   4.573   4.205  2.4335 -2.0530 -3.1338
 2610SOL    HW219290   4.088   4.543   4.300  0.6602  0.5815  0.2240
 2611SOL     OW19291   2.703   2.482   6.659 -0.3654 -0.1879 -0.2298
 2611SOL    HW119292   2.670   2.571   6.644  2.0678  0.4486 -1.8021
 2611SOL    HW219293   2.656   2.440   6.588  1.8980 -0.2535 -1.6923
 2612SOL     OW19294   2.218   0.902   2.624 -0.5145 -0.3375 -0.1884
 2612SOL    HW119295   2.289   0.877   2.565  1.7345  3.4064  0.9670
 2612SOL    HW219296   2.181   0.816   2.645  0.3217 -0.5651  0.3385
 2613SOL     OW19297   0.583   4.332   2.745  0.1241  0.3155  0.6735
 2613SOL    HW119298   0.575   4.378   2.829  0.3679 -1.5280  1.7031
 2613SOL    HW219299   0.495   4.296   2.738  0.1899  0.8178 -2.5774
 2614SOL     OW19300   2.999   4.270  16.390  0.2242  0.6019  0.4049
 2614SOL    HW119301   2.990   4.349  16.337  0.1674 -0.7510 -1.6111
 2614SOL    HW219302   3.047   4.206  16.338 -0.0222  0.6294  0.1416
 2615SOL     OW19303   4.411   1.072   9.417  0.2126  0.5037 -0.3080
 2615SOL    HW119304   4.390   1.094   9.326 -0.2484 -2.0052 -0.8007
 2615SOL    HW219305   4.498   1.034   9.409 -0.4657 -0.5009 -2.7971
 2616SOL     OW19306   1.207   0.247  11.174  0.7081  0.4336  0.3950
 2616SOL    HW119307   1.185   0.195  11.097  0.2994  2.5051 -0.8752
 2616SOL    HW219308   1.157   0.328  11.164  0.0427 -0.1249 -0.7481
 2617SOL     OW19309   3.844   3.154  10.976  0.2391 -0.2283 -0.2190
 2617SOL    HW119310   3.774   3.168  11.040 -0.2576  0.0021 -0.8124
 2617SOL    HW219311   3.908   3.101  11.024 -0.0592 -0.4939 -0.1109
 2618SOL     OW19312   4.645   4.454   7.113  0.1302  0.1149  0.6655
 2618SOL    HW119313   4.573   4.516   7.123 -1.0441 -0.6797 -2.8553
 2618SOL    HW219314   4.706   4.501   7.055  0.4356 -1.1048  0.0047
 2619SOL     OW19315   3.948   0.058   3.434  0.4093  0.3442 -1.2553
 2619SOL    HW119316   3.892   0.010   3.496  1.7450  0.3800 -0.0060
 2619SOL    HW219317   3.903   0.075   3.352  0.9893  1.7708 -1.2847
 2620SOL     OW19318   0.458   3.835   5.987  0.1840 -0.4366  0.0409
 2620SOL    HW119319   0.365   3.841   6.007  0.1169 -1.9040  0.1850
 2620SOL    HW219320   0.488   3.791   6.066 -2.0302 -0.7951  0.6856
 2621SOL     OW19321   2.017   1.624  16.006 -0.0345 -0.3082  0.0356
 2621SOL    HW119322   2.091   1.683  15.997 -0.0815 -0.1050  1.0714
 2621SOL    HW219323   2.004   1.577  15.923  0.9755  1.6006 -1.1852
 2622SOL     OW19324   0.116   0.237   3.002  0.5544  0.0231 -0.2246
 2622SOL    HW119325   0.032   0.245   2.958 -0.4271 -2.6543  1.1735
 2622SOL    HW219326   0.178   0.257   2.932 -0.1933  1.0988 -0.5771
 2623SOL     OW19327   0.538   0.161   7.528 -0.1373 -0.4031 -0.0488
 2623SOL    HW119328   0.548   0.256   7.527 -1.5745 -0.2482  0.4441
 2623SOL    HW219329   0.628   0.130   7.540  0.5611  0.3299 -3.1453
 2624SOL     OW19330   3.016   4.362   8.582  0.1253 -0.1136 -0.6750
 2624SOL    HW119331   3.011   4.424   8.654 -0.0284 -0.6896 -0.1918
 2624SOL    HW219332   3.027   4.422   8.508 -1.0330 -0.7868 -1.3879
 2625SOL     OW19333   0.980   4.689  11.273  0.2851 -0.0431 -0.5656
 2625SOL    HW119334   1.065   4.645  11.274  0.0885 -0.4303 -0.9907
 2625SOL    HW219335   0.949   4.648  11.354  1.0904 -2.8621 -1.6565
 2626SOL     OW19336   2.947   3.419  13.454 -0.3609 -0.1576  0.0947
 2626SOL    HW119337   2.999   3.495  13.429  1.1180 -0.7286  1.4860
 2626SOL    HW219338   2.968   3.364  13.378 -0.7548 -1.8201  1.1930
 2627SOL     OW19339   3.062   3.380   5.290 -0.7661 -0.1207  0.1690
 2627SOL    HW119340   3.132   3.444   5.295 -2.0744  1.1745  1.6863
 2627SOL    HW219341   3.109   3.300   5.312  0.9615  0.6277 -0.8029
 2628SOL     OW19342   2.466   2.230   7.260 -0.7632  0.6254 -0.0770
 2628SOL    HW119343   2.551   2.262   7.291 -0.9357 -1.2975  2.3513
 2628SOL    HW219344   2.489   2.138   7.263  1.9951  1.3316  0.4374
 2629SOL     OW19345   1.621   4.007  17.606 -0.2304 -0.2814 -0.4272
 2629SOL    HW119346   1.572   4.007  17.689 -1.2337  1.6087 -1.0267
 2629SOL    HW219347   1.559   4.064  17.561 -0.2794 -1.2607 -1.6253
 2630SOL     OW19348   2.956   2.373   8.473 -0.2371  0.5087 -0.6735
 2630SOL    HW119349   2.945   2.463   8.440 -0.1372  0.9827  0.5673
 2630SOL    HW219350   2.970   2.395   8.565 -1.3590 -0.9035 -0.1665
 2631SOL     OW19351   1.111   3.072   8.916  0.1697 -0.4886 -0.3660
 2631SOL    HW119352   1.105   2.978   8.934 -0.1366 -0.7694 -1.9160
 2631SOL    HW219353   1.025   3.089   8.954 -0.5801 -0.8186 -1.8925
 2632SOL     OW19354   2.961   0.435   7.601 -0.3301  0.0887  0.6451
 2632SOL    HW119355   2.889   0.375   7.622  0.2340 -0.8866 -0.2371
 2632SOL    HW219356   2.916   0.518   7.583 -0.4046  0.2313  1.4620
 2633SOL     OW19357   3.809   0.421  16.170 -0.5246 -0.4368 -0.1265
 2633SOL    HW119358   3.812   0.463  16.256 -0.6395 -2.5955  0.9359
 2633SOL    HW219359   3.886   0.365  16.174 -0.5856 -0.4904  0.4234
 2634SOL     OW19360   3.954   3.786   7.532 -0.2885  0.1304 -0.2850
 2634SOL    HW119361   4.045   3.806   7.513 -0.7480  2.1602 -0.3440
 2634SOL    HW219362   3.923   3.789   7.441  0.3316  1.8390 -0.4246
 2635SOL     OW19363   1.675   2.634   5.222  0.0251  0.0491 -0.3097
 2635SOL    HW119364   1.628   2.709   5.184 -0.5342  0.4983  1.2502
 2635SOL    HW219365   1.725   2.676   5.292 -1.1878  0.3561  0.3855
 2636SOL     OW19366   4.370   0.402   8.701 -0.1519  0.2539 -0.2022
 2636SOL    HW119367   4.370   0.465   8.629  2.3204 -1.3914 -1.6033
 2636SOL    HW219368   4.380   0.320   8.654 -1.5943  0.6679 -1.2529
 2637SOL     OW19369   3.556   3.614   4.417 -0.0865 -0.3611 -0.1953
 2637SOL    HW119370   3.608   3.577   4.345  0.9258 -0.3513  0.5210
 2637SOL    HW219371   3.594   3.553   4.480 -3.6156 -1.2711  0.9934
 2638SOL     OW19372   2.821   0.926  11.590 -0.4493 -0.5722 -0.6008
 2638SOL    HW119373   2.836   0.998  11.650 -2.6520 -0.6540  0.0611
 2638SOL    HW219374   2.819   0.971  11.506 -2.2796 -1.5865 -1.1012
 2639SOL     OW19375   4.663   3.080   3.996 -0.2174  0.0616  0.2673
 2639SOL    HW119376   4.654   3.175   4.008  2.1583  0.1599  1.3718
 2639SOL    HW219377   4.704   3.065   3.911 -0.1387  0.2829  0.2647
 2640SOL     OW19378   1.868   0.067   7.603 -0.2818  0.3334  0.1661
 2640SOL    HW119379   1.866   0.142   7.662 -1.5725 -0.6765  1.3884
 2640SOL    HW219380   1.923   0.099   7.531  2.6683 -3.4287  0.7344
 2641SOL     OW19381   3.736   3.075  14.571 -0.8922 -0.5083  0.3501
 2641SOL    HW119382   3.655   3.110  14.607  0.4734  2.1877  0.8608
 2641SOL    HW219383   3.733   3.058  14.477  0.6738  2.3540 -0.2328
 2642SOL     OW19384   3.883   4.136   9.419  0.6679 -0.2710  0.2235
 2642SOL    HW119385   3.932   4.061   9.387  0.5693  0.3161 -1.3211
 2642SOL    HW219386   3.816   4.147   9.351 -0.0296  0.6232  1.0467
 2643SOL     OW19387   4.186   0.542   8.262 -0.4228  0.6676  0.2938
 2643SOL    HW119388   4.218   0.451   8.257  0.2914  0.8749  1.1657
 2643SOL    HW219389   4.221   0.588   8.185 -2.0238  2.1065  0.4491
 2644SOL     OW19390   2.975   4.079   8.385 -0.5311  0.0807  0.1811
 2644SOL    HW119391   2.918   4.003   8.373 -0.3836  0.0894 -0.5725
 2644SOL    HW219392   3.019   4.048   8.464  0.6163 -0.4798 -0.6810
 2645SOL     OW19393   1.248   4.551  13.623  0.1172  1.1129  0.2956
 2645SOL    HW119394   1.239   4.556  13.718  0.5831  0.6785  0.3634
 2645SOL    HW219395   1.181   4.613  13.593  1.0742  1.4394 -1.1766
 2646SOL     OW19396   1.284   3.433   0.790  0.2268  0.3102 -0.1583
 2646SOL    HW119397   1.301   3.399   0.878 -2.4012  0.2014  0.2934
 2646SOL    HW219398   1.302   3.350   0.745  2.1207  1.3652 -1.3128
 2647SOL     OW19399   3.209   1.367   7.121 -0.1464  0.1966  0.1560
 2647SOL    HW119400   3.167   1.438   7.073 -0.4748 -1.1090 -1.5167
 2647SOL    HW219401   3.267   1.418   7.177 -1.6822  2.9644 -0.7803
 2648SOL     OW19402   0.580   1.221   4.786  0.2127 -0.2801  0.2705
 2648SOL    HW119403   0.485   1.225   4.771 -0.3562 -1.9275  3.2588
 2648SOL    HW219404   0.588   1.296   4.845 -1.3808  0.0999  0.0245
 2649SOL     OW19405   4.041   1.146   4.099  0.1924 -0.0503  0.1661
 2649SOL    HW119406   4.024   1.222   4.043  1.1775  0.3060  0.3508
 2649SOL    HW219407   3.949   1.121   4.103 -0.4314  1.6374 -4.2272
 2650SOL     OW19408   0.935   3.840   6.654 -0.1737  0.6738 -0.0616
 2650SOL    HW119409   0.976   3.758   6.684 -0.3876 -0.0499 -1.7247
 2650SOL    HW219410   0.955   3.892   6.732 -1.2616  3.1635 -1.4768
 2651SOL     OW19411   0.653   4.264   8.942 -0.1643 -0.7063  0.5315
 2651SOL    HW119412   0.669   4.173   8.966 -1.3752 -1.0074  0.1769
 2651SOL    HW219413   0.570   4.271   8.990  0.9031  0.1062  2.2760
 2652SOL     OW19414   4.389   1.177   5.222 -0.1934  0.1081  0.2943
 2652SOL    HW119415   4.404   1.237   5.149 -2.4034  0.6502  0.2957
 2652SOL    HW219416   4.337   1.117   5.169  2.3755 -1.9282  0.0299
 2653SOL     OW19417   2.221   3.212   4.313 -0.6583  0.8634 -0.0328
 2653SOL    HW119418   2.224   3.119   4.291  0.4169  0.6575  0.9882
 2653SOL    HW219419   2.127   3.226   4.301 -0.5019  1.5735 -0.4353
 2654SOL     OW19420   1.739   3.425  14.430  0.2929 -0.3066  0.1260
 2654SOL    HW119421   1.755   3.510  14.469  2.8005 -0.6365 -0.2218
 2654SOL    HW219422   1.722   3.433  14.336 -0.7905 -1.9681  0.1660
 2655SOL     OW19423   2.117   4.559   2.485 -0.8766  0.6474 -0.1717
 2655SOL    HW119424   2.183   4.570   2.554 -1.4801 -0.3520  0.5635
 2655SOL    HW219425   2.040   4.525   2.531  0.1027  0.2225  1.1795
 2656SOL     OW19426   1.951   3.884   5.986  0.4269  0.0272  0.0693
 2656SOL    HW119427   1.965   3.939   5.909 -1.9048 -1.9190 -1.7195
 2656SOL    HW219428   2.040   3.859   6.014 -0.1436 -3.0523 -0.9006
 2657SOL     OW19429   0.788   4.050   0.945 -0.1551 -0.0036  0.2379
 2657SOL    HW119430   0.865   4.019   0.993  0.9413  0.1912 -1.3929
 2657SOL    HW219431   0.793   4.144   0.963 -0.2314 -0.4835  2.8249
 2658SOL     OW19432   1.169   1.840   7.282  0.4732 -0.0542 -0.5713
 2658SOL    HW119433   1.160   1.885   7.366 -0.6043 -0.3762 -0.5169
 2658SOL    HW219434   1.120   1.898   7.224 -1.8840 -2.3538 -0.8957
 2659SOL     OW19435   3.764   3.173   0.218 -0.5040  0.5254 -0.6047
 2659SOL    HW119436   3.691   3.123   0.182  1.0684 -3.8855  2.3205
 2659SOL    HW219437   3.753   3.159   0.312 -0.4237  2.7358 -0.2776
 2660SOL     OW19438   1.249   2.604   7.398 -0.6047 -0.4322  0.4227
 2660SOL    HW119439   1.230   2.529   7.343 -0.0566 -0.7714  0.6991
 2660SOL    HW219440   1.336   2.631   7.368 -0.1166 -0.7114  1.5995
 2661SOL     OW19441   3.952   3.762   5.951  0.6067  0.6703  0.1184
 2661SOL    HW119442   4.021   3.820   5.921  1.9988 -1.0019  0.0708
 2661SOL    HW219443   3.991   3.711   6.022  0.1998  0.2750  0.0603
 2662SOL     OW19444   4.175   4.183   5.533 -0.1193 -0.1288  0.6271
 2662SOL    HW119445   4.116   4.108   5.537  0.2310 -0.4749 -0.5117
 2662SOL    HW219446   4.241   4.170   5.601  1.6954 -0.7497 -1.2153
 2663SOL     OW19447   2.552   4.599   8.345 -0.3825  1.2185  0.1957
 2663SOL    HW119448   2.580   4.525   8.291 -0.9917  1.5803 -0.6157
 2663SOL    HW219449   2.566   4.567   8.434 -2.9427 -0.6334 -0.0716
 2664SOL     OW19450   3.123   0.884  15.344  0.5140 -0.2737 -0.0822
 2664SOL    HW119451   3.198   0.827  15.326  0.7948 -0.5937  2.1185
 2664SOL    HW219452   3.055   0.817  15.355 -0.6964  1.0289  0.3436
 2665SOL     OW19453   3.593   0.310   4.527 -0.3423  0.2604  1.0719
 2665SOL    HW119454   3.647   0.234   4.503 -0.3133  0.6893 -0.2202
 2665SOL    HW219455   3.516   0.266   4.562 -0.7204 -0.1129 -0.2507
 2666SOL     OW19456   3.159   2.110   4.222  0.0124 -0.3863 -0.0617
 2666SOL    HW119457   3.068   2.098   4.249 -0.2069  0.8238 -0.2588
 2666SOL    HW219458   3.158   2.173   4.150  0.0052 -1.0017 -0.5974
 2667SOL     OW19459   0.927   0.841  15.753 -0.0720  0.5415  0.5084
 2667SOL    HW119460   1.012   0.867  15.789  0.2780 -0.9697  0.7962
 2667SOL    HW219461   0.934   0.877  15.664  2.4710  0.6632  0.7570
 2668SOL     OW19462   1.697   1.460   2.539 -0.5140  0.1415 -0.1325
 2668SOL    HW119463   1.695   1.367   2.563  1.2020  0.7559  2.3806
 2668SOL    HW219464   1.753   1.462   2.461  1.2389 -0.7269  1.0947
 2669SOL     OW19465   4.502   0.507   5.526  0.5055  0.6903 -0.4993
 2669SOL    HW119466   4.494   0.428   5.473  1.6588  0.3870 -0.2128
 2669SOL    HW219467   4.508   0.571   5.456 -2.1696  0.7087 -0.7112
 2670SOL     OW19468   1.486   0.065  17.532 -0.2337 -0.4206  0.0762
 2670SOL    HW119469   1.407   0.104  17.568 -0.1285 -0.2367  0.1098
 2670SOL    HW219470   1.489   4.718  17.596  3.1001 -1.2168 -0.9685
 2671SOL     OW19471   0.646   0.486   3.189 -0.0911 -0.6134  0.7583
 2671SOL    HW119472   0.724   0.515   3.142 -0.6443 -1.9506 -0.9563
 2671SOL    HW219473   0.596   0.434   3.126  2.2347 -2.5076  0.5179
 2672SOL     OW19474   1.465   1.272   4.904  0.9274  0.5238 -0.3095
 2672SOL    HW119475   1.508   1.200   4.858 -1.0523  0.7397 -2.5086
 2672SOL    HW219476   1.466   1.240   4.994 -1.0806  0.9078 -0.1560
 2673SOL     OW19477   0.643   2.230   2.928  0.5398  0.1284 -0.0033
 2673SOL    HW119478   0.722   2.203   2.975  2.0568  0.3454 -2.4090
 2673SOL    HW219479   0.647   2.166   2.856 -0.3986 -0.1358  0.1884
 2674SOL     OW19480   1.868   1.660  10.235  0.3071  0.0377  0.0751
 2674SOL    HW119481   1.897   1.641  10.324  1.4065 -0.7419 -0.4648
 2674SOL    HW219482   1.789   1.712  10.254 -0.5062 -0.4752 -1.9359
 2675SOL     OW19483   3.399   0.150   4.624 -0.0718  0.0192 -0.7318
 2675SOL    HW119484   3.361   0.146   4.712  0.4207  2.5563 -0.4001
 2675SOL    HW219485   3.389   0.057   4.603 -1.4480 -0.0391  0.1544
 2676SOL     OW19486   2.400   3.827   7.107 -0.5242 -0.1422  0.2977
 2676SOL    HW119487   2.350   3.747   7.123  0.0291 -0.9158 -1.7548
 2676SOL    HW219488   2.386   3.876   7.188 -0.2673 -1.0607  0.8912
 2677SOL     OW19489   0.301   4.325   7.470  0.3439 -0.3735 -0.3576
 2677SOL    HW119490   0.367   4.322   7.540 -0.7657 -0.0720  0.6998
 2677SOL    HW219491   0.357   4.306   7.395  1.2263 -0.2148  0.2662
 2678SOL     OW19492   0.787   0.447   5.586 -0.1713 -0.0584  0.4193
 2678SOL    HW119493   0.797   0.420   5.494  0.8797  2.0930 -0.1000
 2678SOL    HW219494   0.877   0.460   5.616 -1.2240  2.0375  2.6811
 2679SOL     OW19495   0.437   4.320  12.503  0.3654  0.4364  0.3346
 2679SOL    HW119496   0.395   4.326  12.417 -0.2919 -3.2942  0.3845
 2679SOL    HW219497   0.366   4.307  12.565 -1.5005 -0.6051 -2.0195
 2680SOL     OW19498   3.184   3.799   3.957  0.7202 -0.0701 -0.0519
 2680SOL    HW119499   3.257   3.744   3.929  1.2515  0.4304  0.3471
 2680SOL    HW219500   3.217   3.841   4.036 -0.7145 -0.0103  0.5215
 2681SOL     OW19501   2.463   1.332  15.299 -0.5274 -0.2106 -0.2676
 2681SOL    HW119502   2.455   1.237  15.299  0.3824 -0.2852  0.6755
 2681SOL    HW219503   2.493   1.336  15.208  1.7811 -1.4581  0.4461
 2682SOL     OW19504   0.390   4.718   1.845 -0.1376  0.0666  0.0474
 2682SOL    HW119505   0.433   4.705   1.761 -3.0419  2.2932 -1.7993
 2682SOL    HW219506   0.436   0.072   1.877 -0.2687  0.7134 -1.3418
 2683SOL     OW19507   1.596   0.235   4.746 -0.6961 -0.1908  0.3923
 2683SOL    HW119508   1.571   0.325   4.725 -0.1927 -0.5028 -1.5280
 2683SOL    HW219509   1.514   0.195   4.717 -0.5935  1.3409 -1.9430
 2684SOL     OW19510   3.387   2.571   3.543  0.4814 -0.2160 -0.1710
 2684SOL    HW119511   3.469   2.600   3.504 -0.1929  0.8836 -0.7463
 2684SOL    HW219512   3.375   2.491   3.491  1.4138 -1.5603  1.6604
 2685SOL     OW19513   4.636   0.859   8.518 -0.0536  0.4396  0.5204
 2685SOL    HW119514   4.574   0.804   8.566 -0.0903  0.6945  0.7642
 2685SOL    HW219515   4.596   0.946   8.522  0.8521  0.9570 -1.3736
 2686SOL     OW19516   4.132   4.069   3.900 -0.0521  0.4422  0.2402
 2686SOL    HW119517   4.160   3.983   3.870 -0.4495  0.4121 -0.0504
 2686SOL    HW219518   4.216   4.111   3.916  0.3298 -0.3145  0.1646
 2687SOL     OW19519   1.661   3.280  15.259 -0.7588 -0.5423 -0.2202
 2687SOL    HW119520   1.695   3.326  15.182  1.9127 -0.4986  0.9897
 2687SOL    HW219521   1.669   3.192  15.223 -0.5176 -1.0536  1.0614
 2688SOL     OW19522   0.184   2.564   5.148 -0.0327  0.4711  0.3058
 2688SOL    HW119523   0.206   2.614   5.069 -1.9122  0.9024  0.0514
 2688SOL    HW219524   0.136   2.491   5.109  0.3535  0.1532  0.4335
 2689SOL     OW19525   4.051   1.718  11.898  0.9085 -0.1023 -0.2449
 2689SOL    HW119526   4.075   1.793  11.844  2.1990 -1.5657 -1.7076
 2689SOL    HW219527   4.135   1.699  11.939  0.0771 -2.0676  0.5433
 2690SOL     OW19528   1.489   2.627   7.747  0.4754 -0.0316 -0.3551
 2690SOL    HW119529   1.547   2.551   7.749  1.1349  0.4489 -1.1700
 2690SOL    HW219530   1.502   2.668   7.662  3.3525  1.9403  0.9992
 2691SOL     OW19531   0.342   1.822  17.145  0.0100  0.3781 -0.4174
 2691SOL    HW119532   0.416   1.882  17.141 -0.1981  0.6997  0.6579
 2691SOL    HW219533   0.281   1.887  17.178 -0.2273 -1.2243  2.2499
 2692SOL     OW19534   2.527   1.555   2.053  0.5500  0.1015 -0.0544
 2692SOL    HW119535   2.611   1.551   2.099 -0.2173  0.4036  1.3552
 2692SOL    HW219536   2.496   1.641   2.080 -1.5739 -0.5561 -0.3743
 2693SOL     OW19537   1.974   3.939   4.916  0.1647 -0.2226  0.0974
 2693SOL    HW119538   2.037   4.011   4.912 -0.0520 -0.0285  0.1213
 2693SOL    HW219539   1.920   3.954   4.838  2.2796 -1.0531 -1.5053
 2694SOL     OW19540   2.717   4.178  13.103 -0.0127 -0.0388 -0.0908
 2694SOL    HW119541   2.635   4.134  13.081  0.6785 -1.9908  1.1811
 2694SOL    HW219542   2.729   4.151  13.194 -0.4660 -3.5116 -1.0800
 2695SOL     OW19543   2.787   3.941   9.338  0.1228 -0.4726 -0.2112
 2695SOL    HW119544   2.799   3.989   9.256  1.8612 -0.1186  0.2384
 2695SOL    HW219545   2.728   3.871   9.312 -0.2639  0.4137 -1.6983
 2696SOL     OW19546   2.442   4.032   5.944  0.4439 -0.3020  0.0767
 2696SOL    HW119547   2.369   3.998   5.893 -0.1330 -1.1555  1.4806
 2696SOL    HW219548   2.393   4.054   6.023  0.6051  2.4618 -0.6014
 2697SOL     OW19549   4.643   4.675   0.648 -0.5264  0.0865 -0.1431
 2697SOL    HW119550   4.554   4.709   0.664 -0.6475  0.0914 -0.8368
 2697SOL    HW219551   4.697   0.022   0.682 -0.9721  0.0264  0.7083
 2698SOL     OW19552   0.671   1.483   0.336 -0.1355  0.3589  0.7469
 2698SOL    HW119553   0.721   1.406   0.360  0.1288  0.5005  0.6520
 2698SOL    HW219554   0.742   1.546   0.349  0.6786 -0.5876  0.8431
 2699SOL     OW19555   0.461   2.702   3.201 -0.0970  0.0487  0.1565
 2699SOL    HW119556   0.422   2.669   3.282 -0.5418  0.2426  0.0186
 2699SOL    HW219557   0.552   2.713   3.229  0.0947  2.6672 -1.4722
 2700SOL     OW19558   1.096   4.453   2.151 -0.1645  0.6351  0.6054
 2700SOL    HW119559   1.155   4.379   2.163 -1.3068 -0.0714  1.9346
 2700SOL    HW219560   1.016   4.431   2.198  0.4897 -0.8635  1.0125
 2701SOL     OW19561   1.529   0.766  16.512  0.3692  0.3326  0.3719
 2701SOL    HW119562   1.501   0.699  16.575 -0.7184 -1.3206 -1.8719
 2701SOL    HW219563   1.622   0.742  16.513  0.1583 -0.5506 -3.0974
 2702SOL     OW19564   0.345   1.562  13.366 -0.0360  0.0376  0.2962
 2702SOL    HW119565   0.265   1.570  13.314 -0.1836 -1.2279  0.3238
 2702SOL    HW219566   0.358   1.467  13.371  0.1017 -0.0004 -0.7628
 2703SOL     OW19567   3.664   3.329   3.089  0.1462 -0.2439  0.0632
 2703SOL    HW119568   3.637   3.247   3.048  4.4714 -1.4040 -0.4519
 2703SOL    HW219569   3.759   3.329   3.078  0.3719  0.3441  2.0785
 2704SOL     OW19570   1.180   3.629   7.862 -0.0042  0.1617 -0.3835
 2704SOL    HW119571   1.150   3.702   7.807 -0.5962  0.8771  0.8992
 2704SOL    HW219572   1.276   3.635   7.864 -0.0940  2.0308 -1.9097
 2705SOL     OW19573   0.142   1.397   8.652 -0.3187  0.5539 -0.3560
 2705SOL    HW119574   0.088   1.449   8.709 -1.6090 -3.3090  1.9563
 2705SOL    HW219575   0.089   1.321   8.626 -0.7555  0.9799 -0.7072
 2706SOL     OW19576   0.106   0.695   2.007 -0.9364  0.1171 -0.0778
 2706SOL    HW119577   0.144   0.782   2.007  0.7752 -0.6297  1.9719
 2706SOL    HW219578   0.099   0.680   1.913 -0.8121 -0.4418 -0.0015
 2707SOL     OW19579   2.730   0.156   2.779 -0.1703 -0.1238  0.3705
 2707SOL    HW119580   2.694   0.092   2.839  0.6539  0.1078  1.1038
 2707SOL    HW219581   2.783   0.219   2.827 -1.6237  1.3314  0.0900
 2708SOL     OW19582   0.014   0.091  14.665 -0.0847  0.2549  0.5339
 2708SOL    HW119583   0.008   0.170  14.719  0.8456  0.6056  0.1371
 2708SOL    HW219584   4.685   0.125  14.593 -0.2504  0.0238  0.5507
 2709SOL     OW19585   3.816   0.308  16.568  0.4149  0.4907 -0.1061
 2709SOL    HW119586   3.743   0.305  16.630 -0.3569  3.8033 -0.8549
 2709SOL    HW219587   3.886   0.329  16.630  1.3114 -1.4613 -0.4642
 2710SOL     OW19588   0.467   3.295   2.030  0.1535  0.0583 -0.1230
 2710SOL    HW119589   0.555   3.324   2.005 -0.5579  1.4146 -1.0616
 2710SOL    HW219590   0.442   3.255   1.946  2.6257  1.4608 -1.5155
 2711SOL     OW19591   3.384   2.272   9.018 -0.2903 -0.2001 -0.3650
 2711SOL    HW119592   3.333   2.346   8.985  1.1975  0.4121 -1.3285
 2711SOL    HW219593   3.315   2.227   9.066  0.0895 -1.6150 -1.1462
 2712SOL     OW19594   4.155   2.924   2.029  0.0623  0.2969  0.2742
 2712SOL    HW119595   4.225   2.896   1.970 -0.2847  0.8706 -0.4088
 2712SOL    HW219596   4.118   2.991   1.972 -0.8568 -1.1867 -0.8698
 2713SOL     OW19597   2.152   2.701   2.539  0.5853 -0.0132  0.2912
 2713SOL    HW119598   2.191   2.708   2.626  3.1148  0.6726 -0.8739
 2713SOL    HW219599   2.149   2.606   2.530 -2.2831  0.2837 -1.9441
 2714SOL     OW19600   0.404   1.351   2.311  0.6322 -0.1446 -0.5366
 2714SOL    HW119601   0.357   1.434   2.304  0.4581 -0.3523 -1.8785
 2714SOL    HW219602   0.385   1.315   2.398  0.9342 -2.6151 -1.4917
 2715SOL     OW19603   1.110   2.948   4.909 -0.3239 -0.1704 -0.1641
 2715SOL    HW119604   1.108   2.968   5.002 -0.3659  0.1674 -0.2373
 2715SOL    HW219605   1.068   2.862   4.915  0.3410 -0.4568  0.3925
 2716SOL     OW19606   2.862   3.259   6.227 -0.3212  0.3474 -0.3460
 2716SOL    HW119607   2.956   3.274   6.233 -0.1720 -2.0218  2.8660
 2716SOL    HW219608   2.820   3.336   6.264  0.9623  1.4593 -1.2016
 2717SOL     OW19609   2.921   0.962  14.875 -0.1475  0.5074 -0.2202
 2717SOL    HW119610   2.939   0.895  14.941 -4.2336 -1.7768 -1.3881
 2717SOL    HW219611   2.827   0.973  14.887 -0.0913  1.8348 -1.0328
 2718SOL     OW19612   4.067   1.754   8.621 -0.2477 -0.0096 -0.1138
 2718SOL    HW119613   3.986   1.715   8.589  0.2962 -0.4019 -1.0347
 2718SOL    HW219614   4.028   1.809   8.688 -0.5650 -0.9688  0.4808
 2719SOL     OW19615   3.320   4.336   2.085  0.1506 -0.2438  0.2977
 2719SOL    HW119616   3.409   4.335   2.121  0.2264  0.1370  0.1149
 2719SOL    HW219617   3.332   4.377   2.000 -1.4823  0.1142  0.2294
 2720SOL     OW19618   1.055   3.345   5.202  0.2291  0.1092 -0.5739
 2720SOL    HW119619   0.969   3.314   5.175  0.3047  0.9491 -1.7750
 2720SOL    HW219620   1.033   3.404   5.274  0.5889  0.1504 -0.4959
 2721SOL     OW19621   2.150   3.146  14.908 -0.0950 -0.2927 -0.2059
 2721SOL    HW119622   2.149   3.093  14.828 -1.0272  0.9597 -1.0323
 2721SOL    HW219623   2.084   3.104  14.963 -1.3252  2.2285  0.2571
 2722SOL     OW19624   3.500   1.154   5.671 -0.6219 -0.5906 -0.2445
 2722SOL    HW119625   3.462   1.229   5.625  1.1702  0.6059  0.2154
 2722SOL    HW219626   3.455   1.082   5.626 -0.0113 -0.7892 -0.5304
 2723SOL     OW19627   1.711   0.645   9.300  0.3250 -1.0267  0.2270
 2723SOL    HW119628   1.767   0.577   9.261 -0.4400  0.1589 -2.9221
 2723SOL    HW219629   1.776   0.714   9.289 -0.7518 -0.0453  0.0543
 2724SOL     OW19630   2.457   4.455   7.965 -0.0144 -0.5403  0.5547
 2724SOL    HW119631   2.390   4.510   7.923  1.4205  0.1834 -0.7904
 2724SOL    HW219632   2.460   4.491   8.053  3.5945  1.4436 -0.3783
 2725SOL     OW19633   1.559   1.212   8.323 -0.1676 -0.1606 -0.2916
 2725SOL    HW119634   1.599   1.185   8.406  1.3027  2.8491 -0.0563
 2725SOL    HW219635   1.558   1.128   8.277 -0.8295 -1.1623  1.5426
 2726SOL     OW19636   0.189   3.851  11.007  0.9342 -0.9343 -0.1930
 2726SOL    HW119637   0.251   3.858  10.935 -0.2245  0.7209 -1.0301
 2726SOL    HW219638   0.118   3.817  10.952  0.2147 -0.0096  0.1686
 2727SOL     OW19639   3.709   3.929  15.884  0.3316 -0.3373  0.1445
 2727SOL    HW119640   3.698   3.910  15.791  1.9661 -1.3278  0.1529
 2727SOL    HW219641   3.699   4.023  15.897 -1.3610 -0.3982 -0.6279
 2728SOL     OW19642   3.613   1.289   8.037 -0.3517 -0.4336 -0.1499
 2728SOL    HW119643   3.689   1.278   8.094 -0.3488  2.8362  0.4881
 2728SOL    HW219644   3.643   1.296   7.946  3.0681 -0.7066  0.9781
 2729SOL     OW19645   0.406   4.061   0.932 -0.1996  0.3382  0.2837
 2729SOL    HW119646   0.446   4.118   0.865  0.4395  0.0696  0.4325
 2729SOL    HW219647   0.476   3.998   0.950 -2.5187 -2.0103  1.0201
 2730SOL     OW19648   3.246   2.551   3.221 -0.0386 -0.2222 -0.4604
 2730SOL    HW119649   3.319   2.593   3.175 -0.4146 -0.6868 -1.4860
 2730SOL    HW219650   3.288   2.498   3.289 -0.2150  0.9376  0.5497
 2731SOL     OW19651   3.775   1.782   4.217  0.3178  0.5360  0.1869
 2731SOL    HW119652   3.819   1.841   4.278 -1.3339  0.2755  1.6350
 2731SOL    HW219653   3.846   1.754   4.160  1.1150  4.0388 -0.5621
 2732SOL     OW19654   1.381   1.480   3.133  0.0174 -0.1317 -0.5894
 2732SOL    HW119655   1.356   1.403   3.081 -0.7713  0.2906 -0.8429
 2732SOL    HW219656   1.397   1.541   3.061  0.7932  1.6235  1.0817
 2733SOL     OW19657   0.033   2.975   1.593 -0.3694 -0.5360  0.0842
 2733SOL    HW119658   4.710   2.919   1.655  0.8843  0.5926  2.0679
 2733SOL    HW219659   4.718   3.063   1.595 -1.0826 -0.8073 -2.0598
 2734SOL     OW19660   1.450   1.695   3.366  0.4661  0.2224  0.3182
 2734SOL    HW119661   1.366   1.730   3.338  1.0998  0.6147 -1.0897
 2734SOL    HW219662   1.422   1.606   3.345 -0.3523  0.6143 -0.2354
 2735SOL     OW19663   0.483   2.209  16.289  0.4800 -0.4705 -0.3565
 2735SOL    HW119664   0.427   2.164  16.352  4.0865 -0.4149  2.8800
 2735SOL    HW219665   0.455   2.300  16.290 -0.9147 -0.9119  0.6804
 2736SOL     OW19666   0.451   3.263   2.419  0.3255  0.1142  0.1416
 2736SOL    HW119667   0.493   3.271   2.505  0.0243 -0.5650  0.3483
 2736SOL    HW219668   0.378   3.206   2.445  1.8894 -2.9080 -2.1227
 2737SOL     OW19669   4.644   4.098   5.287  0.0387  0.6725  0.1013
 2737SOL    HW119670   4.616   4.125   5.375  0.3477  0.3096  0.3121
 2737SOL    HW219671   4.712   4.036   5.312 -0.5545 -1.2300 -3.0765
 2738SOL     OW19672   3.474   4.341   8.635  0.4965  0.1557 -0.0031
 2738SOL    HW119673   3.381   4.328   8.652  0.7965 -1.4261  0.5098
 2738SOL    HW219674   3.488   4.266   8.576  0.7537 -0.3395  0.6837
 2739SOL     OW19675   3.834   1.746   1.480  0.6708 -0.3323 -0.7794
 2739SOL    HW119676   3.799   1.805   1.414  1.4217  0.3653 -0.5543
 2739SOL    HW219677   3.764   1.681   1.489  0.5330 -0.2293 -1.1301
 2740SOL     OW19678   1.268   1.525  16.814 -0.4334  0.2142  0.7014
 2740SOL    HW119679   1.202   1.554  16.751  0.1676  2.4679  1.0823
 2740SOL    HW219680   1.263   1.606  16.865  1.0372  0.5833  0.2662
 2741SOL     OW19681   3.078   2.284   3.983 -0.3179 -0.2637 -0.6558
 2741SOL    HW119682   3.044   2.255   3.898 -1.0993 -0.7237 -0.1955
 2741SOL    HW219683   3.172   2.292   3.970 -0.1590  1.4172  1.5786
 2742SOL     OW19684   2.880   2.851  14.693  0.7227  0.1708 -0.5655
 2742SOL    HW119685   2.871   2.928  14.636 -1.6215 -0.1728 -0.6827
 2742SOL    HW219686   2.828   2.789  14.641  1.6272 -2.6076  1.8819
 2743SOL     OW19687   1.148   2.785   6.257 -0.2525 -0.3354  0.2942
 2743SOL    HW119688   1.189   2.835   6.328 -0.4266  2.4889 -1.5981
 2743SOL    HW219689   1.062   2.826   6.247  0.9701  2.0110 -0.5246
 2744SOL     OW19690   0.476   2.625   8.155  0.5807 -0.0113 -0.4819
 2744SOL    HW119691   0.441   2.542   8.186  1.8355 -0.4482 -0.2756
 2744SOL    HW219692   0.557   2.594   8.114 -0.2747 -1.5644 -0.9985
 2745SOL     OW19693   4.655   0.876  14.495  0.2317  0.2399  0.1552
 2745SOL    HW119694   4.609   0.825  14.429 -2.3017  0.4212  1.7955
 2745SOL    HW219695   4.709   0.821  14.552  0.1958 -0.7058 -0.7335
 2746SOL     OW19696   2.088   2.225   8.883 -0.4829  0.0197 -0.1516
 2746SOL    HW119697   2.045   2.270   8.956 -2.8581  0.8624 -2.0772
 2746SOL    HW219698   2.120   2.295   8.827 -0.2239  1.1424  1.4056
 2747SOL     OW19699   3.550   1.028   3.073 -0.5410 -0.0090 -0.1366
 2747SOL    HW119700   3.575   0.967   3.142 -0.4991  0.3598  0.1729
 2747SOL    HW219701   3.631   1.055   3.029  1.2857 -2.2924  1.8680
 2748SOL     OW19702   3.042   2.185  10.568 -0.7683 -0.3036 -0.3986
 2748SOL    HW119703   3.018   2.115  10.628 -0.6869 -2.0520 -2.4294
 2748SOL    HW219704   3.074   2.136  10.493 -1.1209 -1.6815  0.3506
 2749SOL     OW19705   1.580   2.954  14.595 -0.5532  0.0154 -0.5149
 2749SOL    HW119706   1.494   2.917  14.617 -0.9460 -0.0780 -2.2054
 2749SOL    HW219707   1.636   2.877  14.580  2.4666  2.5463 -2.1170
 2750SOL     OW19708   4.673   1.372   0.454 -0.9040  0.1296  0.5189
 2750SOL    HW119709   0.039   1.400   0.438 -0.6444 -1.6890 -1.1257
 2750SOL    HW219710   4.688   1.278   0.455  0.9644  0.3898 -2.9658
 2751SOL     OW19711   4.219   3.817   8.692  0.7105  0.4147  0.5567
 2751SOL    HW119712   4.293   3.876   8.704 -0.3378  1.6966  0.6293
 2751SOL    HW219713   4.215   3.826   8.596 -0.7593  1.9666  0.7677
 2752SOL     OW19714   4.346   1.650  16.050  0.5764 -0.4489  0.1063
 2752SOL    HW119715   4.418   1.711  16.063  1.8172 -1.4371 -2.0871
 2752SOL    HW219716   4.259   1.688  16.037  1.1418  1.2592  1.3570
 2753SOL     OW19717   2.315   3.059   6.836 -0.8428  0.1996 -0.3851
 2753SOL    HW119718   2.396   3.110   6.835  0.4927 -1.8246  2.8194
 2753SOL    HW219719   2.259   3.103   6.900  2.0126  0.4258  1.9457
 2754SOL     OW19720   2.543   1.661   5.410 -0.2448 -0.2502  0.1672
 2754SOL    HW119721   2.527   1.738   5.464 -1.3330  0.0213 -0.5432
 2754SOL    HW219722   2.494   1.599   5.464 -0.8854 -0.2901 -0.4571
 2755SOL     OW19723   3.852   4.116   8.182  0.5225 -0.6762 -0.4002
 2755SOL    HW119724   3.877   4.108   8.089 -3.4423  2.6436 -1.7426
 2755SOL    HW219725   3.933   4.143   8.225 -0.2071  1.0249 -0.1286
 2756SOL     OW19726   2.392   2.551   5.946 -0.1431  0.2015 -0.3869
 2756SOL    HW119727   2.477   2.593   5.959  0.4591 -0.5360 -1.9549
 2756SOL    HW219728   2.412   2.469   5.902 -0.9866  0.8922 -2.0295
 2757SOL     OW19729   4.252   0.024   1.762  0.0837 -0.1522 -0.5548
 2757SOL    HW119730   4.205   4.710   1.688  1.1098 -0.6015 -0.9809
 2757SOL    HW219731   4.171   0.052   1.805  1.4017 -0.4948  2.1701
 2758SOL     OW19732   3.254   1.362   5.168  0.0535 -0.6207 -1.1167
 2758SOL    HW119733   3.245   1.392   5.078  2.2681  1.3441 -0.6603
 2758SOL    HW219734   3.347   1.367   5.188 -0.4899 -2.5886  1.9493
 2759SOL     OW19735   1.449   3.780   6.229  0.4495 -0.0935 -0.0847
 2759SOL    HW119736   1.456   3.725   6.306  0.0804  1.2747  0.9254
 2759SOL    HW219737   1.368   3.742   6.194  0.5068  0.7564 -1.1215
 2760SOL     OW19738   1.041   0.209   2.668  0.2118 -0.2361 -0.2854
 2760SOL    HW119739   0.950   0.228   2.647  0.0360 -1.6565 -0.7893
 2760SOL    HW219740   1.086   0.255   2.597 -0.8293  0.0127 -0.7797
 2761SOL     OW19741   2.159   0.500   8.665  0.4582  0.1404  0.1499
 2761SOL    HW119742   2.195   0.585   8.690 -0.6621  0.5911  0.2304
 2761SOL    HW219743   2.198   0.495   8.577  0.8267  1.2484  0.2579
 2762SOL     OW19744   3.670   3.912   4.540 -0.5613 -0.0553 -0.0358
 2762SOL    HW119745   3.723   3.838   4.567 -1.0412  0.1770  1.5650
 2762SOL    HW219746   3.591   3.900   4.593 -0.2100 -1.0443  0.2566
 2763SOL     OW19747   3.041   4.122   4.068  0.5611 -0.0817 -0.1679
 2763SOL    HW119748   3.056   4.041   4.019 -0.4116 -1.1952  1.3804
 2763SOL    HW219749   3.003   4.087   4.148  2.9437 -3.3883 -0.4611
 2764SOL     OW19750   0.269   1.835   0.501  0.3779 -0.0656  0.2382
 2764SOL    HW119751   0.276   1.770   0.571  1.4921  0.9230  1.0682
 2764SOL    HW219752   0.280   1.777   0.426  1.8129 -0.0305  0.4041
 2765SOL     OW19753   3.243   2.230  13.032  0.4533  0.3999  0.0267
 2765SOL    HW119754   3.170   2.292  13.026 -0.7497 -1.0374 -0.2657
 2765SOL    HW219755   3.220   2.178  13.109 -2.3909  2.0762  0.2932
 2766SOL     OW19756   0.083   1.769   4.197  0.3799 -0.7557  0.1971
 2766SOL    HW119757   0.070   1.784   4.290 -1.3781  0.6301 -0.2907
 2766SOL    HW219758   0.009   1.820   4.165 -0.1371 -1.4234  0.3249
 2767SOL     OW19759   1.625   3.914  15.877  0.5893  0.2974 -0.1716
 2767SOL    HW119760   1.590   3.853  15.812 -1.8528 -0.0362  1.4511
 2767SOL    HW219761   1.565   3.889  15.947  1.2869 -0.3096  0.2061
 2768SOL     OW19762   1.377   1.470  13.632  0.3344 -0.1939 -0.5220
 2768SOL    HW119763   1.444   1.451  13.566  0.4478  1.1701 -0.8040
 2768SOL    HW219764   1.374   1.386  13.679 -2.5724  0.5899  0.6656
 2769SOL     OW19765   2.849   1.227   4.019  0.2967  0.2593 -0.5358
 2769SOL    HW119766   2.873   1.163   4.085 -0.2819  1.5002  0.8737
 2769SOL    HW219767   2.848   1.307   4.072  0.4553  0.4582 -0.8341
 2770SOL     OW19768   4.337   0.184   7.170 -0.0972 -0.2742  0.0925
 2770SOL    HW119769   4.346   0.164   7.263 -2.1568  1.0341  0.5730
 2770SOL    HW219770   4.394   0.259   7.156 -1.2871  0.5058 -0.5430
 2771SOL     OW19771   3.839   3.460   2.526 -0.2817 -0.4364 -0.0141
 2771SOL    HW119772   3.835   3.382   2.582 -2.3623  0.4402  1.0382
 2771SOL    HW219773   3.857   3.534   2.584 -3.4487 -1.8310  2.7370
 2772SOL     OW19774   2.550   4.247   5.225  0.5530  0.0872 -0.0331
 2772SOL    HW119775   2.575   4.214   5.311 -0.2547  0.0702  0.1875
 2772SOL    HW219776   2.624   4.219   5.170  0.0568 -0.0216 -0.6518
 2773SOL     OW19777   4.271   0.700   8.054  0.3510 -0.1942 -0.2447
 2773SOL    HW119778   4.299   0.735   7.970 -0.1806  0.3987 -0.1721
 2773SOL    HW219779   4.251   0.778   8.106 -2.8487  0.5536 -2.6472
 2774SOL     OW19780   1.980   3.342   4.756 -0.0846 -0.9332 -0.6144
 2774SOL    HW119781   2.018   3.256   4.740  1.7772  0.2126 -2.3129
 2774SOL    HW219782   1.999   3.378   4.669  0.0276  1.4354  0.4126
 2775SOL     OW19783   2.922   3.611   2.795 -0.7408 -0.0196  0.3758
 2775SOL    HW119784   2.997   3.566   2.835 -1.9979 -3.0261 -0.5949
 2775SOL    HW219785   2.892   3.659   2.872  3.9956  0.8450  1.7039
 2776SOL     OW19786   1.509   4.054   2.305 -0.2503  0.1746  0.3645
 2776SOL    HW119787   1.538   4.144   2.322  0.8811  0.0892 -1.1271
 2776SOL    HW219788   1.458   4.033   2.383 -0.0629 -1.0012  0.1628
 2777SOL     OW19789   2.609   4.562   2.239  0.2619  0.3959  0.3105
 2777SOL    HW119790   2.643   4.527   2.157  1.0057  2.2663 -0.1831
 2777SOL    HW219791   2.612   4.479   2.288 -1.3185  0.2863  0.2100
 2778SOL     OW19792   1.812   2.370  15.611 -0.3086  0.3529  0.0044
 2778SOL    HW119793   1.727   2.411  15.595 -0.6947 -0.4671 -0.0608
 2778SOL    HW219794   1.791   2.331  15.696  0.3046 -0.1226 -0.0665
 2779SOL     OW19795   3.186   0.637  11.962 -0.0545 -0.8565 -0.1590
 2779SOL    HW119796   3.227   0.708  12.011  1.1308 -0.5446 -1.6336
 2779SOL    HW219797   3.099   0.671  11.939 -0.4570 -0.1059  2.3716
 2780SOL     OW19798   3.657   3.220   1.990  0.1427 -0.3709 -0.0314
 2780SOL    HW119799   3.584   3.277   1.968 -0.9789 -0.8064  2.5943
 2780SOL    HW219800   3.724   3.288   1.998 -1.0009  0.5999  1.5402
 2781SOL     OW19801   0.949   0.014   1.846 -0.1153 -0.2615 -0.3479
 2781SOL    HW119802   0.858   0.012   1.876 -0.3893 -0.5093 -1.1831
 2781SOL    HW219803   0.997   0.011   1.929 -1.6229  0.1041  0.5286
 2782SOL     OW19804   3.865   4.374   4.825  0.0114  0.1580 -0.5168
 2782SOL    HW119805   3.803   4.409   4.890  0.8163 -0.4835  0.5934
 2782SOL    HW219806   3.935   4.344   4.883 -0.6916 -1.5433 -0.5606
 2783SOL     OW19807   3.522   3.421   3.847  0.3638  0.1015  0.6503
 2783SOL    HW119808   3.538   3.349   3.908  0.0293 -1.1431 -0.7282
 2783SOL    HW219809   3.540   3.373   3.766 -2.2200  0.3612 -0.0736
 2784SOL     OW19810   3.897   3.903   0.145  0.4492 -0.1678 -0.4977
 2784SOL    HW119811   3.840   3.928   0.218 -0.9322  2.7480 -2.5520
 2784SOL    HW219812   3.962   3.859   0.200 -1.8813 -1.8289  0.9698
 2785SOL     OW19813   4.721   0.843  15.656  0.0890 -0.1591 -0.0878
 2785SOL    HW119814   0.018   0.927  15.617  4.0036  0.0595  2.5540
 2785SOL    HW219815   0.085   0.811  15.669 -0.6097 -1.3036  1.8917
 2786SOL     OW19816   0.466   4.590   7.616 -0.3198  0.0845 -0.8770
 2786SOL    HW119817   0.390   4.609   7.562 -1.4134  1.7567  1.2445
 2786SOL    HW219818   0.494   4.680   7.634  1.1627 -0.5250 -0.0685
 2787SOL     OW19819   0.663   1.380   4.159 -0.3532 -0.4327  0.1343
 2787SOL    HW119820   0.696   1.445   4.096 -1.5849 -1.2556 -1.3821
 2787SOL    HW219821   0.671   1.300   4.108 -0.0001  3.1573 -5.5538
 2788SOL     OW19822   2.174   2.454  10.468  0.7869 -0.0177 -0.3334
 2788SOL    HW119823   2.148   2.409  10.548  0.0700  0.5203 -0.2646
 2788SOL    HW219824   2.093   2.501  10.449  0.7882  0.8055  1.7594
 2789SOL     OW19825   2.617   4.327   6.507  0.5549  0.0495  0.5935
 2789SOL    HW119826   2.558   4.359   6.576  0.2663 -0.8025  0.7477
 2789SOL    HW219827   2.583   4.241   6.483 -1.4098  1.1767 -0.6626
 2790SOL     OW19828   3.057   1.248   6.034 -0.5570 -0.0347  0.4432
 2790SOL    HW119829   3.112   1.295   6.096 -1.3512 -1.6370  2.3611
 2790SOL    HW219830   3.104   1.187   5.977 -2.6915 -1.2456 -0.0400
 2791SOL     OW19831   1.137   4.413   3.318 -0.4141  0.3730 -0.2644
 2791SOL    HW119832   1.142   4.504   3.345 -0.0646  0.3185 -0.1461
 2791SOL    HW219833   1.206   4.377   3.374 -0.9444  0.5673  0.5248
 2792SOL     OW19834   0.731   4.453   8.786  0.8406 -0.1858 -0.5769
 2792SOL    HW119835   0.695   4.368   8.810 -0.0028  0.0357 -1.0199
 2792SOL    HW219836   0.765   4.474   8.873  0.3043 -1.3794 -0.0852
 2793SOL     OW19837   1.434   2.322   3.266  0.1127 -0.3939  0.3685
 2793SOL    HW119838   1.516   2.294   3.224  0.2401 -1.0961  1.0946
 2793SOL    HW219839   1.445   2.285   3.353 -2.4374 -1.2958  0.2965
 2794SOL     OW19840   0.793   0.542  13.566 -0.1384 -0.0263  0.3493
 2794SOL    HW119841   0.843   0.595  13.504 -1.8029 -0.4918 -1.3721
 2794SOL    HW219842   0.714   0.541  13.513 -0.6503 -1.9805  1.1598
 2795SOL     OW19843   2.554   3.112  12.102 -0.0327 -0.1056 -0.3237
 2795SOL    HW119844   2.628   3.062  12.069  0.4074  0.6901 -0.5548
 2795SOL    HW219845   2.601   3.188  12.136  0.1661 -0.4042  0.0612
 2796SOL     OW19846   2.315   2.682   0.694 -0.4034 -0.2181  0.2768
 2796SOL    HW119847   2.321   2.681   0.789 -1.9511  0.1028  0.3691
 2796SOL    HW219848   2.288   2.592   0.674  2.9549 -1.0858 -0.4637
 2797SOL     OW19849   0.184   2.098   7.972  0.8798  0.1407  0.2966
 2797SOL    HW119850   0.129   2.163   8.015  1.4788  1.0499 -0.3170
 2797SOL    HW219851   0.183   2.026   8.036  1.4752  0.8753  1.1391
 2798SOL     OW19852   4.592   1.727   5.336  0.1135 -0.0993 -0.7784
 2798SOL    HW119853   4.516   1.703   5.389 -1.0437  0.3184 -2.2676
 2798SOL    HW219854   4.643   1.768   5.406 -0.6845  2.5582 -1.7640
 2799SOL     OW19855   0.330   2.919   6.711  0.3334 -0.4926 -0.0600
 2799SOL    HW119856   0.308   2.902   6.802 -2.2297  2.7759 -0.0971
 2799SOL    HW219857   0.255   2.974   6.690  0.5846 -1.3188 -3.0809
 2800SOL     OW19858   3.073   2.113   1.009  0.4898 -0.6853  0.1941
 2800SOL    HW119859   3.003   2.144   0.953  0.8659 -1.6792 -0.8177
 2800SOL    HW219860   3.064   2.170   1.086 -2.0978  2.0005 -2.0991
 2801SOL     OW19861   2.878   0.728   7.332 -0.2748 -0.1148  0.3195
 2801SOL    HW119862   2.849   0.817   7.352  0.1837 -0.0172  0.5505
 2801SOL    HW219863   2.973   0.737   7.347 -0.1481  2.1541 -1.9019
 2802SOL     OW19864   4.269   1.914   9.092 -0.0963  0.1639  0.5060
 2802SOL    HW119865   4.352   1.960   9.083  0.7838 -1.6929 -0.9505
 2802SOL    HW219866   4.210   1.981   9.126  2.8409  3.0131  0.0239
 2803SOL     OW19867   4.376   1.241   2.477  0.2998 -0.0426 -0.2106
 2803SOL    HW119868   4.420   1.157   2.488  0.4114 -0.2260 -1.9801
 2803SOL    HW219869   4.309   1.225   2.410 -0.7948 -1.1010  1.1286
 2804SOL     OW19870   3.664   4.438  13.918 -0.1059  0.0447 -0.2497
 2804SOL    HW119871   3.744   4.400  13.954 -0.0534  0.6482  0.2720
 2804SOL    HW219872   3.672   4.533  13.925  0.7793 -0.0182 -0.4248
 2805SOL     OW19873   1.695   3.054  14.829  0.3346 -0.1399  0.1686
 2805SOL    HW119874   1.702   2.967  14.868  0.9078 -0.1430  0.0585
 2805SOL    HW219875   1.652   3.039  14.745 -2.2777  0.9834  1.2918
 2806SOL     OW19876   2.541   0.360   2.824  0.0997  0.1633 -0.3933
 2806SOL    HW119877   2.514   0.406   2.744 -0.1296  0.7752  0.0364
 2806SOL    HW219878   2.569   0.278   2.784  0.2795  0.0473 -0.0226
 2807SOL     OW19879   1.717   3.993   8.356 -0.0742  0.1104  0.1198
 2807SOL    HW119880   1.664   3.960   8.429 -1.6851 -0.0678 -1.1145
 2807SOL    HW219881   1.806   3.971   8.384  1.2876  0.9847 -3.4376
 2808SOL     OW19882   2.572   0.136  16.535 -0.6231  0.3586 -0.1033
 2808SOL    HW119883   2.572   0.209  16.474 -0.3446 -0.0402 -0.5779
 2808SOL    HW219884   2.513   0.165  16.605  0.2440  2.5894 -0.2923
 2809SOL     OW19885   3.498   4.043   9.871  0.6280 -0.2947 -0.2801
 2809SOL    HW119886   3.441   3.973   9.904 -0.0851  0.0969 -0.6775
 2809SOL    HW219887   3.569   4.056   9.934 -1.7835  2.9042  1.7997
 2810SOL     OW19888   2.065   2.914   5.610 -0.1640  0.3877  0.4163
 2810SOL    HW119889   2.022   2.870   5.684  0.8447 -2.2119 -0.5533
 2810SOL    HW219890   2.014   2.995   5.614 -0.3010  0.3278 -0.1943
 2811SOL     OW19891   3.053   0.370   0.478  0.1879  0.1730 -0.0707
 2811SOL    HW119892   3.108   0.356   0.555  3.0502 -1.9142 -2.4704
 2811SOL    HW219893   3.079   0.296   0.423 -0.4977  0.7412 -1.1562
 2812SOL     OW19894   1.591   1.237   8.744  0.6981 -0.0116  0.4622
 2812SOL    HW119895   1.544   1.315   8.775 -0.5115 -0.1074 -1.1590
 2812SOL    HW219896   1.655   1.221   8.813  0.0576 -0.9281  0.8407
 2813SOL     OW19897   0.841   3.600  14.514  0.1542 -0.8536  0.3438
 2813SOL    HW119898   0.810   3.660  14.446 -1.0515 -1.0651  0.7104
 2813SOL    HW219899   0.934   3.595  14.488  0.5706  1.9049  1.3775
 2814SOL     OW19900   1.819   0.214   4.610  0.1787 -0.1064 -0.3976
 2814SOL    HW119901   1.831   0.309   4.609  0.0424 -0.0660  1.3112
 2814SOL    HW219902   1.746   0.212   4.672  0.1305  1.0939 -0.4244
 2815SOL     OW19903   2.950   1.396   8.415 -0.2021 -0.2633 -0.4855
 2815SOL    HW119904   3.026   1.418   8.469 -0.8961  0.0246  0.3568
 2815SOL    HW219905   2.882   1.449   8.455 -0.3341 -0.6788 -0.1602
 2816SOL     OW19906   2.373   0.916  17.599  0.0267  0.0427  0.5263
 2816SOL    HW119907   2.365   0.993  17.655 -1.1469 -0.0971  0.5477
 2816SOL    HW219908   2.357   0.960  17.515  1.4422  0.6862  0.5874
 2817SOL     OW19909   3.223   4.371  10.846 -0.2759  0.2715 -0.5992
 2817SOL    HW119910   3.276   4.332  10.777 -0.4337  0.3910 -0.7872
 2817SOL    HW219911   3.185   4.291  10.883 -0.0458  0.1743 -0.5750
 2818SOL     OW19912   2.638   3.031   9.317 -0.0747 -0.2025 -0.3367
 2818SOL    HW119913   2.725   3.023   9.277 -0.1048 -2.0211 -0.0360
 2818SOL    HW219914   2.588   3.048   9.237 -0.3875 -2.3834 -0.5897
 2819SOL     OW19915   1.352   0.023   5.873 -0.6740  0.1393 -0.2997
 2819SOL    HW119916   1.282   4.703   5.827 -1.4051 -1.5455  2.4500
 2819SOL    HW219917   1.302   0.085   5.926 -0.5885 -0.2732  0.2715
 2820SOL     OW19918   4.354   3.894   8.971 -0.1908 -0.8917 -0.8747
 2820SOL    HW119919   4.312   3.973   9.004  0.5742 -0.9607  0.3050
 2820SOL    HW219920   4.365   3.908   8.877 -1.6955 -0.9475 -1.0561
 2821SOL     OW19921   4.317   2.349   2.066  0.1582 -0.1717 -0.3533
 2821SOL    HW119922   4.301   2.391   2.150  0.8878  0.0611 -0.3326
 2821SOL    HW219923   4.349   2.263   2.093  1.3152  1.0117  1.9907
 2822SOL     OW19924   4.131   3.840  16.822 -0.1827  0.2983 -0.3503
 2822SOL    HW119925   4.064   3.846  16.890  0.1771 -0.2288  0.0577
 2822SOL    HW219926   4.209   3.818  16.874 -2.7719 -4.6398  1.4315
 2823SOL     OW19927   3.116   0.738   3.674 -0.0877  0.0323  0.1423
 2823SOL    HW119928   3.171   0.805   3.715  1.4385 -0.9440 -0.3089
 2823SOL    HW219929   3.130   0.665   3.735  0.2645  1.7773  2.1690
 2824SOL     OW19930   4.335   3.652   7.689  0.3311  0.2488 -0.4430
 2824SOL    HW119931   4.252   3.696   7.704 -1.1423 -2.7418  0.1480
 2824SOL    HW219932   4.331   3.576   7.748  0.2331 -0.7734 -1.7613
 2825SOL     OW19933   1.609   1.574   3.985 -0.2537  0.6829  0.4545
 2825SOL    HW119934   1.665   1.539   4.054  0.7932  1.2017 -0.1227
 2825SOL    HW219935   1.608   1.503   3.921  2.0806  1.3044 -0.2776
 2826SOL     OW19936   4.463   3.836   5.990 -0.1676 -0.0153  0.2370
 2826SOL    HW119937   4.457   3.924   6.027  0.2442  0.0150  0.2264
 2826SOL    HW219938   4.555   3.813   6.003 -0.5948 -0.9069  1.7035
 2827SOL     OW19939   0.324   0.145   3.913  0.0864 -0.3398 -0.6046
 2827SOL    HW119940   0.384   0.080   3.949  0.8196 -0.6653 -2.3972
 2827SOL    HW219941   0.310   0.212   3.980  0.2487 -0.8605 -0.0531
 2828SOL     OW19942   0.748   1.699   4.546 -0.5078 -0.1176 -0.1431
 2828SOL    HW119943   0.822   1.668   4.598 -0.1614 -0.7931 -1.0237
 2828SOL    HW219944   0.769   1.668   4.458 -2.8689 -0.7772 -0.4713
 2829SOL     OW19945   2.675   1.153  16.017  0.0522 -0.3039  0.3671
 2829SOL    HW119946   2.712   1.239  15.994 -0.4891 -0.1098  0.2363
 2829SOL    HW219947   2.659   1.128  15.926  0.4351  2.3366 -0.4366
 2830SOL     OW19948   1.769   3.964   4.714  0.2785  0.1489  0.9784
 2830SOL    HW119949   1.740   4.049   4.747 -0.5775  0.4701 -0.5617
 2830SOL    HW219950   1.696   3.906   4.734  0.9256 -0.7604  0.7180
 2831SOL     OW19951   2.045   1.688   5.362  0.7108 -0.2097  0.1113
 2831SOL    HW119952   2.103   1.763   5.378 -0.4502  0.8117 -0.4703
 2831SOL    HW219953   1.960   1.731   5.359  0.5192 -0.6733 -1.0033
 2832SOL     OW19954   1.766   3.420  17.427  0.2999 -0.9145 -0.3272
 2832SOL    HW119955   1.700   3.352  17.409 -1.9971  1.5198 -1.0616
 2832SOL    HW219956   1.828   3.371  17.481  1.1280 -1.4137 -1.7291
 2833SOL     OW19957   2.790   0.170   3.512 -0.3526 -0.5659  0.2786
 2833SOL    HW119958   2.722   0.149   3.577 -2.9733 -0.2927 -2.3658
 2833SOL    HW219959   2.869   0.143   3.558 -0.2727  0.9817  1.0813
 2834SOL     OW19960   2.145   0.114  11.411 -0.1222 -0.2462 -0.1317
 2834SOL    HW119961   2.172   0.028  11.378 -0.3108 -0.0279 -0.8536
 2834SOL    HW219962   2.053   0.107  11.436 -0.2403  0.4126 -0.3741
 2835SOL     OW19963   2.274   2.734   4.450  0.2534  0.6117  0.2863
 2835SOL    HW119964   2.300   2.746   4.541 -0.1227  2.1158  0.1978
 2835SOL    HW219965   2.206   2.668   4.458  0.6412  0.0648 -0.8824
 2836SOL     OW19966   3.889   1.841   5.201  0.2562 -0.1753  0.4174
 2836SOL    HW119967   3.807   1.888   5.219  0.6084 -0.0198  1.6308
 2836SOL    HW219968   3.953   1.909   5.221 -0.6199  1.0450 -0.9711
 2837SOL     OW19969   1.515   1.065   2.819 -0.8808 -0.0311 -0.0626
 2837SOL    HW119970   1.608   1.078   2.836 -1.0796 -0.3161  1.2659
 2837SOL    HW219971   1.486   0.992   2.874 -0.5312 -0.2792 -0.2091
 2838SOL     OW19972   2.262   1.298   5.551 -0.3710 -0.3379 -0.0948
 2838SOL    HW119973   2.201   1.253   5.609  1.9352 -0.2724  2.3817
 2838SOL    HW219974   2.212   1.301   5.469 -0.3516 -1.6242 -0.1507
 2839SOL     OW19975   1.816   4.270   3.209 -0.4549 -0.6196  0.5574
 2839SOL    HW119976   1.737   4.228   3.244 -0.3443 -2.6369 -1.5664
 2839SOL    HW219977   1.878   4.254   3.280  0.8472  0.2215 -0.3839
 2840SOL     OW19978   3.127   4.719   4.470  0.1484  0.0024  0.1078
 2840SOL    HW119979   3.144   4.625   4.462 -1.8926 -0.3376 -0.3581
 2840SOL    HW219980   3.164   0.030   4.390 -0.6283 -0.6891 -0.5549
 2841SOL     OW19981   1.390   4.499  17.247  0.3309 -0.2927 -0.2260
 2841SOL    HW119982   1.439   4.575  17.214 -0.2176  0.3948  0.5337
 2841SOL    HW219983   1.345   4.535  17.324  2.1493 -1.3842  1.3500
 2842SOL     OW19984   3.110   3.869  10.787  0.3459 -0.5161  0.1379
 2842SOL    HW119985   3.146   3.806  10.849 -1.8809 -0.3286  1.6546
 2842SOL    HW219986   3.107   3.814  10.708  0.0217  1.2470 -1.0912
 2843SOL     OW19987   4.149   3.571   1.994  0.2255  0.1170 -0.3377
 2843SOL    HW119988   4.145   3.662   1.965  0.3011  0.8665  1.9464
 2843SOL    HW219989   4.217   3.575   2.061 -0.0577  0.3693 -0.0635
 2844SOL     OW19990   1.346   0.560   6.470 -0.3526  0.1539  0.0787
 2844SOL    HW119991   1.306   0.494   6.414  0.4453 -0.1780 -0.0936
 2844SOL    HW219992   1.399   0.616   6.413  0.2282 -1.8768 -1.3488
 2845SOL     OW19993   1.384   0.683  12.909 -0.5665  0.8738 -0.1674
 2845SOL    HW119994   1.429   0.708  12.989  4.0891 -0.9481 -2.2059
 2845SOL    HW219995   1.356   0.598  12.944  2.6882 -0.5570 -1.0022
 2846SOL     OW19996   0.860   2.974   8.420 -0.1101  0.0673 -0.0466
 2846SOL    HW119997   0.821   2.893   8.453 -0.0581 -0.1753 -0.5878
 2846SOL    HW219998   0.951   2.947   8.407 -0.5230 -0.7140 -1.3439
 2847SOL     OW19999   0.425   3.290   3.862 -0.2741 -0.2093  0.0681
 2847SOL    HW120000   0.376   3.235   3.924  0.5785  1.2433  2.0175
 2847SOL    HW220001   0.425   3.221   3.795 -1.7357 -1.7408  1.6123
 2848SOL     OW20002   2.483   0.292  16.317  0.1568 -0.1560 -0.2799
 2848SOL    HW120003   2.433   0.372  16.302  0.1586 -0.1871 -0.4484
 2848SOL    HW220004   2.531   0.297  16.235  0.4859 -0.0685 -0.0816
 2849SOL     OW20005   4.509   0.512   9.367  0.0056  0.1534  0.5049
 2849SOL    HW120006   4.451   0.572   9.414  1.2375  1.1767  0.7136
 2849SOL    HW220007   4.549   0.584   9.319  1.5092 -0.2843  1.1261
 2850SOL     OW20008   4.626   3.299   8.670 -0.2976 -0.0481 -0.2073
 2850SOL    HW120009   4.684   3.223   8.662 -0.6483 -0.4937  1.4554
 2850SOL    HW220010   4.675   3.373   8.708  0.8055 -0.6586 -0.4717
 2851SOL     OW20011   1.031   2.930   5.784  0.0452  0.0135 -0.2819
 2851SOL    HW120012   1.104   2.909   5.726  0.5873 -1.3760  0.8989
 2851SOL    HW220013   1.058   2.885   5.864 -0.8352 -0.7310 -0.3988
 2852SOL     OW20014   1.213   1.212   0.351 -0.1027  0.6388 -0.3856
 2852SOL    HW120015   1.160   1.264   0.411 -0.2797 -0.3744  0.3347
 2852SOL    HW220016   1.180   1.128   0.385 -1.4787  0.5990 -1.7951
 2853SOL     OW20017   0.775   0.172   7.897 -0.2375 -0.1427 -0.0645
 2853SOL    HW120018   0.724   0.123   7.962 -3.3114  0.6496 -1.8595
 2853SOL    HW220019   0.855   0.153   7.945  0.3013 -0.1019 -0.9548
 2854SOL     OW20020   0.653   0.984  14.124 -0.2011 -0.3555  0.1014
 2854SOL    HW120021   0.640   1.028  14.040  0.7156 -0.7432 -0.2461
 2854SOL    HW220022   0.741   0.948  14.111 -0.7794 -1.7150 -0.0630
 2855SOL     OW20023   1.309   1.644   8.118  0.1977 -0.4034 -0.5264
 2855SOL    HW120024   1.343   1.615   8.204 -3.2174 -1.9975  0.2672
 2855SOL    HW220025   1.271   1.561   8.090 -1.2273 -0.2913  1.0790
 2856SOL     OW20026   2.575   1.835   3.883 -0.0527  0.4322 -0.4334
 2856SOL    HW120027   2.571   1.740   3.882  3.1829  0.2808 -0.4382
 2856SOL    HW220028   2.561   1.842   3.788  0.5370 -0.0922 -0.5579
 2857SOL     OW20029   0.139   2.014   0.061  0.0215  0.5457 -0.1577
 2857SOL    HW120030   0.202   2.071   0.107  0.2070 -0.7024  1.1482
 2857SOL    HW220031   0.059   2.030   0.111 -0.6557 -0.1118 -1.0427
 2858SOL     OW20032   3.093   3.141   3.428  0.5145 -0.4745  0.0485
 2858SOL    HW120033   3.160   3.187   3.378 -1.1641  2.2833  0.3130
 2858SOL    HW220034   3.046   3.096   3.357  1.1578 -0.5046 -0.3588
 2859SOL     OW20035   3.217   2.403   7.101  0.2496 -0.0601  0.4273
 2859SOL    HW120036   3.169   2.464   7.045  2.5709  1.8529  0.5067
 2859SOL    HW220037   3.178   2.318   7.082  1.0491 -0.5168  0.8461
 2860SOL     OW20038   4.724   4.210   7.217  0.2225  0.4679 -0.0044
 2860SOL    HW120039   4.693   4.292   7.178  0.4180  0.5874  0.0954
 2860SOL    HW220040   0.091   4.213   7.190  0.6080 -0.7847  1.1414
 2861SOL     OW20041   3.988   0.162   8.654 -0.3827 -0.3943  0.2492
 2861SOL    HW120042   4.051   0.141   8.586  1.5726 -1.8602  2.4815
 2861SOL    HW220043   3.960   0.073   8.679 -0.1747 -0.8480 -1.1768
 2862SOL     OW20044   2.426   1.350   5.189  0.3675  0.2944 -0.3004
 2862SOL    HW120045   2.353   1.378   5.244  0.6446 -1.2932  0.8866
 2862SOL    HW220046   2.404   1.258   5.172  0.6013  0.4138 -1.2785
 2863SOL     OW20047   1.824   3.173  10.608 -0.2239 -0.3469 -0.1362
 2863SOL    HW120048   1.810   3.174  10.513  1.4040 -1.0438 -0.3816
 2863SOL    HW220049   1.894   3.113  10.634 -1.1693 -0.9292  1.0554
 2864SOL     OW20050   1.466   4.578   4.078  0.4379 -0.3256 -0.0731
 2864SOL    HW120051   1.507   4.535   4.153  0.2944  0.8965  0.7018
 2864SOL    HW220052   1.395   4.629   4.116 -1.1292 -2.1828 -0.5177
 2865SOL     OW20053   2.341   3.157   4.004 -0.9266  0.5317 -0.2604
 2865SOL    HW120054   2.378   3.237   4.044 -0.6544  0.0286  0.4907
 2865SOL    HW220055   2.251   3.187   3.991 -0.9725 -1.2652 -3.9956
 2866SOL     OW20056   2.029   2.810   1.633  0.0069  0.3991  0.8577
 2866SOL    HW120057   2.091   2.767   1.573  0.4753  3.1600 -0.6509
 2866SOL    HW220058   2.031   2.897   1.593  0.1939 -0.6737 -1.5145
 2867SOL     OW20059   1.973   3.299  12.125 -0.2520 -0.4959  0.1172
 2867SOL    HW120060   2.042   3.355  12.162  0.5437 -0.6961 -1.0856
 2867SOL    HW220061   1.903   3.312  12.189  1.3722  1.2731  1.5586
 2868SOL     OW20062   4.095   2.328   2.968  0.6684  0.1373  0.7580
 2868SOL    HW120063   4.187   2.309   2.952  0.4676 -1.8344  2.0104
 2868SOL    HW220064   4.069   2.344   2.877  1.4754 -1.3297  0.2844
 2869SOL     OW20065   4.486   3.440   3.539 -0.6124  0.6624  0.2006
 2869SOL    HW120066   4.472   3.512   3.478 -0.4995 -1.2083 -2.0582
 2869SOL    HW220067   4.569   3.403   3.507 -0.8430 -0.4748  0.9104
 2870SOL     OW20068   2.156   3.509  15.605  0.1212 -0.5914 -0.9560
 2870SOL    HW120069   2.185   3.438  15.548 -0.4261  0.7066 -2.8725
 2870SOL    HW220070   2.095   3.553  15.545 -2.5748 -0.3018  2.0298
 2871SOL     OW20071   2.515   3.364  13.015 -0.2100 -0.1419  0.0428
 2871SOL    HW120072   2.428   3.369  12.975  0.8435  0.3299 -2.1651
 2871SOL    HW220073   2.510   3.426  13.087  2.2572 -0.8217  0.7756
 2872SOL     OW20074   3.613   0.894   8.618  0.1880  0.2990 -0.5353
 2872SOL    HW120075   3.628   0.820   8.559 -2.3952 -0.7758  0.1549
 2872SOL    HW220076   3.552   0.948   8.566 -0.2575  2.7468  2.5487
 2873SOL     OW20077   0.460   0.786  14.301  0.0144  0.3055  0.6457
 2873SOL    HW120078   0.436   0.877  14.283 -1.6765 -0.3333 -0.3816
 2873SOL    HW220079   0.552   0.789  14.276 -0.3357  0.8312 -0.5779
 2874SOL     OW20080   2.701   2.690  11.947  0.4223  0.1763  0.6565
 2874SOL    HW120081   2.643   2.667  12.020 -2.0028  0.8814 -1.0501
 2874SOL    HW220082   2.712   2.783  11.967 -2.9511  0.7320 -0.0502
 2875SOL     OW20083   3.809   3.923   7.725  0.7115 -0.2394  0.6833
 2875SOL    HW120084   3.725   3.895   7.690  0.0614  0.3140  1.7866
 2875SOL    HW220085   3.854   3.862   7.667 -1.2290  0.6030 -1.7217
 2876SOL     OW20086   4.025   1.693  12.903  0.5159  0.4462  0.7018
 2876SOL    HW120087   4.042   1.676  12.996 -1.6538  1.0325  1.2083
 2876SOL    HW220088   3.974   1.774  12.913 -1.6875 -1.0191  1.1227
 2877SOL     OW20089   4.236   1.544   5.305 -0.5150  0.1429  0.1926
 2877SOL    HW120090   4.241   1.484   5.230  0.0451  0.1277  0.2418
 2877SOL    HW220091   4.246   1.630   5.266  1.1304 -0.0892  0.0929
 2878SOL     OW20092   1.886   3.128   5.613 -0.0422  0.1855 -0.2705
 2878SOL    HW120093   1.812   3.075   5.644  1.2759 -0.7546  1.2531
 2878SOL    HW220094   1.869   3.122   5.519 -1.8015  1.5322 -0.0275
 2879SOL     OW20095   0.895   0.500   7.710  0.4160  0.4707  0.2326
 2879SOL    HW120096   0.952   0.450   7.769  1.4703  1.0570 -0.2962
 2879SOL    HW220097   0.868   0.563   7.776  1.7402  0.2879  0.9581
 2880SOL     OW20098   0.401   0.572  16.745  0.1878 -0.0791 -0.0392
 2880SOL    HW120099   0.345   0.494  16.755  2.0459 -1.8066 -3.1491
 2880SOL    HW220100   0.405   0.604  16.655  1.0685  0.1099  0.0675
 2881SOL     OW20101   3.897   4.171  15.202 -0.1804  0.8512 -0.1812
 2881SOL    HW120102   3.839   4.154  15.277 -2.1345 -0.2373 -1.9206
 2881SOL    HW220103   3.946   4.091  15.186  0.0340  0.7659  0.9215
 2882SOL     OW20104   0.864   4.580   0.584 -0.3692 -0.5150  0.1228
 2882SOL    HW120105   0.808   4.549   0.655 -0.6100  1.0595  0.6314
 2882SOL    HW220106   0.861   4.674   0.601 -0.1124 -0.2875 -1.1385
 2883SOL     OW20107   1.713   0.264   1.988 -0.5660  0.1998 -0.8018
 2883SOL    HW120108   1.671   0.331   1.934 -0.1458 -0.2542 -1.7119
 2883SOL    HW220109   1.728   0.203   1.915 -1.3923 -2.5062  1.2884
 2884SOL     OW20110   1.704   0.038  12.420 -0.1843  0.4682  0.4583
 2884SOL    HW120111   1.632   4.699  12.415 -1.5001  2.2185 -2.8199
 2884SOL    HW220112   1.674   0.103  12.483 -0.1481  0.8567  0.0723
 2885SOL     OW20113   0.733   0.144   2.917  0.6558 -0.1565 -0.1251
 2885SOL    HW120114   0.722   0.110   2.828  2.6238 -1.0209 -0.0366
 2885SOL    HW220115   0.644   0.172   2.935  1.1750  0.4944  1.4849
 2886SOL     OW20116   2.558   1.118   7.300  0.5195 -0.0831 -0.1658
 2886SOL    HW120117   2.471   1.078   7.304  0.7955 -0.4866  1.6587
 2886SOL    HW220118   2.577   1.102   7.208  1.4896 -0.1949  0.0549
 2887SOL     OW20119   1.836   3.851  17.459 -0.3100  0.5517 -0.1205
 2887SOL    HW120120   1.766   3.794  17.428 -1.5561  2.6452 -1.1610
 2887SOL    HW220121   1.782   3.898  17.523 -0.3911 -0.5872  0.6356
 2888SOL     OW20122   2.239   3.493   3.627 -0.0732  0.2545 -0.2108
 2888SOL    HW120123   2.161   3.504   3.681  1.2672  2.1393  1.3449
 2888SOL    HW220124   2.306   3.459   3.686 -1.2651  1.9449  2.1543
 2889SOL     OW20125   3.352   2.043   7.330  0.2938  0.4171 -0.0551
 2889SOL    HW120126   3.402   2.100   7.388  1.4074 -0.4057 -0.2003
 2889SOL    HW220127   3.403   2.063   7.251  1.1900  0.0203  0.4229
 2890SOL     OW20128   2.330   3.063  10.862 -0.1573  0.2549  0.3098
 2890SOL    HW120129   2.238   3.059  10.890 -1.1455  0.2702 -2.9444
 2890SOL    HW220130   2.370   2.996  10.917 -0.0289 -0.4090 -0.6117
 2891SOL     OW20131   0.652   0.850  13.764 -0.1915 -0.1161  0.2466
 2891SOL    HW120132   0.667   0.756  13.769 -1.6926 -0.3700  0.0237
 2891SOL    HW220133   0.579   0.861  13.825 -2.1995 -0.5499 -2.0566
 2892SOL     OW20134   3.036   0.220   9.092 -0.3532 -0.5466 -0.6439
 2892SOL    HW120135   3.051   0.156   9.161 -1.8154 -1.3746 -1.0977
 2892SOL    HW220136   3.099   0.285   9.122  0.1863 -1.1143 -0.5583
 2893SOL     OW20137   4.465   1.751   4.308  0.0296  0.1561 -0.0224
 2893SOL    HW120138   4.369   1.749   4.304  0.0361  0.1459 -0.1947
 2893SOL    HW220139   4.475   1.765   4.402  2.3481 -0.4292 -0.1842
 2894SOL     OW20140   1.317   0.915   3.189 -0.0036  0.6250  0.2737
 2894SOL    HW120141   1.371   0.987   3.221 -0.3605  2.5603 -3.5014
 2894SOL    HW220142   1.262   0.902   3.266 -1.1626  0.1186 -0.6416
 2895SOL     OW20143   1.265   2.502   7.682 -0.4562 -0.0762 -0.0372
 2895SOL    HW120144   1.332   2.559   7.720 -1.9607  0.3739  1.9866
 2895SOL    HW220145   1.255   2.538   7.594  0.9922 -0.1937 -0.2406
 2896SOL     OW20146   2.410   3.925   0.257 -0.2033  0.3593 -0.0819
 2896SOL    HW120147   2.403   3.842   0.304 -1.1678 -1.5682 -3.6443
 2896SOL    HW220148   2.505   3.927   0.266 -0.2287  1.1896 -0.0192
 2897SOL     OW20149   3.502   1.114   9.807 -0.0886 -0.3730 -0.5136
 2897SOL    HW120150   3.538   1.053   9.871  0.0810 -1.5336 -1.6875
 2897SOL    HW220151   3.554   1.077   9.735  1.3881  1.1521 -0.2206
 2898SOL     OW20152   1.730   3.101  17.250 -0.9070  0.5568  0.5412
 2898SOL    HW120153   1.675   3.037  17.294 -1.8302  2.1214  1.6949
 2898SOL    HW220154   1.819   3.077  17.274  0.1449  2.6574 -1.2954
 2899SOL     OW20155   1.699   4.577   2.024 -0.0135  0.0443 -0.1181
 2899SOL    HW120156   1.794   4.579   2.017 -0.1053  0.8962 -1.2240
 2899SOL    HW220157   1.679   4.570   1.930 -0.1683 -2.3088  0.0824
 2900SOL     OW20158   0.877   3.966   2.566  0.0502 -0.4853  0.0368
 2900SOL    HW120159   0.960   3.974   2.613  0.4754 -1.0938 -0.6196
 2900SOL    HW220160   0.839   4.049   2.597  1.2961  0.5259 -1.1491
 2901SOL     OW20161   2.854   2.724   8.901 -0.0753 -0.3083  0.3485
 2901SOL    HW120162   2.908   2.726   8.980  2.0888 -1.0255 -1.1038
 2901SOL    HW220163   2.822   2.814   8.899 -0.3336 -0.3910  0.6984
 2902SOL     OW20164   0.825   3.545  12.117  0.5733  0.4290  0.4398
 2902SOL    HW120165   0.855   3.540  12.026  1.0941 -0.1955  0.6524
 2902SOL    HW220166   0.896   3.521  12.177  0.8666  2.9732  1.1271
 2903SOL     OW20167   2.590   3.803   5.800 -0.2256  0.2205  0.1263
 2903SOL    HW120168   2.530   3.861   5.847  1.8598  1.4184  1.2745
 2903SOL    HW220169   2.598   3.859   5.723  2.0155  1.3901  1.2201
 2904SOL     OW20170   1.834   3.417   7.677 -0.4548  0.2588  0.3566
 2904SOL    HW120171   1.804   3.470   7.751 -0.5898  2.3001 -1.1548
 2904SOL    HW220172   1.756   3.404   7.624  0.1946  2.7189 -1.2154
 2905SOL     OW20173   1.800   0.563   3.192 -0.9657 -0.0579 -0.1937
 2905SOL    HW120174   1.864   0.571   3.121  0.3180  0.8911  1.0743
 2905SOL    HW220175   1.865   0.587   3.258  0.1313 -0.1824 -1.2417
 2906SOL     OW20176   4.468   0.646   8.913 -0.1906 -0.0392  0.1933
 2906SOL    HW120177   4.427   0.717   8.962 -0.3284 -0.4278  0.6400
 2906SOL    HW220178   4.409   0.572   8.929 -0.4435  1.0781  4.3411
 2907SOL     OW20179   0.673   1.065   5.697 -0.1592 -0.3361 -0.5675
 2907SOL    HW120180   0.717   1.009   5.633  0.2857 -1.3652  0.6325
 2907SOL    HW220181   0.720   1.053   5.780 -0.7033 -0.7827 -0.3188
 2908SOL     OW20182   1.412   0.277   8.252 -0.2998  0.4454  0.0503
 2908SOL    HW120183   1.493   0.235   8.279 -0.9928 -0.3525  0.8850
 2908SOL    HW220184   1.366   0.293   8.335  1.2552 -0.0347  1.0069
 2909SOL     OW20185   2.845   1.647   0.347 -0.0494  0.2988  0.7624
 2909SOL    HW120186   2.777   1.611   0.291 -2.5897  1.8847  2.7814
 2909SOL    HW220187   2.793   1.714   0.392 -1.2427  0.3360 -0.6984
 2910SOL     OW20188   2.246   2.905   0.081  0.1258  0.0804  0.4996
 2910SOL    HW120189   2.210   2.890   0.169 -0.4865  0.1610  0.2659
 2910SOL    HW220190   2.317   2.842   0.084  0.9152  0.8964 -0.6323
 2911SOL     OW20191   2.930   1.478   8.162  0.0395  0.2091 -0.5292
 2911SOL    HW120192   3.017   1.486   8.122 -0.5396  4.9525 -0.8863
 2911SOL    HW220193   2.948   1.446   8.250 -2.7830 -1.4673 -0.5761
 2912SOL     OW20194   2.399   2.506   9.368 -0.2741  0.4361  0.0850
 2912SOL    HW120195   2.474   2.473   9.317  0.1165  1.6965 -0.1526
 2912SOL    HW220196   2.426   2.594   9.395  0.5135  0.5488 -1.0342
 2913SOL     OW20197   3.808   3.302   8.481  0.5547  0.0612 -0.2783
 2913SOL    HW120198   3.830   3.394   8.466  0.3026  0.3314  1.0235
 2913SOL    HW220199   3.807   3.298   8.577 -1.0542 -0.3760 -0.3161
 2914SOL     OW20200   1.219   2.460   6.627 -0.3905  0.6108  0.1333
 2914SOL    HW120201   1.153   2.395   6.650 -0.8015  0.2766 -1.9431
 2914SOL    HW220202   1.276   2.416   6.564 -0.9056 -0.7862  0.6285
 2915SOL     OW20203   3.691   2.469   4.381 -0.3662 -0.0861 -0.4480
 2915SOL    HW120204   3.691   2.494   4.289  0.6223 -1.3920 -0.8016
 2915SOL    HW220205   3.648   2.384   4.377 -0.8217  0.2215 -1.9907
 2916SOL     OW20206   1.156   0.843  15.906  0.2002 -0.2789 -0.7521
 2916SOL    HW120207   1.179   0.838  15.999 -0.9274  0.5620 -0.4155
 2916SOL    HW220208   1.219   0.785  15.864 -1.4249 -0.4993 -2.8740
 2917SOL     OW20209   0.619   2.369  12.828 -0.5132  0.2264 -0.1556
 2917SOL    HW120210   0.616   2.356  12.733 -1.4710  1.4889 -0.2954
 2917SOL    HW220211   0.526   2.376  12.852 -0.3653 -0.7617  0.6915
 2918SOL     OW20212   4.343   3.648  15.019 -0.0379 -0.5686  0.0939
 2918SOL    HW120213   4.295   3.667  14.939 -0.4164 -2.3675 -0.1148
 2918SOL    HW220214   4.383   3.563  15.001 -0.3172 -0.9365  1.1955
 2919SOL     OW20215   1.626   2.966   3.395  0.0682 -0.3025 -0.0663
 2919SOL    HW120216   1.722   2.974   3.393  0.1020 -0.9598 -1.2185
 2919SOL    HW220217   1.626   2.878   3.434  0.4343 -0.5221 -0.5631
 2920SOL     OW20218   0.460   3.216   8.065  0.2840 -0.2650 -0.2457
 2920SOL    HW120219   0.372   3.204   8.102 -0.7833 -0.1317 -2.7264
 2920SOL    HW220220   0.514   3.183   8.137 -2.7670 -0.8982  1.7483
 2921SOL     OW20221   3.668   3.892   9.001 -0.2910  0.2850 -0.8971
 2921SOL    HW120222   3.640   3.801   9.004  0.3053  0.0946 -1.1243
 2921SOL    HW220223   3.727   3.893   9.077 -0.7207  0.0512 -0.5587
 2922SOL     OW20224   1.733   2.182   3.792  0.4997 -0.3544 -0.2953
 2922SOL    HW120225   1.753   2.097   3.832 -1.8265 -1.4982 -1.5796
 2922SOL    HW220226   1.668   2.204   3.859  2.4086  2.7195  0.5198
 2923SOL     OW20227   2.732   1.866  16.241  0.0808 -0.2988 -0.3675
 2923SOL    HW120228   2.791   1.888  16.313  2.7043 -0.5107 -2.4328
 2923SOL    HW220229   2.644   1.894  16.264 -0.6681 -1.7063 -1.5312
 2924SOL     OW20230   2.246   2.925   9.362  0.6214 -0.1301 -0.4286
 2924SOL    HW120231   2.212   2.840   9.334 -0.4346 -0.1691  0.9689
 2924SOL    HW220232   2.174   2.984   9.340  1.1792 -0.7232 -3.7616
 2925SOL     OW20233   4.625   2.411   2.502  0.4594 -0.6737 -0.1599
 2925SOL    HW120234   4.698   2.352   2.522  1.1604  0.4395  0.5974
 2925SOL    HW220235   4.614   2.413   2.407 -0.0665 -0.7909 -0.0980
 2926SOL     OW20236   2.213   2.426   9.186  0.9342 -0.5189 -0.0105
 2926SOL    HW120237   2.274   2.446   9.115 -0.5772  1.7733 -0.6522
 2926SOL    HW220238   2.277   2.431   9.257  0.6473  0.2831  0.1868
 2927SOL     OW20239   4.325   2.664   9.872  0.1607 -0.2687  0.5165
 2927SOL    HW120240   4.289   2.738   9.822  1.2629  0.1192  0.3064
 2927SOL    HW220241   4.396   2.701   9.924 -0.0542  1.6374 -0.5316
 2928SOL     OW20242   0.968   3.769   0.683  0.0799 -0.2088  0.8197
 2928SOL    HW120243   0.969   3.712   0.761  0.5552 -0.6877  0.4668
 2928SOL    HW220244   1.061   3.782   0.665 -0.4774  0.4721 -1.5924
 2929SOL     OW20245   2.162   2.969  13.363 -0.3089  0.5881  0.0583
 2929SOL    HW120246   2.084   2.943  13.314  1.7731 -1.8455 -2.0449
 2929SOL    HW220247   2.155   2.904  13.433  0.3005 -0.5955 -0.9667
 2930SOL     OW20248   2.537   4.432   8.768 -0.2123 -0.1204  0.0183
 2930SOL    HW120249   2.513   4.339   8.777  0.1597 -0.1862  0.3433
 2930SOL    HW220250   2.619   4.426   8.719  0.5687 -0.3589  1.3617
 2931SOL     OW20251   2.732   1.225   6.459 -0.7153 -0.4855 -0.3201
 2931SOL    HW120252   2.752   1.219   6.366  0.0503  2.2799 -0.3398
 2931SOL    HW220253   2.789   1.155   6.491 -2.5148 -1.7159  0.1301
 2932SOL     OW20254   3.819   3.332   8.769 -0.0197 -0.3341  0.2889
 2932SOL    HW120255   3.735   3.333   8.816 -0.0977  2.6579  0.0777
 2932SOL    HW220256   3.825   3.428   8.772  2.8462 -0.4840 -0.5977
 2933SOL     OW20257   2.147   3.512   6.345  0.3365 -0.4920 -0.2896
 2933SOL    HW120258   2.168   3.501   6.252  0.3101  1.2611 -0.5058
 2933SOL    HW220259   2.060   3.549   6.331 -0.0757 -1.0380  0.8864
 2934SOL     OW20260   1.603   4.249  15.102  0.6219  0.4028 -0.4415
 2934SOL    HW120261   1.594   4.324  15.043  0.9196 -0.8658 -2.1278
 2934SOL    HW220262   1.698   4.242  15.111  0.2939 -1.6487  1.4613
 2935SOL     OW20263   2.252   4.364   2.320  0.0380 -0.0928 -0.2028
 2935SOL    HW120264   2.221   4.388   2.408 -0.7287 -1.8542  0.0055
 2935SOL    HW220265   2.280   4.275   2.342 -1.9841 -0.6368  0.2520
 2936SOL     OW20266   2.923   2.518  13.406 -0.0842 -0.5952 -0.0203
 2936SOL    HW120267   2.981   2.592  13.424 -0.8102 -0.9011  3.6235
 2936SOL    HW220268   2.837   2.555  13.428 -0.4971 -2.0455  0.7410
 2937SOL     OW20269   2.487   3.369  14.046  0.4878 -0.7005  0.1332
 2937SOL    HW120270   2.465   3.375  14.139  1.2566 -0.1069  0.2683
 2937SOL    HW220271   2.580   3.345  14.049 -0.0918 -2.9706  0.4068
 2938SOL     OW20272   2.557   0.568   4.904 -0.1086  0.2952  0.2286
 2938SOL    HW120273   2.469   0.532   4.893  0.4880 -0.7535 -1.1917
 2938SOL    HW220274   2.611   0.489   4.895 -3.2222 -1.5926 -2.0885
 2939SOL     OW20275   1.737   0.803   8.429  0.3196 -0.0834  0.2363
 2939SOL    HW120276   1.811   0.783   8.372  0.3799 -0.7457  0.5458
 2939SOL    HW220277   1.736   0.721   8.479  1.6519  0.2539  0.8300
 2940SOL     OW20278   1.449   1.114   0.665  0.0363 -0.0428 -0.0255
 2940SOL    HW120279   1.513   1.065   0.717  0.2477 -0.1947 -0.4311
 2940SOL    HW220280   1.389   1.151   0.730  1.2460 -0.3078  1.2673
 2941SOL     OW20281   0.821   1.402  10.644 -0.4907  0.2699 -0.3855
 2941SOL    HW120282   0.800   1.309  10.632 -0.4188  0.3694 -1.3253
 2941SOL    HW220283   0.826   1.405  10.739  2.7771  1.4461 -0.5850
 2942SOL     OW20284   3.950   2.265   8.921 -0.1796  0.2666  0.2461
 2942SOL    HW120285   3.994   2.339   8.963 -0.5336  0.1961  0.7343
 2942SOL    HW220286   3.944   2.293   8.829 -2.4799 -0.6754  0.1181
 2943SOL     OW20287   0.732   2.903   3.550  0.0364  0.7762 -0.4884
 2943SOL    HW120288   0.803   2.935   3.606 -0.5411 -0.5584  1.0239
 2943SOL    HW220289   0.755   2.815   3.521 -0.9311  1.0032 -1.9213
 2944SOL     OW20290   4.681   3.859   1.083 -0.7417 -0.5721  0.2640
 2944SOL    HW120291   4.683   3.881   1.176 -0.2899 -1.0515  0.3725
 2944SOL    HW220292   0.007   3.936   1.057 -1.3169 -0.0899  0.6057
 2945SOL     OW20293   1.863   1.205   2.346 -0.1953 -0.7128  0.1280
 2945SOL    HW120294   1.801   1.182   2.415 -1.4713  0.2657 -0.6982
 2945SOL    HW220295   1.933   1.142   2.361  0.8839  0.6763  0.8937
 2946SOL     OW20296   4.070   1.521  12.270 -0.2365  0.3903 -0.5636
 2946SOL    HW120297   4.105   1.509  12.182 -1.3228  1.9348 -1.2130
 2946SOL    HW220298   3.996   1.461  12.264  0.3210 -0.3248 -0.3210
 2947SOL     OW20299   3.798   3.521  12.731  0.8699  0.6296 -0.0539
 2947SOL    HW120300   3.806   3.581  12.805 -0.7781  0.8234 -0.0448
 2947SOL    HW220301   3.882   3.475  12.741  0.9961  0.7637 -0.4681
 2948SOL     OW20302   2.060   4.504   3.387 -0.5449 -0.4237  0.6890
 2948SOL    HW120303   2.156   4.509   3.386 -0.5752  0.0000 -0.1883
 2948SOL    HW220304   2.049   4.410   3.400 -0.2010 -0.5114  0.3578
 2949SOL     OW20305   0.583   3.869   1.012 -0.4870  0.4043  0.0115
 2949SOL    HW120306   0.641   3.808   1.058  1.2675  1.5029 -0.7343
 2949SOL    HW220307   0.649   3.901   0.950  0.7293  0.1034  1.1610
 2950SOL     OW20308   3.348   0.004  12.198 -0.4637  0.2300  0.1094
 2950SOL    HW120309   3.355   4.657  12.262 -1.4748 -0.5408 -0.6256
 2950SOL    HW220310   3.369   0.081  12.249  3.1633 -0.1293 -0.8606
 2951SOL     OW20311   2.629   0.191  17.191  0.1467  0.3982 -0.1171
 2951SOL    HW120312   2.650   0.123  17.127 -1.8288  1.3750 -1.8066
 2951SOL    HW220313   2.700   0.180  17.254  0.2517  1.9471  0.0496
 2952SOL     OW20314   3.047   1.901  17.304 -0.0529 -0.2056  0.5536
 2952SOL    HW120315   3.140   1.924  17.301  0.0331 -0.1365  3.3221
 2952SOL    HW220316   3.048   1.834  17.236  0.0173  0.2789  0.0753
 2953SOL     OW20317   1.932   3.533   6.902  0.0717 -0.5680  0.2095
 2953SOL    HW120318   1.902   3.524   6.993 -2.7999  0.1895 -0.6742
 2953SOL    HW220319   2.022   3.564   6.906  0.2445 -0.8457 -1.5255
 2954SOL     OW20320   1.272   4.129  14.097  0.0912  0.6804 -0.0619
 2954SOL    HW120321   1.282   4.192  14.026 -1.6154  1.7688  0.6632
 2954SOL    HW220322   1.350   4.145  14.150  0.0056  2.0010 -0.3430
 2955SOL     OW20323   4.589   1.906   4.122  0.5431 -0.0446  0.3332
 2955SOL    HW120324   4.564   1.881   4.033  1.5568 -1.5753  0.4791
 2955SOL    HW220325   4.527   1.850   4.168  0.5776 -0.1904  0.2012
 2956SOL     OW20326   3.403   4.649   5.580  0.5468  0.6411  0.2265
 2956SOL    HW120327   3.409   4.646   5.484  1.4135 -2.0742  0.3756
 2956SOL    HW220328   3.377   0.016   5.586 -0.0629  0.4198  0.8578
 2957SOL     OW20329   2.008   2.641   7.243  0.2782 -0.1839  0.9039
 2957SOL    HW120330   2.038   2.595   7.321 -0.8295 -1.9539  0.2729
 2957SOL    HW220331   1.981   2.726   7.279  1.7456  1.5068 -1.9647
 2958SOL     OW20332   4.390   0.147   7.972 -0.6182 -0.0801  0.1344
 2958SOL    HW120333   4.363   0.228   7.928  0.0857 -0.9642 -1.9324
 2958SOL    HW220334   4.481   0.147   7.942 -1.2439  1.7750 -1.8210
 2959SOL     OW20335   3.099   2.133  15.122  0.2755  0.0656 -0.3526
 2959SOL    HW120336   3.039   2.065  15.152 -0.4424  1.6753  1.8412
 2959SOL    HW220337   3.129   2.092  15.041  1.1060 -3.2279  1.6013
 2960SOL     OW20338   3.354   1.591   7.239 -0.8668  0.0521 -0.6936
 2960SOL    HW120339   3.307   1.590   7.322 -0.3689 -2.2253 -0.4551
 2960SOL    HW220340   3.407   1.669   7.256  1.3318 -1.1339 -2.1485
 2961SOL     OW20341   1.403   1.044   3.483  0.6142 -0.1192  0.3922
 2961SOL    HW120342   1.366   0.961   3.453 -0.0094  0.6679 -1.0280
 2961SOL    HW220343   1.373   1.038   3.574  2.2493  3.4238  1.1745
 2962SOL     OW20344   3.217   1.807  10.492  0.1574  0.6835  0.0998
 2962SOL    HW120345   3.197   1.757  10.572 -0.7173 -0.8482 -1.0677
 2962SOL    HW220346   3.279   1.749  10.449  0.0668 -1.0730  2.3214
 2963SOL     OW20347   2.949   2.861   0.830 -0.2338  0.2784  0.3734
 2963SOL    HW120348   2.877   2.881   0.771  1.1125  1.7290 -0.7930
 2963SOL    HW220349   3.017   2.835   0.767  0.6230 -1.7925  2.1343
 2964SOL     OW20350   3.957   3.389   3.137 -0.3544 -0.0799 -0.4519
 2964SOL    HW120351   3.947   3.484   3.137 -0.7193 -0.1200  1.2106
 2964SOL    HW220352   4.024   3.391   3.068  0.0682 -1.8751 -0.1044
 2965SOL     OW20353   2.861   1.884   8.028  0.4159 -0.4760 -0.1967
 2965SOL    HW120354   2.799   1.933   7.974 -0.5083 -2.5369 -1.0282
 2965SOL    HW220355   2.844   1.918   8.116 -0.9739  3.7519 -2.0764
 2966SOL     OW20356   3.154   1.617   2.553  0.1470 -0.0040  0.1896
 2966SOL    HW120357   3.115   1.639   2.637 -0.2223  2.2075 -0.5553
 2966SOL    HW220358   3.101   1.539   2.543 -0.0034 -0.0292  1.2258
 2967SOL     OW20359   2.521   4.245   3.622 -0.1409  0.2289  0.1493
 2967SOL    HW120360   2.525   4.215   3.532  0.5977  0.5766  0.0665
 2967SOL    HW220361   2.535   4.339   3.610 -1.1145  0.1395 -1.7202
 2968SOL     OW20362   2.165   1.558   0.802  0.2691 -0.0542 -0.3794
 2968SOL    HW120363   2.135   1.596   0.885 -1.4271 -0.3032 -0.8812
 2968SOL    HW220364   2.080   1.544   0.759  0.7860 -0.9069 -1.1276
 2969SOL     OW20365   1.294   4.596   6.983  0.0440 -0.1834 -0.0542
 2969SOL    HW120366   1.304   4.655   7.058  0.2068 -0.0808 -0.1573
 2969SOL    HW220367   1.224   4.640   6.935 -0.0293 -1.4543 -1.1014
 2970SOL     OW20368   4.339   3.066   4.897 -0.3288  0.4014 -0.1538
 2970SOL    HW120369   4.350   3.017   4.979  0.2744  0.7643 -0.0228
 2970SOL    HW220370   4.403   3.034   4.834  1.1607 -0.0288  1.5823
 2971SOL     OW20371   2.909   3.675   3.798  0.3494 -0.4998 -0.6394
 2971SOL    HW120372   2.842   3.647   3.735  0.0812  0.2877 -0.7093
 2971SOL    HW220373   2.994   3.647   3.763 -0.2929  0.8903 -3.3356
 2972SOL     OW20374   4.212   2.210   8.129  0.5810  0.3897 -0.0578
 2972SOL    HW120375   4.194   2.119   8.153 -0.8617  0.4300 -0.9645
 2972SOL    HW220376   4.285   2.231   8.187 -0.4509 -1.0463  1.7739
 2973SOL     OW20377   4.258   1.460  10.781 -0.5120  0.1601  0.2610
 2973SOL    HW120378   4.206   1.538  10.762 -1.3648 -0.7706 -1.2546
 2973SOL    HW220379   4.261   1.413  10.698 -0.8256  2.8883 -1.3012
 2974SOL     OW20380   4.211   2.710   5.011 -0.5649 -0.2682  0.0896
 2974SOL    HW120381   4.256   2.630   4.983  1.5516  0.9110  0.0919
 2974SOL    HW220382   4.149   2.676   5.075 -0.9744  2.7495  1.3266
 2975SOL     OW20383   2.225   2.987  10.448  0.0424  0.0204 -0.1279
 2975SOL    HW120384   2.186   3.073  10.431  0.5902  0.3417  0.1943
 2975SOL    HW220385   2.320   3.001  10.448 -0.0565  0.7310 -1.8452
 2976SOL     OW20386   2.188   2.824  16.331  0.0012 -0.3142 -0.4919
 2976SOL    HW120387   2.143   2.763  16.389 -0.0808 -0.3701 -0.6129
 2976SOL    HW220388   2.198   2.900  16.387  0.0126 -1.8819  1.6402
 2977SOL     OW20389   3.112   3.717   7.881  0.6352 -0.0095 -0.1667
 2977SOL    HW120390   3.171   3.724   7.806 -0.7863 -0.3483 -1.3199
 2977SOL    HW220391   3.041   3.774   7.851 -0.5023 -0.8827  0.8248
 2978SOL     OW20392   2.254   4.231  17.618 -0.3131  0.0176  0.3145
 2978SOL    HW120393   2.331   4.186  17.655  0.3213  1.1533  0.3711
 2978SOL    HW220394   2.256   4.306  17.677  1.4658  1.3284 -1.4175
 2979SOL     OW20395   4.439   0.491   8.429 -0.1370  0.7527  0.3253
 2979SOL    HW120396   4.391   0.551   8.372 -0.9017  0.1317  0.3279
 2979SOL    HW220397   4.507   0.551   8.460  1.4504 -0.2306 -1.2674
 2980SOL     OW20398   0.823   0.515  11.128 -0.1251  0.3061  0.1814
 2980SOL    HW120399   0.908   0.487  11.164 -0.8076  0.6810  2.0629
 2980SOL    HW220400   0.847   0.560  11.047  1.2903  2.4152  1.7722
 2981SOL     OW20401   4.594   1.737   2.812  0.2892  0.2659 -0.0752
 2981SOL    HW120402   4.559   1.780   2.734  2.9394 -0.6200 -1.7592
 2981SOL    HW220403   4.512   1.742   2.860  0.0851  2.7743 -0.6708
 2982SOL     OW20404   3.185   4.615  14.439  0.1127  0.1789 -0.0494
 2982SOL    HW120405   3.248   4.686  14.438 -0.8725  1.0346 -1.5597
 2982SOL    HW220406   3.233   4.543  14.480 -1.0092  0.4298  1.6996
 2983SOL     OW20407   3.701   2.195   6.923 -0.5014 -0.4770  0.1138
 2983SOL    HW120408   3.696   2.113   6.873 -2.0004  1.3593 -2.8130
 2983SOL    HW220409   3.669   2.265   6.865  1.2518  0.2142 -0.0264
 2984SOL     OW20410   0.818   4.286  14.614  0.5275 -0.0693 -0.2742
 2984SOL    HW120411   0.736   4.263  14.656 -1.0001  0.6212 -2.8746
 2984SOL    HW220412   0.822   4.382  14.614  3.7998 -0.2083  1.4270
 2985SOL     OW20413   2.984   3.986  14.913 -0.3028 -0.2178  0.3166
 2985SOL    HW120414   3.001   3.906  14.864  1.7998  0.1724  0.4129
 2985SOL    HW220415   2.895   4.000  14.881  0.6185  2.9397 -0.9067
 2986SOL     OW20416   4.724   3.721   5.973 -0.2937 -0.0079  0.1034
 2986SOL    HW120417   0.045   3.741   5.891  0.4251 -1.3570  0.1654
 2986SOL    HW220418   0.074   3.735   6.032 -1.6898  0.4477  1.7684
 2987SOL     OW20419   3.956   4.418  15.111 -0.3231 -0.2323  0.3563
 2987SOL    HW120420   3.941   4.334  15.154 -0.1782 -0.8469 -0.7932
 2987SOL    HW220421   3.897   4.465  15.169 -0.1327 -0.1613  0.4919
 2988SOL     OW20422   0.190   0.572   6.365  0.5370  0.0886 -0.0672
 2988SOL    HW120423   0.103   0.608   6.349  0.5683  0.6421  1.0540
 2988SOL    HW220424   0.231   0.576   6.278  0.5540 -2.1320 -0.1537
 2989SOL     OW20425   1.407   4.518   3.222  0.2018 -0.2212  0.0644
 2989SOL    HW120426   1.344   4.486   3.285 -0.6924 -1.3336 -1.4017
 2989SOL    HW220427   1.355   4.522   3.141 -0.2234  1.1354  0.3987
 2990SOL     OW20428   2.018   1.630   5.668  0.1968 -0.2306 -0.5913
 2990SOL    HW120429   1.960   1.695   5.707 -0.8023 -0.1743 -2.1676
 2990SOL    HW220430   1.952   1.601   5.605  0.7883  0.3843 -1.5097
 2991SOL     OW20431   1.505   2.222   3.550 -0.1063  0.0551  0.1622
 2991SOL    HW120432   1.589   2.182   3.527 -0.0456  0.4694 -0.3441
 2991SOL    HW220433   1.485   2.179   3.632 -0.7175 -0.4265 -0.2418
 2992SOL     OW20434   1.646   3.671   4.873  0.5320  0.1853  0.5248
 2992SOL    HW120435   1.617   3.582   4.853  0.2550  0.2220  0.7634
 2992SOL    HW220436   1.739   3.661   4.893  0.4781 -0.7837  0.3364
 2993SOL     OW20437   2.156   2.136   3.415 -0.1239 -0.1306  0.3199
 2993SOL    HW120438   2.071   2.149   3.372  1.2980 -0.4792 -2.6275
 2993SOL    HW220439   2.123   2.114   3.502  0.0828  1.8205  0.8806
 2994SOL     OW20440   3.182   2.487   8.294 -0.1477  0.0759 -1.0041
 2994SOL    HW120441   3.099   2.523   8.325  0.2804  2.3637 -2.4814
 2994SOL    HW220442   3.154   2.408   8.247 -1.1442 -1.7503  2.6551
 2995SOL     OW20443   2.344   3.711   8.386  0.1429  0.4773  0.3617
 2995SOL    HW120444   2.321   3.667   8.467  1.1296 -2.1552 -0.7621
 2995SOL    HW220445   2.260   3.733   8.345 -1.8640 -0.6689  3.8741
 2996SOL     OW20446   4.421   4.138   3.623 -0.0894  0.3708 -0.5737
 2996SOL    HW120447   4.437   4.228   3.650 -1.9453  0.6015 -0.2295
 2996SOL    HW220448   4.332   4.156   3.593  0.3244  0.8155 -1.5185
 2997SOL     OW20449   0.709   3.719  16.807  0.1690  0.3617 -0.0610
 2997SOL    HW120450   0.649   3.665  16.859 -0.5449  1.1069 -0.1210
 2997SOL    HW220451   0.661   3.731  16.725 -1.9846  1.8402  1.4067
 2998SOL     OW20452   4.284   2.553   6.475 -0.2856 -0.4589  0.0599
 2998SOL    HW120453   4.240   2.474   6.508  1.7766 -0.9918  1.5438
 2998SOL    HW220454   4.370   2.552   6.517 -0.7319 -2.0525  0.9378
 2999SOL     OW20455   1.937   2.784   6.693  0.1339  0.3765  0.4171
 2999SOL    HW120456   1.909   2.814   6.779  0.7544  1.2011  0.3310
 2999SOL    HW220457   2.030   2.808   6.690  0.0849  0.5919  0.6026
 3000SOL     OW20458   1.754   1.995   6.376  0.0431 -0.0598  0.9903
 3000SOL    HW120459   1.820   1.935   6.341  0.2627  0.5299  0.3934
 3000SOL    HW220460   1.777   2.083   6.349 -1.1316  0.5674  2.0378
 3001SOL     OW20461   2.979   2.046   6.856  0.2119 -0.3578  0.0662
 3001SOL    HW120462   2.904   1.989   6.870 -3.1453  3.8545 -0.7059
 3001SOL    HW220463   3.021   2.005   6.780 -2.2335 -3.2648  0.3037
 3002SOL     OW20464   0.857   2.944   2.239 -1.1139 -0.2145  0.1381
 3002SOL    HW120465   0.821   3.026   2.274 -1.4486 -0.4974  0.4557
 3002SOL    HW220466   0.776   2.896   2.223 -2.0421  0.2625  3.5093
 3003SOL     OW20467   2.979   3.135  11.315  0.4365  0.6751  0.3319
 3003SOL    HW120468   2.990   3.220  11.358 -1.6792  1.3015 -0.3795
 3003SOL    HW220469   2.939   3.166  11.235  0.1465  0.1019  0.2576
 3004SOL     OW20470   4.130   3.167   5.959 -0.1286 -0.2718 -0.1293
 3004SOL    HW120471   4.119   3.249   5.910 -0.2550 -1.0941 -1.4557
 3004SOL    HW220472   4.213   3.143   5.918  0.3946  0.3420  0.5616
 3005SOL     OW20473   1.392   1.425   3.403  0.1599 -0.3058  0.2441
 3005SOL    HW120474   1.460   1.364   3.374  1.0493  1.3377 -1.1233
 3005SOL    HW220475   1.347   1.436   3.319 -2.0699  1.0355  1.6301
 3006SOL     OW20476   1.279   2.695   5.128 -0.5388 -0.3160 -0.0027
 3006SOL    HW120477   1.205   2.635   5.130 -1.4049  0.7122 -0.9857
 3006SOL    HW220478   1.347   2.639   5.090  0.0522 -1.1815  2.3066
 3007SOL     OW20479   0.757   0.930   2.235 -0.6610 -0.8170 -0.7507
 3007SOL    HW120480   0.846   0.963   2.246 -1.3627  0.2698  1.7095
 3007SOL    HW220481   0.725   0.947   2.146 -0.4464  0.2093 -0.6313
 3008SOL     OW20482   2.172   4.134  12.180  0.7778  0.0827 -0.1050
 3008SOL    HW120483   2.200   4.169  12.095 -1.4211  2.2078  0.0641
 3008SOL    HW220484   2.077   4.139  12.177  0.8626  0.8056 -1.4304
 3009SOL     OW20485   4.558   1.565   6.027  0.5805  0.0176  0.8007
 3009SOL    HW120486   4.532   1.625   5.957  0.3390 -1.8847 -0.7159
 3009SOL    HW220487   4.587   1.494   5.970  0.6958  0.3856  0.3957
 3010SOL     OW20488   1.602   3.259  10.258  0.2042 -0.2858 -0.2326
 3010SOL    HW120489   1.605   3.332  10.196 -1.3140 -0.7605 -0.8708
 3010SOL    HW220490   1.518   3.219  10.235 -0.4414  0.4481  0.8861
 3011SOL     OW20491   3.923   2.304   5.272 -0.0614  0.0194 -0.1145
 3011SOL    HW120492   3.931   2.352   5.190 -1.4991 -3.0753 -2.0256
 3011SOL    HW220493   3.828   2.314   5.272 -0.0809 -0.1778 -0.3408
 3012SOL     OW20494   1.004   1.554   2.254 -0.1106  0.1817  0.4489
 3012SOL    HW120495   1.031   1.552   2.162  1.1438  1.3311  0.7963
 3012SOL    HW220496   0.951   1.634   2.256  0.4530  0.5172  2.3594
 3013SOL     OW20497   2.426   4.423   6.901 -0.0292  0.1717 -0.0760
 3013SOL    HW120498   2.350   4.373   6.872 -0.7653  0.3507  1.5587
 3013SOL    HW220499   2.452   4.470   6.821  0.9760 -1.3627 -0.6595
 3014SOL     OW20500   1.937   1.891   2.109 -0.2024 -0.4993 -0.1004
 3014SOL    HW120501   1.943   1.797   2.090  0.1835 -0.3361 -0.7733
 3014SOL    HW220502   2.031   1.911   2.108 -0.1500 -0.7883 -0.6004
 3015SOL     OW20503   2.120   2.178   0.858 -0.0532  0.0184  0.5002
 3015SOL    HW120504   2.031   2.180   0.824  0.2666  0.3244 -0.3017
 3015SOL    HW220505   2.149   2.095   0.821 -0.7453  0.1228 -0.2578
 3016SOL     OW20506   1.492   2.815   8.790  0.5790  0.2088  0.3703
 3016SOL    HW120507   1.511   2.848   8.703  0.7067  0.2905  0.4285
 3016SOL    HW220508   1.404   2.781   8.777  0.7245  0.5087 -1.4048
 3017SOL     OW20509   0.392   3.455   5.540  0.1239 -0.3249 -0.1769
 3017SOL    HW120510   0.408   3.401   5.462 -0.5934  0.3213 -0.7740
 3017SOL    HW220511   0.483   3.472   5.563  0.4039  0.0173 -1.5064
 3018SOL     OW20512   2.133   0.285   2.974 -0.6481 -0.0605 -0.4924
 3018SOL    HW120513   2.191   0.218   3.009 -1.3993 -0.0924  0.6738
 3018SOL    HW220514   2.044   0.253   2.986 -1.5565  2.2128 -1.0721
 3019SOL     OW20515   4.172   3.446   0.703 -0.4653  1.1904  0.6951
 3019SOL    HW120516   4.135   3.467   0.789 -1.3923  1.5570  0.2001
 3019SOL    HW220517   4.238   3.515   0.701  0.5442  0.1278 -2.1480
 3020SOL     OW20518   0.696   3.956   6.075 -0.9121  0.0851  0.2558
 3020SOL    HW120519   0.654   3.965   6.161  0.0915 -0.8590  0.8520
 3020SOL    HW220520   0.646   3.887   6.031 -0.0323  0.1074 -0.7748
 3021SOL     OW20521   2.509   0.660   0.905 -0.7063  1.0875 -0.1293
 3021SOL    HW120522   2.584   0.652   0.963 -0.9008  0.8437  0.0874
 3021SOL    HW220523   2.531   0.595   0.838 -1.0082  0.1000  0.7355
 3022SOL     OW20524   2.671   2.623  12.209  0.6778  0.0266  0.2333
 3022SOL    HW120525   2.652   2.671  12.290  2.1758  0.0413  0.5888
 3022SOL    HW220526   2.681   2.532  12.236 -1.5942 -0.5921 -1.0542
 3023SOL     OW20527   2.546   1.296   6.624  0.2564 -0.5564 -0.1142
 3023SOL    HW120528   2.595   1.273   6.546 -0.1260 -1.1944 -0.1665
 3023SOL    HW220529   2.609   1.292   6.696  1.1961 -0.8183 -0.9574
 3024SOL     OW20530   3.066   4.549   8.786 -0.0216  0.3145  0.7059
 3024SOL    HW120531   3.118   4.498   8.848  0.0018  2.9048  2.8140
 3024SOL    HW220532   3.068   4.637   8.825  1.4322  0.9744 -0.8775
 3025SOL     OW20533   3.402   4.240   5.731 -0.1193 -0.1888 -0.4572
 3025SOL    HW120534   3.395   4.335   5.737 -1.5008 -0.3515  0.4920
 3025SOL    HW220535   3.310   4.214   5.724 -0.6557  2.0543 -1.5738
 3026SOL     OW20536   0.817   1.812  10.383  0.1389 -0.2536 -0.0831
 3026SOL    HW120537   0.773   1.728  10.391  1.2887 -0.8912 -0.4589
 3026SOL    HW220538   0.892   1.787  10.437 -0.3531  0.7826  1.0765
 3027SOL     OW20539   4.374   1.802   2.929 -0.3270  0.0204  0.7143
 3027SOL    HW120540   4.382   1.813   3.024  0.0540 -0.1909  0.7093
 3027SOL    HW220541   4.286   1.766   2.921 -0.9724  1.2840  1.9802
 3028SOL     OW20542   4.693   1.714   8.002  0.1090 -0.0318 -0.4718
 3028SOL    HW120543   4.629   1.713   7.930  0.2499  0.6054 -0.6021
 3028SOL    HW220544   4.642   1.703   8.082 -1.1163  2.3936 -0.9237
 3029SOL     OW20545   0.953   3.603   3.273 -0.0414 -0.1602 -0.4708
 3029SOL    HW120546   0.960   3.508   3.282 -1.5437 -0.2169  0.1211
 3029SOL    HW220547   1.010   3.609   3.196 -2.2646 -2.5436 -2.2704
 3030SOL     OW20548   3.258   3.404   7.738  0.2720 -0.8406 -0.1178
 3030SOL    HW120549   3.170   3.420   7.704  0.7552 -1.2369 -1.5240
 3030SOL    HW220550   3.297   3.491   7.734  1.4766 -1.4217 -0.8873
 3031SOL     OW20551   1.541   1.118   5.510  0.3673  0.0028 -0.2194
 3031SOL    HW120552   1.618   1.172   5.526 -0.3498  0.9336  0.1333
 3031SOL    HW220553   1.463   1.162   5.544  0.7498 -0.9294  1.8786
 3032SOL     OW20554   1.394   2.233   4.991 -0.7035 -0.3359 -0.3626
 3032SOL    HW120555   1.400   2.178   5.069 -1.0905 -0.2975 -0.3051
 3032SOL    HW220556   1.317   2.200   4.943 -0.7187  0.1782 -0.6973
 3033SOL     OW20557   2.447   2.280  12.400  0.0758 -0.0714 -0.1397
 3033SOL    HW120558   2.376   2.292  12.336  1.2321  0.6029 -1.2976
 3033SOL    HW220559   2.399   2.228  12.464  2.2514 -0.8446  0.8452
 3034SOL     OW20560   3.401   2.060   0.678 -0.0393  0.1658  0.3594
 3034SOL    HW120561   3.332   2.093   0.620  1.6741  3.6100  0.2979
 3034SOL    HW220562   3.475   2.110   0.645 -0.2597 -1.3119 -2.4718
 3035SOL     OW20563   1.437   3.137  14.417 -0.4286  0.1457  0.6622
 3035SOL    HW120564   1.496   3.091  14.477 -1.1070  0.1594  1.3392
 3035SOL    HW220565   1.395   3.060  14.378 -1.0977  1.3673 -1.0514
 3036SOL     OW20566   2.024   1.589   8.205  0.1763 -0.1815  0.2516
 3036SOL    HW120567   2.094   1.614   8.265 -1.4155 -0.2435  2.1203
 3036SOL    HW220568   1.980   1.674   8.199  1.9349  0.7736  1.2788
 3037SOL     OW20569   0.825   3.595   6.330  0.6390 -0.3183  0.5182
 3037SOL    HW120570   0.818   3.627   6.420  3.1453  1.3500  0.1103
 3037SOL    HW220571   0.919   3.578   6.340  0.5706 -1.4034 -0.6895
 3038SOL     OW20572   3.407   4.251  16.001 -0.0027 -0.6485 -0.1383
 3038SOL    HW120573   3.407   4.183  16.070 -0.4851 -1.9614 -1.4314
 3038SOL    HW220574   3.376   4.329  16.046 -2.8203 -1.4371 -0.7512
 3039SOL     OW20575   3.013   0.369   7.016 -0.5331 -0.5897 -0.0660
 3039SOL    HW120576   2.961   0.446   6.992 -0.4990 -0.8962 -1.1433
 3039SOL    HW220577   3.087   0.387   6.959 -0.3448 -1.0788  0.0221
 3040SOL     OW20578   3.975   3.799   8.802 -0.4316  0.2362 -0.5709
 3040SOL    HW120579   4.022   3.811   8.885 -1.5869  1.0361 -0.0417
 3040SOL    HW220580   4.049   3.830   8.749 -0.9572  0.0978 -1.3868
 3041SOL     OW20581   3.669   2.327   1.099 -0.0929  0.1403  0.4388
 3041SOL    HW120582   3.701   2.400   1.046  1.8743 -0.5241  0.7164
 3041SOL    HW220583   3.742   2.318   1.160  0.7873  1.9825 -0.3578
 3042SOL     OW20584   1.093   2.362   2.492  0.1960  0.1554  0.0107
 3042SOL    HW120585   1.002   2.386   2.477 -0.6319 -3.0535 -0.2191
 3042SOL    HW220586   1.132   2.387   2.408  2.5029 -1.3201  0.6208
 3043SOL     OW20587   3.019   2.460   1.999 -0.0580 -0.4592  0.2731
 3043SOL    HW120588   3.097   2.423   1.958 -1.3836  0.0219 -2.7038
 3043SOL    HW220589   3.007   2.547   1.961  0.2827 -0.9568 -0.9695
 3044SOL     OW20590   1.554   0.779   2.601 -0.5743 -0.1396 -0.3660
 3044SOL    HW120591   1.624   0.822   2.552 -0.0704 -0.3798  0.1404
 3044SOL    HW220592   1.483   0.831   2.565  0.1777  0.6799 -0.6678
 3045SOL     OW20593   2.329   2.920   3.878  0.1792 -0.8503 -0.3515
 3045SOL    HW120594   2.250   2.967   3.852  0.5709 -1.0011 -1.8141
 3045SOL    HW220595   2.379   2.991   3.917 -0.1252 -1.0877  0.4846
 3046SOL     OW20596   1.242   3.195   5.319  0.1090  0.1111  0.3944
 3046SOL    HW120597   1.229   3.113   5.273  0.2075  0.7790 -0.8196
 3046SOL    HW220598   1.167   3.251   5.297 -0.8711 -1.6149 -0.6180
 3047SOL     OW20599   3.745   3.227  12.949 -0.6938  0.8764  0.0461
 3047SOL    HW120600   3.767   3.305  13.000 -1.1562  1.3524 -0.4837
 3047SOL    HW220601   3.794   3.159  12.996  1.2507  3.0264  1.1548
 3048SOL     OW20602   3.155   1.209   7.714 -0.3581  0.3153  0.1367
 3048SOL    HW120603   3.139   1.131   7.768 -3.1308  1.2951  0.7363
 3048SOL    HW220604   3.073   1.252   7.740 -0.6801 -1.2777  1.7529
 3049SOL     OW20605   4.077   3.960   4.993 -0.2684 -0.3332  0.8935
 3049SOL    HW120606   4.027   4.004   4.925  1.3432  1.1899  0.7019
 3049SOL    HW220607   4.171   3.968   4.976 -0.5105 -0.9548 -0.7493
 3050SOL     OW20608   3.508   1.943   0.269  0.0820 -0.2288  0.2793
 3050SOL    HW120609   3.588   1.996   0.263 -1.6031  2.2650 -0.2752
 3050SOL    HW220610   3.532   1.865   0.219 -0.7956 -1.8873  2.4842
 3051SOL     OW20611   1.764   3.548   2.877 -0.1271  0.7749  0.7968
 3051SOL    HW120612   1.786   3.525   2.786 -0.2456  2.8563  0.2401
 3051SOL    HW220613   1.742   3.641   2.868 -0.0844  0.5509 -1.5703
 3052SOL     OW20614   3.067   2.399   6.088 -0.2131 -0.2640 -0.4176
 3052SOL    HW120615   3.114   2.345   6.151  1.5811  0.3502 -1.2210
 3052SOL    HW220616   3.015   2.340   6.033 -1.9309 -0.1467  1.0839
 3053SOL     OW20617   3.681   4.069   6.607  0.4046  0.2855 -0.6261
 3053SOL    HW120618   3.734   3.997   6.573  0.3953 -1.0647  2.1546
 3053SOL    HW220619   3.609   4.015   6.640  0.9555 -1.7163 -2.6582
 3054SOL     OW20620   4.057   3.451   5.062  0.1977 -0.0432 -0.4236
 3054SOL    HW120621   4.013   3.526   5.023  0.1045  0.6452  1.0211
 3054SOL    HW220622   4.144   3.455   5.021  0.0512 -1.3523 -0.8807
 3055SOL     OW20623   3.636   0.011  16.818 -0.2207 -0.5664 -0.0048
 3055SOL    HW120624   3.713   4.680  16.834 -1.8843 -3.1994 -1.0533
 3055SOL    HW220625   3.667   0.087  16.770 -0.8188  0.7405  1.6930
 3056SOL     OW20626   3.599   0.967  11.595 -0.3193 -0.4822  0.2132
 3056SOL    HW120627   3.606   0.892  11.655  0.9441  0.2451  0.9838
 3056SOL    HW220628   3.672   0.956  11.534 -1.9972 -0.8186 -1.7016
 3057SOL     OW20629   2.296   3.622  14.320  0.0194  0.1282  0.1283
 3057SOL    HW120630   2.376   3.601  14.368  0.2132 -0.0451 -0.2762
 3057SOL    HW220631   2.237   3.608  14.394 -0.7287 -1.5601 -0.7901
 3058SOL     OW20632   2.084   3.068   2.865 -0.3006  0.7978  0.0325
 3058SOL    HW120633   1.993   3.079   2.839 -0.8688 -0.4778  1.4686
 3058SOL    HW220634   2.130   3.073   2.781 -0.1630 -1.5117 -0.0269
 3059SOL     OW20635   2.206   2.695   3.960  0.1989 -0.2273  0.0972
 3059SOL    HW120636   2.260   2.760   3.916 -0.6425 -0.5410 -1.3796
 3059SOL    HW220637   2.149   2.761   4.000 -0.4130  0.0096 -1.1876
 3060SOL     OW20638   2.752   4.529   4.548 -0.3020 -0.3643  0.0256
 3060SOL    HW120639   2.705   4.451   4.519 -0.7702  0.6768 -1.9481
 3060SOL    HW220640   2.830   4.480   4.573 -0.5319  0.0114  1.5329
 3061SOL     OW20641   4.488   1.192  17.078  0.4660 -0.2287 -0.0132
 3061SOL    HW120642   4.481   1.136  17.155 -0.8656 -0.8579 -0.5819
 3061SOL    HW220643   4.416   1.256  17.084  1.3334  0.8369 -1.0433
 3062SOL     OW20644   2.781   1.380   6.044 -0.0063  0.1437  0.3916
 3062SOL    HW120645   2.724   1.304   6.058 -2.9415  2.3885  0.7261
 3062SOL    HW220646   2.857   1.332   6.012  2.1193  3.1053  0.9269
 3063SOL     OW20647   0.107   2.589   6.948  0.2973  0.0319  0.5716
 3063SOL    HW120648   0.116   2.567   7.041 -1.5281 -3.5579 -0.0853
 3063SOL    HW220649   0.014   2.605   6.934  0.9869  2.7612 -0.8568
 3064SOL     OW20650   0.719   1.470   7.991  0.0610 -0.3078  0.4870
 3064SOL    HW120651   0.656   1.535   7.960 -1.5285 -2.4523 -0.6936
 3064SOL    HW220652   0.667   1.391   7.977 -0.9387  0.1977  1.3513
 3065SOL     OW20653   1.023   0.515   1.520 -0.2515 -0.3544  0.2208
 3065SOL    HW120654   1.002   0.496   1.429 -2.6061 -0.6939  0.8507
 3065SOL    HW220655   0.932   0.508   1.548  0.6458  1.0566  3.4997
 3066SOL     OW20656   0.826   4.667   0.870 -0.0825 -0.0624  0.0805
 3066SOL    HW120657   0.784   0.005   0.810 -0.0937  0.7092  0.8983
 3066SOL    HW220658   0.919   4.677   0.852 -0.1766  0.2483 -0.2276
 3067SOL     OW20659   1.638   0.417   5.302 -0.2296  0.3667 -0.2778
 3067SOL    HW120660   1.603   0.496   5.343 -0.7608 -1.1169  2.1124
 3067SOL    HW220661   1.603   0.342   5.349 -0.7225  0.8223  0.0789
 3068SOL     OW20662   4.198   1.404   5.819  0.5833 -0.4477  0.0850
 3068SOL    HW120663   4.121   1.352   5.841  0.1472  0.3395  0.4139
 3068SOL    HW220664   4.212   1.397   5.724 -2.0829 -0.2915 -0.3152
 3069SOL     OW20665   1.964   0.716   0.644 -0.0993 -0.1111 -0.0172
 3069SOL    HW120666   1.940   0.626   0.621  1.1071 -0.0086 -1.6846
 3069SOL    HW220667   1.884   0.746   0.687 -0.2521 -1.4612  0.6465
 3070SOL     OW20668   0.370   3.993   4.972 -0.5199  0.3213  0.1229
 3070SOL    HW120669   0.371   3.982   5.067  2.1794  1.5570  0.2285
 3070SOL    HW220670   0.303   3.931   4.943  0.1970 -0.8966  1.0743
 3071SOL     OW20671   4.492   4.450   2.659  0.5700 -0.1549  0.7903
 3071SOL    HW120672   4.558   4.518   2.648 -0.7100  1.0287  0.3842
 3071SOL    HW220673   4.521   4.377   2.604 -1.4387 -1.0541  0.9394
 3072SOL     OW20674   4.686   4.699   5.718 -0.1639 -0.1426  0.0906
 3072SOL    HW120675   4.713   4.608   5.706 -0.6597 -0.6278  2.4803
 3072SOL    HW220676   4.699   4.713   5.812 -1.0013  2.6768 -0.2043
 3073SOL     OW20677   4.484   4.048   2.941 -0.0322 -0.0569  0.2045
 3073SOL    HW120678   4.446   4.133   2.963  2.3935  0.6456  1.6598
 3073SOL    HW220679   4.511   4.055   2.849  0.2839  0.5991  0.3500
 3074SOL     OW20680   0.117   3.047   3.055  0.3090 -0.2870 -0.1085
 3074SOL    HW120681   0.028   3.064   3.025 -0.2892 -1.1862  1.1707
 3074SOL    HW220682   0.124   2.955   3.031 -1.4458 -0.1690 -1.0239
 3075SOL     OW20683   1.766   3.490   0.441  0.0205 -0.1680 -0.4166
 3075SOL    HW120684   1.774   3.570   0.492 -0.0929  0.4002 -1.3040
 3075SOL    HW220685   1.687   3.452   0.480 -2.1391  3.1407 -1.5525
 3076SOL     OW20686   3.383   4.538   3.340 -0.4735 -0.0719 -0.1398
 3076SOL    HW120687   3.448   4.531   3.270 -0.5844 -0.4446 -0.2056
 3076SOL    HW220688   3.305   4.552   3.287 -0.2283 -1.9724 -0.9910
 3077SOL     OW20689   0.862   3.652   4.480 -0.1303  0.0736 -0.7003
 3077SOL    HW120690   0.913   3.676   4.403  0.0545 -0.4870 -0.7456
 3077SOL    HW220691   0.924   3.588   4.513 -0.1801 -0.9639 -2.6211
 3078SOL     OW20692   3.701   0.955   5.716 -0.2143 -0.6885  0.9683
 3078SOL    HW120693   3.697   0.977   5.810  0.5033  0.5183  0.7141
 3078SOL    HW220694   3.659   1.020   5.660 -0.1519 -1.0801  0.4657
 3079SOL     OW20695   4.260   4.479   5.094 -0.4455  0.2485  0.2753
 3079SOL    HW120696   4.293   4.442   5.176 -1.3465 -0.8515  0.1442
 3079SOL    HW220697   4.170   4.449   5.107  0.3378 -2.9250 -1.7273
 3080SOL     OW20698   2.910   2.586  15.115  0.1189  0.3211 -0.2012
 3080SOL    HW120699   2.905   2.553  15.026  1.6630  0.7508 -0.4599
 3080SOL    HW220700   2.822   2.613  15.141  1.3628  3.3178  0.8783
 3081SOL     OW20701   3.800   2.279   7.997 -0.4729  0.2399  0.0799
 3081SOL    HW120702   3.780   2.187   8.013 -1.1148  0.7714  2.3376
 3081SOL    HW220703   3.711   2.310   7.979  0.7317  2.8078 -1.4887
 3082SOL     OW20704   4.701   4.621   4.339 -0.0595  0.8020  0.1022
 3082SOL    HW120705   4.637   4.590   4.403  0.6031  0.7458  0.7503
 3082SOL    HW220706   4.652   4.688   4.292  0.7858  1.6123  0.3863
 3083SOL     OW20707   3.747   3.848   6.276  0.3420 -0.2563  0.0460
 3083SOL    HW120708   3.834   3.815   6.258  1.6343  2.8681  0.5601
 3083SOL    HW220709   3.757   3.870   6.369 -1.5321 -0.5189  0.3097
 3084SOL     OW20710   0.404   1.723   2.518  0.3078 -0.2761 -0.2694
 3084SOL    HW120711   0.426   1.746   2.428  1.3856 -1.0046 -0.2000
 3084SOL    HW220712   0.475   1.769   2.564  0.2693  1.1102 -1.5975
 3085SOL     OW20713   1.675   2.814   5.918 -0.1655  0.1822  1.0307
 3085SOL    HW120714   1.704   2.865   5.993  1.4433 -0.8080  1.0697
 3085SOL    HW220715   1.759   2.787   5.882 -0.8731 -2.0253  1.0014
 3086SOL     OW20716   4.068   2.352   3.396 -0.1378  0.0205 -0.3555
 3086SOL    HW120717   4.005   2.281   3.388 -1.3130  1.2681 -2.2763
 3086SOL    HW220718   4.053   2.397   3.313 -1.0751  0.3730  0.0054
 3087SOL     OW20719   2.964   0.894  13.175  0.0899  0.3971  0.8116
 3087SOL    HW120720   2.884   0.868  13.221  0.0163 -0.7370  0.0527
 3087SOL    HW220721   2.942   0.986  13.157 -0.3130 -0.4069 -2.7551
 3088SOL     OW20722   3.044   0.563   7.965 -0.9793 -0.3494  0.1958
 3088SOL    HW120723   3.014   0.557   8.056 -0.1795 -0.6833  0.4341
 3088SOL    HW220724   2.971   0.603   7.918 -0.2572  1.0337  0.2750
 3089SOL     OW20725   4.626   3.203  11.775 -0.2731  0.3524  0.0560
 3089SOL    HW120726   4.622   3.274  11.711 -0.4043 -0.9915 -1.4409
 3089SOL    HW220727   4.590   3.124  11.736  0.9117  0.7908 -1.9326
 3090SOL     OW20728   4.279   2.687   2.723 -0.4239  0.3111 -0.7450
 3090SOL    HW120729   4.249   2.656   2.808  1.6677  1.3326  0.3566
 3090SOL    HW220730   4.343   2.619   2.706 -3.4194 -2.2552 -1.7710
 3091SOL     OW20731   4.253   1.167  15.659  0.2865 -0.2316 -0.4274
 3091SOL    HW120732   4.174   1.177  15.606  0.0731  1.0800  0.1308
 3091SOL    HW220733   4.216   1.123  15.736 -0.4094 -0.4196 -0.8639
 3092SOL     OW20734   2.579   2.903   1.791  0.0284 -0.2551 -0.2949
 3092SOL    HW120735   2.593   2.922   1.883 -2.2770  1.9697 -0.3934
 3092SOL    HW220736   2.560   2.810   1.791 -0.7146 -0.1013 -3.3363
 3093SOL     OW20737   2.440   4.183   8.711 -0.2325 -0.3201  0.3048
 3093SOL    HW120738   2.490   4.106   8.737 -0.6260 -0.8770 -0.5750
 3093SOL    HW220739   2.411   4.141   8.630  1.0870 -1.7427  0.5665
 3094SOL     OW20740   2.220   2.932   4.980 -0.2576  0.2649  0.2414
 3094SOL    HW120741   2.314   2.924   4.996 -0.6295 -2.0780  1.2098
 3094SOL    HW220742   2.214   2.997   4.910 -0.2173 -0.8235 -0.7694
 3095SOL     OW20743   1.440   2.922   6.931 -0.8997  0.1104 -0.4633
 3095SOL    HW120744   1.513   2.940   6.872  2.1067 -1.4635  2.7540
 3095SOL    HW220745   1.429   2.828   6.915 -3.1668  0.3551 -0.4025
 3096SOL     OW20746   0.707   1.756   7.172  0.5969  0.4183  0.5483
 3096SOL    HW120747   0.753   1.834   7.203 -0.2085  1.2888 -0.4431
 3096SOL    HW220748   0.707   1.769   7.077 -3.3788  1.9087  0.7460
 3097SOL     OW20749   0.934   1.736   5.434 -0.2269  0.1819  0.6953
 3097SOL    HW120750   0.917   1.679   5.509 -1.6009  1.7585  1.6050
 3097SOL    HW220751   0.911   1.824   5.463  1.0587  0.1266  1.9167
 3098SOL     OW20752   4.694   0.334   9.315  0.1529 -0.0479  0.3846
 3098SOL    HW120753   4.627   0.398   9.340  0.8024  1.4489 -1.6596
 3098SOL    HW220754   0.043   0.395   9.303 -0.0304  0.1077  0.0317
 3099SOL     OW20755   1.239   0.270   7.814 -0.2001 -0.3475  0.0920
 3099SOL    HW120756   1.173   0.293   7.880 -0.3799 -1.3755  0.2782
 3099SOL    HW220757   1.283   0.353   7.798 -0.8257 -0.4574 -2.2270
 3100SOL     OW20758   1.431   4.446  11.537  0.2785  0.3087 -0.4856
 3100SOL    HW120759   1.502   4.508  11.525  0.4519  0.7883  2.9526
 3100SOL    HW220760   1.403   4.427  11.447  0.9110  0.1335 -0.6465
 3101SOL     OW20761   2.473   0.335   6.938 -0.0687  0.3314  0.2405
 3101SOL    HW120762   2.422   0.413   6.915 -0.3515  0.1516  0.2591
 3101SOL    HW220763   2.553   0.384   6.956  0.4182  0.1709 -1.4467
 3102SOL     OW20764   1.632   4.645   8.415  0.1333 -0.1539  0.2703
 3102SOL    HW120765   1.649   0.008   8.381 -0.6746 -0.7873 -1.7653
 3102SOL    HW220766   1.707   4.588   8.396  0.9822  1.6390 -1.6465
 3103SOL     OW20767   4.498   3.592  12.721 -0.0006 -0.0195  0.3786
 3103SOL    HW120768   4.559   3.618  12.652  2.9864  0.6694  3.3046
 3103SOL    HW220769   4.424   3.652  12.729  2.0455  2.6191 -0.5218
 3104SOL     OW20770   2.761   1.556   2.173  0.8620  0.1935 -0.1791
 3104SOL    HW120771   2.848   1.573   2.138  0.5804  1.7300 -0.1276
 3104SOL    HW220772   2.752   1.637   2.223 -1.7605 -0.5717  0.5969
 3105SOL     OW20773   2.607   1.648   6.382  0.2043  0.7125  0.2909
 3105SOL    HW120774   2.572   1.727   6.424 -0.7892  0.5960 -0.3281
 3105SOL    HW220775   2.568   1.659   6.296 -0.5279  0.2308  0.5569
 3106SOL     OW20776   2.414   4.050   0.026  0.0900  0.2587  0.1652
 3106SOL    HW120777   2.373   3.982  17.672 -3.5745  2.5250  0.1085
 3106SOL    HW220778   2.414   4.003   0.109  0.7084  1.9112  1.1198
 3107SOL     OW20779   2.013   3.493  16.656 -0.2599 -0.7921  0.0759
 3107SOL    HW120780   2.089   3.517  16.603  0.2975 -1.2045  0.6880
 3107SOL    HW220781   2.006   3.403  16.624 -0.7934 -0.8397  0.3210
 3108SOL     OW20782   3.270   4.574   3.809 -0.1544  0.2706 -0.1793
 3108SOL    HW120783   3.357   4.535   3.818 -0.3231 -0.0067  0.2382
 3108SOL    HW220784   3.214   4.496   3.810  1.8323 -1.1280  1.6762
 3109SOL     OW20785   1.559   3.057   2.561 -0.5090 -0.3555  0.2013
 3109SOL    HW120786   1.578   2.988   2.624  1.1767  0.5403  0.6855
 3109SOL    HW220787   1.510   3.111   2.624 -0.7843 -1.8625  1.2713
 3110SOL     OW20788   3.833   1.013  13.170 -0.1077 -0.3536 -0.0934
 3110SOL    HW120789   3.807   1.073  13.100  0.3174 -1.1021 -0.8927
 3110SOL    HW220790   3.748   0.992  13.210 -0.6446  0.8694 -0.5674
 3111SOL     OW20791   4.201   1.123  10.177  0.0831  0.1971  0.5031
 3111SOL    HW120792   4.220   1.052  10.238 -1.6617  0.3254  1.2095
 3111SOL    HW220793   4.291   1.154  10.176 -0.1132  0.7563  0.0441
 3112SOL     OW20794   0.254   0.148   8.562 -0.0768  0.0752 -0.3953
 3112SOL    HW120795   0.262   0.241   8.542 -1.0967  0.2620  0.0755
 3112SOL    HW220796   0.161   0.141   8.583 -0.2179 -0.9967 -1.3956
 3113SOL     OW20797   0.039   2.529   0.872  0.5584  0.7848  0.5171
 3113SOL    HW120798   4.713   2.459   0.831  1.6220 -0.4095  1.2405
 3113SOL    HW220799   0.118   2.537   0.819  1.0606 -1.4617  0.9516
 3114SOL     OW20800   3.161   4.094  16.637 -0.6982 -0.4573  0.0055
 3114SOL    HW120801   3.092   4.032  16.662 -1.1508 -0.6167 -1.5864
 3114SOL    HW220802   3.117   4.177  16.653  0.5993  0.2203  0.0153
 3115SOL     OW20803   1.339   0.123  16.445 -0.0965 -0.7148 -0.5298
 3115SOL    HW120804   1.362   0.121  16.352  1.9095  2.4073 -0.0878
 3115SOL    HW220805   1.264   0.064  16.449  0.4944 -1.4198  0.1181
 3116SOL     OW20806   3.967   3.800   3.810  0.1363 -0.0532 -0.2978
 3116SOL    HW120807   3.920   3.717   3.818 -1.5015  0.8723 -0.3239
 3116SOL    HW220808   4.034   3.776   3.746 -0.2043 -0.4123 -0.5225
 3117SOL     OW20809   1.111   4.523   0.789 -0.5715  0.1155  0.0718
 3117SOL    HW120810   1.089   4.616   0.804  0.0653  0.2901 -0.0716
 3117SOL    HW220811   1.105   4.524   0.694 -0.1286  0.0308  0.0451
 3118SOL     OW20812   2.053   0.618   5.138 -0.0704  0.7081 -0.0187
 3118SOL    HW120813   2.059   0.714   5.136 -1.1610  0.7862  0.2164
 3118SOL    HW220814   1.960   0.596   5.134  0.3142 -0.3661 -2.8821
 3119SOL     OW20815   2.833   1.031   2.721  0.2595 -0.4743 -0.2519
 3119SOL    HW120816   2.924   1.031   2.691 -0.2368  3.1130 -1.7154
 3119SOL    HW220817   2.840   1.073   2.806 -0.2921  0.5823 -0.7260
 3120SOL     OW20818   0.959   3.913   5.295 -0.1062  0.0278  0.8384
 3120SOL    HW120819   1.031   3.977   5.296  1.0004 -1.2536  4.3027
 3120SOL    HW220820   0.971   3.862   5.375  0.2389  0.9970  1.4075
 3121SOL     OW20821   3.244   0.480  16.142  0.1129 -0.3590 -0.0179
 3121SOL    HW120822   3.320   0.536  16.124 -1.7721  1.8449 -1.0160
 3121SOL    HW220823   3.277   0.396  16.174  1.6937  1.0585  2.0448
 3122SOL     OW20824   3.919   4.615  15.748 -0.1645 -0.0732  0.9388
 3122SOL    HW120825   3.973   4.622  15.826  0.1384  0.8466  0.6460
 3122SOL    HW220826   3.918   4.520  15.732 -1.0542  0.0565  0.1716
 3123SOL     OW20827   1.417   3.112   2.219 -0.3356  0.0699 -0.2354
 3123SOL    HW120828   1.501   3.134   2.178 -1.2670  2.3717 -0.9460
 3123SOL    HW220829   1.374   3.197   2.212  0.5578  0.4957 -0.6757
 3124SOL     OW20830   3.313   1.242   9.207 -0.2144 -0.3905 -0.1760
 3124SOL    HW120831   3.406   1.264   9.214 -0.6146  0.1895  3.6055
 3124SOL    HW220832   3.267   1.295   9.273 -0.1967 -0.8975  0.2521
 3125SOL     OW20833   0.735   1.870   7.485 -0.3645 -0.5327  0.1376
 3125SOL    HW120834   0.664   1.931   7.502 -0.5291 -1.6073  3.2042
 3125SOL    HW220835   0.748   1.876   7.390 -2.6069 -0.6658 -0.1793
 3126SOL     OW20836   1.104   3.596   4.733 -0.6134 -0.3858  0.3365
 3126SOL    HW120837   1.055   3.522   4.770  0.0366 -0.6979  0.5602
 3126SOL    HW220838   1.168   3.613   4.802 -0.1130 -1.4306  0.1280
 3127SOL     OW20839   2.192   2.436  14.453 -0.0800 -0.1690 -0.2342
 3127SOL    HW120840   2.207   2.396  14.368 -0.8392  1.9719 -1.3891
 3127SOL    HW220841   2.214   2.371  14.519  2.1791  2.1750  1.3200
 3128SOL     OW20842   0.850   0.663  14.010 -0.2838 -0.1241  0.3868
 3128SOL    HW120843   0.873   0.578  14.047 -0.8987 -1.3157 -1.9806
 3128SOL    HW220844   0.799   0.638  13.933 -0.8606 -0.1728  0.7930
 3129SOL     OW20845   4.127   0.421   4.039 -0.4304  0.2428 -0.1095
 3129SOL    HW120846   4.070   0.431   4.115  0.1250  2.3173  0.0159
 3129SOL    HW220847   4.124   0.510   4.003 -3.8643  0.7750  1.4521
 3130SOL     OW20848   1.802   4.716   2.814  0.0495 -0.0545  0.1321
 3130SOL    HW120849   1.715   0.013   2.849 -0.3748 -2.7840  0.7214
 3130SOL    HW220850   1.850   0.050   2.873 -1.1842 -1.3578  2.4353
 3131SOL     OW20851   0.455   4.092   3.717 -0.3106 -0.3724 -0.1603
 3131SOL    HW120852   0.429   4.031   3.647 -1.8064 -2.3198  2.0904
 3131SOL    HW220853   0.374   4.139   3.735  0.9123  1.9201 -0.6484
 3132SOL     OW20854   0.314   2.865  10.202 -0.3169  0.2885  0.2074
 3132SOL    HW120855   0.337   2.928  10.133 -3.1546  0.3940 -0.6166
 3132SOL    HW220856   0.382   2.798  10.194 -0.3011  0.2190  0.9220
 3133SOL     OW20857   3.894   2.149   2.982  0.0816 -0.2354 -0.1482
 3133SOL    HW120858   3.965   2.100   3.022 -0.1941  1.0896  2.0127
 3133SOL    HW220859   3.935   2.232   2.958  0.9593 -0.7651 -0.4571
 3134SOL     OW20860   2.439   3.005  12.395  0.7952  0.1960 -0.1142
 3134SOL    HW120861   2.353   2.992  12.434 -0.2177  0.5822 -2.2165
 3134SOL    HW220862   2.441   3.099  12.378  1.6654  0.4232  1.2846
 3135SOL     OW20863   3.370   4.226   3.490  0.0865  0.1862 -0.3923
 3135SOL    HW120864   3.389   4.132   3.480  0.0229  0.2470 -1.0874
 3135SOL    HW220865   3.318   4.250   3.413 -1.6056  1.6719  1.2242
 3136SOL     OW20866   0.380   4.207  10.013  0.3957 -0.9256  0.7333
 3136SOL    HW120867   0.323   4.165   9.949  0.1591  1.4378 -0.6173
 3136SOL    HW220868   0.443   4.241   9.950 -1.4383  0.2595 -0.4876
 3137SOL     OW20869   1.349   4.165   0.728 -0.4012  0.3643  0.0123
 3137SOL    HW120870   1.403   4.231   0.772  0.9208  0.7057 -2.1178
 3137SOL    HW220871   1.263   4.193   0.757 -0.5024 -0.5715  0.5953
 3138SOL     OW20872   3.298   0.080  10.269  0.1168 -0.3508 -0.7772
 3138SOL    HW120873   3.394   0.079  10.278  0.0465 -1.1996 -0.1948
 3138SOL    HW220874   3.275   4.722  10.312  2.0820 -0.0947  0.7766
 3139SOL     OW20875   1.443   0.767  11.776  0.2730 -0.1279 -0.0034
 3139SOL    HW120876   1.529   0.767  11.817  0.9498  0.2058 -1.4389
 3139SOL    HW220877   1.383   0.793  11.846  0.1763 -1.1936  0.3127
 3140SOL     OW20878   3.507   0.154  15.893  0.1868  0.7263 -0.2493
 3140SOL    HW120879   3.454   0.211  15.838 -1.0552 -0.3651 -0.1814
 3140SOL    HW220880   3.555   0.120  15.817 -1.3625 -1.4091 -0.2840
 3141SOL     OW20881   2.051   2.212   5.738 -1.1981 -0.4097 -0.4489
 3141SOL    HW120882   2.015   2.237   5.653  1.2484  2.2811 -0.6925
 3141SOL    HW220883   2.058   2.300   5.776 -1.2887 -0.7765  0.4314
 3142SOL     OW20884   0.356   2.217   5.098  0.1365 -0.1306 -0.0850
 3142SOL    HW120885   0.263   2.234   5.086  0.3522 -0.3512 -2.0039
 3142SOL    HW220886   0.381   2.291   5.153  0.3566 -0.6909  0.5659
 3143SOL     OW20887   0.191   1.937   7.191  0.2084  0.1771  0.1462
 3143SOL    HW120888   0.234   1.852   7.195  1.4171  0.7987  0.5039
 3143SOL    HW220889   0.151   1.937   7.278  1.4925 -4.0752  0.7395
 3144SOL     OW20890   3.587   1.990   9.373 -0.6060  0.5803  0.0549
 3144SOL    HW120891   3.592   1.982   9.468  1.3313  3.2761  0.1894
 3144SOL    HW220892   3.674   2.027   9.360 -0.4843 -0.4643 -2.0361
 3145SOL     OW20893   4.319   4.012   4.889  0.0135  0.0800 -0.3154
 3145SOL    HW120894   4.308   4.098   4.847 -0.5617  0.4244  0.5485
 3145SOL    HW220895   4.391   4.031   4.949 -0.9167 -0.6758  1.0452
 3146SOL     OW20896   4.593   2.640  14.164 -0.5520 -0.3206  0.6528
 3146SOL    HW120897   4.606   2.701  14.236 -1.4532 -1.0422  1.4343
 3146SOL    HW220898   4.683   2.609  14.153  0.0347  1.6220  0.0111
 3147SOL     OW20899   0.270   4.371  12.296 -0.1784  0.1624  0.1329
 3147SOL    HW120900   0.186   4.333  12.271  0.3096 -0.7593 -0.0831
 3147SOL    HW220901   0.252   4.462  12.319 -1.7040  0.0147 -0.4402
 3148SOL     OW20902   0.215   0.643   4.265  0.1622 -0.6030  0.3755
 3148SOL    HW120903   0.191   0.612   4.352  0.0532 -2.5899 -0.3657
 3148SOL    HW220904   0.311   0.636   4.272  0.4959  3.0174 -0.4079
 3149SOL     OW20905   2.606   0.558   1.771 -0.1266  0.0149  0.2974
 3149SOL    HW120906   2.557   0.532   1.693 -0.9529  0.3969  0.6847
 3149SOL    HW220907   2.648   0.475   1.794  0.1775  0.2115  0.4305
 3150SOL     OW20908   4.139   0.858   1.242 -0.1670  0.3665  0.2828
 3150SOL    HW120909   4.198   0.928   1.215 -1.9105  1.5121 -0.4721
 3150SOL    HW220910   4.134   0.804   1.163 -2.7201 -0.9436  1.3497
 3151SOL     OW20911   3.975   4.241   6.984  0.2169  0.3110  0.0533
 3151SOL    HW120912   4.025   4.314   6.948  2.0258 -1.9215 -1.9313
 3151SOL    HW220913   3.885   4.259   6.958  0.2284  0.1715 -0.0808
 3152SOL     OW20914   0.582   0.168  14.674 -0.0274  0.1674  0.6199
 3152SOL    HW120915   0.564   0.077  14.650  2.5196 -0.7486  2.2117
 3152SOL    HW220916   0.624   0.148  14.757 -1.0523 -0.5902  0.9490
 3153SOL     OW20917   3.083   1.453   0.919 -0.6381 -0.2094 -0.1790
 3153SOL    HW120918   3.141   1.439   0.844 -0.9101 -2.8434  0.1002
 3153SOL    HW220919   3.092   1.548   0.928 -1.7335 -0.3498  2.2545
 3154SOL     OW20920   1.239   0.200   4.997  0.3708 -0.4367 -0.5291
 3154SOL    HW120921   1.147   0.220   5.013  0.7682  2.3576 -1.7940
 3154SOL    HW220922   1.266   0.282   4.957 -3.4368  1.5109  0.9387
 3155SOL     OW20923   2.693   1.656   5.107  0.2484  0.3183  0.4105
 3155SOL    HW120924   2.657   1.651   5.195  2.6755  2.3298  1.5146
 3155SOL    HW220925   2.650   1.740   5.086  1.9663  1.3607  1.0630
 3156SOL     OW20926   4.088   3.075   6.983 -0.2104 -0.1428 -0.1972
 3156SOL    HW120927   4.162   3.133   6.964 -1.3009  0.8669 -1.4056
 3156SOL    HW220928   4.085   3.030   6.898  0.1902 -0.5970  0.0346
 3157SOL     OW20929   3.153   4.670   6.093 -0.0716  0.5681  0.2977
 3157SOL    HW120930   3.221   0.014   6.098  0.9896 -0.5845  1.5540
 3157SOL    HW220931   3.082   4.716   6.137  0.1133  0.8871  0.2676
 3158SOL     OW20932   3.019   4.674   0.814 -0.0094  0.1818  0.5454
 3158SOL    HW120933   3.071   4.615   0.759 -1.7945 -0.8712 -0.0080
 3158SOL    HW220934   3.074   4.669   0.892  2.4062 -1.5454 -1.2680
 3159SOL     OW20935   3.396   0.031  16.701 -0.3963 -0.3665  0.0887
 3159SOL    HW120936   3.349   0.091  16.758 -0.6401 -1.4786  1.0588
 3159SOL    HW220937   3.467   0.004  16.759 -1.3593 -0.8834  1.0227
 3160SOL     OW20938   2.087   3.084   9.765 -0.1767  0.3485 -0.5150
 3160SOL    HW120939   2.065   3.176   9.782  0.5103  0.5698 -0.8000
 3160SOL    HW220940   2.139   3.061   9.842  0.4219  4.3437  0.2890
 3161SOL     OW20941   3.366   1.675  10.341  0.2724 -0.3267 -0.3737
 3161SOL    HW120942   3.325   1.647  10.259  0.6804 -2.5957  0.1819
 3161SOL    HW220943   3.460   1.655  10.336  0.5002  0.8100 -0.5839
 3162SOL     OW20944   0.871   4.333   1.611  0.5214  0.1145 -0.5347
 3162SOL    HW120945   0.864   4.332   1.706  1.1178  1.5533 -0.4746
 3162SOL    HW220946   0.805   4.397   1.582  1.6296  1.2781 -0.4626
 3163SOL     OW20947   2.394   1.065   1.406  0.0232 -0.2493  0.0827
 3163SOL    HW120948   2.384   0.996   1.471  0.6934  0.7262  1.2342
 3163SOL    HW220949   2.453   1.020   1.346 -0.2185  0.1503 -0.4584
 3164SOL     OW20950   1.684   4.500   3.118 -0.0915 -0.1559  0.2348
 3164SOL    HW120951   1.732   4.430   3.074 -1.9905 -0.8662 -0.7281
 3164SOL    HW220952   1.614   4.459   3.169 -0.8138  1.2643  0.3832
 3165SOL     OW20953   1.619   4.141  12.167  0.6776  0.6944  0.5185
 3165SOL    HW120954   1.584   4.060  12.204  0.8080 -0.5392 -2.1415
 3165SOL    HW220955   1.564   4.140  12.089  0.9402  2.2922  0.3030
 3166SOL     OW20956   3.128   4.658  12.667 -0.0197  0.1131  0.2115
 3166SOL    HW120957   3.180   4.588  12.626 -1.2441 -0.1160 -0.9366
 3166SOL    HW220958   3.201   4.719  12.680  0.2100  0.4166 -2.5905
 3167SOL     OW20959   4.091   4.202   1.486 -0.4991 -0.5919 -0.0963
 3167SOL    HW120960   4.139   4.166   1.412 -0.0155 -1.2045  0.5224
 3167SOL    HW220961   4.016   4.143   1.487 -1.1753  0.2533 -0.3637
 3168SOL     OW20962   3.059   1.522   5.936 -0.7906 -0.4286 -0.1366
 3168SOL    HW120963   3.067   1.567   6.020  1.5734  0.4596 -0.8276
 3168SOL    HW220964   3.032   1.432   5.955  0.3279 -0.3102  2.0006
 3169SOL     OW20965   4.116   0.696   9.664 -0.3732  0.8743 -0.5297
 3169SOL    HW120966   4.180   0.692   9.734 -0.2704 -1.4600 -0.7523
 3169SOL    HW220967   4.144   0.617   9.617 -1.0829  0.1268  0.3152
 3170SOL     OW20968   1.010   1.300  14.287  0.2271  0.0849  0.2766
 3170SOL    HW120969   1.057   1.230  14.242 -0.4851 -1.2239  1.5170
 3170SOL    HW220970   0.924   1.309  14.246  0.4184  0.1966 -0.0988
 3171SOL     OW20971   2.912   0.411  16.388 -0.0149  0.2123  0.8219
 3171SOL    HW120972   2.818   0.428  16.385 -0.0842  0.0049  1.6953
 3171SOL    HW220973   2.932   0.375  16.475 -0.4466  1.2506  1.3567
 3172SOL     OW20974   0.698   1.029  15.806 -0.6137 -0.9366  0.0020
 3172SOL    HW120975   0.696   1.111  15.757 -3.4478 -0.4042  0.9771
 3172SOL    HW220976   0.779   0.992  15.772 -0.9224 -0.9472 -0.7223
 3173SOL     OW20977   2.374   2.567   4.142  0.2871  0.2932 -0.4527
 3173SOL    HW120978   2.324   2.585   4.063  0.4996 -1.2399 -0.9403
 3173SOL    HW220979   2.304   2.554   4.207 -1.6336  1.7221 -2.2248
 3174SOL     OW20980   3.728   3.886  15.283 -0.1113 -0.2906  0.0892
 3174SOL    HW120981   3.670   3.915  15.213  0.0218  0.7980  0.4271
 3174SOL    HW220982   3.719   3.954  15.351 -0.5456 -0.7571  0.4947
 3175SOL     OW20983   1.408   4.410   1.463 -0.3689  0.0043 -0.4776
 3175SOL    HW120984   1.315   4.410   1.485 -0.4013  1.6893 -0.6426
 3175SOL    HW220985   1.445   4.363   1.538  1.3339 -0.8831 -1.8973
 3176SOL     OW20986   0.755   2.226   9.348  0.0855 -0.2629 -0.1991
 3176SOL    HW120987   0.685   2.191   9.294 -1.4274 -1.3759  2.4626
 3176SOL    HW220988   0.723   2.192   9.432 -2.3501  0.1489 -0.9692
 3177SOL     OW20989   2.734   1.352   2.785  0.5719 -0.5419 -0.0755
 3177SOL    HW120990   2.670   1.328   2.718  1.2681 -1.3545 -0.4473
 3177SOL    HW220991   2.673   1.382   2.853  2.3722 -1.1274  1.7740
 3178SOL     OW20992   3.470   3.480   7.357  0.2620  0.1199 -0.1226
 3178SOL    HW120993   3.426   3.444   7.434  1.9021 -2.3276 -0.3219
 3178SOL    HW220994   3.563   3.462   7.375  0.1180  0.9738  1.4273
 3179SOL     OW20995   3.253   4.587  16.469 -0.3407  0.1474  0.3056
 3179SOL    HW120996   3.309   4.511  16.453  0.8456  0.7239  1.7143
 3179SOL    HW220997   3.291   4.637  16.542  1.2341 -0.3290 -0.1903
 3180SOL     OW20998   0.604   0.871   8.838  0.4062 -0.3971  0.7674
 3180SOL    HW120999   0.509   0.863   8.843  0.2992  1.0874  1.0575
 3180SOL    HW221000   0.624   0.824   8.758 -0.5413 -0.0311  0.3148
 3181SOL     OW21001   0.929   3.075  12.568 -0.2915 -0.0840 -0.2541
 3181SOL    HW121002   0.922   3.101  12.476 -2.7370 -0.4065 -0.1752
 3181SOL    HW221003   0.838   3.087  12.594  0.2414  2.0197  0.6637
 3182SOL     OW21004   0.557   4.352   8.587 -0.1412 -0.7234  0.1520
 3182SOL    HW121005   0.597   4.424   8.636 -0.0257 -0.2320 -0.6682
 3182SOL    HW221006   0.613   4.277   8.606  1.3628 -0.3289 -2.7276
 3183SOL     OW21007   3.267   3.358   4.962  0.4922  0.1450  0.6759
 3183SOL    HW121008   3.324   3.282   4.952 -0.0781 -0.1531 -0.3728
 3183SOL    HW221009   3.311   3.411   4.894 -0.0483  1.3610  1.2738
 3184SOL     OW21010   0.252   2.321   1.897 -0.1070 -0.4199  0.3097
 3184SOL    HW121011   0.238   2.267   1.975  2.2510 -0.2140  0.8724
 3184SOL    HW221012   0.347   2.329   1.900 -0.0858 -1.0307  1.3174
 3185SOL     OW21013   3.489   3.543  13.108  0.0614  0.4579 -0.0761
 3185SOL    HW121014   3.517   3.498  13.028 -0.6723 -1.3219  0.6640
 3185SOL    HW221015   3.503   3.635  13.086 -1.0942  0.1007 -2.3902
 3186SOL     OW21016   0.614   1.374   1.049  0.0604 -0.3772  1.4381
 3186SOL    HW121017   0.688   1.316   1.070  1.7368  2.3510  2.9953
 3186SOL    HW221018   0.639   1.452   1.098  2.9161 -0.0918 -0.4894
 3187SOL     OW21019   0.623   3.401  14.973  0.3155  0.7050  0.0289
 3187SOL    HW121020   0.661   3.483  14.942  0.0998  0.3146 -1.2652
 3187SOL    HW221021   0.684   3.335  14.939 -0.8674 -1.1023  1.3917
 3188SOL     OW21022   2.112   1.618   2.777  0.5066  0.0403  0.7237
 3188SOL    HW121023   2.155   1.553   2.721 -0.2571  0.0852  0.0843
 3188SOL    HW221024   2.023   1.590   2.756  0.5202  1.4251 -1.1186
 3189SOL     OW21025   3.114   0.814   0.246  0.0333 -0.0320  0.3082
 3189SOL    HW121026   3.091   0.903   0.273  3.4430  0.6631  0.8800
 3189SOL    HW221027   3.026   0.787   0.217 -0.2237  0.3809  0.7004
 3190SOL     OW21028   2.165   4.237   5.378  0.6298  0.5655  0.6570
 3190SOL    HW121029   2.087   4.264   5.329  1.1401  1.2700  0.2468
 3190SOL    HW221030   2.229   4.297   5.341  0.0500  0.3484 -0.6947
 3191SOL     OW21031   3.066   1.450   9.097  0.9962  0.3972 -0.9984
 3191SOL    HW121032   3.089   1.435   9.189  0.7376  0.0356 -0.9930
 3191SOL    HW221033   3.052   1.544   9.084 -1.2259  0.0521 -1.0952
 3192SOL     OW21034   2.243   3.961  16.731 -0.6498  0.2761 -0.1215
 3192SOL    HW121035   2.260   4.055  16.727  0.7090 -0.0639 -2.3445
 3192SOL    HW221036   2.247   3.931  16.640 -2.3595  1.6414 -0.6363
 3193SOL     OW21037   4.574   4.287   5.877 -0.2649  0.2815 -0.0006
 3193SOL    HW121038   4.574   4.353   5.947  0.2102  1.2454 -0.9160
 3193SOL    HW221039   4.645   4.228   5.902 -1.3399 -0.9407  0.1730
 3194SOL     OW21040   0.706   4.374   5.963  0.2576  0.4765 -0.1503
 3194SOL    HW121041   0.728   4.358   6.054 -0.2133 -0.1975 -0.1568
 3194SOL    HW221042   0.747   4.297   5.924 -2.5266 -0.0703 -2.0303
 3195SOL     OW21043   1.365   0.146  12.397  0.3475  0.6120  0.1192
 3195SOL    HW121044   1.270   0.138  12.397  0.1983  2.3392  1.6824
 3195SOL    HW221045   1.396   0.085  12.464 -1.8364 -1.5845 -0.8879
 3196SOL     OW21046   4.542   2.956   3.553 -0.4473 -0.1927  0.7954
 3196SOL    HW121047   4.607   2.953   3.483 -0.8195  2.4585  0.3480
 3196SOL    HW221048   4.591   2.999   3.624  1.1870 -1.7011  0.5721
 3197SOL     OW21049   2.206   4.105   7.054 -0.0315 -0.4388 -0.1799
 3197SOL    HW121050   2.272   4.066   7.111  0.0273  0.3542  0.2962
 3197SOL    HW221051   2.255   4.147   6.983 -0.0298 -0.7416 -0.3562
 3198SOL     OW21052   3.585   1.474  11.736  0.3749 -0.5212  0.1999
 3198SOL    HW121053   3.542   1.418  11.671  0.5923 -0.4025 -0.0452
 3198SOL    HW221054   3.503   1.496  11.781 -0.1149  0.8810 -1.3595
 3199SOL     OW21055   3.270   0.619  15.687  0.3933  0.1288  0.5062
 3199SOL    HW121056   3.192   0.577  15.652  1.2564 -2.5106  1.7762
 3199SOL    HW221057   3.248   0.666  15.767 -1.8213 -0.1123  0.0406
 3200SOL     OW21058   3.253   2.166  12.041 -0.2269 -0.4212  0.6479
 3200SOL    HW121059   3.266   2.139  12.132  2.3792 -0.2306  0.3270
 3200SOL    HW221060   3.165   2.134  12.021 -0.4928 -0.4913  1.9023
 3201SOL     OW21061   4.241   2.241   5.129 -0.3423 -0.1961 -0.1027
 3201SOL    HW121062   4.334   2.253   5.149 -0.7456 -1.1928  2.3312
 3201SOL    HW221063   4.243   2.239   5.034 -1.1338  0.6063 -0.1399
 3202SOL     OW21064   1.609   1.891   6.640  0.2238 -0.9608  0.3337
 3202SOL    HW121065   1.544   1.889   6.570  0.0356 -2.7109  0.5611
 3202SOL    HW221066   1.690   1.878   6.592  1.7805 -1.1138  2.9684
 3203SOL     OW21067   4.226   3.448  10.072 -0.0986 -0.4162  0.1581
 3203SOL    HW121068   4.203   3.530  10.029  0.1335  0.4855  1.7577
 3203SOL    HW221069   4.321   3.454  10.082 -0.0095 -0.2664 -0.7208
 3204SOL     OW21070   2.999   4.517   5.308 -0.5161  0.4387  0.0394
 3204SOL    HW121071   2.942   4.472   5.370 -2.6150  0.9231 -1.5395
 3204SOL    HW221072   2.978   4.605   5.339  0.4188  0.9836 -0.8322
 3205SOL     OW21073   2.701   3.191  13.284 -0.2727  0.1216 -0.4856
 3205SOL    HW121074   2.713   3.120  13.347  0.5801  1.7809  1.2312
 3205SOL    HW221075   2.788   3.217  13.253  0.9148 -2.7533  0.4288
 3206SOL     OW21076   3.117   1.830   0.307 -0.4405 -0.2897  0.3806
 3206SOL    HW121077   3.042   1.771   0.294 -0.9671  0.4450  0.1024
 3206SOL    HW221078   3.131   1.829   0.401 -0.9563 -0.9866  0.4553
 3207SOL     OW21079   2.978   3.944  16.744 -0.2654  0.9677  0.6448
 3207SOL    HW121080   2.998   3.896  16.825 -0.0992 -1.3174 -0.7516
 3207SOL    HW221081   2.885   3.924  16.731 -0.1610  1.1930 -0.4088
 3208SOL     OW21082   1.470   2.799   7.540  0.4151  0.4294  0.3060
 3208SOL    HW121083   1.452   2.835   7.453  1.3519 -2.8986 -1.2592
 3208SOL    HW221084   1.547   2.843   7.575  0.4120  0.2494  0.5440
 3209SOL     OW21085   2.613   2.565  13.252 -0.3262  0.1627 -0.4055
 3209SOL    HW121086   2.658   2.611  13.181  1.9120 -0.5419  0.5437
 3209SOL    HW221087   2.599   2.629  13.321  3.6160 -0.3258  0.8873
 3210SOL     OW21088   2.382   2.226   6.092  0.1158 -0.1513  0.2444
 3210SOL    HW121089   2.360   2.250   6.002 -0.1647  2.8262  1.1189
 3210SOL    HW221090   2.448   2.157   6.087  0.2874 -0.0188  0.7208
 3211SOL     OW21091   0.909   3.213   2.536 -0.1635 -0.0506 -0.0732
 3211SOL    HW121092   0.949   3.300   2.533  0.8276 -0.5134 -0.0771
 3211SOL    HW221093   0.960   3.165   2.471  1.4790 -2.6732  3.1403
 3212SOL     OW21094   2.804   4.554   6.073 -0.2470  0.5449 -0.0606
 3212SOL    HW121095   2.751   4.508   6.138  0.9741 -0.9272 -0.1050
 3212SOL    HW221096   2.843   4.626   6.123  0.2286 -0.2983  0.7895
 3213SOL     OW21097   2.098   3.737   5.297  0.2379 -0.5959  0.4339
 3213SOL    HW121098   2.056   3.694   5.372 -0.8354  1.6917  1.1549
 3213SOL    HW221099   2.024   3.775   5.251 -0.4793 -1.5892  0.7666
 3214SOL     OW21100   3.357   4.604   4.135 -0.0766  0.2200  0.0472
 3214SOL    HW121101   3.321   4.583   4.048 -1.1572  2.9729 -0.1726
 3214SOL    HW221102   3.377   4.516   4.167 -0.0752  0.5212  0.8761
 3215SOL     OW21103   2.025   3.605   5.525 -0.1307  0.0289  0.2840
 3215SOL    HW121104   2.033   3.510   5.536  0.9306  0.3441  2.3104
 3215SOL    HW221105   2.075   3.636   5.601  0.0516  0.8597 -0.1772
 3216SOL     OW21106   3.999   2.434   8.681 -0.0508 -0.1632  0.1110
 3216SOL    HW121107   4.070   2.470   8.629 -0.7892 -0.3570 -1.0239
 3216SOL    HW221108   3.935   2.504   8.677  0.6124  0.2445 -2.8392
 3217SOL     OW21109   2.331   0.754   9.214  0.1817  0.3472  0.7807
 3217SOL    HW121110   2.391   0.822   9.245 -0.5919  1.0646  0.7132
 3217SOL    HW221111   2.256   0.783   9.266 -0.9829  0.1679 -0.7891
 3218SOL     OW21112   4.625   2.403   3.970 -0.4447  0.1063  0.3168
 3218SOL    HW121113   4.674   2.321   3.961 -1.5720 -0.5343  0.0839
 3218SOL    HW221114   4.620   2.399   4.065 -0.7654 -0.9262  0.2594
 3219SOL     OW21115   2.355   3.154  13.271  0.4430  0.0280 -0.0833
 3219SOL    HW121116   2.412   3.084  13.240 -1.4568 -1.2806 -0.6495
 3219SOL    HW221117   2.270   3.111  13.278  0.1496  0.2673 -2.3350
 3220SOL     OW21118   2.968   3.145   9.169 -0.1765  0.1961 -0.1682
 3220SOL    HW121119   3.046   3.144   9.224 -0.0946  0.7236 -0.2719
 3220SOL    HW221120   2.948   3.238   9.154 -1.2209 -0.0872 -0.4765
 3221SOL     OW21121   3.708   2.009  15.806 -0.2153 -0.1104 -0.4526
 3221SOL    HW121122   3.637   1.973  15.860  0.0405  0.9101  0.5684
 3221SOL    HW221123   3.661   2.080  15.762  0.1761 -0.0447 -0.7603
 3222SOL     OW21124   3.629   2.165   3.045 -0.3078  0.2666 -0.1366
 3222SOL    HW121125   3.720   2.136   3.046 -0.2229  0.5174 -0.4381
 3222SOL    HW221126   3.609   2.156   2.952 -0.1699 -0.9355 -0.0427
 3223SOL     OW21127   0.343   0.725   8.956 -0.4237 -0.0685 -0.1024
 3223SOL    HW121128   0.251   0.701   8.968  0.4652 -2.4439  1.7965
 3223SOL    HW221129   0.332   0.802   9.011 -1.0876 -0.1811 -0.0714
 3224SOL     OW21130   2.998   2.348   7.316 -0.0328  0.3287 -0.3199
 3224SOL    HW121131   2.969   2.304   7.237 -0.1485 -0.8989  0.4129
 3224SOL    HW221132   3.002   2.280   7.383 -0.9290 -1.5943 -2.2518
 3225SOL     OW21133   0.482   4.688   4.936  0.1613  0.0923  0.1017
 3225SOL    HW121134   0.487   4.601   4.896 -0.1145 -0.0614  0.3997
 3225SOL    HW221135   0.402   4.672   4.986  1.1501  1.0448  1.9819
 3226SOL     OW21136   0.783   0.275   2.579  0.6028 -0.1016  0.3402
 3226SOL    HW121137   0.713   0.341   2.569  0.6123  0.1595  2.0488
 3226SOL    HW221138   0.731   0.205   2.619  0.9738  0.5118  1.8898
 3227SOL     OW21139   1.158   0.010   7.697  0.2162  0.6090 -0.3314
 3227SOL    HW121140   1.201   4.707   7.616  1.2795 -0.7719  0.7122
 3227SOL    HW221141   1.190   0.099   7.708  1.2116  0.2317 -0.2363
 3228SOL     OW21142   0.720   1.320  10.903  0.4030  0.0892 -0.0191
 3228SOL    HW121143   0.647   1.357  10.953 -0.2343  2.0982 -2.4515
 3228SOL    HW221144   0.684   1.234  10.884  0.1612  0.0753  0.5061
 3229SOL     OW21145   4.683   0.878   6.134  0.4111 -0.2496 -0.0790
 3229SOL    HW121146   0.050   0.884   6.108 -0.5901  2.1283 -3.0612
 3229SOL    HW221147   4.687   0.941   6.206 -0.7963 -0.6349  0.3272
 3230SOL     OW21148   0.918   4.246   3.364 -0.6814 -0.4409  0.2018
 3230SOL    HW121149   0.859   4.287   3.427 -0.1037 -0.5604  0.8137
 3230SOL    HW221150   0.970   4.323   3.342 -0.0824 -0.5831  1.1226
 3231SOL     OW21151   2.563   2.256  11.067 -0.1105 -0.3212 -0.4613
 3231SOL    HW121152   2.482   2.207  11.052 -0.4727  0.1906 -0.1518
 3231SOL    HW221153   2.554   2.262  11.162  0.0342 -0.9104 -0.4056
 3232SOL     OW21154   3.186   0.834  17.317  0.1700  0.0072 -0.1032
 3232SOL    HW121155   3.207   0.774  17.245 -1.3878 -1.0237  0.3067
 3232SOL    HW221156   3.095   0.859  17.302  0.4179  1.8598  1.4508
 3233SOL     OW21157   1.242   4.591  11.300  0.7845 -0.1075 -0.4385
 3233SOL    HW121158   1.260   4.596  11.207 -2.2665  2.1108 -0.9318
 3233SOL    HW221159   1.241   4.497  11.316  1.6274 -0.0587 -0.1203
 3234SOL     OW21160   0.375   3.465   5.977 -0.8137 -0.2987 -0.2238
 3234SOL    HW121161   0.376   3.393   6.040 -0.2522  0.4793  0.6397
 3234SOL    HW221162   0.334   3.413   5.907 -1.4890 -0.4612  0.2911
 3235SOL     OW21163   2.250   1.206   3.912 -0.7660 -0.4634 -0.0294
 3235SOL    HW121164   2.339   1.222   3.943 -0.9636  1.4922 -0.4496
 3235SOL    HW221165   2.228   1.292   3.877  0.2344 -0.6235 -1.0525
 3236SOL     OW21166   2.402   1.922   9.930  0.0650 -0.7430  0.5841
 3236SOL    HW121167   2.481   1.934   9.877 -0.6765 -0.2264 -0.3785
 3236SOL    HW221168   2.333   1.937   9.866  2.5103  2.8858 -1.2311
 3237SOL     OW21169   3.783   3.661   5.730  0.8402  0.1154 -0.1685
 3237SOL    HW121170   3.868   3.671   5.773  0.9512  1.4747 -0.6946
 3237SOL    HW221171   3.743   3.626   5.810 -1.8971 -0.3445 -1.7374
 3238SOL     OW21172   1.150   1.154   5.743  0.5941 -0.1855  0.1041
 3238SOL    HW121173   1.089   1.080   5.740  1.8150 -1.2435  1.6597
 3238SOL    HW221174   1.169   1.162   5.836  2.2903 -0.4750 -0.2121
 3239SOL     OW21175   4.595   2.950   5.209  0.0502 -0.5172  0.4198
 3239SOL    HW121176   4.584   2.856   5.199 -0.1796 -0.3450 -0.9288
 3239SOL    HW221177   4.507   2.977   5.184  0.7927  2.3433  0.7864
 3240SOL     OW21178   0.125   3.816   3.854  0.1180 -0.1230  0.6906
 3240SOL    HW121179   0.111   3.740   3.797  3.0913  0.9809 -1.4944
 3240SOL    HW221180   0.217   3.807   3.877  0.0983 -0.5818  0.5926
 3241SOL     OW21181   3.935   4.273   5.104 -0.1359  0.4832  0.0519
 3241SOL    HW121182   3.853   4.241   5.142  0.0358  0.2459  0.2258
 3241SOL    HW221183   3.994   4.197   5.100  1.0409  1.4867 -1.7690
 3242SOL     OW21184   3.296   4.412  14.551  0.4056 -0.2267  0.5002
 3242SOL    HW121185   3.294   4.316  14.542  0.7181 -0.1915  0.0656
 3242SOL    HW221186   3.276   4.411  14.644 -0.5497 -0.6789  0.2942
 3243SOL     OW21187   4.342   1.420   8.940 -0.2561  0.0005  0.4250
 3243SOL    HW121188   4.323   1.329   8.917  1.4939 -0.4231  0.6891
 3243SOL    HW221189   4.296   1.426   9.023  1.5013 -0.0142  1.4031
 3244SOL     OW21190   4.392   1.352  16.201 -0.5073 -0.2950  0.2623
 3244SOL    HW121191   4.306   1.392  16.193 -1.0404 -1.4605  0.0708
 3244SOL    HW221192   4.386   1.350  16.297  0.4313  0.3363  0.3360
 3245SOL     OW21193   3.071   0.487   9.513 -0.4539 -0.2413  0.1733
 3245SOL    HW121194   3.067   0.433   9.435  4.2094  0.3486 -0.4612
 3245SOL    HW221195   3.102   0.424   9.577 -0.2569 -0.1033  0.2124
 3246SOL     OW21196   3.584   0.055   4.137 -0.0120 -0.1816  0.3997
 3246SOL    HW121197   3.633   4.698   4.124  1.0162  0.9707 -3.0007
 3246SOL    HW221198   3.524   0.032   4.066 -0.3404 -1.3705  1.0740
 3247SOL     OW21199   0.545   0.287  16.764 -0.2393  0.1418 -0.0416
 3247SOL    HW121200   0.583   0.199  16.770  0.9701  0.3645 -4.8511
 3247SOL    HW221201   0.616   0.341  16.798 -1.1976  2.9261 -2.4882
 3248SOL     OW21202   0.581   3.885   9.275 -0.0420  0.4214 -0.1962
 3248SOL    HW121203   0.537   3.944   9.337  0.7857  1.1844 -0.3292
 3248SOL    HW221204   0.597   3.811   9.334  1.5773  1.5416  0.7954
 3249SOL     OW21205   3.218   1.730   6.535 -0.5498  0.3230  0.0899
 3249SOL    HW121206   3.302   1.757   6.572 -0.4896 -1.5738  1.3519
 3249SOL    HW221207   3.166   1.801   6.571 -2.0190 -0.7409  0.1032
 3250SOL     OW21208   4.296   4.406   6.882 -0.0380 -0.1008 -0.2396
 3250SOL    HW121209   4.205   4.417   6.909  0.0200 -1.5001  0.5363
 3250SOL    HW221210   4.277   4.401   6.788  1.6721  0.7159 -0.6258
 3251SOL     OW21211   2.912   3.125  13.934  0.0945  0.4040 -0.4839
 3251SOL    HW121212   2.940   3.033  13.931 -1.5633 -0.1521  0.8911
 3251SOL    HW221213   2.971   3.168  13.995 -0.8755 -0.0822  0.7924
 3252SOL     OW21214   3.053   4.418   5.650  0.1069 -0.3865 -0.2417
 3252SOL    HW121215   3.038   4.507   5.682  1.7651 -0.0712 -0.3714
 3252SOL    HW221216   2.962   4.394   5.634 -0.6120  1.4735  1.0838
 3253SOL     OW21217   0.356   3.610   4.033 -1.1524  0.1632  0.1288
 3253SOL    HW121218   0.360   3.701   4.062 -1.4669  0.9131 -2.1510
 3253SOL    HW221219   0.287   3.571   4.087 -0.5226 -1.0283  0.0805
 3254SOL     OW21220   2.404   4.499   7.546 -0.4885  0.4109 -0.7817
 3254SOL    HW121221   2.412   4.433   7.477 -0.0883 -1.8387  1.4166
 3254SOL    HW221222   2.361   4.441   7.608  0.3534  0.1380 -0.4630
 3255SOL     OW21223   0.125   3.464   4.413 -0.3633 -0.3901 -0.4986
 3255SOL    HW121224   0.097   3.547   4.452  0.4182  0.2182 -1.2578
 3255SOL    HW221225   0.049   3.405   4.414 -0.6704  0.0109 -0.4101
 3256SOL     OW21226   0.894   0.101  15.576 -0.2570 -0.2346  0.4995
 3256SOL    HW121227   0.906   0.194  15.595  0.5272 -0.6978  2.2766
 3256SOL    HW221228   0.982   0.087  15.540 -1.0564 -1.2639 -1.0552
 3257SOL     OW21229   0.079   2.233   6.123 -0.2245  0.2606  0.0890
 3257SOL    HW121230   4.721   2.274   6.097 -0.4974 -1.0695 -1.1596
 3257SOL    HW221231   0.058   2.140   6.128 -0.7678  0.3613 -0.3683
 3258SOL     OW21232   0.187   4.435   8.795 -0.3694 -0.4309 -0.4644
 3258SOL    HW121233   0.161   4.500   8.729  0.2198 -0.5638 -0.8306
 3258SOL    HW221234   0.222   4.363   8.743 -2.2979 -1.4293 -0.3961
 3259SOL     OW21235   2.706   1.181  17.602 -0.3794  0.1204  0.9316
 3259SOL    HW121236   2.729   1.203  17.512 -0.1920  0.5137  1.0760
 3259SOL    HW221237   2.755   1.101  17.619 -1.3677 -0.6246  0.2524
 3260SOL     OW21238   2.734   0.518  15.026  0.2000 -0.0098 -0.5788
 3260SOL    HW121239   2.771   0.569  14.953 -1.3491 -1.0468 -2.1069
 3260SOL    HW221240   2.802   0.451  15.036 -1.1357 -0.9681  1.9410
 3261SOL     OW21241   1.656   4.569  16.265  0.3207 -0.0952 -0.2121
 3261SOL    HW121242   1.694   4.513  16.333  2.0575 -0.8102 -1.7572
 3261SOL    HW221243   1.567   4.562  16.299  0.6064 -1.8743  0.1494
 3262SOL     OW21244   0.930   0.781   3.599  0.2146  0.5981  0.3091
 3262SOL    HW121245   0.949   0.874   3.581  2.0489  0.0874 -0.4276
 3262SOL    HW221246   0.859   0.760   3.539  0.2680  1.0480  0.0900
 3263SOL     OW21247   3.376   3.915   3.039  0.2680  0.2769 -0.2306
 3263SOL    HW121248   3.336   3.873   3.115  0.1885  1.4280  0.3542
 3263SOL    HW221249   3.425   3.841   3.003  0.2798  0.1145  0.1183
 3264SOL     OW21250   4.673   1.032   9.952 -0.4907 -0.1422 -0.0864
 3264SOL    HW121251   4.723   1.066  10.027  1.6330 -0.9936 -1.1098
 3264SOL    HW221252   4.635   1.117   9.928 -1.2382 -0.5396 -0.2720
 3265SOL     OW21253   0.838   4.015   6.980  0.0255  0.0021 -0.2020
 3265SOL    HW121254   0.897   4.038   7.052  1.1197 -1.7287 -0.5568
 3265SOL    HW221255   0.889   4.062   6.915  0.6490  1.2495  1.1848
 3266SOL     OW21256   1.210   2.147   0.615 -0.1960 -0.1027 -0.1945
 3266SOL    HW121257   1.284   2.147   0.554 -1.2771  0.3295 -1.5217
 3266SOL    HW221258   1.219   2.230   0.660 -0.8894  0.2864 -0.7742
 3267SOL     OW21259   2.352   0.006   1.245  0.0517 -0.1244 -0.2152
 3267SOL    HW121260   2.392   4.711   1.160  1.4655 -0.0093  0.4161
 3267SOL    HW221261   2.262   0.025   1.219 -0.9840 -2.1336  1.9410
 3268SOL     OW21262   3.254   1.864   9.149  0.1442 -0.4187  0.1126
 3268SOL    HW121263   3.291   1.951   9.166  0.2185 -0.0151 -2.1720
 3268SOL    HW221264   3.272   1.860   9.055  1.9290  2.1343  0.3410
 3269SOL     OW21265   3.185   4.241   7.646  0.2775  0.2103  0.2965
 3269SOL    HW121266   3.204   4.215   7.736 -0.3779 -1.0125  0.0742
 3269SOL    HW221267   3.270   4.224   7.605 -0.2491 -0.4570 -0.4989
 3270SOL     OW21268   0.194   2.739   2.657  0.5012 -0.2806 -0.6441
 3270SOL    HW121269   0.274   2.755   2.608  0.8591  0.0116  0.0406
 3270SOL    HW221270   0.176   2.647   2.636 -1.0790 -0.3232  0.7972
 3271SOL     OW21271   3.314   3.997   4.492 -0.2390 -0.3868 -0.3353
 3271SOL    HW121272   3.300   4.005   4.586 -0.9075 -0.3341 -0.4426
 3271SOL    HW221273   3.397   4.044   4.484 -0.6477  0.3627 -0.0920
 3272SOL     OW21274   4.441   3.762   4.376 -0.0090  0.0582 -0.2874
 3272SOL    HW121275   4.410   3.840   4.423 -1.0593  0.2363 -1.2797
 3272SOL    HW221276   4.425   3.706   4.453  0.2767 -0.8962 -0.9267
 3273SOL     OW21277   3.216   1.808  13.989 -0.2490  0.0531 -0.1425
 3273SOL    HW121278   3.181   1.880  14.041  2.8136  0.9635  0.6914
 3273SOL    HW221279   3.254   1.756  14.060 -0.7842 -2.6029 -1.7914
 3274SOL     OW21280   0.367   4.504   4.268  0.1471 -0.2759  0.9786
 3274SOL    HW121281   0.433   4.435   4.275 -1.0235 -1.5565 -0.8090
 3274SOL    HW221282   0.301   4.452   4.313 -0.4929 -2.1836 -2.1599
 3275SOL     OW21283   3.176   2.181   8.413  0.2604 -0.3199 -0.4504
 3275SOL    HW121284   3.175   2.183   8.509  0.8031 -1.6631 -0.4285
 3275SOL    HW221285   3.230   2.260   8.401  1.4029 -0.8250  1.3141
 3276SOL     OW21286   3.015   1.444   7.424  0.8966 -0.3337 -0.2356
 3276SOL    HW121287   3.035   1.367   7.370  0.8787  0.7871 -1.8692
 3276SOL    HW221288   2.923   1.466   7.411  1.1312  2.2260  2.5821
 3277SOL     OW21289   1.610   3.749   7.339  0.4263 -0.1179  0.7577
 3277SOL    HW121290   1.657   3.764   7.421  1.7047 -0.7205  0.1457
 3277SOL    HW221291   1.662   3.804   7.280 -1.2640  1.1962  0.5023
 3278SOL     OW21292   4.029   4.642   2.471 -0.0937  0.2429  0.4403
 3278SOL    HW121293   3.997   4.710   2.412 -1.9177 -0.1893  0.9250
 3278SOL    HW221294   4.079   4.704   2.523 -0.2503  1.0667 -0.3985
 3279SOL     OW21295   3.858   1.568  11.725  0.4982 -0.0607  0.5748
 3279SOL    HW121296   3.868   1.533  11.814  0.2671  1.1689  1.0904
 3279SOL    HW221297   3.770   1.532  11.717 -0.5821  1.9602  3.4176
 3280SOL     OW21298   4.408   4.309   2.961  0.1363 -0.0908  0.0877
 3280SOL    HW121299   4.473   4.380   2.960 -0.9570  0.9339  0.6399
 3280SOL    HW221300   4.333   4.359   2.928  0.1071  0.2838  0.7030
 3281SOL     OW21301   1.405   1.988  10.862  0.4095  0.1216 -0.1659
 3281SOL    HW121302   1.469   1.988  10.791  0.5839  1.5013  0.0001
 3281SOL    HW221303   1.331   2.023  10.813 -0.2747  0.4597  1.1296
 3282SOL     OW21304   4.516   0.889   3.306 -0.0098 -0.0124 -0.1296
 3282SOL    HW121305   4.535   0.865   3.215  1.6189 -0.6759  0.3808
 3282SOL    HW221306   4.491   0.978   3.284  2.1232  0.1069 -2.0319
 3283SOL     OW21307   1.105   1.871   2.216 -0.0209  0.2005 -0.0135
 3283SOL    HW121308   1.158   1.951   2.211  0.1265  0.0704 -0.5240
 3283SOL    HW221309   1.164   1.814   2.168 -0.4785 -0.7534  0.5577
 3284SOL     OW21310   1.013   3.303   6.651  0.3708 -0.3176 -0.0220
 3284SOL    HW121311   0.968   3.319   6.734  0.0588  0.3660 -0.3211
 3284SOL    HW221312   0.934   3.272   6.606  0.0633  0.8065 -0.2421
 3285SOL     OW21313   4.203   3.688   5.076  0.5313  0.2916 -0.5389
 3285SOL    HW121314   4.122   3.713   5.031 -0.2692 -0.4305  0.5196
 3285SOL    HW221315   4.175   3.709   5.165  2.2994  1.1439 -0.1946
 3286SOL     OW21316   1.726   2.858   3.729 -0.0860 -0.3642  0.1091
 3286SOL    HW121317   1.647   2.878   3.780  0.7315 -0.8518  1.5576
 3286SOL    HW221318   1.693   2.818   3.648 -0.1117  2.2066 -1.1491
 3287SOL     OW21319   0.161   3.427   4.131  0.0736  0.5525 -0.0103
 3287SOL    HW121320   0.212   3.346   4.139 -0.7163 -0.1812 -2.1983
 3287SOL    HW221321   0.153   3.451   4.223  2.2218 -1.2734  0.6661
 3288SOL     OW21322   3.186   4.148   2.479 -0.5519 -0.5730 -0.0690
 3288SOL    HW121323   3.173   4.054   2.470  1.5848 -0.8409 -0.3702
 3288SOL    HW221324   3.097   4.179   2.461 -0.2338  0.5439  0.2795
 3289SOL     OW21325   4.188   1.707  10.756 -0.0012 -0.1765 -0.0334
 3289SOL    HW121326   4.122   1.763  10.717  0.4340 -0.0278 -0.5573
 3289SOL    HW221327   4.267   1.740  10.714 -0.4072  1.0535  0.1794
 3290SOL     OW21328   2.483   1.779   7.448 -0.0276 -0.4124 -0.5196
 3290SOL    HW121329   2.436   1.827   7.516 -0.0005  1.6044 -1.9247
 3290SOL    HW221330   2.473   1.694   7.491  2.6651 -0.9365 -0.9737
 3291SOL     OW21331   2.295   1.109  15.007 -0.2702  0.0260  0.4825
 3291SOL    HW121332   2.229   1.177  15.014 -0.6196 -0.4286  1.6319
 3291SOL    HW221333   2.317   1.099  14.914 -1.6982  0.7171  0.0767
 3292SOL     OW21334   0.271   3.789   4.424 -0.4160  0.2377 -0.3195
 3292SOL    HW121335   0.265   3.863   4.364  2.6771 -2.0568 -3.4997
 3292SOL    HW221336   0.185   3.749   4.415  0.1456 -0.5686 -2.1819
 3293SOL     OW21337   0.725   0.946   6.602 -0.3575 -0.1031 -0.3249
 3293SOL    HW121338   0.728   0.852   6.622 -1.8862 -0.0723  0.0380
 3293SOL    HW221339   0.630   0.957   6.604 -0.1122  1.3961  2.6233
 3294SOL     OW21340   0.950   0.489  10.075 -0.1493  0.5086  0.1917
 3294SOL    HW121341   1.041   0.463  10.087 -0.3065 -1.0684 -2.0318
 3294SOL    HW221342   0.938   0.506  10.169 -0.4753  1.5411 -0.0307
 3295SOL     OW21343   1.511   3.461   2.663 -0.1491  0.4867 -0.4924
 3295SOL    HW121344   1.482   3.376   2.696  0.2149  0.7780  0.5601
 3295SOL    HW221345   1.601   3.435   2.645 -0.3435 -0.1102 -0.6156
 3296SOL     OW21346   4.391   0.223   5.445  0.1909  0.1041  0.2816
 3296SOL    HW121347   4.409   0.185   5.531  0.4712 -0.2965  0.0483
 3296SOL    HW221348   4.408   0.146   5.392 -0.1440  0.6460 -0.6109
 3297SOL     OW21349   1.928   1.442  16.197  0.3095 -0.4713 -0.4338
 3297SOL    HW121350   1.942   1.483  16.282  1.9031 -0.6886 -0.6027
 3297SOL    HW221351   1.980   1.502  16.143 -1.7166  3.2272  1.7171
 3298SOL     OW21352   0.243   2.480   3.315 -0.4046  0.1078 -0.1887
 3298SOL    HW121353   0.192   2.453   3.391 -0.9872 -4.3290 -2.1284
 3298SOL    HW221354   0.312   2.415   3.325  0.2833  0.8345 -0.2239
 3299SOL     OW21355   3.880   0.450   7.539  0.5958 -0.3552 -0.1453
 3299SOL    HW121356   3.796   0.403   7.539 -0.3663  1.3293  0.0048
 3299SOL    HW221357   3.930   0.405   7.471  1.9221 -0.4523  0.9036
 3300SOL     OW21358   0.702   0.647   7.392  0.3166  0.4617  0.3303
 3300SOL    HW121359   0.685   0.729   7.439 -0.1183  0.1492  0.7236
 3300SOL    HW221360   0.687   0.674   7.302  1.1049 -0.0730  0.0413
 3301SOL     OW21361   3.384   2.737   5.897 -0.2435  0.2143 -0.1314
 3301SOL    HW121362   3.405   2.808   5.958 -1.8820  0.1061  0.5419
 3301SOL    HW221363   3.298   2.708   5.927 -0.1409  0.7074  0.6422
 3302SOL     OW21364   0.465   4.356   9.746 -0.3654  0.1459  0.1350
 3302SOL    HW121365   0.489   4.368   9.654  0.2268 -1.4768  0.0685
 3302SOL    HW221366   0.554   4.361   9.782 -0.1058  0.8922 -0.6361
 3303SOL     OW21367   3.877   1.643   2.445 -0.4073 -0.0432 -0.0579
 3303SOL    HW121368   3.887   1.631   2.350 -1.1522  2.5623 -0.4514
 3303SOL    HW221369   3.929   1.571   2.481 -0.5711  1.1730  2.5834
 3304SOL     OW21370   4.185   1.557   8.366  0.3997  0.2075 -0.0796
 3304SOL    HW121371   4.253   1.622   8.384  0.3011  0.0585  0.8534
 3304SOL    HW221372   4.226   1.523   8.286  1.0774 -2.1092  1.2487
 3305SOL     OW21373   3.576   3.109  16.065  0.1515  0.3554 -0.6116
 3305SOL    HW121374   3.513   3.103  16.137 -0.9779 -0.3071 -1.6443
 3305SOL    HW221375   3.653   3.142  16.112  0.6736 -0.3207 -1.0046
 3306SOL     OW21376   4.281   4.400  17.379  0.4692  0.0894  0.0615
 3306SOL    HW121377   4.336   4.351  17.318  0.3401  1.6461 -1.3334
 3306SOL    HW221378   4.239   4.451  17.309  1.4872 -0.9963 -1.3341
 3307SOL     OW21379   0.177   3.193   3.286  0.4332  0.0749 -1.0687
 3307SOL    HW121380   0.170   3.155   3.198  1.3371  1.3460 -1.6842
 3307SOL    HW221381   0.113   3.264   3.285 -0.2199 -0.4584  1.1125
 3308SOL     OW21382   1.186   2.921   3.798  0.7803  0.9287 -0.5826
 3308SOL    HW121383   1.120   2.989   3.786  0.1227  0.4844  0.4568
 3308SOL    HW221384   1.129   2.848   3.774 -1.3201  2.2524  0.3401
 3309SOL     OW21385   2.394   4.088   5.041  0.1029 -0.5491 -0.3299
 3309SOL    HW121386   2.424   4.128   5.123 -0.3080 -2.2695  0.6698
 3309SOL    HW221387   2.312   4.134   5.024 -0.0009 -0.7183 -0.2901
 3310SOL     OW21388   3.631   3.092   2.985  0.2570 -0.5121  0.0950
 3310SOL    HW121389   3.702   3.071   2.924 -0.1940  2.7554 -1.5593
 3310SOL    HW221390   3.612   3.007   3.023 -0.7410  0.1716  1.1087
 3311SOL     OW21391   3.435   0.562   3.807  0.2426 -0.4707  0.2702
 3311SOL    HW121392   3.513   0.616   3.796  0.2656 -0.4903  0.3398
 3311SOL    HW221393   3.408   0.604   3.889 -0.8616 -0.7557  0.0530
 3312SOL     OW21394   3.377   1.126   6.838 -0.5647 -0.6886  0.5263
 3312SOL    HW121395   3.374   1.147   6.745 -0.4639  1.0609  0.9188
 3312SOL    HW221396   3.466   1.149   6.865 -0.5087 -2.5208  1.9416
 3313SOL     OW21397   3.635   4.634  14.897 -0.2066 -1.1593  0.1482
 3313SOL    HW121398   3.730   4.643  14.903 -0.4102 -0.4877  2.4859
 3313SOL    HW221399   3.629   4.540  14.879 -1.6472 -0.8716 -0.8835
 3314SOL     OW21400   1.350   4.263   3.448 -0.0757 -0.0741 -0.5578
 3314SOL    HW121401   1.429   4.250   3.395 -1.5969 -1.1337 -2.5680
 3314SOL    HW221402   1.379   4.307   3.528  2.4773 -0.6327 -1.1556
 3315SOL     OW21403   0.912   2.486   7.795  0.0026 -0.1500 -0.2716
 3315SOL    HW121404   0.897   2.580   7.790 -0.3357 -0.1553  0.6814
 3315SOL    HW221405   0.993   2.491   7.846  1.7666  1.0567 -3.1218
 3316SOL     OW21406   1.928   4.408  17.462 -0.4976 -0.4334 -0.4455
 3316SOL    HW121407   1.878   4.489  17.475  0.9824  0.2065  1.3800
 3316SOL    HW221408   1.932   4.376  17.552 -1.1809  2.3484  0.5614
 3317SOL     OW21409   2.732   3.482   8.513 -0.0208  0.0897  0.1095
 3317SOL    HW121410   2.736   3.470   8.608 -4.1211 -0.9475  0.1448
 3317SOL    HW221411   2.824   3.478   8.487 -0.7760 -1.4559 -2.2895
 3318SOL     OW21412   1.397   1.828   6.470  0.7294  0.2066 -0.2072
 3318SOL    HW121413   1.385   1.734   6.483 -0.7029  0.3083 -0.8249
 3318SOL    HW221414   1.325   1.869   6.518 -0.5463  0.3482 -2.2307
 3319SOL     OW21415   3.086   1.042   7.923  0.0307  0.7060 -0.3219
 3319SOL    HW121416   3.023   1.009   7.988 -0.6010  1.1891 -0.6873
 3319SOL    HW221417   3.136   1.102   7.979 -0.1177 -0.5637  1.1898
 3320SOL     OW21418   4.701   2.130   2.899  0.1026  0.6978  0.2184
 3320SOL    HW121419   0.051   2.085   2.860 -1.1415  0.2352 -1.6197
 3320SOL    HW221420   0.014   2.218   2.904  0.9882  0.5630 -3.9473
 3321SOL     OW21421   1.112   1.555   6.948 -0.5878  0.2540 -0.4420
 3321SOL    HW121422   1.039   1.594   6.995  1.3968 -0.7379  3.5371
 3321SOL    HW221423   1.113   1.468   6.988 -0.7662 -0.3661 -1.8085
 3322SOL     OW21424   2.618   0.138   3.702 -0.4515  0.6053 -0.6039
 3322SOL    HW121425   2.587   0.204   3.765 -0.8340  0.3582 -0.5327
 3322SOL    HW221426   2.566   0.060   3.721  0.4053  0.5289  1.4221
 3323SOL     OW21427   0.391   4.661   2.724  0.3456 -0.1067  0.1424
 3323SOL    HW121428   0.322   4.595   2.728  2.7614 -2.7894 -1.9640
 3323SOL    HW221429   0.386   4.689   2.632  2.0396  0.7203  0.3023
 3324SOL     OW21430   0.533   3.685  11.028  0.2631 -0.1210  0.3261
 3324SOL    HW121431   0.475   3.609  11.034 -0.4690  0.5003  1.1236
 3324SOL    HW221432   0.483   3.755  11.070 -0.1643  0.6152 -1.3828
 3325SOL     OW21433   1.954   2.048  12.491 -0.3371  0.1507 -0.3694
 3325SOL    HW121434   1.876   2.004  12.459 -1.1885 -0.2757  2.2992
 3325SOL    HW221435   1.926   2.139  12.480 -0.3357  0.3884  1.6890
 3326SOL     OW21436   2.025   1.641   8.661  0.0280  0.0149 -0.7183
 3326SOL    HW121437   1.976   1.592   8.594  1.3890 -1.5802 -0.5482
 3326SOL    HW221438   1.969   1.718   8.668  0.4476  0.4991 -2.6488
 3327SOL     OW21439   3.978   3.124  13.636 -0.0251 -0.1106  0.0737
 3327SOL    HW121440   3.954   3.091  13.723 -0.5994 -0.3068 -0.1574
 3327SOL    HW221441   3.900   3.173  13.611  0.5742  1.4269  1.2958
 3328SOL     OW21442   1.060   3.428   6.146  0.3279 -0.3221  0.1960
 3328SOL    HW121443   1.087   3.445   6.236 -1.0959  2.8764  0.0032
 3328SOL    HW221444   1.107   3.496   6.097 -0.8106  2.0013  2.3484
 3329SOL     OW21445   2.652   4.094  11.308  0.1107  0.1050  0.1028
 3329SOL    HW121446   2.603   4.012  11.306  0.1030  0.0885  0.8404
 3329SOL    HW221447   2.746   4.076  11.301  0.7934  2.8691  1.8325
 3330SOL     OW21448   3.379   1.945   3.515 -0.2990  0.3149 -0.1054
 3330SOL    HW121449   3.336   1.952   3.429  0.0666  4.5181  0.0819
 3330SOL    HW221450   3.356   2.032   3.547 -0.6310  0.0475  0.3763
 3331SOL     OW21451   1.616   1.747  10.303  0.0603 -0.1979  0.2386
 3331SOL    HW121452   1.565   1.670  10.276  1.1120 -0.8841  0.2317
 3331SOL    HW221453   1.540   1.804  10.317 -1.2155 -2.5223  2.7904
 3332SOL     OW21454   1.697   1.183   7.873  0.1995  0.5984 -0.4356
 3332SOL    HW121455   1.607   1.208   7.892  0.0864  0.2707 -0.5422
 3332SOL    HW221456   1.721   1.143   7.956 -0.4158  0.3575 -0.3758
 3333SOL     OW21457   1.706   0.068   4.082  0.0360  0.4086 -0.1003
 3333SOL    HW121458   1.767   4.719   4.091 -0.0275  0.3968  0.2357
 3333SOL    HW221459   1.642   0.023   4.027  0.4737  1.3168 -1.3517
 3334SOL     OW21460   4.208   2.117   7.385 -0.4829  0.1847  0.2771
 3334SOL    HW121461   4.120   2.078   7.390 -0.5480  0.4968  1.5520
 3334SOL    HW221462   4.189   2.209   7.403 -0.1630 -0.0865  2.0358
 3335SOL     OW21463   3.366   2.662   1.619  0.2769 -0.1616 -0.2261
 3335SOL    HW121464   3.416   2.641   1.697 -2.0315 -0.6335  1.1208
 3335SOL    HW221465   3.320   2.579   1.613 -2.8845  1.5089  0.8644
 3336SOL     OW21466   4.327   3.435   8.297  0.1583 -0.2171  0.4294
 3336SOL    HW121467   4.325   3.381   8.376 -0.8648  1.8683  1.8103
 3336SOL    HW221468   4.396   3.494   8.324 -1.1916  1.5173  0.1026
 3337SOL     OW21469   4.488   0.549   4.807  0.1649 -0.2776  0.4524
 3337SOL    HW121470   4.459   0.628   4.761  0.0544  0.4411  1.7574
 3337SOL    HW221471   4.542   0.589   4.876  0.7244  0.0823 -0.1917
 3338SOL     OW21472   1.482   0.726   7.666  0.1240 -0.4576 -0.4752
 3338SOL    HW121473   1.497   0.734   7.572  2.2701 -0.7976 -0.1440
 3338SOL    HW221474   1.453   0.813   7.692  0.8400 -0.4898  0.4344
 3339SOL     OW21475   0.649   2.660  11.393 -0.3115 -0.1695  0.2590
 3339SOL    HW121476   0.582   2.605  11.434 -1.2612 -0.1496 -1.2540
 3339SOL    HW221477   0.606   2.746  11.396 -0.7131 -0.3862  0.6901
 3340SOL     OW21478   4.361   4.387  12.643  0.3867 -0.5043  0.1332
 3340SOL    HW121479   4.408   4.319  12.691 -0.0982 -1.3845 -0.6373
 3340SOL    HW221480   4.372   4.370  12.549 -2.3886 -0.0906 -0.2713
 3341SOL     OW21481   3.271   1.558  10.111  0.2337 -0.2486 -0.2538
 3341SOL    HW121482   3.202   1.495  10.133  0.2892 -0.2717 -0.1427
 3341SOL    HW221483   3.318   1.503  10.048 -1.7690 -0.5183 -1.4775
 3342SOL     OW21484   0.532   1.482  12.087 -0.0411  0.3454 -0.5468
 3342SOL    HW121485   0.555   1.449  12.000 -2.8086  0.4978 -1.3596
 3342SOL    HW221486   0.437   1.477  12.078  0.0234 -2.3672  0.3251
 3343SOL     OW21487   2.759   1.373   8.730 -0.0127  0.1502  0.1111
 3343SOL    HW121488   2.782   1.361   8.823 -1.5281 -0.1857  0.4483
 3343SOL    HW221489   2.820   1.443   8.710 -0.0106  0.1312  0.0506
 3344SOL     OW21490   2.432   3.097  11.851 -0.5719 -0.7797 -0.4343
 3344SOL    HW121491   2.417   3.187  11.824 -0.9830  0.0321  2.5437
 3344SOL    HW221492   2.447   3.107  11.945  0.5885 -1.1214 -0.5773
 3345SOL     OW21493   0.459   0.685   2.128 -0.1388 -0.3372 -0.0798
 3345SOL    HW121494   0.501   0.658   2.209  1.2973  0.6635 -0.5028
 3345SOL    HW221495   0.535   0.717   2.079  0.5571  1.0364  1.9063
 3346SOL     OW21496   1.468   3.928   0.674 -0.8468  0.1352  0.1643
 3346SOL    HW121497   1.526   3.936   0.599 -2.4995  0.7745 -1.0659
 3346SOL    HW221498   1.449   4.019   0.697  0.4135  0.3175  0.4609
 3347SOL     OW21499   3.834   2.501   6.456  0.1830 -0.0399 -0.0451
 3347SOL    HW121500   3.874   2.483   6.541  0.8758  1.5656 -0.0186
 3347SOL    HW221501   3.762   2.554   6.491 -0.3665  1.8119 -4.0169
 3348SOL     OW21502   0.726   2.724   3.257 -0.4903  0.1167  0.7462
 3348SOL    HW121503   0.789   2.692   3.320 -0.5148 -2.0751 -0.3344
 3348SOL    HW221504   0.770   2.784   3.196 -0.1445 -2.2296 -1.3366
 3349SOL     OW21505   3.717   1.857   5.716 -0.2515  0.2163 -0.2863
 3349SOL    HW121506   3.794   1.809   5.687  0.2223  0.3079  0.8202
 3349SOL    HW221507   3.753   1.931   5.765  0.8348 -1.3323  1.2667
 3350SOL     OW21508   3.533   2.746  13.304 -0.7768  0.4765 -0.3793
 3350SOL    HW121509   3.512   2.699  13.384  1.2660 -2.1451 -1.3617
 3350SOL    HW221510   3.453   2.797  13.299 -0.4127  0.9913 -1.0763
 3351SOL     OW21511   2.082   1.794   6.063 -0.6811 -0.0211  0.1764
 3351SOL    HW121512   2.122   1.805   6.149 -0.5203 -0.0561  0.1073
 3351SOL    HW221513   2.123   1.867   6.018  0.0242 -0.4460  0.1252
 3352SOL     OW21514   4.214   4.639  11.822 -0.4157  0.6666 -1.0406
 3352SOL    HW121515   4.273   4.569  11.847 -0.4606  0.8379 -0.4610
 3352SOL    HW221516   4.245   4.648  11.732 -0.7009  0.3303 -1.1703
 3353SOL     OW21517   4.652   4.213   6.452 -0.0290  0.1053 -0.5010
 3353SOL    HW121518   4.650   4.261   6.535  0.1432 -0.2154 -0.3115
 3353SOL    HW221519   4.710   4.267   6.400 -0.0016 -1.9329 -2.6246
 3354SOL     OW21520   2.627   2.245   7.666 -0.1010 -0.7201 -0.7752
 3354SOL    HW121521   2.639   2.334   7.632 -0.7053 -0.6905 -0.9072
 3354SOL    HW221522   2.543   2.252   7.710  0.0046  0.6687 -0.8048
 3355SOL     OW21523   0.459   3.232   3.099 -0.6330 -0.4125 -0.3398
 3355SOL    HW121524   0.514   3.159   3.127  1.5262  0.4535 -2.2954
 3355SOL    HW221525   0.521   3.301   3.075 -2.2461  0.7238 -1.2726
 3356SOL     OW21526   0.973   1.698  13.066 -0.4780 -0.1590 -0.2753
 3356SOL    HW121527   0.901   1.719  13.125  1.7330 -0.1194  2.4661
 3356SOL    HW221528   1.036   1.760  13.104  1.2065 -1.1438 -1.4667
 3357SOL     OW21529   2.401   2.762   3.675  0.4414 -0.5419 -0.0142
 3357SOL    HW121530   2.398   2.798   3.764  0.4555 -2.0858  0.6151
 3357SOL    HW221531   2.473   2.699   3.682  0.3190 -0.4899  1.6133
 3358SOL     OW21532   3.660   0.349   0.793  0.1856 -0.2876 -0.2265
 3358SOL    HW121533   3.668   0.390   0.879 -1.8748  2.4759 -1.3521
 3358SOL    HW221534   3.746   0.362   0.755 -0.3054 -0.4075 -1.3732
 3359SOL     OW21535   1.138   2.514   3.415  0.2015 -0.5400 -0.3322
 3359SOL    HW121536   1.082   2.436   3.405  0.5369 -0.8259  0.0402
 3359SOL    HW221537   1.223   2.475   3.395  0.5638 -0.7634  1.7244
 3360SOL     OW21538   0.222   2.221   7.712  0.7956 -0.4449  0.4294
 3360SOL    HW121539   0.254   2.199   7.799  0.2206 -1.6891  0.3317
 3360SOL    HW221540   0.135   2.257   7.726  0.0143 -1.7759 -1.0185
 3361SOL     OW21541   2.891   2.882  15.038 -0.2766  0.7434  0.0840
 3361SOL    HW121542   2.895   2.792  15.070 -1.7070  0.2758 -1.0311
 3361SOL    HW221543   2.900   2.934  15.118  1.3639 -0.4611  0.6789
 3362SOL     OW21544   4.627   3.353   4.043 -0.1989 -0.0655  0.0829
 3362SOL    HW121545   4.602   3.405   3.967 -1.6080 -1.1836 -0.2165
 3362SOL    HW221546   4.713   3.390   4.062 -0.1635  0.4841 -1.1434
 3363SOL     OW21547   2.275   3.680   7.341  0.1542 -0.4757  0.2603
 3363SOL    HW121548   2.233   3.759   7.373  0.3432  0.0823 -0.8643
 3363SOL    HW221549   2.244   3.614   7.403  0.0844 -0.0935  0.6275
 3364SOL     OW21550   3.959   0.225   7.992 -0.1326 -0.0186 -0.2428
 3364SOL    HW121551   3.893   0.207   8.059 -0.0601  1.3815  0.2126
 3364SOL    HW221552   3.993   0.139   7.969  2.0089  0.4052  1.2390
 3365SOL     OW21553   1.701   1.988   2.794  0.3065  0.0164 -0.3604
 3365SOL    HW121554   1.612   2.003   2.763  0.1870 -0.2501 -0.1348
 3365SOL    HW221555   1.729   1.923   2.729  2.2481  0.9698 -0.4759
 3366SOL     OW21556   0.578   4.162   3.408 -0.0274 -0.5633  0.4901
 3366SOL    HW121557   0.584   4.153   3.313  0.3248 -1.2800  0.5825
 3366SOL    HW221558   0.530   4.244   3.418 -2.0798 -1.7286  0.0912
 3367SOL     OW21559   3.082   0.442  15.855 -0.4394  0.5740 -0.2008
 3367SOL    HW121560   3.005   0.399  15.891  1.6270 -1.8156  1.3263
 3367SOL    HW221561   3.102   0.520  15.908 -1.6205 -0.5578  1.8921
 3368SOL     OW21562   3.091   4.642  10.398  0.2529  0.0360 -0.4220
 3368SOL    HW121563   3.131   4.564  10.437 -0.1116 -0.1183 -0.3653
 3368SOL    HW221564   3.000   4.635  10.425  0.2674  0.6048 -0.2234
 3369SOL     OW21565   2.589   3.541   4.363  0.2851 -0.1010 -0.4039
 3369SOL    HW121566   2.617   3.452   4.382  0.2983  0.3332  1.5559
 3369SOL    HW221567   2.648   3.563   4.291  2.7285  0.8871  1.9329
 3370SOL     OW21568   2.299   4.373   9.390  0.0525  0.5011 -0.5278
 3370SOL    HW121569   2.309   4.345   9.299 -0.0764 -0.7455 -0.1684
 3370SOL    HW221570   2.237   4.306   9.420 -0.9094  1.3271 -0.6999
 3371SOL     OW21571   2.805   0.634   7.839 -0.2924  0.4099 -0.1914
 3371SOL    HW121572   2.715   0.667   7.842 -0.6780 -0.4725 -1.4239
 3371SOL    HW221573   2.793   0.546   7.875  0.5096 -1.0607 -3.5097
 3372SOL     OW21574   3.118   3.263   6.529  0.7181 -0.2149 -0.1092
 3372SOL    HW121575   3.103   3.353   6.556  0.7174 -0.1850 -0.2082
 3372SOL    HW221576   3.161   3.280   6.446 -0.1219 -2.6095 -1.0450
 3373SOL     OW21577   2.407   2.610  10.531 -0.5489 -0.2937 -0.3592
 3373SOL    HW121578   2.435   2.636  10.443  1.3531 -0.2666  0.2370
 3373SOL    HW221579   2.313   2.623  10.520 -0.4677  0.6580  0.1257
 3374SOL     OW21580   1.607   2.094  17.462 -0.2814 -0.6433 -0.1322
 3374SOL    HW121581   1.689   2.060  17.499  0.7166 -0.4963 -2.2554
 3374SOL    HW221582   1.587   2.030  17.394  0.1830 -2.7283  1.6771
 3375SOL     OW21583   0.035   2.462   7.871  0.3881  0.1993 -0.3063
 3375SOL    HW121584   4.701   2.418   7.808 -1.3149  0.1303  1.3405
 3375SOL    HW221585   0.045   2.392   7.935 -0.5823  0.4070  0.0709
 3376SOL     OW21586   1.406   4.111  11.655  0.0852  0.1417  0.3434
 3376SOL    HW121587   1.433   4.110  11.564 -2.0988  0.6279 -0.3049
 3376SOL    HW221588   1.316   4.081  11.643  0.4072 -1.9302  3.1167
 3377SOL     OW21589   1.748   2.335   6.862  0.0587 -0.1271  0.2835
 3377SOL    HW121590   1.678   2.285   6.820 -1.5806  0.2193  2.6416
 3377SOL    HW221591   1.830   2.286   6.852  1.0929  1.5979  0.4574
 3378SOL     OW21592   2.251   1.002   7.541  0.2323 -0.2390  0.3906
 3378SOL    HW121593   2.342   0.981   7.562  0.7670  0.9767 -0.7342
 3378SOL    HW221594   2.217   0.982   7.628 -0.2050 -0.8229  0.0836
 3379SOL     OW21595   0.548   2.993   6.296 -0.3109 -0.0926  0.7581
 3379SOL    HW121596   0.481   2.925   6.291 -2.1210  1.7109  0.6914
 3379SOL    HW221597   0.619   2.947   6.341 -0.9391  0.3953  2.2510
 3380SOL     OW21598   2.150   3.722   0.939  0.7509  0.0682  0.2777
 3380SOL    HW121599   2.140   3.798   0.998 -1.4582 -0.3043  0.3910
 3380SOL    HW221600   2.161   3.770   0.857  3.6468 -0.5588  0.3254
 3381SOL     OW21601   2.479   3.406   8.358  0.4707  0.0471 -0.4344
 3381SOL    HW121602   2.545   3.341   8.332  1.3023 -0.2047  2.3022
 3381SOL    HW221603   2.531   3.470   8.407 -1.3539  0.2085  1.2718
 3382SOL     OW21604   1.992   3.906  16.758  0.7429 -0.0465  0.8366
 3382SOL    HW121605   1.997   3.869  16.670 -0.9158 -0.6353  0.9929
 3382SOL    HW221606   2.084   3.928  16.771  0.9676  0.1028 -1.1168
 3383SOL     OW21607   4.070   0.478   5.857 -0.3759 -0.2726 -0.0512
 3383SOL    HW121608   4.046   0.565   5.887  0.6875  0.3109 -0.8690
 3383SOL    HW221609   4.022   0.484   5.774 -1.7512 -2.4477  0.5828
 3384SOL     OW21610   2.307   1.117   4.893  0.3283  0.4821 -0.1622
 3384SOL    HW121611   2.241   1.186   4.884  0.9794  1.3079  1.3172
 3384SOL    HW221612   2.350   1.139   4.975  0.7153  1.2505 -0.5664
 3385SOL     OW21613   4.400   4.010   8.739 -0.1652  0.0763  0.2664
 3385SOL    HW121614   4.373   4.093   8.701 -2.0530 -1.0112 -0.7392
 3385SOL    HW221615   4.489   4.031   8.767  0.7433 -0.4058 -2.3046
 3386SOL     OW21616   1.192   0.734  16.681 -0.4229 -0.4453 -0.0466
 3386SOL    HW121617   1.176   0.732  16.587 -0.7232 -2.2171  0.0545
 3386SOL    HW221618   1.104   0.710  16.708 -1.3065  2.4778 -0.3928
 3387SOL     OW21619   1.082   2.539   5.479 -0.0261  0.1972  0.2682
 3387SOL    HW121620   1.173   2.522   5.455 -0.5263 -2.9265  0.6168
 3387SOL    HW221621   1.048   2.450   5.489  3.7097 -1.1516  0.8942
 3388SOL     OW21622   0.309   0.379   7.929 -0.4475 -0.2599 -0.1270
 3388SOL    HW121623   0.367   0.452   7.952 -0.8315  0.5784 -1.8420
 3388SOL    HW221624   0.229   0.403   7.975  0.0938 -0.1692  0.7707
 3389SOL     OW21625   1.436   0.989  16.360 -0.3310 -0.1766 -0.1319
 3389SOL    HW121626   1.346   0.988  16.392 -0.4955 -2.3316 -0.6626
 3389SOL    HW221627   1.471   0.909  16.398  0.8346 -0.2342 -1.3179
 3390SOL     OW21628   3.217   3.981   5.468 -0.2957 -0.2368 -0.3957
 3390SOL    HW121629   3.187   4.067   5.497  0.5016  0.3780 -1.4050
 3390SOL    HW221630   3.194   3.922   5.540  0.8085 -0.9103 -0.5936
 3391SOL     OW21631   3.860   3.288  17.592  0.2298  0.8711  0.6661
 3391SOL    HW121632   3.952   3.273  17.614  0.2316  0.3846  0.3355
 3391SOL    HW221633   3.820   3.298  17.678 -1.3734  2.7969 -0.2930
 3392SOL     OW21634   4.671   1.783   5.756 -0.6605  0.6785  0.0097
 3392SOL    HW121635   0.010   1.739   5.814 -1.2908 -0.3207 -0.0685
 3392SOL    HW221636   4.604   1.806   5.821  0.0505  0.5565  0.7877
 3393SOL     OW21637   3.307   2.628   7.401  0.0291  0.0760 -0.6845
 3393SOL    HW121638   3.338   2.662   7.486 -2.0732  1.2434 -0.3822
 3393SOL    HW221639   3.380   2.567   7.386 -1.6842 -1.5917 -2.2130
 3394SOL     OW21640   3.747   1.530   7.323  0.0183  0.4664  0.2945
 3394SOL    HW121641   3.668   1.536   7.269  0.5426  2.6435 -0.2305
 3394SOL    HW221642   3.728   1.447   7.367 -0.9000 -0.2354 -1.4345
 3395SOL     OW21643   0.841   0.668  12.061 -0.0796  0.0142 -0.4754
 3395SOL    HW121644   0.885   0.714  12.133  0.9554  0.6485 -1.5233
 3395SOL    HW221645   0.916   0.662  12.003 -0.3936 -1.9555 -0.6891
 3396SOL     OW21646   1.527   0.807  15.843 -0.0866  0.0408 -0.2722
 3396SOL    HW121647   1.532   0.780  15.935 -2.2042 -2.1250 -0.7944
 3396SOL    HW221648   1.571   0.892  15.847 -1.2280  0.5885  0.6026
 3397SOL     OW21649   3.555   0.502   8.776 -0.5638 -0.3696 -0.1329
 3397SOL    HW121650   3.648   0.481   8.786 -0.2854 -0.5218 -3.0400
 3397SOL    HW221651   3.533   0.558   8.851 -0.8526 -0.1816 -0.3559
 3398SOL     OW21652   3.029   0.043   2.431  0.3784 -0.1025  0.2767
 3398SOL    HW121653   2.943   0.082   2.448  0.5853  1.0673 -1.4265
 3398SOL    HW221654   3.009   4.677   2.458 -0.6730  0.6795  2.1425
 3399SOL     OW21655   1.211   1.120   6.023  0.0556  0.1538 -0.1291
 3399SOL    HW121656   1.307   1.123   6.031 -0.1802  0.5970  2.2753
 3399SOL    HW221657   1.190   1.031   5.992  0.0837 -0.4153  1.4925
 3400SOL     OW21658   0.686   2.480   2.788  0.6112 -0.0061  0.1635
 3400SOL    HW121659   0.674   2.421   2.714 -2.4503 -0.8992  1.3591
 3400SOL    HW221660   0.646   2.414   2.845 -0.1507  1.0087  0.8091
 3401SOL     OW21661   0.664   4.661  10.208 -0.4851 -0.1679 -0.1359
 3401SOL    HW121662   0.658   4.567  10.189 -0.4995 -0.4903  1.5272
 3401SOL    HW221663   0.586   4.666  10.262  0.3980  1.3777  0.9681
 3402SOL     OW21664   3.456   1.230   5.382 -0.8896 -0.1716 -0.3464
 3402SOL    HW121665   3.420   1.164   5.322 -2.2505  0.3310 -0.0726
 3402SOL    HW221666   3.494   1.279   5.309 -1.9520  0.3452 -0.5600
 3403SOL     OW21667   1.074   0.920  11.915 -0.2034 -0.1709  0.0549
 3403SOL    HW121668   1.037   0.832  11.917  0.0265 -0.3311 -2.6943
 3403SOL    HW221669   1.028   0.965  11.844  3.2235  0.6726 -1.6493
 3404SOL     OW21670   2.714   2.339   5.314  0.0678  0.1782 -0.0541
 3404SOL    HW121671   2.786   2.384   5.358  0.1810  0.6515 -0.7317
 3404SOL    HW221672   2.725   2.250   5.347  0.1571  0.2196  0.0273
 3405SOL     OW21673   0.084   0.212   6.938 -0.4608  0.1835  0.2117
 3405SOL    HW121674   0.118   0.292   6.977 -1.3412  0.3142  0.7158
 3405SOL    HW221675   0.093   0.146   7.006  0.1620  1.2608  1.1785
 3406SOL     OW21676   0.317   3.773   1.101  0.1994 -0.4143 -0.6394
 3406SOL    HW121677   0.390   3.826   1.069 -0.7356  0.9358 -0.5572
 3406SOL    HW221678   0.253   3.845   1.103  1.4179  0.6556  0.2492
 3407SOL     OW21679   0.862   0.086  11.067  0.5698  0.2280 -0.0566
 3407SOL    HW121680   0.953   0.093  11.040 -0.1046  0.9200 -2.1968
 3407SOL    HW221681   0.885   0.039  11.146 -0.2362  2.9171  1.7864
 3408SOL     OW21682   2.308   0.669   9.983  0.3348  0.1873 -0.0692
 3408SOL    HW121683   2.326   0.758   9.952  1.5509 -0.0777 -0.1251
 3408SOL    HW221684   2.215   0.648   9.974 -0.1552  1.5794  1.6142
 3409SOL     OW21685   1.626   4.038   4.023 -0.0747  0.2957 -0.3879
 3409SOL    HW121686   1.616   4.074   3.935 -4.3597  0.1779  0.0351
 3409SOL    HW221687   1.667   3.952   4.011  1.3864  1.2793 -2.4594
 3410SOL     OW21688   3.876   1.719   3.501 -0.3981 -0.5381 -0.3064
 3410SOL    HW121689   3.962   1.679   3.486  0.0472  1.3966 -2.9278
 3410SOL    HW221690   3.868   1.777   3.425  0.5167  1.8728  1.4292
 3411SOL     OW21691   4.485   1.219   6.785  0.5453 -0.1954  0.5609
 3411SOL    HW121692   4.548   1.226   6.856  1.2450 -1.5353  0.0694
 3411SOL    HW221693   4.548   1.223   6.713 -0.8621 -2.3976 -0.8144
 3412SOL     OW21694   2.499   1.489   4.179 -0.0297 -0.4003  0.3560
 3412SOL    HW121695   2.408   1.460   4.187  0.6490 -2.7664 -0.4620
 3412SOL    HW221696   2.506   1.554   4.249  1.7975 -0.8870  0.6209
 3413SOL     OW21697   1.827   3.098   3.860 -0.4113 -0.5211  0.0767
 3413SOL    HW121698   1.782   3.047   3.793 -0.2158 -1.4960  0.6987
 3413SOL    HW221699   1.796   3.187   3.843 -1.5357 -1.2242 -1.6037
 3414SOL     OW21700   2.005   3.335   2.536 -0.5415 -0.4458 -0.0721
 3414SOL    HW121701   1.993   3.246   2.568 -1.8432  0.3641  1.6899
 3414SOL    HW221702   2.081   3.318   2.481  0.9237 -0.3136  1.9328
 3415SOL     OW21703   0.810   2.237   8.111  0.2344 -0.1852 -0.5690
 3415SOL    HW121704   0.805   2.311   8.050 -0.8025 -2.1101 -2.8423
 3415SOL    HW221705   0.848   2.285   8.184  0.4522  1.6731 -1.9178
 3416SOL     OW21706   4.607   4.450   8.478  0.0754 -0.2443  0.1363
 3416SOL    HW121707   4.638   4.492   8.398 -0.3453 -1.2091 -0.5310
 3416SOL    HW221708   4.515   4.476   8.480  0.1390 -0.0745  0.9398
 3417SOL     OW21709   1.229   1.996  13.701  0.0167 -0.4665 -0.4527
 3417SOL    HW121710   1.134   2.003  13.693  0.0124 -1.5553 -1.2516
 3417SOL    HW221711   1.255   1.904  13.701  1.6577 -0.0043  0.2321
 3418SOL     OW21712   2.073   4.327   0.624 -0.0533  0.1974  0.1706
 3418SOL    HW121713   2.038   4.264   0.687  0.9012 -0.7424 -0.2381
 3418SOL    HW221714   2.099   4.272   0.550  2.7501  1.1230  0.4735
 3419SOL     OW21715   1.546   1.795   3.616  0.1725 -0.0606 -0.2851
 3419SOL    HW121716   1.516   1.785   3.526 -1.0171  0.0880  0.1017
 3419SOL    HW221717   1.524   1.711   3.656 -1.2452  0.3533 -0.2166
 3420SOL     OW21718   2.330   1.490   3.820  0.0382 -0.2881  0.1687
 3420SOL    HW121719   2.356   1.477   3.728  0.3751 -0.0086  0.2240
 3420SOL    HW221720   2.414   1.521   3.854  0.0446 -0.4475  0.2987
 3421SOL     OW21721   2.991   3.846   9.110  0.0724  0.3450 -0.1172
 3421SOL    HW121722   2.912   3.808   9.072  0.4973 -1.0996  0.4569
 3421SOL    HW221723   3.035   3.765   9.134  0.9151  0.1978 -2.1546
 3422SOL     OW21724   0.500   3.261   1.715 -0.6129  0.2257  0.4841
 3422SOL    HW121725   0.557   3.193   1.680  1.2718  2.4795 -0.8614
 3422SOL    HW221726   0.574   3.307   1.755  0.5446 -1.3378  0.1489
 3423SOL     OW21727   1.927   2.135   7.892  0.3619  0.5472 -0.1852
 3423SOL    HW121728   1.899   2.047   7.915 -2.5853  1.6756  0.4833
 3423SOL    HW221729   1.902   2.178   7.974 -0.1204  0.6923 -0.4131
 3424SOL     OW21730   4.582   0.216  14.448  1.0922 -0.6043  0.4107
 3424SOL    HW121731   4.603   0.309  14.436 -3.1159  0.0411 -2.1087
 3424SOL    HW221732   4.571   0.186  14.358 -0.3177  1.4471 -0.1131
 3425SOL     OW21733   0.940   0.697  16.804 -0.4273  0.0852 -0.1372
 3425SOL    HW121734   0.853   0.663  16.782 -0.5287  0.0414  0.3367
 3425SOL    HW221735   0.970   0.636  16.872 -0.2750  1.0814  0.6889
 3426SOL     OW21736   2.374   2.493   8.732 -0.1962  0.8624 -0.6419
 3426SOL    HW121737   2.467   2.502   8.754 -0.7879  1.8978  1.4130
 3426SOL    HW221738   2.336   2.516   8.816  1.1199  0.0679  0.1706
 3427SOL     OW21739   2.874   2.853   4.377  0.1444  0.1839 -0.6073
 3427SOL    HW121740   2.837   2.932   4.338  0.9825  1.0715  0.3984
 3427SOL    HW221741   2.832   2.856   4.463  1.7108  2.5478  0.0742
 3428SOL     OW21742   1.594   3.111   7.814  0.7550  0.1540 -0.3858
 3428SOL    HW121743   1.687   3.110   7.839  0.7480 -0.1641 -0.3669
 3428SOL    HW221744   1.555   3.073   7.893  1.0988  1.6617  0.5172
 3429SOL     OW21745   2.806   0.009   8.089 -0.1373 -0.0206 -0.1466
 3429SOL    HW121746   2.814   4.706   7.998 -1.3743  0.2605 -0.3358
 3429SOL    HW221747   2.804   4.642   8.117 -1.7119  0.1840  0.3742
 3430SOL     OW21748   3.790   4.186   1.605  0.6706 -0.1591  0.0276
 3430SOL    HW121749   3.698   4.186   1.629  1.0507  0.8553  1.4381
 3430SOL    HW221750   3.778   4.188   1.510  1.0639  0.3905 -0.0099
 3431SOL     OW21751   1.187   2.770   8.132  0.3193 -0.8536 -0.1536
 3431SOL    HW121752   1.275   2.739   8.113  1.0612  1.1476  0.0165
 3431SOL    HW221753   1.161   2.825   8.058  0.3244  0.0211  0.4920
 3432SOL     OW21754   2.007   2.720  14.759  0.8512 -0.3079  0.4414
 3432SOL    HW121755   1.995   2.709  14.665  0.1043  1.4191  0.3217
 3432SOL    HW221756   2.017   2.628  14.784 -0.7286 -0.5711  0.1460
 3433SOL     OW21757   0.946   2.131   0.553 -1.2382  0.0984  0.1728
 3433SOL    HW121758   1.035   2.138   0.588 -1.0422  2.2641 -0.7637
 3433SOL    HW221759   0.951   2.209   0.498  1.2966 -0.8612 -0.9729
 3434SOL     OW21760   2.354   1.480   8.271  0.8502  0.5667  0.5150
 3434SOL    HW121761   2.443   1.448   8.287  0.5190 -1.2617 -1.3563
 3434SOL    HW221762   2.341   1.525   8.355 -2.3132 -0.8323  0.7538
 3435SOL     OW21763   4.367   4.156  10.257  0.0563  0.2231  0.2098
 3435SOL    HW121764   4.417   4.102  10.196  0.9088 -0.3490  1.3996
 3435SOL    HW221765   4.430   4.213  10.301 -1.4053  0.0737  2.5164
 3436SOL     OW21766   0.461   3.513  15.496  0.0717  0.3946  0.7582
 3436SOL    HW121767   0.486   3.575  15.427 -1.0944  0.7848  0.6745
 3436SOL    HW221768   0.546   3.500  15.538 -0.8075 -0.5365  2.2435
 3437SOL     OW21769   2.383   2.805   8.406  0.6028 -0.2444  0.6197
 3437SOL    HW121770   2.349   2.716   8.399 -1.4723  0.5682  0.4505
 3437SOL    HW221771   2.470   2.785   8.441  0.9991 -0.9658 -0.7799
 3438SOL     OW21772   0.061   2.031   0.809  0.3347 -0.0064  0.3772
 3438SOL    HW121773   0.015   1.952   0.780 -0.7973  0.6831  0.2825
 3438SOL    HW221774   0.097   1.997   0.891  0.2992 -1.3915 -0.1782
 3439SOL     OW21775   3.519   4.169   4.463  0.2722  0.1204 -0.4338
 3439SOL    HW121776   3.570   4.146   4.385  0.3943 -1.3575  0.0865
 3439SOL    HW221777   3.587   4.223   4.503 -0.3358  0.8213 -0.3512
 3440SOL     OW21778   1.070   0.514  12.379  0.5432 -0.7397  0.1786
 3440SOL    HW121779   1.068   0.426  12.340  0.9492 -0.8019  0.2954
 3440SOL    HW221780   1.144   0.502  12.439  1.3175 -0.7725 -0.7834
 3441SOL     OW21781   0.811   1.589  12.414  0.4609  0.3718 -0.3226
 3441SOL    HW121782   0.735   1.531  12.408  0.3994  0.5883 -1.7310
 3441SOL    HW221783   0.785   1.654  12.348 -0.5309  4.0084  3.6913
 3442SOL     OW21784   3.349   2.665   7.000  0.1493  0.3557 -0.2174
 3442SOL    HW121785   3.267   2.713   7.013  0.8394  1.6135 -0.5214
 3442SOL    HW221786   3.316   2.575   6.995 -1.9882  1.3149 -3.2538
 3443SOL     OW21787   2.037   0.147   1.926 -0.1717 -0.4775  0.1492
 3443SOL    HW121788   2.041   0.083   1.997 -0.9725  1.0409  1.5626
 3443SOL    HW221789   2.038   0.230   1.973  0.0174 -1.1215  1.2745
 3444SOL     OW21790   1.484   1.300   6.956 -0.1049 -0.0979 -0.0413
 3444SOL    HW121791   1.463   1.301   6.862 -1.0332  1.4854  0.1902
 3444SOL    HW221792   1.532   1.217   6.953  0.6796  0.3283  0.9198
 3445SOL     OW21793   0.959   1.581   4.375 -0.2403  0.0578 -0.3305
 3445SOL    HW121794   0.945   1.487   4.379 -0.2838  0.0927  0.3529
 3445SOL    HW221795   0.976   1.606   4.284  1.5926 -4.7579 -1.3045
 3446SOL     OW21796   2.976   3.199   3.668  0.3484  0.4825 -0.4577
 3446SOL    HW121797   2.996   3.108   3.689 -0.7559  0.0141 -1.4399
 3446SOL    HW221798   2.996   3.216   3.576 -1.3108 -0.0006 -0.9022
 3447SOL     OW21799   2.708   0.748  13.125 -0.4059  0.1203 -0.1159
 3447SOL    HW121800   2.712   0.797  13.206 -0.0366  0.9788 -0.6519
 3447SOL    HW221801   2.720   0.817  13.059  0.8269  1.3292  1.3825
 3448SOL     OW21802   0.543   3.397   7.532 -0.5892 -0.6462  0.6599
 3448SOL    HW121803   0.637   3.403   7.515 -0.9152  0.8615 -0.5982
 3448SOL    HW221804   0.519   3.317   7.484  0.5857 -0.7042  0.1692
 3449SOL     OW21805   1.978   3.092   2.157 -0.0682 -0.2151 -0.1295
 3449SOL    HW121806   2.055   3.037   2.169 -0.6246 -1.2268 -1.2891
 3449SOL    HW221807   1.952   3.071   2.068 -0.4497  0.9661 -0.3077
 3450SOL     OW21808   0.967   3.609   1.377  0.3144 -0.2254 -0.3772
 3450SOL    HW121809   1.013   3.605   1.293  0.7213 -1.2396 -0.1064
 3450SOL    HW221810   0.964   3.704   1.384 -0.3428 -0.4990  3.2597
 3451SOL     OW21811   2.030   3.665  13.413 -0.5112 -0.1238  0.2875
 3451SOL    HW121812   2.047   3.585  13.462 -1.5125  0.8231  2.1895
 3451SOL    HW221813   1.978   3.719  13.473  0.7792  0.0073  1.2797
 3452SOL     OW21814   1.984   4.084   1.637 -0.4175 -0.1850 -0.2560
 3452SOL    HW121815   1.896   4.095   1.600 -0.4468  0.3097 -0.0516
 3452SOL    HW221816   2.012   4.175   1.652 -0.4428 -0.5798  2.2445
 3453SOL     OW21817   4.237   2.617   2.970  0.2064 -0.6461 -0.5029
 3453SOL    HW121818   4.276   2.538   3.006 -2.8866 -1.7784  0.3318
 3453SOL    HW221819   4.253   2.677   3.042 -1.8810 -2.5218  1.5039
 3454SOL     OW21820   1.983   4.590  11.323 -0.1798 -0.0149 -0.3923
 3454SOL    HW121821   2.024   4.512  11.287 -1.4606 -1.8644  2.1554
 3454SOL    HW221822   1.992   4.581  11.417  0.9897 -1.5898 -0.6636
 3455SOL     OW21823   3.932   3.558  11.247  0.2258 -0.3267 -0.8120
 3455SOL    HW121824   3.922   3.555  11.152 -0.2773 -1.3026 -0.7264
 3455SOL    HW221825   3.961   3.468  11.261  2.4969  0.4809 -0.3398
 3456SOL     OW21826   3.265   4.220   8.553 -0.0651  0.0385 -0.3666
 3456SOL    HW121827   3.252   4.125   8.555 -1.9840  0.2172 -3.2862
 3456SOL    HW221828   3.183   4.238   8.600 -0.1708 -2.0363  0.2366
 3457SOL     OW21829   0.735   0.138   8.885  0.4663 -0.0323 -0.1399
 3457SOL    HW121830   0.742   0.077   8.811 -0.4865  0.0811 -0.3272
 3457SOL    HW221831   0.759   0.083   8.960 -0.4977  2.0347  1.6962
 3458SOL     OW21832   3.404   2.398   6.714 -0.0170  0.2841 -0.0530
 3458SOL    HW121833   3.353   2.348   6.778  1.2696  0.4937  1.1309
 3458SOL    HW221834   3.460   2.443   6.778  1.8816 -0.7676 -0.9716
 3459SOL     OW21835   0.225   4.219   4.527  0.2297  0.2454  0.7144
 3459SOL    HW121836   0.320   4.226   4.518 -0.2656  1.3262 -3.3820
 3459SOL    HW221837   0.211   4.152   4.594 -0.9927  0.2602  0.4596
 3460SOL     OW21838   2.306   2.435  11.448  0.7161  0.1337  0.2398
 3460SOL    HW121839   2.288   2.518  11.492  0.5067  1.0613 -1.5889
 3460SOL    HW221840   2.394   2.416  11.478  0.3584  0.8540  1.7148
 3461SOL     OW21841   3.632   3.441   5.996 -0.3643  0.0111 -0.1981
 3461SOL    HW121842   3.582   3.386   6.056 -0.4352  1.9811  1.5603
 3461SOL    HW221843   3.678   3.492   6.063  1.6912  2.2569 -3.3132
 3462SOL     OW21844   2.494   3.045   9.083 -0.1369  0.3048  0.5357
 3462SOL    HW121845   2.549   3.115   9.048  2.0857 -1.2764  0.8622
 3462SOL    HW221846   2.409   3.077   9.054 -0.5531 -2.9110 -1.7994
 3463SOL     OW21847   2.807   2.294  10.481 -0.6510  0.1279  0.2792
 3463SOL    HW121848   2.834   2.330  10.397  1.7076  0.3264  1.1198
 3463SOL    HW221849   2.884   2.250  10.517  0.8794 -0.3256 -3.5882
 3464SOL     OW21850   3.812   2.132   0.786 -0.0417 -0.3179  0.2504
 3464SOL    HW121851   3.751   2.190   0.740  0.5915  0.0209 -0.1445
 3464SOL    HW221852   3.880   2.189   0.821 -1.3425  2.0141 -0.9901
 3465SOL     OW21853   3.902   2.930   8.800  0.1270 -0.2571 -1.1199
 3465SOL    HW121854   3.940   3.012   8.831 -0.7957 -0.3167  0.1896
 3465SOL    HW221855   3.941   2.866   8.859 -0.3045  0.1215 -0.4178
 3466SOL     OW21856   0.932   3.262   1.965  0.1975 -0.1213  0.1471
 3466SOL    HW121857   1.025   3.257   1.942  0.2193 -1.2361  0.4492
 3466SOL    HW221858   0.923   3.167   1.957  0.2910  0.0219 -1.7268
 3467SOL     OW21859   0.077   0.077   3.776  0.3681 -0.5792  0.0174
 3467SOL    HW121860   0.133   0.092   3.851 -0.3136  1.3716  0.1405
 3467SOL    HW221861   0.095   0.144   3.710 -0.3890 -2.1804 -1.8542
 3468SOL     OW21862   3.320   1.778  15.159 -0.6487  0.6494 -0.0635
 3468SOL    HW121863   3.250   1.712  15.168  0.0632 -0.0566  0.2631
 3468SOL    HW221864   3.396   1.726  15.183  1.0060  1.9389 -2.5113
 3469SOL     OW21865   1.682   2.389   8.488 -0.3163 -0.0567 -0.3003
 3469SOL    HW121866   1.598   2.385   8.535  0.2739  0.6495  0.7928
 3469SOL    HW221867   1.667   2.479   8.459  2.1617  0.1606 -0.9007
 3470SOL     OW21868   1.058   2.519   8.045 -0.1166  0.5323 -0.0663
 3470SOL    HW121869   1.082   2.452   8.110 -2.0637 -1.2196 -1.1632
 3470SOL    HW221870   1.088   2.601   8.084 -0.7928  0.0199  1.5339
 3471SOL     OW21871   0.976   2.536   3.010  0.4302  0.0400 -0.7524
 3471SOL    HW121872   0.965   2.495   2.924 -4.3150  0.8842 -0.5220
 3471SOL    HW221873   1.032   2.610   2.983  1.1797 -0.3563 -0.2780
 3472SOL     OW21874   3.085   1.692   5.542 -0.0303  0.5652 -0.6919
 3472SOL    HW121875   3.015   1.685   5.607 -0.2393 -0.7757 -1.0705
 3472SOL    HW221876   3.103   1.605   5.507 -1.2196  0.0866 -0.1153
 3473SOL     OW21877   1.672   0.352   7.898 -0.2665 -0.3844  0.3205
 3473SOL    HW121878   1.614   0.289   7.940  2.9707 -2.2357  2.0605
 3473SOL    HW221879   1.718   0.390   7.973 -0.7623  0.5734  0.1365
 3474SOL     OW21880   2.260   1.473   1.381 -0.6260 -0.0230 -0.1635
 3474SOL    HW121881   2.275   1.525   1.302 -2.3564 -0.2934 -0.6499
 3474SOL    HW221882   2.341   1.484   1.431 -0.1455  0.3228 -1.0144
 3475SOL     OW21883   1.164   1.441  11.486  0.0748  0.0889 -0.3675
 3475SOL    HW121884   1.121   1.486  11.414  0.9824 -3.4135 -3.1088
 3475SOL    HW221885   1.091   1.440  11.548  1.4953  1.1925  1.3430
 3476SOL     OW21886   3.053   3.757  10.515  0.1806  0.2714 -0.1548
 3476SOL    HW121887   2.971   3.794  10.482 -1.0051 -2.2048  0.0737
 3476SOL    HW221888   3.089   3.713  10.438 -1.8582  2.0082 -2.1189
 3477SOL     OW21889   1.331   0.325  12.762 -0.1705 -0.3564  0.4161
 3477SOL    HW121890   1.326   0.233  12.787 -1.3021 -0.7485 -1.2574
 3477SOL    HW221891   1.347   0.367  12.846  0.7520  1.7987 -0.8081
 3478SOL     OW21892   3.070   2.538  14.013  0.6531  0.4977  0.2362
 3478SOL    HW121893   2.991   2.580  14.044 -0.8107 -1.5921 -0.6333
 3478SOL    HW221894   3.042   2.492  13.933 -0.4468 -0.1866  1.0184
 3479SOL     OW21895   4.635   4.258  10.336  1.0824 -0.0185  0.2204
 3479SOL    HW121896   4.615   4.223  10.423  1.6866  1.2219  0.8504
 3479SOL    HW221897   4.653   4.352  10.342 -2.2964  0.5917  1.1712
 3480SOL     OW21898   3.064   1.097  14.661 -0.0206  0.7228  0.3504
 3480SOL    HW121899   3.008   1.046  14.720  2.5366 -2.5882 -0.1442
 3480SOL    HW221900   3.072   1.183  14.702 -1.8525  1.5772 -1.0647
 3481SOL     OW21901   0.636   4.558   1.894 -0.0568  0.2266 -0.4876
 3481SOL    HW121902   0.678   4.641   1.918  2.4834 -0.4790 -2.4544
 3481SOL    HW221903   0.708   4.496   1.881  0.7708  1.1115 -0.0998
 3482SOL     OW21904   1.550   2.104   4.356 -0.6170  0.1511  0.0284
 3482SOL    HW121905   1.499   2.086   4.277  0.2561  3.1181 -1.2182
 3482SOL    HW221906   1.485   2.102   4.427  1.2408  2.7497  1.8260
 3483SOL     OW21907   1.501   3.007   1.505 -0.0047  0.5284 -0.2957
 3483SOL    HW121908   1.417   2.966   1.482  0.2680 -0.8506  1.1616
 3483SOL    HW221909   1.559   2.934   1.523 -0.5544  0.0831 -0.3096
 3484SOL     OW21910   2.405   1.061   4.640 -0.7487 -0.6360  0.4674
 3484SOL    HW121911   2.379   1.081   4.730  2.1384  2.0450  0.7257
 3484SOL    HW221912   2.334   1.004   4.611 -1.9421  0.6533  0.8678
 3485SOL     OW21913   1.157   0.281   2.904 -0.4492  0.4186 -0.3553
 3485SOL    HW121914   1.158   0.193   2.942 -0.6132 -0.0387 -1.4041
 3485SOL    HW221915   1.110   0.261   2.823 -0.9795 -0.1814  0.0922
 3486SOL     OW21916   1.309   0.136   6.687  0.7134 -0.3987 -0.0684
 3486SOL    HW121917   1.324   0.227   6.716 -0.2669 -0.9023  2.0624
 3486SOL    HW221918   1.393   0.097   6.708  0.6100 -2.4511 -3.5165
 3487SOL     OW21919   4.406   1.259  12.532  0.0822  0.7260  0.0836
 3487SOL    HW121920   4.349   1.333  12.555  0.8908  1.4733 -0.3106
 3487SOL    HW221921   4.352   1.218  12.464 -1.1544  3.1684 -0.4132
 3488SOL     OW21922   4.282   3.893  10.688 -0.6064  0.4490  0.4032
 3488SOL    HW121923   4.201   3.918  10.643 -0.1792 -0.5104 -0.9196
 3488SOL    HW221924   4.348   3.926  10.628 -1.5520 -1.8433 -1.9051
 3489SOL     OW21925   4.394   2.567  16.945  0.2017  0.5809  0.2506
 3489SOL    HW121926   4.400   2.551  16.851 -0.6435  0.9796  0.1300
 3489SOL    HW221927   4.462   2.507  16.976 -0.1821  0.3256  0.5935
 3490SOL     OW21928   0.504   0.525  12.884 -1.0659 -0.3702  0.1150
 3490SOL    HW121929   0.446   0.550  12.812 -0.3323  1.4265  0.1498
 3490SOL    HW221930   0.466   0.578  12.954 -0.0604  0.5356 -0.0311
 3491SOL     OW21931   1.331   0.591   3.539  0.0088 -0.6641  0.3760
 3491SOL    HW121932   1.248   0.544   3.555  0.7601 -1.5793  1.6086
 3491SOL    HW221933   1.383   0.556   3.611  1.5797 -0.4360 -0.6528
 3492SOL     OW21934   1.139   2.741   5.970 -0.0465  0.2485 -0.4713
 3492SOL    HW121935   1.211   2.711   5.914 -1.2463  0.0309 -1.8932
 3492SOL    HW221936   1.185   2.741   6.054 -0.6226  0.0203 -0.1628
 3493SOL     OW21937   4.694   1.041   5.259 -0.5830  0.3386  0.1048
 3493SOL    HW121938   4.680   1.076   5.171  0.9463  0.3939 -0.1154
 3493SOL    HW221939   0.054   0.997   5.246  0.0903  0.8675  2.8220
 3494SOL     OW21940   3.191   1.007   4.623 -0.1908 -0.3458  0.0315
 3494SOL    HW121941   3.222   0.919   4.604 -0.2197 -0.3266 -0.1065
 3494SOL    HW221942   3.146   0.992   4.706  1.6441 -0.8041  0.9415
 3495SOL     OW21943   1.080   0.918   2.933 -0.1895  0.3590  0.2596
 3495SOL    HW121944   1.152   0.926   2.995 -0.7601  2.4160  0.6545
 3495SOL    HW221945   1.055   0.827   2.945  0.4833  0.1104 -0.2003
 3496SOL     OW21946   0.404   2.385   7.014 -0.7240 -0.6045  0.5458
 3496SOL    HW121947   0.452   2.451   6.964 -0.2193 -0.5716  1.0625
 3496SOL    HW221948   0.481   2.346   7.055  1.3818  2.6731 -0.3068
 3497SOL     OW21949   3.053   4.118   9.191 -0.6539  0.0462  0.3831
 3497SOL    HW121950   3.045   4.025   9.173 -1.2321  0.3731 -1.0687
 3497SOL    HW221951   2.981   4.153   9.139 -0.9819  1.8042  1.9876
 3498SOL     OW21952   2.783   0.296  12.101  0.3629 -0.6750  0.3680
 3498SOL    HW121953   2.829   0.287  12.184  1.5049  0.4510 -0.1451
 3498SOL    HW221954   2.700   0.330  12.133  1.2322 -0.0419  1.9731
 3499SOL     OW21955   0.978   0.013   5.567  0.1547  0.1102 -0.0804
 3499SOL    HW121956   0.897   4.687   5.581 -1.1220  1.9719 -0.7540
 3499SOL    HW221957   1.039   4.671   5.599  0.4545  0.0297 -0.8295
 3500SOL     OW21958   2.017   1.864  11.762 -0.3237 -0.3239 -0.4609
 3500SOL    HW121959   2.013   1.793  11.699  2.1300 -1.9047  1.1626
 3500SOL    HW221960   2.056   1.814  11.833 -1.0013  0.7545  0.6678
 3501SOL     OW21961   4.067   0.119   7.704  0.6141 -0.0780 -0.6203
 3501SOL    HW121962   4.030   0.103   7.791 -1.6959  1.7425 -1.2776
 3501SOL    HW221963   4.103   0.207   7.716 -1.3248  0.5954  0.3662
 3502SOL     OW21964   3.167   0.272   1.176 -0.0097 -0.0685 -0.0303
 3502SOL    HW121965   3.162   0.335   1.248 -0.8548 -1.5948  1.2487
 3502SOL    HW221966   3.239   0.313   1.129  1.5836 -2.2261  0.5369
 3503SOL     OW21967   2.465   4.435  14.086  0.0437  0.3273  0.2684
 3503SOL    HW121968   2.489   4.347  14.055 -0.6062  0.4751 -0.6186
 3503SOL    HW221969   2.555   4.460  14.108  0.0639  0.2749  0.2457
 3504SOL     OW21970   3.924   4.313  10.452  0.0181  0.7270  0.4374
 3504SOL    HW121971   3.938   4.297  10.545  1.6139 -1.0699 -0.0958
 3504SOL    HW221972   4.006   4.355  10.427  0.2099  0.3875  0.5006
 3505SOL     OW21973   3.459   0.237   8.986  0.3178  0.1167  0.0845
 3505SOL    HW121974   3.500   0.230   8.900  0.3701  0.7988  0.0523
 3505SOL    HW221975   3.393   0.168   8.993  1.1890 -0.8866 -1.7994
 3506SOL     OW21976   0.577   3.570  14.570  0.3190 -1.2504  0.3779
 3506SOL    HW121977   0.662   3.581  14.528 -0.3303  0.6374 -0.4486
 3506SOL    HW221978   0.524   3.545  14.494 -0.3350  1.0525  0.0605
 3507SOL     OW21979   3.014   3.406   3.118 -0.0808  0.1504 -1.2592
 3507SOL    HW121980   3.015   3.487   3.169 -0.3860 -0.4403 -0.3027
 3507SOL    HW221981   3.105   3.380   3.130 -0.5124 -1.5976 -1.7716
 3508SOL     OW21982   1.860   1.050   4.989 -0.2567  0.3111  0.1593
 3508SOL    HW121983   1.871   1.084   4.901 -1.5426 -0.9586 -0.5004
 3508SOL    HW221984   1.781   0.999   4.969 -0.4318  1.1799 -1.3063
 3509SOL     OW21985   1.083   1.631  15.702  0.1241  0.8020 -0.2437
 3509SOL    HW121986   1.084   1.656  15.609  1.9459  2.3000  0.1681
 3509SOL    HW221987   1.052   1.541  15.701  1.0056  0.5054 -0.6173
 3510SOL     OW21988   1.946   0.066   8.489 -0.0252  0.2620 -0.0214
 3510SOL    HW121989   2.004   4.722   8.457 -1.5060 -0.3315 -1.4235
 3510SOL    HW221990   1.953   0.117   8.408 -3.9417  0.3763 -0.2961
 3511SOL     OW21991   2.415   4.271   1.482 -0.8867  0.6107 -0.8765
 3511SOL    HW121992   2.322   4.278   1.460 -1.0799  2.8177  0.5718
 3511SOL    HW221993   2.433   4.357   1.443 -0.0544  0.7046 -0.2881
 3512SOL     OW21994   3.983   0.307   3.516 -0.1486 -0.0113 -0.6913
 3512SOL    HW121995   4.071   0.295   3.553 -1.0924  0.8090  1.8495
 3512SOL    HW221996   3.962   0.217   3.492 -1.2825  0.1245 -0.2162
 3513SOL     OW21997   1.051   2.541   0.621 -0.2788 -0.2562 -0.0186
 3513SOL    HW121998   1.136   2.521   0.660  0.9381  2.1403 -1.4269
 3513SOL    HW221999   0.992   2.545   0.697 -0.3963 -1.1028 -0.0703
 3514SOL     OW22000   2.738   1.428   5.596 -0.1248 -0.4123 -0.1763
 3514SOL    HW122001   2.742   1.384   5.681  0.5163  0.0007  0.0047
 3514SOL    HW222002   2.653   1.473   5.593  1.3218  2.3039 -0.1650
 3515SOL     OW22003   3.028   2.093  11.782 -0.2690  0.1402 -0.2760
 3515SOL    HW122004   3.081   2.077  11.704  0.8118  1.2990  0.2167
 3515SOL    HW222005   3.002   2.185  11.773 -1.4566  0.0405  2.0377
 3516SOL     OW22006   1.488   4.336  16.576 -0.4780 -0.5662  0.1624
 3516SOL    HW122007   1.577   4.358  16.604 -0.2286  0.1173 -1.1267
 3516SOL    HW222008   1.440   4.381  16.645  1.0770  1.2111  0.0849
 3517SOL     OW22009   3.729   0.989   8.243  0.2478  0.0560  0.2810
 3517SOL    HW122010   3.822   0.973   8.253  0.2042  0.1556  0.8513
 3517SOL    HW222011   3.699   0.903   8.213 -0.4344  0.0810  0.8846
 3518SOL     OW22012   1.710   4.603  11.565 -0.0039 -0.0240 -0.2661
 3518SOL    HW122013   1.739   4.562  11.484  0.2376  0.6037 -0.5008
 3518SOL    HW222014   1.726   4.536  11.631  1.5636 -0.0802 -0.6854
 3519SOL     OW22015   4.399   4.442  13.274 -0.0302  0.3447  0.1033
 3519SOL    HW122016   4.360   4.446  13.362  0.1369 -0.8864  0.2354
 3519SOL    HW222017   4.494   4.442  13.289 -0.1081 -1.8841  0.5519
 3520SOL     OW22018   4.109   4.619   1.588 -0.3838 -0.1005 -0.7641
 3520SOL    HW122019   4.164   4.563   1.534  0.6308  0.1152  0.0481
 3520SOL    HW222020   4.067   4.555   1.646  0.2836 -1.1739 -1.4755
 3521SOL     OW22021   0.198   2.036   8.686 -0.1836  0.4216  0.2951
 3521SOL    HW122022   0.186   1.942   8.669  1.0228 -0.1696  2.7220
 3521SOL    HW222023   0.106   2.057   8.669  0.4213  2.2659 -0.7076
 3522SOL     OW22024   2.192   2.755   9.902 -0.2625 -0.0174 -0.3092
 3522SOL    HW122025   2.210   2.842   9.936  2.3798  0.4455 -2.9821
 3522SOL    HW222026   2.096   2.754   9.896 -0.2657 -1.2918 -0.0803
 3523SOL     OW22027   2.714   1.485   7.169  0.1737  0.0692  0.2529
 3523SOL    HW122028   2.780   1.457   7.106 -0.0592 -1.0290  0.5065
 3523SOL    HW222029   2.771   1.557   7.198 -0.2112  0.2877  0.4601
 3524SOL     OW22030   4.077   3.841   1.678 -0.2437  0.3968 -0.1730
 3524SOL    HW122031   4.019   3.843   1.602 -2.5985 -1.7519  1.5629
 3524SOL    HW222032   4.035   3.908   1.731 -2.3502 -1.9594  1.1588
 3525SOL     OW22033   3.909   4.458   8.931 -0.7347 -0.3134  0.4790
 3525SOL    HW122034   3.849   4.446   9.004  0.0313 -1.1307  0.9689
 3525SOL    HW222035   3.927   4.366   8.914  0.3117 -0.1981  0.9355
 3526SOL     OW22036   4.044   2.395   4.798  0.2496 -0.1006  0.5549
 3526SOL    HW122037   3.989   2.414   4.874 -1.4507  0.3167 -0.7771
 3526SOL    HW222038   3.984   2.420   4.728  0.5065  1.9875  1.0814
 3527SOL     OW22039   1.700   1.084   3.158 -0.3608 -0.0087 -0.1383
 3527SOL    HW122040   1.676   0.992   3.145  0.7093 -0.1040 -1.3522
 3527SOL    HW222041   1.790   1.069   3.131 -0.2392  0.0131  0.2523
 3528SOL     OW22042   2.621   1.860  10.470  0.0796 -0.0224  0.4959
 3528SOL    HW122043   2.616   1.948  10.507  1.5000  0.8549 -1.4396
 3528SOL    HW222044   2.697   1.823  10.515  0.1357  1.4480  1.6221
 3529SOL     OW22045   4.192   1.766   4.277  0.1978  0.1997  0.3820
 3529SOL    HW122046   4.201   1.860   4.289  0.4020 -0.0798  2.4153
 3529SOL    HW222047   4.141   1.763   4.196 -2.3934 -0.5916  2.0357
 3530SOL     OW22048   4.413   2.189   8.826 -0.0277 -0.2952 -0.1542
 3530SOL    HW122049   4.400   2.284   8.826  0.3514 -0.2444 -0.7035
 3530SOL    HW222050   4.400   2.175   8.920 -0.3573  0.5855 -0.0658
 3531SOL     OW22051   0.318   1.284   6.843  0.3120  0.1230  0.5928
 3531SOL    HW122052   0.336   1.195   6.874  0.4474 -0.3055 -0.7205
 3531SOL    HW222053   0.398   1.319   6.804 -0.5397  0.3779 -0.9137
 3532SOL     OW22054   3.414   3.507   2.105  0.5272  0.6961  0.0834
 3532SOL    HW122055   3.329   3.519   2.149  1.3822 -1.0393  2.2132
 3532SOL    HW222056   3.387   3.539   2.019  0.6319  1.4481  0.3353
 3533SOL     OW22057   4.397   3.893   6.481  0.5183  0.1808  0.0379
 3533SOL    HW122058   4.382   3.921   6.571 -2.1626 -0.7681 -0.1296
 3533SOL    HW222059   4.330   3.830   6.456  0.2385  0.3532  0.3454
 3534SOL     OW22060   0.208   3.606  12.708  0.3824 -0.2342 -0.3814
 3534SOL    HW122061   0.151   3.529  12.697  0.5897 -0.5204  0.5081
 3534SOL    HW222062   0.291   3.572  12.675  0.8170 -0.8262  1.3244
 3535SOL     OW22063   4.221   4.659   7.409  0.1772 -0.0381  0.1279
 3535SOL    HW122064   4.203   4.604   7.485 -0.5717 -0.5604 -0.4312
 3535SOL    HW222065   4.226   0.026   7.439  1.2131 -0.6215  1.7580
 3536SOL     OW22066   4.592   3.186   2.609  0.0178  0.3687  0.1319
 3536SOL    HW122067   4.598   3.195   2.514  3.1895 -1.3936  0.1402
 3536SOL    HW222068   4.670   3.240   2.623  1.3692 -1.6518  0.5738
 3537SOL     OW22069   3.129   4.253  16.126 -0.6141  0.0230 -0.1686
 3537SOL    HW122070   3.086   4.336  16.147  0.1435  0.1908  0.7188
 3537SOL    HW222071   3.191   4.280  16.057  0.5511 -2.1237  0.0344
 3538SOL     OW22072   0.498   4.139   4.580 -0.3011 -0.6258 -0.2762
 3538SOL    HW122073   0.533   4.054   4.606 -1.2600 -1.3463 -1.3204
 3538SOL    HW222074   0.545   4.200   4.637 -0.2488 -0.5875 -0.3612
 3539SOL     OW22075   1.838   2.208  14.549 -0.5196 -0.2796  0.1623
 3539SOL    HW122076   1.758   2.259  14.540 -0.8539 -0.9602 -0.7306
 3539SOL    HW222077   1.798   2.124  14.526  0.1844 -0.8416  0.9782
 3540SOL     OW22078   4.648   3.243   6.463 -0.6599 -0.1560  0.4811
 3540SOL    HW122079   0.010   3.284   6.467 -0.9110  0.6051 -2.2530
 3540SOL    HW222080   4.609   3.294   6.392  0.3838  1.7561  1.2864
 3541SOL     OW22081   1.628   3.400  11.311 -0.0922  0.3242  0.1376
 3541SOL    HW122082   1.618   3.415  11.405 -0.7613 -0.9282  0.2604
 3541SOL    HW222083   1.598   3.483  11.275 -2.4887  0.3856  2.2576
 3542SOL     OW22084   0.891   1.142   7.996 -0.1562 -0.6387  0.1535
 3542SOL    HW122085   0.897   1.222   8.047 -0.8164 -0.0377 -0.7080
 3542SOL    HW222086   0.868   1.176   7.909  1.6685 -1.3738 -0.6179
 3543SOL     OW22087   1.452   0.196   8.003 -0.3812 -0.2635 -0.0995
 3543SOL    HW122088   1.370   0.213   7.957 -0.4865 -1.5997 -0.4289
 3543SOL    HW222089   1.428   0.191   8.096 -1.2334 -1.7405 -0.4034
 3544SOL     OW22090   2.993   4.539   1.655 -0.3434 -0.0857 -0.1454
 3544SOL    HW122091   2.965   4.585   1.734  0.7329 -1.6789  1.1621
 3544SOL    HW222092   3.079   4.579   1.639  1.5984 -4.6028 -1.3240
 3545SOL     OW22093   3.074   3.582   2.520  0.1015 -0.2782  0.3991
 3545SOL    HW122094   3.122   3.537   2.589  2.7412 -0.5063 -1.5629
 3545SOL    HW222095   3.021   3.507   2.496 -0.0641  0.3887 -1.2972
 3546SOL     OW22096   4.128   1.698   9.531 -0.3636 -0.1321  0.2418
 3546SOL    HW122097   4.167   1.640   9.465  2.5659  1.3851  0.6195
 3546SOL    HW222098   4.168   1.650   9.604  0.2557 -1.0863 -0.7295
 3547SOL     OW22099   3.924   1.942  12.935  0.1093  0.5178  0.2236
 3547SOL    HW122100   3.935   2.037  12.939  0.2934  0.4806  0.5469
 3547SOL    HW222101   3.841   1.945  12.887 -0.5950  0.3136  1.4347
 3548SOL     OW22102   3.054   2.730  14.438 -0.4552  0.1973 -0.1622
 3548SOL    HW122103   3.073   2.802  14.498  1.5734 -1.7582  1.5100
 3548SOL    HW222104   3.050   2.652  14.492 -1.1766 -1.0724 -2.0248
 3549SOL     OW22105   0.818   1.037   8.574 -0.0673  0.2755  0.3823
 3549SOL    HW122106   0.730   1.025   8.540 -0.8439  1.2811  2.0819
 3549SOL    HW222107   0.859   1.086   8.502  0.2922  1.1449  1.1732
 3550SOL     OW22108   1.122   0.590   5.286  0.0385  0.1719 -0.8351
 3550SOL    HW122109   1.064   0.643   5.233  1.3893  1.9168 -0.5594
 3550SOL    HW222110   1.104   0.498   5.268 -1.7846 -0.0965  2.2752
 3551SOL     OW22111   1.512   4.512   7.301 -0.3859 -0.5399 -0.0631
 3551SOL    HW122112   1.467   4.456   7.238  0.5009  0.0255 -1.2075
 3551SOL    HW222113   1.573   4.447   7.336 -0.0871 -0.4816 -0.4742
 3552SOL     OW22114   4.416   2.703   3.670 -0.0120  0.2252  0.0073
 3552SOL    HW122115   4.485   2.742   3.616  0.3587 -1.4041 -0.7048
 3552SOL    HW222116   4.462   2.684   3.751 -1.4685  0.8904  0.9950
 3553SOL     OW22117   3.161   4.652   9.523 -0.4278  0.1579 -1.3571
 3553SOL    HW122118   3.198   4.571   9.558  0.8330  2.0300  1.6505
 3553SOL    HW222119   3.179   4.714   9.595 -0.8305 -2.6697  1.1593
 3554SOL     OW22120   4.596   2.675  17.394  0.1585  0.8530 -0.5505
 3554SOL    HW122121   4.513   2.689  17.440 -0.0377 -3.4404  0.4029
 3554SOL    HW222122   4.648   2.623  17.455  1.9525  2.6301 -0.5699
 3555SOL     OW22123   4.653   3.554   2.255 -0.1545  0.4412 -0.2649
 3555SOL    HW122124   4.691   3.508   2.180 -0.1417 -0.8335  0.5369
 3555SOL    HW222125   4.625   3.480   2.308  0.4201 -0.7806 -1.6588
 3556SOL     OW22126   1.372   3.986  17.226 -0.2096  0.1421  1.0088
 3556SOL    HW122127   1.370   3.912  17.165 -1.5898  0.3368  0.8324
 3556SOL    HW222128   1.331   4.057  17.176  0.4153 -0.8847 -0.9653
 3557SOL     OW22129   4.541   2.619   5.892  0.1616 -0.0497 -0.5197
 3557SOL    HW122130   4.507   2.675   5.822  0.1518 -0.0115 -0.4844
 3557SOL    HW222131   4.456   2.603   5.932 -0.1220  1.7905 -0.3789
 3558SOL     OW22132   0.332   0.471  14.778  0.8510 -0.3572 -0.2011
 3558SOL    HW122133   0.247   0.507  14.805  1.4198  0.2226  0.7737
 3558SOL    HW222134   0.343   0.406  14.848  1.0843 -1.6048 -1.3935
 3559SOL     OW22135   1.238   1.186   4.674  0.6379  0.4360 -0.0543
 3559SOL    HW122136   1.329   1.157   4.676  0.5239  0.1032  0.2698
 3559SOL    HW222137   1.219   1.197   4.580 -2.7031  2.4652  0.8407
 3560SOL     OW22138   1.798   1.581   5.918 -0.0621 -0.7221 -0.6729
 3560SOL    HW122139   1.705   1.589   5.896 -0.2931 -0.2508  0.4971
 3560SOL    HW222140   1.810   1.642   5.991 -0.7617 -1.6263  0.1866
 3561SOL     OW22141   0.199   2.022  17.239 -0.7323 -0.0462 -0.1499
 3561SOL    HW122142   0.174   2.112  17.216  2.2702  0.7618 -0.2663
 3561SOL    HW222143   0.231   2.053  17.324 -1.1178  1.4373 -0.5399
 3562SOL     OW22144   2.876   1.060   4.226  0.0890 -0.5418  0.6802
 3562SOL    HW122145   2.953   1.073   4.282  0.2990  1.1286  0.0286
 3562SOL    HW222146   2.814   1.045   4.297 -0.5145  2.3177  0.7548
 3563SOL     OW22147   1.719   0.547   0.710 -0.1110 -0.0451 -0.4614
 3563SOL    HW122148   1.719   0.562   0.615  1.7610 -0.4290 -0.5243
 3563SOL    HW222149   1.628   0.546   0.739  0.1427  0.0987  0.3459
 3564SOL     OW22150   1.338   0.963   7.750 -0.3051  0.0827 -0.7020
 3564SOL    HW122151   1.407   0.971   7.816 -0.3022 -1.3505 -0.5422
 3564SOL    HW222152   1.259   0.996   7.793  0.1196  0.7284 -0.4040
 3565SOL     OW22153   2.622   2.584   4.508 -0.0757  0.4906 -0.1564
 3565SOL    HW122154   2.711   2.555   4.528 -0.4336  1.1030  2.2940
 3565SOL    HW222155   2.594   2.605   4.597  0.0956 -1.9516  0.4730
 3566SOL     OW22156   0.439   2.372   6.444 -0.3533  0.1682 -0.1365
 3566SOL    HW122157   0.507   2.310   6.422  0.4682  0.2232  2.2530
 3566SOL    HW222158   0.490   2.432   6.498 -0.7515  1.9408 -1.7315
 3567SOL     OW22159   0.237   1.709   6.842 -0.7067  0.3729 -0.3546
 3567SOL    HW122160   0.252   1.803   6.846 -1.4165  0.4880 -0.5343
 3567SOL    HW222161   0.286   1.678   6.918 -1.9711 -2.6520 -0.7788
 3568SOL     OW22162   3.721   4.651   1.555  0.0046  0.2224 -0.5103
 3568SOL    HW122163   3.681   4.603   1.482  1.6869  2.1224 -2.7082
 3568SOL    HW222164   3.800   4.679   1.508 -0.0790  1.9760  0.3816
 3569SOL     OW22165   0.103   2.232   3.852  0.3110  0.3073  0.3178
 3569SOL    HW122166   0.108   2.230   3.757 -0.3532  1.5336  0.2549
 3569SOL    HW222167   0.111   2.138   3.869  1.8639  0.4053  0.1832
 3570SOL     OW22168   2.100   2.301   6.575 -0.4072 -0.4785 -0.1900
 3570SOL    HW122169   2.045   2.294   6.497 -0.7746  1.1552 -0.0918
 3570SOL    HW222170   2.114   2.396   6.568  2.8247 -0.8605  1.2885
 3571SOL     OW22171   3.231   4.622   1.553  0.2794  0.0548  0.5212
 3571SOL    HW122172   3.296   4.555   1.574  2.2523  2.5365  2.3314
 3571SOL    HW222173   3.285   4.694   1.585 -0.1074  0.5407  0.0940
 3572SOL     OW22174   3.148   2.149   5.824  0.3483 -0.0770 -0.4110
 3572SOL    HW122175   3.168   2.065   5.784 -1.7600 -0.2992 -1.0229
 3572SOL    HW222176   3.210   2.157   5.897 -0.3326  0.4397  0.1168
 3573SOL     OW22177   1.505   4.572   0.010  0.0068 -0.1670 -0.0716
 3573SOL    HW122178   1.463   4.490  17.682 -0.6942 -0.3537  1.5994
 3573SOL    HW222179   1.559   4.550   0.086  3.1191 -0.9032 -2.5103
 3574SOL     OW22180   3.658   0.198   7.507  0.3225  0.4331  0.0468
 3574SOL    HW122181   3.623   0.206   7.418  2.3225  2.1340 -0.5863
 3574SOL    HW222182   3.581   0.166   7.554  1.1924 -1.9394 -0.1634
 3575SOL     OW22183   4.389   3.548   6.546 -0.2759  0.5982  0.0218
 3575SOL    HW122184   4.467   3.603   6.539 -0.7533  1.1306 -1.0096
 3575SOL    HW222185   4.425   3.461   6.566 -0.0501  0.6848 -0.0124
 3576SOL     OW22186   2.096   3.496   6.064 -0.5871  0.2868  0.2863
 3576SOL    HW122187   2.072   3.405   6.079 -1.0292  0.0072 -2.2130
 3576SOL    HW222188   2.018   3.549   6.084 -0.4145  0.1857  1.2326
 3577SOL     OW22189   3.004   1.910   9.668  0.0072 -0.1643 -0.0594
 3577SOL    HW122190   3.035   1.965   9.740 -0.2566 -0.3401  0.1888
 3577SOL    HW222191   2.915   1.889   9.695  0.2154 -1.0226 -0.0481
 3578SOL     OW22192   1.886   3.337   0.269 -0.0487  0.4364 -0.4083
 3578SOL    HW122193   1.835   3.398   0.322  0.3809 -0.7601  1.4096
 3578SOL    HW222194   1.976   3.363   0.288 -0.3834  0.8196  0.6839
 3579SOL     OW22195   0.283   4.584   3.417 -0.1269  0.2867 -0.4952
 3579SOL    HW122196   0.268   4.678   3.412  1.8339  0.6613  0.6840
 3579SOL    HW222197   0.209   4.547   3.369 -0.8312 -2.2814  2.6091
 3580SOL     OW22198   4.464   1.597   3.201  0.1825  0.1682 -0.4555
 3580SOL    HW122199   4.542   1.565   3.156 -0.1056 -2.2129  0.7323
 3580SOL    HW222200   4.467   1.693   3.203  0.9014  0.1576 -0.9103
 3581SOL     OW22201   2.521   1.677  14.252 -0.3221 -0.0234 -0.0902
 3581SOL    HW122202   2.533   1.591  14.212 -0.4049  0.0186 -0.2043
 3581SOL    HW222203   2.609   1.712  14.237 -1.4603  2.6534 -0.4664
 3582SOL     OW22204   4.155   1.996   2.504 -0.1975  0.0413  0.4110
 3582SOL    HW122205   4.190   1.990   2.415 -1.3602 -2.5448  0.1248
 3582SOL    HW222206   4.229   1.972   2.559 -1.0179  2.6765  2.6441
 3583SOL     OW22207   1.612   2.369   5.675 -0.2062 -0.3097  0.2009
 3583SOL    HW122208   1.600   2.463   5.662  0.2105 -0.5203 -1.7171
 3583SOL    HW222209   1.526   2.345   5.710  0.7145  1.6893  3.8001
 3584SOL     OW22210   3.839   2.643   9.302 -0.3488  0.2107  0.0823
 3584SOL    HW122211   3.921   2.627   9.349 -0.9709  1.0626  1.4660
 3584SOL    HW222212   3.836   2.738   9.289  4.0317  0.3582  0.3049
 3585SOL     OW22213   2.635   4.504   4.968 -0.3683 -0.2154 -0.4496
 3585SOL    HW122214   2.630   4.504   5.064 -1.6103 -0.1248 -0.5103
 3585SOL    HW222215   2.578   4.432   4.940  1.2288 -1.0024 -1.6643
 3586SOL     OW22216   0.614   0.897  13.512 -0.2555  0.2511  0.1320
 3586SOL    HW122217   0.669   0.971  13.485 -0.4962  0.2719 -0.3061
 3586SOL    HW222218   0.650   0.872  13.597 -0.7260 -0.2991  0.1627
 3587SOL     OW22219   1.222   1.438   1.051 -0.2374  0.4407 -0.2152
 3587SOL    HW122220   1.127   1.450   1.050 -0.4328 -0.9837  0.9348
 3587SOL    HW222221   1.245   1.473   0.965 -1.4477  0.7618 -0.3993
 3588SOL     OW22222   2.383   0.075  17.629  0.2180 -0.2433 -0.0481
 3588SOL    HW122223   2.301   0.044  17.666 -1.1700  1.4318 -1.7215
 3588SOL    HW222224   2.378   0.170  17.642 -0.9961 -0.5073  1.3817
 3589SOL     OW22225   2.425   3.608   5.537  0.1259 -0.6373 -0.7115
 3589SOL    HW122226   2.495   3.633   5.476  0.1177  1.0078 -0.0492
 3589SOL    HW222227   2.420   3.516   5.513  0.8690 -0.1665 -2.6921
 3590SOL     OW22228   0.679   3.922   4.078  0.1291 -0.1061  0.1988
 3590SOL    HW122229   0.662   3.908   4.171 -0.8388  1.5789  0.2754
 3590SOL    HW222230   0.596   3.903   4.034  0.8532 -0.8233 -0.8666
 3591SOL     OW22231   0.902   4.154   3.807  0.0633 -0.0614 -0.2141
 3591SOL    HW122232   0.825   4.193   3.766  2.1592  1.0168 -3.1281
 3591SOL    HW222233   0.870   4.156   3.897  1.0333  0.8286  0.1070
 3592SOL     OW22234   3.105   0.009  13.320 -0.0311 -0.4886  0.2945
 3592SOL    HW122235   3.169   0.012  13.391  3.4756  0.3764 -2.8804
 3592SOL    HW222236   3.028   4.708  13.372  0.2311  0.6882  1.2632
 3593SOL     OW22237   1.478   2.111   6.415  0.2254  0.1269 -0.1608
 3593SOL    HW122238   1.446   2.023   6.394  1.4045 -0.7103  1.4913
 3593SOL    HW222239   1.572   2.104   6.434 -0.4458 -3.4153  2.0391
 3594SOL     OW22240   3.070   2.529   6.895 -0.2511 -0.1341  0.2471
 3594SOL    HW122241   2.987   2.571   6.918 -0.4537 -0.2248 -0.3122
 3594SOL    HW222242   3.063   2.521   6.799  1.4037 -2.2008  0.3056
 3595SOL     OW22243   1.910   0.094  10.273  0.6888 -0.0178  0.4981
 3595SOL    HW122244   1.907   0.096  10.368  0.7215  1.3645  0.4703
 3595SOL    HW222245   1.906   0.189  10.260  0.6241  0.0003  0.6526
 3596SOL     OW22246   2.827   4.660   3.212 -0.3780 -0.3538 -0.0490
 3596SOL    HW122247   2.770   0.001   3.252 -0.4731  0.8360 -2.1033
 3596SOL    HW222248   2.768   4.586   3.196 -0.4965 -0.3160  0.2218
 3597SOL     OW22249   0.200   4.652   5.005 -0.1568 -0.4937  0.2182
 3597SOL    HW122250   0.177   4.564   4.975 -0.4632 -0.1098 -0.6624
 3597SOL    HW222251   0.207   4.620   5.095 -1.0381 -1.7048 -0.1391
 3598SOL     OW22252   2.997   3.144   2.692  0.2289 -0.2179 -0.1286
 3598SOL    HW122253   2.999   3.049   2.685 -1.7138 -0.1163 -2.2591
 3598SOL    HW222254   2.927   3.165   2.629 -3.0664 -0.7505  3.3301
 3599SOL     OW22255   2.530   3.458   6.317 -1.1575  0.0704  0.8123
 3599SOL    HW122256   2.490   3.449   6.231 -0.3161  0.2025  0.4040
 3599SOL    HW222257   2.487   3.534   6.357  0.3216  0.4235  1.7345
 3600SOL     OW22258   1.215   3.502  11.486  0.4781 -0.0617  0.0641
 3600SOL    HW122259   1.140   3.532  11.435 -0.1282  0.4181  1.2368
 3600SOL    HW222260   1.280   3.554  11.439  1.3141 -0.8502  0.3481
 3601SOL     OW22261   3.038   1.082  17.566 -0.6417 -0.0477 -0.1575
 3601SOL    HW122262   3.012   0.999  17.527  0.2294  0.5273 -2.0110
 3601SOL    HW222263   3.132   1.070  17.579 -0.4511 -1.0700 -2.4260
 3602SOL     OW22264   3.524   0.748   5.564 -0.8668 -0.0221  0.0407
 3602SOL    HW122265   3.612   0.770   5.532 -0.1345 -2.0355  0.7271
 3602SOL    HW222266   3.520   0.781   5.654 -1.3571 -0.8879  0.3280
 3603SOL     OW22267   4.094   0.534   0.955 -0.0805  0.3520  0.4316
 3603SOL    HW122268   4.177   0.492   0.979 -1.1125  0.3225  3.9480
 3603SOL    HW222269   4.029   0.496   1.013 -1.5064  0.7845 -0.8831
 3604SOL     OW22270   2.250   0.293   4.697 -0.1322 -0.4564  0.0793
 3604SOL    HW122271   2.235   0.303   4.603 -1.7108  3.3775  0.7162
 3604SOL    HW222272   2.192   0.362   4.730 -1.7229 -2.8231  2.2142
 3605SOL     OW22273   1.811   2.550  11.488 -0.0457 -0.0460  0.6342
 3605SOL    HW122274   1.890   2.586  11.527 -0.4271  2.2507 -0.6987
 3605SOL    HW222275   1.763   2.634  11.491  2.9699  1.7142 -1.0512
 3606SOL     OW22276   0.474   0.546   4.321 -0.7170 -0.0465  0.3993
 3606SOL    HW122277   0.478   0.451   4.318 -0.8742 -0.0952  2.1052
 3606SOL    HW222278   0.464   0.549   4.416  0.0025  1.7255  0.4289
 3607SOL     OW22279   3.025   4.674   4.132 -0.0137 -0.0054 -0.0549
 3607SOL    HW122280   3.042   4.600   4.190  1.7609 -0.0606 -0.6790
 3607SOL    HW222281   2.949   4.713   4.177 -0.0862  0.3560 -0.4852
 3608SOL     OW22282   4.293   3.715   1.715  0.6758 -0.1278 -0.2390
 3608SOL    HW122283   4.319   3.761   1.795  0.7277  0.3444 -0.5232
 3608SOL    HW222284   4.202   3.745   1.709  0.8268  0.4488  0.3382
 3609SOL     OW22285   3.012   3.472   8.425 -0.6757  0.7961  0.3879
 3609SOL    HW122286   3.034   3.403   8.363  0.7634  1.2466  0.3836
 3609SOL    HW222287   3.069   3.446   8.498  1.8445 -0.7877 -2.1504
 3610SOL     OW22288   3.966   1.664   5.001 -0.0460 -0.0109 -0.2236
 3610SOL    HW122289   3.924   1.579   5.017 -0.8841  0.5738  0.7005
 3610SOL    HW222290   3.950   1.718   5.078 -3.7484 -3.3491  1.3329
 3611SOL     OW22291   0.920   3.877   1.738 -0.0211  0.0612  0.4720
 3611SOL    HW122292   0.828   3.884   1.712  0.4646  1.7226 -0.8339
 3611SOL    HW222293   0.964   3.932   1.673 -0.6512  2.0891  1.7707
 3612SOL     OW22294   2.875   0.996  11.307  0.5752 -0.5074 -0.5840
 3612SOL    HW122295   2.940   0.940  11.266  0.0561 -1.8984  0.4936
 3612SOL    HW222296   2.829   1.041  11.235  0.1604  0.4972  0.3021
 3613SOL     OW22297   2.811   4.671   7.832  0.3503  0.1301 -0.1515
 3613SOL    HW122298   2.771   4.596   7.787  0.8197  0.5258 -1.2289
 3613SOL    HW222299   2.836   4.719   7.753  0.4069  0.6902  0.2105
 3614SOL     OW22300   4.482   2.860   3.068  0.3421 -0.2646 -0.2579
 3614SOL    HW122301   4.511   2.809   3.144 -1.9175 -1.2652 -0.0712
 3614SOL    HW222302   4.389   2.865   3.091  0.1261  0.8113 -1.3665
 3615SOL     OW22303   3.278   2.998  13.761  0.0252 -0.5192  0.4583
 3615SOL    HW122304   3.255   2.912  13.796 -0.2927 -1.0591 -1.0885
 3615SOL    HW222305   3.267   3.054  13.838 -0.5562 -0.5273  0.3795
 3616SOL     OW22306   1.960   2.641   4.484 -0.1996 -0.2158  0.2624
 3616SOL    HW122307   1.994   2.557   4.453  0.6591 -0.5060  1.9945
 3616SOL    HW222308   1.939   2.669   4.395 -1.3756 -1.0818  0.2650
 3617SOL     OW22309   1.373   1.262   1.165 -0.6292  0.8182 -0.6757
 3617SOL    HW122310   1.330   1.332   1.116 -1.3254 -0.2521 -1.5876
 3617SOL    HW222311   1.359   1.306   1.249 -0.0335  1.0659 -0.7085
 3618SOL     OW22312   3.431   3.723   2.427 -0.2917  0.2711  0.2923
 3618SOL    HW122313   3.460   3.649   2.374 -2.3743 -1.6330  1.8166
 3618SOL    HW222314   3.432   3.678   2.512 -1.1673  0.7891  0.5749
 3619SOL     OW22315   4.104   1.610   6.878 -0.3214 -0.2204 -0.3775
 3619SOL    HW122316   4.138   1.524   6.901 -0.5009 -0.4122 -0.8298
 3619SOL    HW222317   4.157   1.625   6.800 -0.5060  1.0133 -0.2736
 3620SOL     OW22318   2.135   0.389   7.225 -0.4333  0.3249 -0.1174
 3620SOL    HW122319   2.228   0.403   7.211 -0.4428  0.2580 -0.2469
 3620SOL    HW222320   2.125   0.465   7.283 -0.3041 -0.2364  0.6374
 3621SOL     OW22321   1.493   0.003   0.897  0.2328 -0.2667  0.3425
 3621SOL    HW122322   1.556   0.071   0.922 -0.7548 -0.0063  2.1329
 3621SOL    HW222323   1.529   4.649   0.938 -0.0062  0.6521  2.2957
 3622SOL     OW22324   0.523   1.424  14.134 -0.2988 -0.0017  0.2494
 3622SOL    HW122325   0.499   1.470  14.054  0.6896  0.2624  0.1097
 3622SOL    HW222326   0.471   1.463  14.205  0.7882  1.8747 -0.0006
 3623SOL     OW22327   1.298   1.653   4.103  0.3577 -0.4643  0.6409
 3623SOL    HW122328   1.216   1.697   4.127  0.8044  1.1415 -0.8302
 3623SOL    HW222329   1.290   1.573   4.155 -2.1337 -0.8748 -0.3893
 3624SOL     OW22330   0.610   2.521  16.096  0.3804 -0.3460 -0.5587
 3624SOL    HW122331   0.530   2.478  16.125  1.2095 -1.9530 -0.6517
 3624SOL    HW222332   0.674   2.450  16.104 -0.1142 -0.5551  1.4173
 3625SOL     OW22333   2.327   2.548   2.254 -0.7569 -0.3396 -0.6373
 3625SOL    HW122334   2.245   2.595   2.240  0.0640  0.9273 -1.2582
 3625SOL    HW222335   2.342   2.514   2.165  1.1324  2.0196 -1.2264
 3626SOL     OW22336   2.781   2.630   5.191 -0.1745  0.0866  0.6457
 3626SOL    HW122337   2.849   2.585   5.240  0.8539  1.3719  0.4234
 3626SOL    HW222338   2.728   2.671   5.259 -0.4847  1.7712 -0.6138
 3627SOL     OW22339   2.819   0.971   6.564 -0.0260 -0.3812  0.4516
 3627SOL    HW122340   2.767   0.913   6.621 -0.9446 -0.0745 -0.0760
 3627SOL    HW222341   2.900   0.989   6.611 -2.2866 -0.0615  4.2735
 3628SOL     OW22342   1.563   2.931  10.154  0.2487 -0.0649 -0.5223
 3628SOL    HW122343   1.596   2.997  10.094  1.1081  1.0535  1.1854
 3628SOL    HW222344   1.490   2.978  10.193 -0.9921 -2.5269  0.1696
 3629SOL     OW22345   0.283   3.447   9.014  0.4637 -0.1144 -0.1775
 3629SOL    HW122346   0.275   3.531   9.058 -2.3854 -0.3763 -0.2056
 3629SOL    HW222347   0.222   3.401   9.071 -0.3416  0.2616 -0.7444
 3630SOL     OW22348   1.678   0.130  15.173  0.2236  0.6095  0.7674
 3630SOL    HW122349   1.622   0.055  15.155  0.1907  0.0159  3.3019
 3630SOL    HW222350   1.744   0.074  15.214  0.1835 -0.5930 -0.8029
 3631SOL     OW22351   2.902   2.623  10.522  0.0694  0.4369 -0.0082
 3631SOL    HW122352   2.901   2.718  10.534  3.7280  0.2663  1.7651
 3631SOL    HW222353   2.853   2.611  10.441  0.7079  0.3928 -0.3839
 3632SOL     OW22354   3.557   2.800   7.224  0.2971  0.0215 -0.8272
 3632SOL    HW122355   3.505   2.745   7.167 -2.1367  0.5412  0.9004
 3632SOL    HW222356   3.638   2.749   7.230  0.6647  0.7115  0.3870
 3633SOL     OW22357   3.869   4.540   6.145  0.0850  1.0975  0.5507
 3633SOL    HW122358   3.796   4.505   6.095  1.1523 -1.0742  0.5164
 3633SOL    HW222359   3.843   4.503   6.230 -0.6824 -0.7528 -0.5116
 3634SOL     OW22360   2.520   2.366   6.455  0.2042  0.2954 -0.1522
 3634SOL    HW122361   2.461   2.410   6.394  1.3543 -0.1456 -1.5687
 3634SOL    HW222362   2.457   2.322   6.512  0.2289 -0.8234 -1.0111
 3635SOL     OW22363   3.779   1.699  17.681 -0.0230  0.3222 -0.7110
 3635SOL    HW122364   3.747   1.670  17.596  1.6418 -1.2620 -0.8134
 3635SOL    HW222365   3.709   1.686   0.046  0.7202 -0.0485  0.0423
 3636SOL     OW22366   2.025   3.856   7.006 -0.6064  0.6181 -0.3425
 3636SOL    HW122367   2.074   3.934   7.033 -0.9287  0.8277 -0.3605
 3636SOL    HW222368   2.100   3.811   6.968 -0.7378  1.0414 -1.0942
 3637SOL     OW22369   1.602   2.774   1.775  0.4024 -0.2260  0.2577
 3637SOL    HW122370   1.645   2.795   1.691  2.7435 -1.4495  1.1422
 3637SOL    HW222371   1.603   2.865   1.805 -1.1516 -0.5783  1.3252
 3638SOL     OW22372   0.664   2.700  15.684 -0.0402  0.2617  0.0167
 3638SOL    HW122373   0.708   2.637  15.741 -1.0307 -1.2349 -0.8718
 3638SOL    HW222374   0.731   2.707  15.616 -1.8032  1.3761 -1.6006
 3639SOL     OW22375   1.839   2.633   2.604 -0.0628  0.0056 -0.1548
 3639SOL    HW122376   1.804   2.688   2.534  2.6697  2.0322  0.0820
 3639SOL    HW222377   1.826   2.543   2.575  1.6992  0.2531 -1.6950
 3640SOL     OW22378   0.330   4.527   9.022  0.2711  0.4264  0.1851
 3640SOL    HW122379   0.303   4.505   8.933  0.6896  2.5774 -0.4853
 3640SOL    HW222380   0.251   4.572   9.052  0.7272  1.3742 -0.0165
 3641SOL     OW22381   0.471   4.633  16.516  0.3467 -0.0263  0.2473
 3641SOL    HW122382   0.441   4.677  16.436 -1.0299 -0.6761  0.4070
 3641SOL    HW222383   0.502   4.552  16.475 -1.0743 -0.7245  0.5295
 3642SOL     OW22384   0.660   1.442   8.462 -0.3148  0.2198 -0.0202
 3642SOL    HW122385   0.584   1.440   8.521 -1.9095  0.0391 -2.0711
 3642SOL    HW222386   0.615   1.475   8.384 -1.3695  0.2625  0.6073
 3643SOL     OW22387   3.272   2.737   6.172  0.3330  0.0394 -0.6573
 3643SOL    HW122388   3.180   2.734   6.195  0.6067 -4.0394 -0.1584
 3643SOL    HW222389   3.294   2.830   6.161 -1.0999  0.2446 -1.7988
 3644SOL     OW22390   3.602   2.204   4.348  0.1992  0.3775  0.0574
 3644SOL    HW122391   3.513   2.233   4.328  0.9902  0.4215 -3.2628
 3644SOL    HW222392   3.584   2.113   4.326  1.9538  0.0248  0.0462
 3645SOL     OW22393   1.584   2.829   1.164 -0.1553  0.2719 -0.2653
 3645SOL    HW122394   1.543   2.745   1.186 -0.8017  1.2160  2.1250
 3645SOL    HW222395   1.568   2.823   1.070 -1.9519 -0.0915  0.0637
 3646SOL     OW22396   1.969   2.665   9.070 -0.2256  0.4509 -0.6110
 3646SOL    HW122397   1.949   2.734   9.007 -2.3180  0.3148 -0.0641
 3646SOL    HW222398   1.949   2.706   9.154 -1.2618  0.7844 -1.0275
 3647SOL     OW22399   1.298   3.469   7.411  0.3010 -0.3318  0.5340
 3647SOL    HW122400   1.261   3.400   7.466  0.4951  0.0940  1.1985
 3647SOL    HW222401   1.310   3.541   7.473 -0.7687  0.9707 -0.7835
 3648SOL     OW22402   3.985   1.476   8.547  0.2114 -0.0558  0.2530
 3648SOL    HW122403   4.068   1.476   8.500  1.1845 -1.1518  1.9969
 3648SOL    HW222404   3.951   1.394   8.512  0.2976  0.2077 -0.4531
 3649SOL     OW22405   1.341   0.488   7.181  0.0921  0.0015 -0.6792
 3649SOL    HW122406   1.393   0.481   7.261  0.2427 -2.5790 -1.0001
 3649SOL    HW222407   1.414   0.480   7.119 -1.2670 -1.7301 -2.0567
 3650SOL     OW22408   0.362   0.479   7.367 -0.2838  0.0302  0.2960
 3650SOL    HW122409   0.419   0.540   7.320 -1.6496  0.3843 -0.8972
 3650SOL    HW222410   0.358   0.527   7.450  0.4949 -1.3530  1.1259
 3651SOL     OW22411   2.248   0.742   1.281 -0.6470  0.3893 -0.0884
 3651SOL    HW122412   2.258   0.722   1.188  0.6170 -1.9367  0.5527
 3651SOL    HW222413   2.308   0.679   1.321 -0.1372  0.2816 -1.0234
 3652SOL     OW22414   3.647   4.423  11.564  0.3641 -0.2927 -0.1513
 3652SOL    HW122415   3.729   4.388  11.531 -0.7434  1.2623 -4.4722
 3652SOL    HW222416   3.649   4.376  11.648  1.4832 -0.0138 -0.0253
 3653SOL     OW22417   3.635   2.952   7.457  0.4409  0.2987  0.1796
 3653SOL    HW122418   3.723   2.979   7.430  1.1847 -1.8757  0.4413
 3653SOL    HW222419   3.618   2.890   7.386  0.6862  1.7333 -1.1481
 3654SOL     OW22420   0.345   1.383   5.067  0.3347  0.4219 -0.0168
 3654SOL    HW122421   0.345   1.330   5.147  0.0188 -0.2286 -0.4545
 3654SOL    HW222422   0.266   1.350   5.025  1.3720 -0.5731 -1.1491
 3655SOL     OW22423   1.842   0.346   4.127  0.6497  0.5627  0.0432
 3655SOL    HW122424   1.802   0.264   4.099 -0.1769  0.2529  2.1199
 3655SOL    HW222425   1.892   0.306   4.198  2.0328  3.3166  0.6129
 3656SOL     OW22426   4.372   3.016  14.912  0.4236  0.7020  0.1697
 3656SOL    HW122427   4.295   3.058  14.875 -0.6762 -0.2754  1.3229
 3656SOL    HW222428   4.366   3.051  15.001  0.3091  2.5786 -0.5859
 3657SOL     OW22429   1.491   2.165   7.730 -0.0420 -0.0379  0.0805
 3657SOL    HW122430   1.486   2.078   7.769 -0.5844  0.5399  1.2917
 3657SOL    HW222431   1.579   2.169   7.693 -0.5493 -0.9312 -1.2421
 3658SOL     OW22432   3.422   4.504  10.349  0.4497 -0.3912 -0.5011
 3658SOL    HW122433   3.492   4.568  10.356  0.5581 -0.4930 -0.6592
 3658SOL    HW222434   3.377   4.518  10.265  1.2020 -0.8614 -0.9808
 3659SOL     OW22435   0.771   3.944   2.023  0.1002  0.6453  0.8176
 3659SOL    HW122436   0.862   3.933   1.995 -1.1840  1.0566 -3.5612
 3659SOL    HW222437   0.784   3.928   2.117 -2.2713 -0.5335  0.9295
 3660SOL     OW22438   4.359   4.048   2.432 -0.0860 -0.2514  0.2620
 3660SOL    HW122439   4.267   4.052   2.406 -0.7471 -0.5466  2.5400
 3660SOL    HW222440   4.408   4.085   2.358  1.5931 -0.1609  1.4298
 3661SOL     OW22441   0.615   4.382   1.298  0.3846  0.3673  0.9654
 3661SOL    HW122442   0.631   4.429   1.379  0.8216  0.9501  0.5390
 3661SOL    HW222443   0.612   4.289   1.321  3.1592  0.1634  0.5280
 3662SOL     OW22444   3.643   3.388   4.540  0.2820  0.1226  0.4539
 3662SOL    HW122445   3.634   3.369   4.634 -0.0498  1.0996  0.6149
 3662SOL    HW222446   3.555   3.375   4.504  0.6056  1.6281 -0.8560
 3663SOL     OW22447   3.161   4.319   7.041 -0.2564 -0.7380  0.1777
 3663SOL    HW122448   3.067   4.322   7.056  0.1498 -0.6468  2.6177
 3663SOL    HW222449   3.184   4.390   7.101 -3.2171  1.2440 -1.0313
 3664SOL     OW22450   3.940   0.492   7.110 -0.3879  0.2482  0.5281
 3664SOL    HW122451   3.935   0.398   7.096  0.3163  0.8512 -3.8035
 3664SOL    HW222452   3.856   0.511   7.153 -1.3200  1.4934 -1.8095
 3665SOL     OW22453   0.185   2.364   4.131 -0.0026 -0.2623  0.6103
 3665SOL    HW122454   0.195   2.353   4.037 -0.2221 -0.1048  0.5684
 3665SOL    HW222455   0.089   2.372   4.136 -0.0183  0.0662 -0.1437
 3666SOL     OW22456   2.807   3.362   3.265  0.0675 -0.1852  0.8605
 3666SOL    HW122457   2.878   3.357   3.201 -1.7464  0.7189 -1.1941
 3666SOL    HW222458   2.837   3.301   3.332 -0.4472  0.5568  1.7773
 3667SOL     OW22459   3.478   1.157   7.199 -0.5597 -0.1333 -0.3035
 3667SOL    HW122460   3.413   1.114   7.144 -1.6213  0.4976  0.4711
 3667SOL    HW222461   3.458   1.114   7.283  1.9672 -1.0757 -0.1851
 3668SOL     OW22462   4.687   1.773   0.769  0.5218 -0.4095 -0.1483
 3668SOL    HW122463   4.606   1.768   0.819  0.1163 -0.9630 -0.8494
 3668SOL    HW222464   4.672   1.698   0.711  0.6907  0.1702 -0.9566
 3669SOL     OW22465   1.753   2.435   3.400 -0.2133 -0.3231 -0.0196
 3669SOL    HW122466   1.739   2.405   3.310  0.4508 -0.1505 -0.1787
 3669SOL    HW222467   1.727   2.361   3.455 -3.3403 -0.6855 -1.9720
 3670SOL     OW22468   0.335   3.587   2.791  0.1370 -0.1023  0.0581
 3670SOL    HW122469   0.348   3.585   2.696  1.3225 -0.6444  0.2346
 3670SOL    HW222470   0.328   3.682   2.798  0.2599 -0.1450  0.6967
 3671SOL     OW22471   3.780   0.727   6.240  0.0778  0.6080 -0.2656
 3671SOL    HW122472   3.707   0.785   6.261 -0.8657 -0.4348 -0.6694
 3671SOL    HW222473   3.750   0.660   6.178  2.1761 -0.9269  0.3428
 3672SOL     OW22474   1.340   3.726   2.073  0.2944  0.2096  0.0981
 3672SOL    HW122475   1.422   3.776   2.070 -0.0086  0.7012 -0.0306
 3672SOL    HW222476   1.351   3.659   2.006  3.9908 -0.2303  1.0960
 3673SOL     OW22477   3.897   0.999  16.643  0.1997  0.3787  0.5433
 3673SOL    HW122478   3.858   1.053  16.712  0.4379  0.5553  0.5417
 3673SOL    HW222479   3.827   0.972  16.583  0.6938 -0.9219  0.5701
 3674SOL     OW22480   1.341   4.259  11.010 -0.1052  0.5219 -0.3210
 3674SOL    HW122481   1.360   4.168  11.034 -0.6608 -0.1227 -2.3312
 3674SOL    HW222482   1.324   4.265  10.916  0.5663 -0.5433 -0.5108
 3675SOL     OW22483   3.460   4.345  13.424  0.6923 -0.9139  0.1042
 3675SOL    HW122484   3.481   4.335  13.517  0.5128 -1.3030  0.1043
 3675SOL    HW222485   3.470   4.440  13.431  1.5185 -1.0052  0.1445
 3676SOL     OW22486   1.708   0.956   7.023 -0.2500  0.0105  0.8607
 3676SOL    HW122487   1.736   0.971   6.932 -2.3812 -1.5863 -0.0677
 3676SOL    HW222488   1.775   1.017   7.055 -1.1282  0.2391  2.2342
 3677SOL     OW22489   1.645   3.827  13.048 -0.2819  0.1238 -0.1918
 3677SOL    HW122490   1.585   3.778  13.104  0.7655 -0.8550  0.0849
 3677SOL    HW222491   1.670   3.891  13.114  1.0533  1.2727 -1.8041
 3678SOL     OW22492   0.641   4.594   2.236 -0.3253  0.6428  0.5224
 3678SOL    HW122493   0.657   4.628   2.149  1.3807 -0.7158  0.3035
 3678SOL    HW222494   0.670   4.664   2.294  0.3109  0.6591  0.1819
 3679SOL     OW22495   2.676   4.712   1.076  0.2674 -0.4807  0.1149
 3679SOL    HW122496   2.713   4.629   1.107  0.7077 -0.8676 -1.4299
 3679SOL    HW222497   2.701   4.698   0.984  0.3411  0.1070  0.0484
 3680SOL     OW22498   1.638   2.745   2.366  0.0564  0.3392 -0.7657
 3680SOL    HW122499   1.683   2.716   2.286  1.7714  1.6793 -0.2771
 3680SOL    HW222500   1.582   2.670   2.387  1.1877  0.1607  1.6125
 3681SOL     OW22501   2.507   0.182   5.197  0.1701 -0.7124  0.2025
 3681SOL    HW122502   2.436   0.197   5.134  0.6321 -2.7319 -0.7708
 3681SOL    HW222503   2.477   0.231   5.274 -0.4802  0.5011 -0.8218
 3682SOL     OW22504   1.128   4.089   5.173 -0.2578  0.0295  0.3048
 3682SOL    HW122505   1.211   4.136   5.180 -0.4759  0.1333  2.1700
 3682SOL    HW222506   1.151   4.001   5.142 -1.3872  0.4729 -1.7951
 3683SOL     OW22507   4.664   2.497   0.530  0.4375 -0.7160 -0.4217
 3683SOL    HW122508   4.607   2.559   0.575 -1.4370 -2.4788 -0.3376
 3683SOL    HW222509   4.669   2.425   0.593 -1.6034  1.4868  2.2561
 3684SOL     OW22510   0.895   3.672   7.851  0.1550 -0.4928 -0.0947
 3684SOL    HW122511   0.909   3.730   7.926  0.5793  1.3691 -1.6225
 3684SOL    HW222512   0.889   3.586   7.892  0.3404 -0.7393 -0.5895
 3685SOL     OW22513   1.364   2.227   8.361  0.1467 -0.1734 -0.6752
 3685SOL    HW122514   1.358   2.200   8.453 -0.7280  2.0896 -0.0637
 3685SOL    HW222515   1.454   2.210   8.333  0.4829  0.2125  0.1412
 3686SOL     OW22516   4.027   0.632   3.911  0.4828 -0.7431  0.4664
 3686SOL    HW122517   4.065   0.619   3.824 -0.7528  0.1064 -0.2028
 3686SOL    HW222518   3.992   0.719   3.892  0.6082 -0.6164  0.8133
 3687SOL     OW22519   3.192   3.607  10.339  0.0197  0.6706 -0.6404
 3687SOL    HW122520   3.285   3.629  10.335  0.6427 -1.7460  0.1253
 3687SOL    HW222521   3.185   3.552  10.418 -0.1134  1.6049  0.0014
 3688SOL     OW22522   2.770   4.562   0.460 -0.4487 -0.0638 -0.7378
 3688SOL    HW122523   2.837   4.622   0.428  2.0841 -2.0380  0.8600
 3688SOL    HW222524   2.827   4.493   0.495 -0.0225  0.5311 -0.2672
 3689SOL     OW22525   2.061   0.219   6.050 -0.0913  0.5516 -0.0715
 3689SOL    HW122526   2.027   0.170   6.125  1.5241  1.4802  1.2470
 3689SOL    HW222527   2.143   0.173   6.034 -0.0334  0.1172  1.5292
 3690SOL     OW22528   3.913   3.431   0.230 -0.9795  0.3774  0.0725
 3690SOL    HW122529   3.968   3.359   0.260 -1.0482  0.2285 -0.1576
 3690SOL    HW222530   3.837   3.374   0.233  0.9304 -2.2025 -0.4560
 3691SOL     OW22531   1.667   0.458  17.570 -0.1261  0.4024  0.0916
 3691SOL    HW122532   1.595   0.522  17.574 -1.2293 -0.8210 -0.0203
 3691SOL    HW222533   1.673   0.454  17.475 -1.3093 -0.7303  0.0586
 3692SOL     OW22534   3.210   2.211   6.799 -0.2641  0.1125  0.4412
 3692SOL    HW122535   3.130   2.161   6.812 -1.0172  0.7675 -1.7518
 3692SOL    HW222536   3.278   2.152   6.834  1.6600  1.1795 -1.4794
 3693SOL     OW22537   1.218   2.085   1.606  0.1269  0.2595 -0.6930
 3693SOL    HW122538   1.196   1.997   1.575  0.3546  0.3196 -1.0221
 3693SOL    HW222539   1.310   2.070   1.629 -0.5547 -1.0632  1.1639
 3694SOL     OW22540   2.318   0.224   4.973 -0.3755  0.3856 -0.2539
 3694SOL    HW122541   2.342   0.140   4.935 -1.1813  0.1996 -0.3417
 3694SOL    HW222542   2.312   0.272   4.890  0.0524  0.1532 -0.4165
 3695SOL     OW22543   1.514   0.523   1.340 -0.0232  0.8492 -0.2013
 3695SOL    HW122544   1.552   0.611   1.334  1.7787  0.1963  1.6839
 3695SOL    HW222545   1.581   0.472   1.293  1.3546  1.4064  1.1679
 3696SOL     OW22546   0.552   2.724   8.851  0.6693  0.3404  0.1567
 3696SOL    HW122547   0.521   2.654   8.908  2.1353 -1.1075 -0.8296
 3696SOL    HW222548   0.557   2.685   8.764  2.2106 -1.8588  1.2388
 3697SOL     OW22549   0.469   4.333   1.749  0.1862 -0.1052 -0.0761
 3697SOL    HW122550   0.502   4.401   1.807  1.6664 -0.5450 -0.4215
 3697SOL    HW222551   0.422   4.268   1.802 -2.1926  2.0201  0.4150
 3698SOL     OW22552   2.037   1.407   9.258  0.1070 -0.0331  0.3347
 3698SOL    HW122553   1.952   1.408   9.215  0.4894 -1.2371 -0.4323
 3698SOL    HW222554   2.065   1.498   9.244 -0.8570 -0.0440 -1.5806
 3699SOL     OW22555   4.212   3.178  11.887 -0.0349 -0.3413  0.0768
 3699SOL    HW122556   4.180   3.133  11.809 -1.7949 -0.6417  0.9556
 3699SOL    HW222557   4.297   3.135  11.899 -0.2739 -0.3605  1.6950
 3700SOL     OW22558   2.745   3.029   6.421  0.2600 -0.4594  0.0508
 3700SOL    HW122559   2.758   3.107   6.367 -0.0832  0.4558  1.2872
 3700SOL    HW222560   2.697   2.975   6.359 -1.2016 -1.1285  1.7484
 3701SOL     OW22561   0.988   1.063   2.234 -0.6059 -0.2726 -0.0646
 3701SOL    HW122562   1.060   1.126   2.241 -0.0212 -0.9935  0.4669
 3701SOL    HW222563   1.035   0.992   2.279  0.9982  0.9245  0.1607
 3702SOL     OW22564   0.603   3.029   8.245 -0.1363  0.1827 -0.1109
 3702SOL    HW122565   0.698   3.028   8.259 -0.1340  0.3069 -0.1136
 3702SOL    HW222566   0.572   2.945   8.277 -1.2074 -0.2485 -2.2651
 3703SOL     OW22567   2.975   3.068   9.559 -0.5894  0.2420  0.4320
 3703SOL    HW122568   2.895   3.116   9.580 -0.9649  0.5340 -1.7505
 3703SOL    HW222569   2.955   2.976   9.578 -0.8238  0.4975  1.4595
 3704SOL     OW22570   0.728   0.557  12.712 -0.4988  0.2567  0.2579
 3704SOL    HW122571   0.766   0.551  12.799 -0.7940 -1.2509  0.2805
 3704SOL    HW222572   0.638   0.540  12.741 -1.0044  1.7813 -0.3992
 3705SOL     OW22573   1.701   2.736   8.079 -0.3042 -0.4143  0.1713
 3705SOL    HW122574   1.616   2.697   8.102 -0.4349  0.4961  1.2144
 3705SOL    HW222575   1.689   2.827   8.105 -0.6669 -0.5952  0.6366
 3706SOL     OW22576   2.389   3.391   8.824  0.1890 -0.6718 -0.1967
 3706SOL    HW122577   2.370   3.327   8.756 -1.1449 -0.0182 -0.4462
 3706SOL    HW222578   2.440   3.344   8.890 -0.1437 -2.9621 -1.5991
 3707SOL     OW22579   2.363   0.445   3.803 -0.2953 -0.5468 -0.2856
 3707SOL    HW122580   2.435   0.394   3.839 -0.7794 -0.8416  0.2688
 3707SOL    HW222581   2.379   0.528   3.848 -1.2926 -0.6541  0.2611
 3708SOL     OW22582   1.682   4.141  11.790 -0.3540  0.5302 -0.0732
 3708SOL    HW122583   1.732   4.209  11.833  1.9263 -1.3621  0.2482
 3708SOL    HW222584   1.704   4.068  11.848  1.2782 -0.1222 -1.5159
 3709SOL     OW22585   3.142   4.680   7.672 -1.0093  0.0775 -0.3797
 3709SOL    HW122586   3.202   4.702   7.601 -2.0069  2.2752 -0.5558
 3709SOL    HW222587   3.189   4.608   7.714 -1.3450 -0.3384 -0.7190
 3710SOL     OW22588   4.102   4.450   8.675  0.1170 -0.5377  0.6774
 3710SOL    HW122589   4.034   4.502   8.633  0.4171 -0.4418  0.3144
 3710SOL    HW222590   4.079   4.478   8.764 -1.3370  2.9887 -0.8303
 3711SOL     OW22591   1.259   2.383   0.720 -0.0771 -0.4622 -0.3953
 3711SOL    HW122592   1.308   2.403   0.640  0.3243 -0.0955 -0.0611
 3711SOL    HW222593   1.300   2.435   0.790 -0.0270 -0.8546 -0.1302
 3712SOL     OW22594   0.426   3.704  16.682 -0.0549  0.1451 -0.1225
 3712SOL    HW122595   0.445   3.765  16.753  2.4429 -0.3192 -0.3907
 3712SOL    HW222596   0.333   3.721  16.666 -0.4653  0.4491  2.7510
 3713SOL     OW22597   0.622   3.443   2.314  0.3503  0.1542 -0.4759
 3713SOL    HW122598   0.683   3.377   2.280  1.3571  0.1520  1.3421
 3713SOL    HW222599   0.556   3.383   2.349 -0.6093  2.4803  1.6403
 3714SOL     OW22600   1.038   4.038   4.870 -0.3483  0.2118  0.5027
 3714SOL    HW122601   1.078   3.972   4.927 -0.2243 -1.2194 -1.2400
 3714SOL    HW222602   0.996   3.985   4.801  0.0859 -1.8404  1.8054
 3715SOL     OW22603   2.798   0.885   4.598  0.4698 -0.0146 -0.9094
 3715SOL    HW122604   2.752   0.931   4.668  0.6476  0.0353 -0.8262
 3715SOL    HW222605   2.750   0.921   4.524  0.2913 -1.3373 -1.4457
 3716SOL     OW22606   3.342   0.519   8.609  0.2953 -0.3274  0.1384
 3716SOL    HW122607   3.412   0.493   8.669  2.0477  0.1571 -1.6932
 3716SOL    HW222608   3.324   0.608   8.641 -0.8092 -0.7716  0.7484
 3717SOL     OW22609   3.452   2.204   1.218  0.0280 -0.0849  0.1530
 3717SOL    HW122610   3.499   2.237   1.295 -1.5944  0.6004  0.8493
 3717SOL    HW222611   3.503   2.240   1.145  0.1399 -1.0258 -0.2333
 3718SOL     OW22612   1.499   0.748   6.320  0.1964  0.4782 -0.0212
 3718SOL    HW122613   1.438   0.760   6.248 -0.0807  1.0600  0.3128
 3718SOL    HW222614   1.536   0.832   6.346 -0.2789  0.8941 -0.7040
 3719SOL     OW22615   4.441   2.425   6.818 -0.3850 -0.3018  0.2523
 3719SOL    HW122616   4.472   2.335   6.808 -0.4633 -0.4496  1.2691
 3719SOL    HW222617   4.346   2.414   6.825 -0.2881 -0.3825  1.5021
 3720SOL     OW22618   3.905   1.114  15.946  0.3998 -0.1592  0.1165
 3720SOL    HW122619   3.876   1.042  16.003 -0.7913 -0.9117 -1.4233
 3720SOL    HW222620   3.829   1.172  15.955 -0.0060 -0.3006 -2.4362
 3721SOL     OW22621   1.904   1.684  12.780  0.2790 -0.2983 -0.6627
 3721SOL    HW122622   1.973   1.731  12.733  0.6571  2.2210  2.4087
 3721SOL    HW222623   1.824   1.729  12.751 -0.4388  0.7021  2.8653
 3722SOL     OW22624   1.654   0.033   7.268 -0.1396  0.0844 -0.5898
 3722SOL    HW122625   1.613   4.675   7.245 -0.1272 -0.3663  1.0016
 3722SOL    HW222626   1.611   0.038   7.353  2.0383  1.2961  0.4657
 3723SOL     OW22627   1.113   0.003   2.974  0.1535  0.3034 -0.3153
 3723SOL    HW122628   1.188   4.669   2.982 -0.0162  0.4485  2.0808
 3723SOL    HW222629   1.043   4.664   2.960  1.5132 -1.1850 -0.3570
 3724SOL     OW22630   4.222   2.321  12.647 -0.4178 -0.4169  0.0410
 3724SOL    HW122631   4.226   2.241  12.699  3.3303 -0.2324  0.0146
 3724SOL    HW222632   4.208   2.293  12.556  0.5741 -1.1147  0.1065
 3725SOL     OW22633   4.587   3.889   7.453  0.1483 -0.3878 -0.1836
 3725SOL    HW122634   4.681   3.894   7.437  0.5614 -1.8346  1.8195
 3725SOL    HW222635   4.588   3.845   7.538 -1.0324 -0.8507 -0.4143
 3726SOL     OW22636   1.855   1.226  13.998  0.1669  0.0861  0.2446
 3726SOL    HW122637   1.793   1.185  13.936  0.5847 -0.0811 -0.0639
 3726SOL    HW222638   1.883   1.149  14.047  0.0261 -0.9670 -1.3149
 3727SOL     OW22639   3.065   1.507   6.610 -0.2763  0.2798 -0.3665
 3727SOL    HW122640   3.121   1.573   6.569 -0.5978  0.9974  0.3327
 3727SOL    HW222641   2.979   1.549   6.605 -1.2911 -1.8630 -0.8560
 3728SOL     OW22642   0.544   0.157   5.145 -0.5530  0.1131 -0.4736
 3728SOL    HW122643   0.572   0.066   5.137  1.3048  0.6799 -0.3693
 3728SOL    HW222644   0.628   0.204   5.142  0.9845 -2.6683 -0.5296
 3729SOL     OW22645   3.523   3.860   4.298  1.0203 -0.8513 -0.6333
 3729SOL    HW122646   3.576   3.783   4.321  0.5777 -0.9838 -0.0621
 3729SOL    HW222647   3.577   3.912   4.358 -1.7182  1.3535 -0.1262
 3730SOL     OW22648   2.601   1.565   1.758 -0.1336  0.5598  0.6294
 3730SOL    HW122649   2.547   1.554   1.836 -1.8670 -0.6503 -0.7169
 3730SOL    HW222650   2.649   1.482   1.762  0.4405  0.9239  1.2337
 3731SOL     OW22651   2.701   3.047  10.237  0.3524  0.0013  0.1657
 3731SOL    HW122652   2.784   3.069  10.194  1.1752  1.0696  2.3055
 3731SOL    HW222653   2.655   3.007  10.163  1.0930  2.3198 -1.5752
 3732SOL     OW22654   3.133   0.560  16.393 -0.1782  0.2980 -0.3310
 3732SOL    HW122655   3.056   0.509  16.366 -0.0780 -0.1153  0.1495
 3732SOL    HW222656   3.187   0.557  16.314 -1.1151 -1.8972 -0.8962
 3733SOL     OW22657   1.907   3.707   3.503  0.4348 -0.2394  0.6397
 3733SOL    HW122658   1.839   3.761   3.543 -1.2186 -1.5417 -0.3754
 3733SOL    HW222659   1.870   3.624   3.533  1.1541 -0.9933 -0.5498
 3734SOL     OW22660   4.326   0.142   6.019  0.4223  0.2657 -0.1117
 3734SOL    HW122661   4.331   0.163   5.926  0.1784  0.5909 -0.0536
 3734SOL    HW222662   4.411   0.177   6.047 -0.0513  0.6511  0.8371
 3735SOL     OW22663   4.678   1.781   2.452  0.1236 -0.1365  0.4032
 3735SOL    HW122664   0.012   1.754   2.523  0.6120  0.7309  0.3368
 3735SOL    HW222665   4.709   1.718   2.387  2.8531  1.6636 -0.0638
 3736SOL     OW22666   4.095   1.109   6.560  0.5461  0.2286 -0.3426
 3736SOL    HW122667   4.076   1.024   6.599  2.6471 -0.7350 -1.3980
 3736SOL    HW222668   4.175   1.120   6.612  0.8237 -1.9905 -0.2807
 3737SOL     OW22669   3.416   1.049   4.907 -0.1648  0.3746  0.0180
 3737SOL    HW122670   3.469   0.991   4.851 -0.8218  0.7239 -0.9617
 3737SOL    HW222671   3.330   1.008   4.896 -0.4973  1.0540  0.1379
 3738SOL     OW22672   1.049   2.717   2.214 -0.0558 -1.2096  0.4701
 3738SOL    HW122673   0.980   2.659   2.245 -0.0850 -1.6807 -0.4884
 3738SOL    HW222674   0.995   2.796   2.210  0.5544 -0.7907  0.5305
 3739SOL     OW22675   1.181   3.523   8.300 -0.4576 -0.6988 -0.6776
 3739SOL    HW122676   1.148   3.436   8.274 -0.7768 -0.6802 -0.3352
 3739SOL    HW222677   1.142   3.569   8.226  0.5258  2.2972  0.6792
 3740SOL     OW22678   1.669   2.945   8.227  0.0897 -0.2807 -0.1473
 3740SOL    HW122679   1.684   2.904   8.312 -1.5667  2.2610  1.3550
 3740SOL    HW222680   1.734   3.014   8.231 -0.3032  0.1792 -1.7518
 3741SOL     OW22681   1.862   3.029   7.833  0.2857  0.4174 -0.2139
 3741SOL    HW122682   1.925   3.026   7.905 -1.2667 -0.0416  1.1284
 3741SOL    HW222683   1.924   3.044   7.762  0.2129 -1.1528 -0.6024
 3742SOL     OW22684   0.355   1.631   0.932 -0.2178 -0.4406 -0.2661
 3742SOL    HW122685   0.331   1.595   0.847 -0.3023  0.5875 -0.6728
 3742SOL    HW222686   0.433   1.679   0.907 -0.6355  1.8282  2.6957
 3743SOL     OW22687   2.947   2.917  16.119 -0.3567 -0.0269 -0.0004
 3743SOL    HW122688   2.887   2.952  16.184  0.2726  0.0224  0.5532
 3743SOL    HW222689   2.949   2.985  16.051  2.4816 -1.7139 -1.5870
 3744SOL     OW22690   4.295   0.923  13.135 -0.1537  0.2217  0.3601
 3744SOL    HW122691   4.339   0.866  13.072  0.2191 -0.1142  0.9273
 3744SOL    HW222692   4.358   0.993  13.150 -0.1318  0.3390 -0.2587
 3745SOL     OW22693   2.509   0.840   4.453 -0.7179  0.1891 -0.1919
 3745SOL    HW122694   2.551   0.766   4.408 -0.3493 -0.5232  1.3139
 3745SOL    HW222695   2.461   0.798   4.525 -0.6706 -0.0858 -0.3207
 3746SOL     OW22696   0.693   3.399   7.149 -0.0209  0.6109 -0.0636
 3746SOL    HW122697   0.734   3.471   7.100  2.4903 -0.7266  0.0796
 3746SOL    HW222698   0.715   3.425   7.238  0.2450  2.7208 -0.7243
 3747SOL     OW22699   3.247   1.371   1.769 -0.4248  0.4614 -0.1296
 3747SOL    HW122700   3.206   1.341   1.688  0.6019 -2.0625  0.2952
 3747SOL    HW222701   3.339   1.382   1.744 -0.5427 -0.2927 -0.8691
 3748SOL     OW22702   1.431   4.259   3.741  0.2464  0.2772 -0.5747
 3748SOL    HW122703   1.349   4.237   3.785  0.0767 -1.3833 -1.7273
 3748SOL    HW222704   1.445   4.347   3.775  0.4962  0.3674 -0.9079
 3749SOL     OW22705   3.997   1.878   2.110 -0.0613  0.1290  0.0878
 3749SOL    HW122706   3.940   1.954   2.108  1.2724  1.1047 -0.6528
 3749SOL    HW222707   4.064   1.915   2.168 -0.2478 -0.0681  0.4320
 3750SOL     OW22708   4.141   1.895   6.492  0.0628 -0.0665 -0.1343
 3750SOL    HW122709   4.120   1.882   6.400  1.0148 -0.4900 -0.2855
 3750SOL    HW222710   4.056   1.928   6.521  0.2332  1.4376 -1.3450
 3751SOL     OW22711   3.858   0.731   7.471 -0.6327  0.1312 -0.0694
 3751SOL    HW122712   3.850   0.636   7.480  0.7550 -0.2520 -2.9616
 3751SOL    HW222713   3.786   0.758   7.529 -0.4220  2.4991 -0.9057
 3752SOL     OW22714   2.579   2.844  13.383 -0.3030 -0.2052 -0.5139
 3752SOL    HW122715   2.522   2.868  13.456  0.5143 -0.3272  0.1619
 3752SOL    HW222716   2.534   2.890  13.312  0.8028  2.3386  0.4456
 3753SOL     OW22717   1.715   0.823  17.520 -0.0192 -0.0660 -0.1475
 3753SOL    HW122718   1.645   0.808  17.582 -0.2015 -0.7499 -0.5252
 3753SOL    HW222719   1.786   0.765  17.548 -0.9299 -1.4616 -0.7300
 3754SOL     OW22720   4.134   3.246  17.660  0.0235 -0.0992  0.1106
 3754SOL    HW122721   4.208   3.186  17.655 -2.6252 -3.2239 -1.1411
 3754SOL    HW222722   4.106   3.237   0.052  2.3078  0.8465  0.9176
 3755SOL     OW22723   1.410   4.001  11.087  0.3045 -0.3804  0.1630
 3755SOL    HW122724   1.495   3.961  11.108  0.9728  1.7984  1.6888
 3755SOL    HW222725   1.352   3.935  11.123 -1.9060  0.4553 -1.8873
 3756SOL     OW22726   1.131   1.898   6.578  0.0218  0.2533 -0.0127
 3756SOL    HW122727   1.037   1.879   6.581  0.1817 -0.7703 -1.4742
 3756SOL    HW222728   1.143   1.965   6.512  1.7509 -0.5365 -0.4980
 3757SOL     OW22729   0.210   0.560   4.520 -0.0234  0.1414  0.1791
 3757SOL    HW122730   0.210   0.545   4.615 -1.3737 -1.4569 -0.0912
 3757SOL    HW222731   0.152   0.493   4.486  1.7424 -0.4270 -1.6913
 3758SOL     OW22732   0.802   2.181   0.028  0.4553  0.1628  0.4628
 3758SOL    HW122733   0.839   2.231  17.654 -1.5023  2.9568  1.3885
 3758SOL    HW222734   0.831   2.092   0.008  0.8294  0.8157 -1.9012
 3759SOL     OW22735   4.520   1.561  13.987  0.0657 -0.3623 -0.6650
 3759SOL    HW122736   4.504   1.592  14.077 -1.0237 -0.8232 -0.6941
 3759SOL    HW222737   4.601   1.516  14.010  0.3820  0.3557 -0.3873
 3760SOL     OW22738   3.306   0.125   7.436 -0.1190  0.5440 -0.5133
 3760SOL    HW122739   3.311   0.122   7.341  0.7002  0.2742 -0.4595
 3760SOL    HW222740   3.230   0.183   7.439 -1.4714 -1.3476  1.8501
 3761SOL     OW22741   3.227   0.771   3.386 -0.0426  0.1330 -0.4157
 3761SOL    HW122742   3.143   0.751   3.344  0.0416 -0.7431 -0.1691
 3761SOL    HW222743   3.238   0.692   3.439  0.8917 -0.5964 -1.6851
 3762SOL     OW22744   3.303   3.715  17.385  0.2863  0.7080  0.5314
 3762SOL    HW122745   3.361   3.751  17.318  0.3415 -0.6377 -0.1477
 3762SOL    HW222746   3.325   3.622  17.373  0.9554  0.8427  0.6892
 3763SOL     OW22747   1.186   1.351   2.803 -0.3036 -0.3123 -0.3840
 3763SOL    HW122748   1.153   1.265   2.777 -1.3480 -0.3245  0.9983
 3763SOL    HW222749   1.218   1.333   2.892  2.0599  1.3957 -0.8816
 3764SOL     OW22750   4.131   0.611  14.946 -0.3037  0.8192  0.5256
 3764SOL    HW122751   4.137   0.699  14.907 -1.4184  0.9449  0.6397
 3764SOL    HW222752   4.058   0.610  15.007 -1.2469 -2.2478 -0.6518
 3765SOL     OW22753   0.105   1.360   6.367 -0.1248 -1.0389  0.2504
 3765SOL    HW122754   0.087   1.448   6.399  1.2502  0.1616 -2.2928
 3765SOL    HW222755   0.022   1.335   6.328  0.4418 -0.7326 -1.1468
 3766SOL     OW22756   3.706   1.426   6.454  0.1225  0.1983  0.1376
 3766SOL    HW122757   3.763   1.371   6.509 -0.2101 -0.4821 -0.1964
 3766SOL    HW222758   3.668   1.467   6.531 -2.0509 -1.4964 -0.0296
 3767SOL     OW22759   2.398   2.543   4.961  0.4087  0.2619 -0.7804
 3767SOL    HW122760   2.337   2.493   4.906 -2.1716  2.2058  0.2935
 3767SOL    HW222761   2.410   2.498   5.046 -0.6297  0.9219 -0.2882
 3768SOL     OW22762   3.154   2.529  12.535 -0.3719  0.1468  0.2245
 3768SOL    HW122763   3.215   2.460  12.561  0.1921 -0.0317 -1.5536
 3768SOL    HW222764   3.093   2.481  12.479 -0.2745  0.0999  0.1599
 3769SOL     OW22765   2.680   1.039   4.406  0.0136  0.3151  0.2724
 3769SOL    HW122766   2.622   1.114   4.396 -0.8098 -0.5141 -1.1716
 3769SOL    HW222767   2.613   0.972   4.423 -1.4840  1.3347 -1.6361
 3770SOL     OW22768   4.071   1.934   6.873  0.1331 -0.0078  0.1409
 3770SOL    HW122769   4.077   1.840   6.891  3.4279  0.5926  2.1229
 3770SOL    HW222770   4.063   1.961   6.964 -0.6779 -0.2326  0.1371
 3771SOL     OW22771   1.615   3.507   3.567  0.4880  0.3051  0.1455
 3771SOL    HW122772   1.658   3.421   3.567  0.4455  0.2811  1.1480
 3771SOL    HW222773   1.547   3.495   3.500  1.5696  1.7454 -1.2129
 3772SOL     OW22774   3.078   2.812   1.944  0.2072  0.2912  0.0232
 3772SOL    HW122775   3.137   2.750   1.988 -1.0607 -0.6424  0.3881
 3772SOL    HW222776   3.145   2.880   1.933  0.9933 -0.4485  0.2141
 3773SOL     OW22777   3.591   1.576   3.246 -0.5468 -0.0131 -0.1444
 3773SOL    HW122778   3.623   1.551   3.333 -2.3980 -1.1870  0.1863
 3773SOL    HW222779   3.512   1.524   3.241  0.1340 -0.9451 -1.1283
 3774SOL     OW22780   2.303   2.072   9.729  0.1959 -0.5463 -0.4662
 3774SOL    HW122781   2.227   2.130   9.722  0.8581  0.1311 -2.0218
 3774SOL    HW222782   2.365   2.115   9.671  1.9571 -1.5399  0.6566
 3775SOL     OW22783   1.989   2.014   9.275  0.2085 -0.5084 -0.3849
 3775SOL    HW122784   2.017   2.105   9.277 -2.4642  0.3446 -1.5771
 3775SOL    HW222785   2.074   1.972   9.265 -0.3364 -1.9671  1.0818
 3776SOL     OW22786   0.573   1.161   7.432  0.1888 -0.3676  0.3871
 3776SOL    HW122787   0.477   1.165   7.433  0.1378 -1.4186 -0.8183
 3776SOL    HW222788   0.598   1.226   7.497 -0.3699  0.3701 -0.1255
 3777SOL     OW22789   0.271   1.613  10.350  0.0646  0.5976  0.1932
 3777SOL    HW122790   0.348   1.657  10.388  1.2649 -0.7948 -0.6551
 3777SOL    HW222791   0.296   1.523  10.370 -0.2265  0.6452  0.7820
 3778SOL     OW22792   2.637   4.250   7.882  0.3057 -0.2067 -0.2730
 3778SOL    HW122793   2.586   4.319   7.925  0.7489  0.1499 -0.3239
 3778SOL    HW222794   2.718   4.263   7.932 -0.9754  1.6694  1.2973
 3779SOL     OW22795   2.168   3.934   2.321  0.1018  0.4113  0.6140
 3779SOL    HW122796   2.144   4.001   2.384  0.9969  1.0537  0.2665
 3779SOL    HW222797   2.140   3.976   2.239 -0.4303  0.5430  0.8606
 3780SOL     OW22798   3.368   0.038   2.983  0.5616 -0.2404  0.1666
 3780SOL    HW122799   3.337   0.108   3.040  1.4673 -0.9327  1.5059
 3780SOL    HW222800   3.293   0.010   2.930  0.0176 -1.6910  1.7018
 3781SOL     OW22801   4.177   2.837   3.899 -0.0341 -0.2506 -0.1695
 3781SOL    HW122802   4.181   2.854   3.805  0.4878 -1.6747 -0.4105
 3781SOL    HW222803   4.263   2.873   3.920  0.6785 -1.2437 -1.3768
 3782SOL     OW22804   0.732   0.723   4.981 -1.0450  0.0516 -0.5604
 3782SOL    HW122805   0.725   0.789   4.912 -1.8648 -0.1547 -0.6746
 3782SOL    HW222806   0.728   0.644   4.928 -2.1503 -0.7621  0.7274
 3783SOL     OW22807   1.529   0.763   7.400  0.2431 -0.6897  0.6110
 3783SOL    HW122808   1.532   0.675   7.362 -1.5458  0.5214 -2.3019
 3783SOL    HW222809   1.473   0.807   7.337  2.3151 -2.1315 -2.2563
 3784SOL     OW22810   0.153   3.293   7.657  0.2012 -0.1312 -0.1256
 3784SOL    HW122811   0.211   3.300   7.733 -0.2451  1.6481  0.0602
 3784SOL    HW222812   0.112   3.379   7.662  3.9462  1.4090  4.1328
 3785SOL     OW22813   3.389   4.032  16.833  0.1361  0.0985 -0.3567
 3785SOL    HW122814   3.297   4.040  16.858 -0.1081 -2.3905 -0.4429
 3785SOL    HW222815   3.388   3.963  16.766  1.2276 -0.3963  0.1487
 3786SOL     OW22816   2.557   0.951   3.564 -0.0446 -0.2194 -0.7273
 3786SOL    HW122817   2.606   0.904   3.632 -2.4989  0.7264  1.7182
 3786SOL    HW222818   2.547   1.040   3.599 -0.0840 -0.6835  0.4612
 3787SOL     OW22819   2.267   2.499   1.191 -0.2137 -0.1571  0.3774
 3787SOL    HW122820   2.276   2.516   1.097 -1.4913  4.1592  1.0293
 3787SOL    HW222821   2.190   2.551   1.215 -0.3745 -0.1870 -0.0820
 3788SOL     OW22822   3.155   2.376   7.573  0.5232  0.4800  0.0413
 3788SOL    HW122823   3.109   2.294   7.555  1.1885  0.2204 -0.5072
 3788SOL    HW222824   3.117   2.433   7.506  0.3362  0.3130  0.0091
 3789SOL     OW22825   4.711   0.728   4.850  0.6033  0.1221  0.4184
 3789SOL    HW122826   0.010   0.815   4.820  0.1855  0.2653  0.5095
 3789SOL    HW222827   4.719   0.737   4.945 -1.0648 -2.6945  0.8129
 3790SOL     OW22828   0.722   1.917   5.273  0.5305  0.0783 -0.0564
 3790SOL    HW122829   0.748   1.833   5.235  1.2592 -0.6484  2.0202
 3790SOL    HW222830   0.693   1.900   5.362  1.1192  1.7814  0.4655
 3791SOL     OW22831   0.947   3.007   4.029 -0.0822  0.5359 -0.3052
 3791SOL    HW122832   0.887   2.937   4.004  0.0141  0.5306 -0.5163
 3791SOL    HW222833   0.876   3.071   4.037  0.3511  0.8871  0.7535
 3792SOL     OW22834   4.665   0.475   3.775 -0.3194 -0.2675  0.7429
 3792SOL    HW122835   4.699   0.512   3.856  0.6516  0.9174 -0.2108
 3792SOL    HW222836   4.585   0.525   3.755 -0.1876  0.4661  2.0543
 3793SOL     OW22837   0.820   3.780  15.379 -0.3688 -0.1777 -0.4115
 3793SOL    HW122838   0.808   3.833  15.459 -0.6555 -0.3008 -0.3718
 3793SOL    HW222839   0.728   3.760  15.364  0.0331 -2.4182  0.1514
 3794SOL     OW22840   3.402   4.589   4.582  0.5164 -0.4926 -0.8378
 3794SOL    HW122841   3.338   4.553   4.520 -1.1155  0.3093  0.3506
 3794SOL    HW222842   3.432   4.509   4.624 -0.1450 -0.9458 -1.2191
 3795SOL     OW22843   2.979   4.139   4.711  0.6523 -0.5389  0.5588
 3795SOL    HW122844   2.890   4.150   4.742  0.5919  1.1260 -0.2303
 3795SOL    HW222845   3.009   4.223   4.675 -0.9642 -0.2011  0.0232
 3796SOL     OW22846   3.598   0.448   4.766  0.1128 -0.3131 -0.1869
 3796SOL    HW122847   3.590   0.398   4.685 -2.5172 -1.2076  0.6203
 3796SOL    HW222848   3.668   0.398   4.809 -0.2417 -0.5725  0.0893
 3797SOL     OW22849   2.649   2.536   4.002 -0.7229  0.0603 -0.5309
 3797SOL    HW122850   2.606   2.468   4.054 -1.4866 -1.5755 -3.2934
 3797SOL    HW222851   2.590   2.609   4.021 -1.3874 -0.2065 -1.5471
 3798SOL     OW22852   0.606   3.314   7.860  0.3252  0.3562  0.0642
 3798SOL    HW122853   0.555   3.269   7.927  1.2160 -1.5315 -0.5314
 3798SOL    HW222854   0.550   3.390   7.846 -1.2738 -1.0705 -1.2706
 3799SOL     OW22855   3.755   2.894   4.826  0.1748 -0.4450  0.0689
 3799SOL    HW122856   3.800   2.912   4.744 -1.1910 -2.1744 -1.0354
 3799SOL    HW222857   3.779   2.803   4.844  0.8990 -0.5635 -1.4921
 3800SOL     OW22858   0.705   2.776   2.564  0.4598  1.3161 -0.0335
 3800SOL    HW122859   0.712   2.748   2.473  0.4961 -0.6312  0.5617
 3800SOL    HW222860   0.778   2.724   2.597 -0.4263  1.2787  1.8958
 3801SOL     OW22861   0.609   3.697   2.227 -0.4704 -0.3989 -0.0753
 3801SOL    HW122862   0.568   3.744   2.301  0.4368 -0.3169  0.3712
 3801SOL    HW222863   0.623   3.609   2.262  0.8213  0.6077  1.9356
 3802SOL     OW22864   2.324   3.305   1.867  0.0942 -0.2608  0.0969
 3802SOL    HW122865   2.301   3.230   1.812 -0.0349  2.7023 -3.8718
 3802SOL    HW222866   2.381   3.361   1.814  1.2158 -2.3733 -0.9338
 3803SOL     OW22867   0.917   0.774   5.875 -0.7185  0.1311  0.0803
 3803SOL    HW122868   0.847   0.736   5.822 -1.1998  0.1098  0.7310
 3803SOL    HW222869   0.881   0.857   5.906 -2.0552 -0.8175  1.0539
 3804SOL     OW22870   1.054   2.805   8.983 -0.0143 -0.5573  0.1346
 3804SOL    HW122871   1.089   2.756   9.058 -0.6148 -0.0304  0.7519
 3804SOL    HW222872   1.019   2.732   8.931 -0.3313 -0.0000 -0.4370
 3805SOL     OW22873   2.543   4.657  16.189 -0.2220 -0.0707 -0.1224
 3805SOL    HW122874   2.627   4.670  16.145 -0.6001  0.3088 -0.7311
 3805SOL    HW222875   2.512   4.582  16.139  3.0149 -2.0484  0.8229
 3806SOL     OW22876   0.755   0.095  13.869  0.3658 -0.2443 -0.5617
 3806SOL    HW122877   0.719   0.171  13.913  1.2916  0.0393 -0.2973
 3806SOL    HW222878   0.688   0.033  13.897  0.8933 -0.2917  0.5880
 3807SOL     OW22879   1.220   1.406   7.332 -0.4115  0.8412 -0.2876
 3807SOL    HW122880   1.279   1.462   7.382 -0.4846  0.4844  0.1964
 3807SOL    HW222881   1.284   1.345   7.297  1.0311  2.9919 -1.3819
 3808SOL     OW22882   4.599   3.357  15.690 -0.2046  0.0691  0.4369
 3808SOL    HW122883   4.522   3.412  15.709 -0.4548  0.5880 -2.1061
 3808SOL    HW222884   4.646   3.417  15.632 -1.3951 -1.3229 -1.9711
 3809SOL     OW22885   1.734   0.811  10.238 -0.2077  0.1465 -0.0606
 3809SOL    HW122886   1.723   0.894  10.192 -1.0047  0.2977  0.3990
 3809SOL    HW222887   1.769   0.832  10.325  0.1483 -2.7806  0.5063
 3810SOL     OW22888   3.236   3.644   8.108  0.1309  0.0623  0.3261
 3810SOL    HW122889   3.242   3.735   8.137 -1.9250 -0.0470  1.0684
 3810SOL    HW222890   3.208   3.660   8.018  0.9269  3.1877  0.6242
 3811SOL     OW22891   1.202   4.501   3.999 -0.2519  0.2894  0.2830
 3811SOL    HW122892   1.296   4.511   4.019  0.4483  0.4867 -3.1556
 3811SOL    HW222893   1.213   4.455   3.916 -2.4639  0.2908  0.0083
 3812SOL     OW22894   1.814   2.110   4.376 -0.1496  0.0524 -0.4924
 3812SOL    HW122895   1.827   2.114   4.282 -0.3739 -0.5676 -0.5480
 3812SOL    HW222896   1.719   2.113   4.371 -0.1195  1.0014 -0.4252
 3813SOL     OW22897   1.544   2.451   4.483 -0.1038 -0.1783 -0.4747
 3813SOL    HW122898   1.500   2.373   4.516 -1.1340 -0.0346 -1.5303
 3813SOL    HW222899   1.521   2.446   4.390  0.3180 -3.0247 -0.4114
 3814SOL     OW22900   1.123   3.417   9.210 -0.2829 -0.1113 -0.0220
 3814SOL    HW122901   1.171   3.391   9.288 -1.4660 -1.7974  0.1398
 3814SOL    HW222902   1.192   3.403   9.144 -0.0527 -2.4394  0.7249
 3815SOL     OW22903   1.661   0.146   1.107  0.2808  0.0534 -0.0926
 3815SOL    HW122904   1.578   0.145   1.156  1.5030 -1.2008  1.9114
 3815SOL    HW222905   1.676   0.241   1.111  0.4037 -0.0109  0.8980
 3816SOL     OW22906   3.885   2.123  15.473 -0.6788 -0.0292 -0.0741
 3816SOL    HW122907   3.837   2.133  15.391 -1.8177 -0.0522  0.6003
 3816SOL    HW222908   3.926   2.037  15.463 -0.0965  0.2361  0.0075
 3817SOL     OW22909   3.289   0.996  17.675 -0.5328  0.6678 -0.5040
 3817SOL    HW122910   3.342   1.072  17.699 -1.0057  0.4052  1.3239
 3817SOL    HW222911   3.327   0.933   0.036 -1.8682 -1.0663 -1.4489
 3818SOL     OW22912   1.809   4.260  13.658  0.4697 -0.3966  0.1343
 3818SOL    HW122913   1.829   4.296  13.571 -1.3033  3.0324  1.1455
 3818SOL    HW222914   1.898   4.256  13.693  0.1782 -0.3847  0.8637
 3819SOL     OW22915   0.908   2.608   9.981  0.0650  0.4711 -0.1107
 3819SOL    HW122916   0.850   2.562   9.920  1.5921  1.6281 -2.4157
 3819SOL    HW222917   0.980   2.547   9.996  1.4463  1.5815 -2.3099
 3820SOL     OW22918   2.808   2.551   5.779  0.8093  0.1254  0.5589
 3820SOL    HW122919   2.799   2.594   5.694 -0.9941 -0.3560  0.5262
 3820SOL    HW222920   2.835   2.462   5.755  1.1425  0.1400  0.8796
 3821SOL     OW22921   0.612   1.447   0.051  0.4800  0.1721  0.7519
 3821SOL    HW122922   0.602   1.471   0.143  3.4334  1.0157  0.8252
 3821SOL    HW222923   0.664   1.369   0.069 -0.3651 -0.3720  0.8856
 3822SOL     OW22924   0.569   4.068   1.672  0.5085 -0.2074  0.2761
 3822SOL    HW122925   0.572   4.163   1.685 -0.4722  0.3281 -3.3166
 3822SOL    HW222926   0.501   4.065   1.606 -0.3778 -1.6191  1.2461
 3823SOL     OW22927   3.151   3.550   3.744 -0.5205  0.1335  0.4701
 3823SOL    HW122928   3.143   3.495   3.822 -1.5164  1.6682  1.4438
 3823SOL    HW222929   3.242   3.574   3.761 -0.9867  1.3252  1.3129
 3824SOL     OW22930   1.721   1.104  14.869  0.0334  0.0717  0.0569
 3824SOL    HW122931   1.759   1.054  14.797 -0.7947  0.6646 -0.7907
 3824SOL    HW222932   1.630   1.074  14.875  0.3445 -0.5760  1.4176
 3825SOL     OW22933   1.216   0.938  12.231 -0.2318 -0.0810  0.1764
 3825SOL    HW122934   1.229   0.941  12.326 -0.8281 -1.6511  0.3009
 3825SOL    HW222935   1.208   1.031  12.208 -0.8997  0.0949  1.1355
 3826SOL     OW22936   1.450   3.681   5.167 -0.3803  0.0565 -0.9545
 3826SOL    HW122937   1.523   3.635   5.127  0.5095  0.8612 -0.2483
 3826SOL    HW222938   1.398   3.601   5.173 -1.5642  1.0630  2.4560
 3827SOL     OW22939   3.429   3.989   6.167  0.2196  0.6077 -0.4102
 3827SOL    HW122940   3.482   4.047   6.221  0.0245  1.2105 -0.8646
 3827SOL    HW222941   3.498   3.964   6.105 -1.9422 -0.1416 -2.5230
 3828SOL     OW22942   3.971   0.733   5.905 -0.2412  0.7088  0.3995
 3828SOL    HW122943   4.014   0.808   5.864 -1.4496  1.4778  0.5279
 3828SOL    HW222944   3.982   0.766   5.995  2.2869  2.1899 -0.4423
 3829SOL     OW22945   1.149   3.679   8.567 -0.4057  0.3921  0.2606
 3829SOL    HW122946   1.220   3.635   8.521  0.2507  1.3591  0.3506
 3829SOL    HW222947   1.073   3.622   8.552 -1.4677  1.5362  1.3085
 3830SOL     OW22948   1.628   0.929   4.943 -0.2707  0.5339  0.2780
 3830SOL    HW122949   1.587   0.945   5.028 -2.4000  1.0332 -0.8417
 3830SOL    HW222950   1.565   0.870   4.902 -0.6297  1.1791 -0.0974
 3831SOL     OW22951   3.590   1.003  10.148 -0.0164 -0.3467  0.0532
 3831SOL    HW122952   3.646   1.022  10.223  0.0312  1.2105 -0.3761
 3831SOL    HW222953   3.506   1.043  10.170  0.6724  1.8981 -1.3851
 3832SOL     OW22954   4.283   2.824   6.668 -0.1336  0.4097 -0.1862
 3832SOL    HW122955   4.365   2.846   6.624 -0.4606  0.7686 -0.6108
 3832SOL    HW222956   4.226   2.816   6.591 -1.6534 -0.2521  1.0058
 3833SOL     OW22957   4.558   1.585   0.331  0.1096 -0.4409  0.3585
 3833SOL    HW122958   4.584   1.506   0.379  2.9800 -0.7340 -1.6917
 3833SOL    HW222959   4.479   1.549   0.290 -0.6865 -1.4702  2.7945
 3834SOL     OW22960   0.448   1.522   4.227  0.0751  0.6863  0.1766
 3834SOL    HW122961   0.394   1.465   4.282 -1.9030  1.9295 -0.4829
 3834SOL    HW222962   0.528   1.471   4.227 -0.2375  0.1960 -0.7866
 3835SOL     OW22963   2.510   2.868  10.053  0.1123  0.1841  0.2544
 3835SOL    HW122964   2.548   2.783  10.076 -2.8678 -1.2537 -0.2491
 3835SOL    HW222965   2.544   2.877   9.964 -1.7727  0.0908 -0.4625
 3836SOL     OW22966   0.376   1.576   3.740 -0.0054  0.2963 -0.2007
 3836SOL    HW122967   0.433   1.652   3.751  0.4354 -0.1450  0.5916
 3836SOL    HW222968   0.338   1.569   3.828  0.8801  1.9999  0.3072
 3837SOL     OW22969   3.883   1.740   7.194  0.0888 -0.4476 -0.2564
 3837SOL    HW122970   3.971   1.702   7.205 -0.0969 -0.7159  0.3080
 3837SOL    HW222971   3.834   1.674   7.243 -1.5812  1.5536  0.7288
 3838SOL     OW22972   0.823   3.947  15.601 -0.1778 -0.0691  0.6845
 3838SOL    HW122973   0.782   3.974  15.683  0.4763  1.7050  0.4327
 3838SOL    HW222974   0.909   3.989  15.602  0.9074 -2.3207  1.4015
 3839SOL     OW22975   2.080   3.555   0.564  0.0674  0.0816 -0.2128
 3839SOL    HW122976   2.047   3.481   0.615  0.6037  1.1741  1.7334
 3839SOL    HW222977   2.004   3.613   0.575  0.6943  0.8369  0.1071
 3840SOL     OW22978   4.532   3.827  11.384 -0.5141  0.4368  0.0800
 3840SOL    HW122979   4.575   3.853  11.303 -2.0941  0.3214 -0.7938
 3840SOL    HW222980   4.448   3.790  11.356 -0.4268 -0.7080  1.3575
 3841SOL     OW22981   0.280   2.462   2.228 -0.3761 -0.6000 -0.0967
 3841SOL    HW122982   0.193   2.468   2.189  0.1425 -1.5844 -1.3871
 3841SOL    HW222983   0.272   2.368   2.246  1.5344 -0.6802  0.4029
 3842SOL     OW22984   1.787   4.330   3.613 -0.2441 -0.4175 -0.4914
 3842SOL    HW122985   1.846   4.348   3.540  2.5716 -1.1120  1.6353
 3842SOL    HW222986   1.739   4.412   3.622 -1.4387 -1.1107 -0.5047
 3843SOL     OW22987   4.345   1.176   9.671 -0.1102  0.4427 -0.0814
 3843SOL    HW122988   4.275   1.235   9.646 -0.4693  0.7608  1.6770
 3843SOL    HW222989   4.363   1.145   9.582  1.1479  0.5332  0.1484
 3844SOL     OW22990   1.236   4.006   3.226  0.1342 -0.2452 -0.0001
 3844SOL    HW122991   1.223   4.094   3.191 -1.4663 -0.5233 -0.1055
 3844SOL    HW222992   1.211   3.959   3.146  0.3819 -1.7128  0.7730
 3845SOL     OW22993   0.616   4.096   9.814 -0.3453  0.1572  0.2349
 3845SOL    HW122994   0.594   4.045   9.891 -0.2804 -0.6144 -0.2626
 3845SOL    HW222995   0.633   4.182   9.852  1.6038  0.2174 -0.7438
 3846SOL     OW22996   1.155   3.554   5.011 -0.2226 -0.0133  0.1107
 3846SOL    HW122997   1.113   3.486   5.064  1.6458  0.6073  2.4249
 3846SOL    HW222998   1.219   3.500   4.964 -0.8844 -0.1924 -0.5670
 3847SOL     OW22999   3.493   3.037   1.364 -0.7941 -0.5660 -0.6075
 3847SOL    HW123000   3.510   3.005   1.276 -1.5426 -0.6433 -0.7293
 3847SOL    HW223001   3.435   3.112   1.350  0.2732  0.5485  0.9549
 3848SOL     OW23002   3.513   2.194   7.479  0.9157  0.0275 -0.5230
 3848SOL    HW123003   3.589   2.145   7.511 -1.5887 -1.0116  3.7936
 3848SOL    HW223004   3.491   2.245   7.556 -1.8704  1.9151 -2.5600
 3849SOL     OW23005   4.594   2.840   8.444 -0.7489 -0.6637 -0.1320
 3849SOL    HW123006   4.549   2.920   8.415  1.8070  1.4275  1.6493
 3849SOL    HW223007   4.538   2.767   8.419 -1.6782  0.4560 -1.3455
 3850SOL     OW23008   1.232   0.559   0.960 -0.3552  0.8422  0.3803
 3850SOL    HW123009   1.214   0.652   0.950 -0.4286  0.6620 -1.1445
 3850SOL    HW223010   1.237   0.553   1.055 -0.8023 -1.5671  0.2535
 3851SOL     OW23011   2.778   3.049   3.359 -0.7146 -0.3137  0.2674
 3851SOL    HW123012   2.817   3.024   3.275  0.4921  0.6110  0.5555
 3851SOL    HW223013   2.806   2.977   3.416 -2.8671 -0.3543  1.2519
 3852SOL     OW23014   3.582   3.698   9.283 -0.4131  0.4094 -0.2084
 3852SOL    HW123015   3.574   3.664   9.193  1.2745 -2.6166  0.7810
 3852SOL    HW223016   3.665   3.745   9.277  1.3311 -2.6147  0.0555
 3853SOL     OW23017   3.555   3.996  17.209  0.3159  0.5670  0.3585
 3853SOL    HW123018   3.589   3.976  17.296 -0.3226 -1.1715  0.2207
 3853SOL    HW223019   3.489   4.064  17.225  0.4495  0.6259  0.6461
 3854SOL     OW23020   0.569   2.599   5.139  0.0188 -0.4653  0.0773
 3854SOL    HW123021   0.633   2.595   5.210  0.5538 -0.0524 -0.3784
 3854SOL    HW223022   0.531   2.513   5.154 -0.0033 -0.4831 -0.0743
 3855SOL     OW23023   4.205   0.387  11.417 -0.3447  0.6364 -0.3875
 3855SOL    HW123024   4.282   0.444  11.423 -0.5438  0.5452  3.0521
 3855SOL    HW223025   4.207   0.351  11.506 -1.0018  1.5643  0.0067
 3856SOL     OW23026   0.119   3.916   3.128  0.0309  0.3213  0.4309
 3856SOL    HW123027   0.061   3.848   3.162  0.6856  0.7992  2.5036
 3856SOL    HW223028   0.196   3.870   3.095 -0.7032  0.3099 -1.2203
 3857SOL     OW23029   2.759   0.082   1.508  0.1300 -0.2307  0.0094
 3857SOL    HW123030   2.760   0.110   1.416 -1.2386 -0.7332 -0.1544
 3857SOL    HW223031   2.766   4.713   1.488 -1.1676 -0.3861  0.3207
 3858SOL     OW23032   0.525   2.511   4.526 -0.1179  0.0317 -0.1486
 3858SOL    HW123033   0.502   2.601   4.502  0.2871  0.0791 -0.3466
 3858SOL    HW223034   0.599   2.537   4.580 -0.1503 -0.0446 -0.0682
 3859SOL     OW23035   1.030   2.821   5.393 -0.2143 -0.2482 -0.8061
 3859SOL    HW123036   1.079   2.886   5.442 -0.5855 -0.6009  0.0228
 3859SOL    HW223037   1.070   2.743   5.430 -0.1155  0.0560 -0.2729
 3860SOL     OW23038   1.028   1.949   7.867 -0.2087  0.2542 -0.7279
 3860SOL    HW123039   1.031   2.031   7.817  0.6210  0.0343 -1.0301
 3860SOL    HW223040   0.974   1.897   7.807 -0.5307 -0.1533 -0.0756
 3861SOL     OW23041   0.260   3.046   6.005  0.0800 -0.0432 -0.0579
 3861SOL    HW123042   0.222   3.120   5.958 -0.3346 -0.4232 -0.3194
 3861SOL    HW223043   0.346   3.038   5.962 -0.1514 -1.0864 -0.3417
 3862SOL     OW23044   2.373   0.942   5.453  0.8203  0.7888  0.3280
 3862SOL    HW123045   2.347   0.911   5.540 -0.9311  0.7686 -0.2042
 3862SOL    HW223046   2.466   0.955   5.471  0.9459 -1.2939  1.1193
 3863SOL     OW23047   1.739   0.057   8.017 -0.0030 -0.2294  0.0555
 3863SOL    HW123048   1.832   0.032   8.014  0.1399  0.0496  2.2894
 3863SOL    HW223049   1.696   4.711   8.065 -2.4084  0.5907 -0.9040
 3864SOL     OW23050   4.705   1.110   6.986 -0.2977  0.6107  0.3340
 3864SOL    HW123051   4.722   1.035   6.929 -1.8546  1.6076 -1.4593
 3864SOL    HW223052   4.674   1.067   7.065  1.5049 -0.4189  0.4830
 3865SOL     OW23053   3.599   3.596   3.138 -0.6616 -0.4158 -0.1880
 3865SOL    HW123054   3.625   3.508   3.111  0.0806 -0.4509  0.6558
 3865SOL    HW223055   3.583   3.646   3.058 -1.1599  1.5725  1.1497
 3866SOL     OW23056   0.441   2.283   3.341 -0.7793 -0.2738  0.5508
 3866SOL    HW123057   0.532   2.315   3.345 -1.7527  2.6097 -0.1380
 3866SOL    HW223058   0.431   2.282   3.246  0.1265 -1.7672  0.4748
 3867SOL     OW23059   3.474   4.387   2.761  0.5017  0.1989  0.2392
 3867SOL    HW123060   3.567   4.391   2.781  0.8838 -2.6549 -0.9950
 3867SOL    HW223061   3.449   4.370   2.852 -0.2536  0.7293  0.1343
 3868SOL     OW23062   0.261   1.204   5.999  0.1940 -0.4545 -0.2608
 3868SOL    HW123063   0.294   1.203   5.909 -0.6553  0.8693 -0.5791
 3868SOL    HW223064   0.316   1.260   6.053 -0.3807 -1.0194  0.9178
 3869SOL     OW23065   0.638   4.650   6.022  0.6657  0.3040 -0.7810
 3869SOL    HW123066   0.565   4.618   6.076  0.4170  1.0528 -0.6776
 3869SOL    HW223067   0.661   4.566   5.982 -1.1350 -0.0339 -1.1142
 3870SOL     OW23068   4.017   3.005  11.113 -0.0620  0.5173 -0.2708
 3870SOL    HW123069   4.101   3.042  11.142  0.6779 -0.8465 -0.6886
 3870SOL    HW223070   4.032   2.911  11.123 -2.0903  0.0931 -1.1292
 3871SOL     OW23071   0.946   2.119   3.012 -0.1375  0.4854 -0.1147
 3871SOL    HW123072   0.966   2.211   3.028  0.2339  0.5601 -0.9793
 3871SOL    HW223073   1.018   2.094   2.953 -0.6391 -1.3883  0.0736
 3872SOL     OW23074   1.923   0.069   5.850 -0.2727 -0.6146 -0.0717
 3872SOL    HW123075   1.861   0.002   5.880  1.5835 -1.1086  2.6698
 3872SOL    HW223076   1.954   0.118   5.926  1.3964  0.0660 -1.2001
 3873SOL     OW23077   3.623   0.949   5.157  0.4286 -0.1195  0.0448
 3873SOL    HW123078   3.656   0.878   5.212  1.4290  0.7054  0.4983
 3873SOL    HW223079   3.540   0.974   5.197  0.2488 -0.3005 -0.2110
 3874SOL     OW23080   2.070   3.047   7.648  0.8444  0.4291  0.0054
 3874SOL    HW123081   2.122   2.990   7.591  0.8577  0.6372 -0.1895
 3874SOL    HW223082   2.102   3.131   7.614 -1.9009  1.8088  0.8889
 3875SOL     OW23083   3.008   2.013   4.707 -0.2371  0.2046  0.0836
 3875SOL    HW123084   2.931   2.006   4.651 -0.3760  0.0792  0.2872
 3875SOL    HW223085   3.064   2.044   4.636 -1.9905 -0.5733 -1.6180
 3876SOL     OW23086   3.212   2.019   8.054  0.3526  0.1360 -0.4194
 3876SOL    HW123087   3.182   2.000   8.143  0.7951  2.4035  0.2367
 3876SOL    HW223088   3.217   1.927   8.028  2.8990  0.1787 -0.1509
 3877SOL     OW23089   3.691   1.279  15.991 -0.2472 -0.4131  0.0197
 3877SOL    HW123090   3.694   1.361  16.039  3.1534 -1.3257  1.3687
 3877SOL    HW223091   3.597   1.269  15.972 -0.0830 -1.9736  0.0167
 3878SOL     OW23092   0.809   2.842  14.532 -0.6460  0.5720  0.1039
 3878SOL    HW123093   0.721   2.856  14.567 -0.5097 -0.4926  0.8696
 3878SOL    HW223094   0.795   2.838  14.438  1.6927 -0.7727 -0.1676
 3879SOL     OW23095   1.965   4.084   8.060  0.1124 -0.6369  0.5816
 3879SOL    HW123096   1.895   4.141   8.092  0.2057  0.7348 -1.7157
 3879SOL    HW223097   1.993   4.044   8.143 -1.1088 -0.3620  1.1242
 3880SOL     OW23098   4.402   3.826   9.292  0.2892  0.2706 -0.7361
 3880SOL    HW123099   4.366   3.906   9.332 -2.0048 -1.0712 -0.1319
 3880SOL    HW223100   4.325   3.771   9.276  0.1746  0.2422 -0.0789
 3881SOL     OW23101   4.385   3.282   8.491  0.0546 -0.3130  0.1157
 3881SOL    HW123102   4.462   3.298   8.545 -0.6897  0.6364  0.9101
 3881SOL    HW223103   4.332   3.234   8.554 -0.5925  2.7316  1.9060
 3882SOL     OW23104   3.838   1.002   7.903  0.3451  0.2389  0.3391
 3882SOL    HW123105   3.811   0.919   7.941  0.3807  0.4565  0.8307
 3882SOL    HW223106   3.844   1.065   7.975  1.4710  1.0613 -0.4696
 3883SOL     OW23107   2.044   3.920   9.828  0.1596  0.0019 -0.2187
 3883SOL    HW123108   2.048   3.938   9.734 -0.0343 -2.1138 -0.6373
 3883SOL    HW223109   1.975   3.981   9.856  0.2089  0.0569 -0.2162
 3884SOL     OW23110   4.437   3.001   7.961  0.3636 -0.6687 -0.0099
 3884SOL    HW123111   4.452   2.942   8.035  0.6962  0.2767  0.6648
 3884SOL    HW223112   4.425   3.080   8.012  1.5443 -0.9166  0.6480
 3885SOL     OW23113   3.780   0.721   7.029 -0.2349 -0.2602  0.0822
 3885SOL    HW123114   3.871   0.698   7.011  0.4018  2.9681 -0.8403
 3885SOL    HW223115   3.805   0.773   7.105  2.7409 -0.0875 -0.9893
 3886SOL     OW23116   0.341   1.226   4.676 -0.3274  0.9753 -0.3123
 3886SOL    HW123117   0.374   1.304   4.632 -0.2706  0.5444 -1.0306
 3886SOL    HW223118   0.254   1.216   4.638 -0.2232  1.6287 -0.7137
 3887SOL     OW23119   1.343   4.678   4.519  0.2340  0.0878 -0.2924
 3887SOL    HW123120   1.358   0.042   4.554  0.9257 -0.7267  1.4551
 3887SOL    HW223121   1.261   4.659   4.564 -0.6675 -2.1572 -2.8619
 3888SOL     OW23122   0.408   1.863   6.068  0.5176 -0.6388 -0.1742
 3888SOL    HW123123   0.327   1.847   6.117  1.5250 -0.5636  1.4977
 3888SOL    HW223124   0.469   1.804   6.112  0.5636 -0.0999  0.4735
 3889SOL     OW23125   0.438   0.234   6.452  0.4048  0.3061  0.0033
 3889SOL    HW123126   0.343   0.247   6.446  0.8446  2.0733 -3.2653
 3889SOL    HW223127   0.468   0.281   6.374 -0.1026 -0.0594 -0.4124
 3890SOL     OW23128   1.413   2.124   5.249  0.2898  0.2610 -0.2671
 3890SOL    HW123129   1.319   2.135   5.236  0.5745  3.3028  0.1558
 3890SOL    HW223130   1.427   2.147   5.341 -1.8906 -0.0187  0.1250
 3891SOL     OW23131   1.192   3.097   3.435  0.0664 -0.2184 -0.4532
 3891SOL    HW123132   1.234   3.126   3.354  2.2353 -1.7796  0.1112
 3891SOL    HW223133   1.217   3.005   3.434 -0.5112 -0.3894  0.8248
 3892SOL     OW23134   1.018   3.660   9.231  0.1448  0.4144  0.0136
 3892SOL    HW123135   1.040   3.570   9.211  0.1603  0.0665  1.5462
 3892SOL    HW223136   1.021   3.694   9.142  1.5853  0.0140 -0.0902
 3893SOL     OW23137   0.616   2.748   3.752  0.6332 -0.0655 -0.9528
 3893SOL    HW123138   0.590   2.807   3.823 -1.1673 -0.4915 -1.2514
 3893SOL    HW223139   0.640   2.802   3.677  0.5034 -2.2082 -2.5466
 3894SOL     OW23140   4.584   4.176   8.478  0.3613  0.3539  0.1454
 3894SOL    HW123141   4.650   4.155   8.412 -0.0276  1.6552 -0.6582
 3894SOL    HW223142   4.603   4.269   8.482  0.8966  0.2579 -0.1727
 3895SOL     OW23143   2.755   0.945  12.955  0.1287 -0.5561 -0.0318
 3895SOL    HW123144   2.692   1.006  12.994  0.4362 -0.5871  0.5113
 3895SOL    HW223145   2.789   1.002  12.886 -1.6385 -0.9479 -1.2416
 3896SOL     OW23146   1.026   1.296   6.332 -0.1692 -0.3602  0.0240
 3896SOL    HW123147   1.021   1.337   6.419 -0.1033  1.1539 -0.6848
 3896SOL    HW223148   1.092   1.230   6.348  0.1159  0.3676  1.8393
 3897SOL     OW23149   1.298   0.774   4.168  0.1343 -0.1924 -0.8341
 3897SOL    HW123150   1.225   0.722   4.201  1.3560 -0.5421  1.2714
 3897SOL    HW223151   1.338   0.706   4.113  2.4417  1.0259 -0.6658
 3898SOL     OW23152   1.946   1.357   6.051  0.4803  0.0662  0.0339
 3898SOL    HW123153   1.938   1.437   6.000  0.9451  0.9010  1.2616
 3898SOL    HW223154   2.008   1.380   6.121 -0.7269  3.0040  0.1201
 3899SOL     OW23155   4.282   0.347   2.879  0.1498  0.6520 -0.7912
 3899SOL    HW123156   4.318   0.402   2.949  3.7735 -0.3765 -1.8460
 3899SOL    HW223157   4.316   0.383   2.797  0.2116  0.4638 -0.8476
 3900SOL     OW23158   3.991   3.631   6.624  0.2074  0.2918 -0.2136
 3900SOL    HW123159   4.068   3.622   6.680 -0.9365 -0.2145  1.2861
 3900SOL    HW223160   4.041   3.624   6.543 -0.4076 -0.4008 -0.5328
 3901SOL     OW23161   1.200   4.323  11.260 -0.4979 -0.1793  0.5016
 3901SOL    HW123162   1.245   4.278  11.188  0.1317 -2.0040  2.0501
 3901SOL    HW223163   1.113   4.286  11.248  0.3573 -1.4731 -1.5565
 3902SOL     OW23164   4.160   2.837   9.701 -0.2599  0.3828  0.4823
 3902SOL    HW123165   4.082   2.805   9.747  0.2537 -1.8196 -0.2137
 3902SOL    HW223166   4.124   2.913   9.655  0.0644  1.3610  1.8223
 3903SOL     OW23167   4.255   3.436  17.509  0.3234 -0.1538 -0.3719
 3903SOL    HW123168   4.204   3.516  17.526  1.0657 -0.1126  1.6283
 3903SOL    HW223169   4.214   3.370  17.565  0.4289 -0.3026 -0.4711
 3904SOL     OW23170   1.904   0.650  17.604  0.1150 -0.3580 -0.2236
 3904SOL    HW123171   1.894   0.567  17.651 -1.6211 -0.7685 -1.3071
 3904SOL    HW223172   1.984   0.683  17.644  1.1954 -0.8300 -2.0022
 3905SOL     OW23173   1.777   4.582   3.847 -0.1961  0.4296  0.0192
 3905SOL    HW123174   1.851   4.641   3.834  1.6669 -2.0986 -0.7769
 3905SOL    HW223175   1.747   4.602   3.758  0.8481 -2.0471 -0.8754
 3906SOL     OW23176   2.868   0.294   8.184  0.0683  0.5574  0.5238
 3906SOL    HW123177   2.809   0.252   8.246  0.1700 -1.4393 -0.7234
 3906SOL    HW223178   2.912   0.215   8.150  0.4897  0.8552  0.3734
 3907SOL     OW23179   2.682   2.182   4.572 -0.2144 -0.4002 -0.6475
 3907SOL    HW123180   2.587   2.176   4.584 -0.0210  1.4564  1.9346
 3907SOL    HW223181   2.693   2.086   4.572  1.6891 -0.1833 -2.6450
 3908SOL     OW23182   2.589   4.405   5.753 -0.1277 -0.3152 -0.1679
 3908SOL    HW123183   2.603   4.367   5.840  0.6200  1.0736  0.3175
 3908SOL    HW223184   2.673   4.450   5.749 -0.0109 -0.6894 -2.0116
 3909SOL     OW23185   1.169   4.232   3.853  0.1180  0.0688  0.4014
 3909SOL    HW123186   1.191   4.204   3.942  0.5733  0.5553  0.4394
 3909SOL    HW223187   1.085   4.187   3.850  0.0608  0.2536 -0.7638
 3910SOL     OW23188   0.517   3.744  14.767 -0.2863  0.3527 -0.6893
 3910SOL    HW123189   0.522   3.659  14.724  2.1917 -0.1556  0.6363
 3910SOL    HW223190   0.593   3.793  14.738  1.0027  0.0826  2.1879
 3911SOL     OW23191   0.211   1.363   0.396 -0.2028  0.0871 -0.6238
 3911SOL    HW123192   0.267   1.420   0.343 -0.0593  1.3808  0.9300
 3911SOL    HW223193   0.231   1.279   0.354 -1.0695  0.2693 -1.3911
 3912SOL     OW23194   3.750   1.880   9.093  0.5042  0.2177  0.4077
 3912SOL    HW123195   3.667   1.911   9.057  0.8468 -1.0984 -1.5023
 3912SOL    HW223196   3.759   1.923   9.178  0.2598 -0.8860  0.9899
 3913SOL     OW23197   0.856   1.021   2.681  0.6656 -0.0846 -0.0721
 3913SOL    HW123198   0.833   0.928   2.692 -1.6672  0.2646 -1.8513
 3913SOL    HW223199   0.838   1.028   2.587  1.7134  2.7774 -0.0528
 3914SOL     OW23200   3.029   2.281   1.212 -0.0394 -0.1160  0.4074
 3914SOL    HW123201   3.101   2.326   1.256  0.0778 -0.0136  0.1054
 3914SOL    HW223202   2.972   2.345   1.170 -0.2381  0.7697  2.0270
 3915SOL     OW23203   4.262   0.990   4.039 -0.3773  0.2680  0.6581
 3915SOL    HW123204   4.227   0.954   3.957  0.8462 -0.8306  0.6223
 3915SOL    HW223205   4.205   1.063   4.064 -1.8524 -0.0887 -1.6581
 3916SOL     OW23206   1.861   3.064  16.954  0.0602  0.6013 -0.1574
 3916SOL    HW123207   1.782   3.033  16.909  1.4343  0.5846 -2.5585
 3916SOL    HW223208   1.930   3.009  16.917 -0.7057  0.2230 -1.0274
 3917SOL     OW23209   1.968   4.563   7.024 -0.1374 -0.2226  0.3293
 3917SOL    HW123210   2.007   4.596   7.105  1.1419  0.6045 -0.6204
 3917SOL    HW223211   1.913   4.498   7.066 -0.1269 -0.4078  0.0563
 3918SOL     OW23212   1.676   3.869   3.244  0.0209 -0.4969 -0.5509
 3918SOL    HW123213   1.716   3.919   3.315  0.2106  2.6628 -2.8985
 3918SOL    HW223214   1.605   3.830   3.295 -1.5951  1.9005 -0.9549
 3919SOL     OW23215   0.776   3.071   6.938  1.1943  0.4515 -0.1728
 3919SOL    HW123216   0.702   3.069   6.878 -0.2156  2.5498  1.5238
 3919SOL    HW223217   0.835   3.022   6.880  1.6084  1.7044 -0.8022
 3920SOL     OW23218   3.829   1.395   3.273  0.4064  0.2116  0.3198
 3920SOL    HW123219   3.912   1.441   3.287  0.6314  0.3407 -1.4549
 3920SOL    HW223220   3.853   1.302   3.275 -0.5581  0.0205  3.4805
 3921SOL     OW23221   0.241   1.502   1.151 -0.0246  0.4579  0.2511
 3921SOL    HW123222   0.320   1.499   1.204  0.9393 -1.4095 -1.2744
 3921SOL    HW223223   0.283   1.540   1.074 -1.8682  1.3453 -0.3246
 3922SOL     OW23224   1.932   2.077   5.425  0.3951  0.8316 -0.6044
 3922SOL    HW123225   1.937   2.167   5.456 -1.3560  0.8685 -0.4608
 3922SOL    HW223226   1.870   2.081   5.352 -0.9735  0.7531  0.5716
 3923SOL     OW23227   1.502   1.043   4.615 -0.0107  0.1070  0.1204
 3923SOL    HW123228   1.587   1.032   4.572  0.1532  0.3617  0.3864
 3923SOL    HW223229   1.506   0.976   4.682  0.2128  0.7673  0.7626
 3924SOL     OW23230   4.388   2.781   5.691  0.0345 -0.1216 -0.3040
 3924SOL    HW123231   4.342   2.848   5.642 -0.6154  0.4574  1.0963
 3924SOL    HW223232   4.464   2.759   5.637  0.4649 -1.1197  0.6882
 3925SOL     OW23233   4.643   4.679   5.114 -0.4455 -0.1462  0.6200
 3925SOL    HW123234   4.688   4.595   5.116  2.6160  1.4830 -0.1650
 3925SOL    HW223235   4.591   4.684   5.195 -0.6450  2.4086  0.3345
 3926SOL     OW23236   2.816   3.496   0.374  0.2324  0.1637 -0.0826
 3926SOL    HW123237   2.740   3.525   0.423  1.4964 -1.3120  2.7811
 3926SOL    HW223238   2.892   3.504   0.432 -0.1707 -0.0155  0.4691
 3927SOL     OW23239   4.648   2.228  10.821  0.7411 -0.0364 -0.1494
 3927SOL    HW123240   4.575   2.289  10.834  1.4602  0.6769  0.5212
 3927SOL    HW223241   4.699   2.244  10.900  2.2571  0.2966 -1.1935
 3928SOL     OW23242   0.243   3.073  10.376 -0.8482 -0.5242 -0.0854
 3928SOL    HW123243   0.333   3.105  10.381  0.1985 -3.5474  0.1021
 3928SOL    HW223244   0.261   2.986  10.340  0.7280 -0.7326  1.2167
 3929SOL     OW23245   1.646   2.797   4.838  0.1996 -0.3409 -0.1099
 3929SOL    HW123246   1.617   2.874   4.788 -1.3022 -1.3528 -0.8027
 3929SOL    HW223247   1.640   2.721   4.780  1.0201 -0.7237  0.3165
 3930SOL     OW23248   4.114   0.876  16.587 -0.0695 -0.2687  0.4638
 3930SOL    HW123249   4.048   0.936  16.622 -0.4047  1.2247 -2.7713
 3930SOL    HW223250   4.101   0.811  16.656 -4.4932  1.1403  0.9470
 3931SOL     OW23251   3.041   2.830  14.162  0.1464  0.0530  0.1088
 3931SOL    HW123252   2.948   2.816  14.145 -0.2954  0.0270  2.6811
 3931SOL    HW223253   3.034   2.816  14.256 -4.7060  1.3064 -0.0755
 3932SOL     OW23254   2.142   3.901   1.166 -0.2009 -0.3126 -0.0682
 3932SOL    HW123255   2.148   3.920   1.260 -0.3872 -0.1685 -0.0839
 3932SOL    HW223256   2.208   3.946   1.114 -0.6233 -2.0322 -2.0745
 3933SOL     OW23257   2.595   2.178   4.180  0.4733  0.2300 -0.4783
 3933SOL    HW123258   2.515   2.203   4.135 -1.0173 -2.6253  0.5912
 3933SOL    HW223259   2.618   2.262   4.220  1.3077 -0.1092 -0.2420
 3934SOL     OW23260   0.583   2.283   3.982  0.2765 -0.2288  0.0088
 3934SOL    HW123261   0.528   2.206   3.964 -0.6433  0.6304 -0.8863
 3934SOL    HW223262   0.518   2.332   4.033 -0.1833  1.3954 -2.1450
 3935SOL     OW23263   1.446   4.056  16.532 -0.1964 -0.0536  0.1113
 3935SOL    HW123264   1.537   4.032  16.515  0.8562  1.9845  2.9978
 3935SOL    HW223265   1.456   4.148  16.556 -1.1264 -0.4391  1.9516
 3936SOL     OW23266   3.159   4.386  14.227  0.1816 -0.1239  0.6733
 3936SOL    HW123267   3.152   4.462  14.285 -0.6568 -0.0706  0.5114
 3936SOL    HW223268   3.066   4.397  14.203  0.8900  0.0670 -1.9864
 3937SOL     OW23269   0.199   4.612   8.058  0.4299 -0.1167 -0.6037
 3937SOL    HW123270   0.182   4.529   8.014  0.3222 -0.4634  0.0877
 3937SOL    HW223271   0.237   4.661   7.985  1.4692  0.5441  0.3775
 3938SOL     OW23272   0.393   4.458   5.875 -0.0181 -0.4789  0.7197
 3938SOL    HW123273   0.446   4.382   5.901 -1.1659 -0.5021  3.0411
 3938SOL    HW223274   0.309   4.454   5.921 -1.0157 -2.6362 -1.2739
 3939SOL     OW23275   2.860   2.430  15.981 -0.0702 -0.1758 -0.2781
 3939SOL    HW123276   2.843   2.348  15.936  2.3068 -0.8367  0.0251
 3939SOL    HW223277   2.864   2.496  15.911  0.3398  1.2345  1.0796
 3940SOL     OW23278   4.716   2.501   5.369 -0.4786  0.6289  0.0266
 3940SOL    HW123279   0.031   2.432   5.423  0.3524  1.2481  0.2246
 3940SOL    HW223280   0.069   2.521   5.315 -0.5935 -0.7526 -0.6269
 3941SOL     OW23281   3.182   1.842  10.014 -0.1537  0.0614  0.1854
 3941SOL    HW123282   3.116   1.839  10.084 -0.7995 -2.0225 -0.5130
 3941SOL    HW223283   3.230   1.762  10.033 -1.8890 -1.0797 -0.2882
 3942SOL     OW23284   1.074   0.527   3.584  0.1785  0.1001  0.8247
 3942SOL    HW123285   1.027   0.467   3.641 -1.3360  0.1543 -0.3483
 3942SOL    HW223286   1.016   0.603   3.585  1.6318  1.2223 -0.3483
 3943SOL     OW23287   4.342   3.399   4.423 -0.3799  0.3453 -0.2520
 3943SOL    HW123288   4.247   3.401   4.415 -0.4339  0.1591  0.4139
 3943SOL    HW223289   4.345   3.315   4.469 -2.4865 -0.7163 -2.0649
 3944SOL     OW23290   2.453   0.784   1.825 -0.0712 -0.1963  0.1197
 3944SOL    HW123291   2.533   0.734   1.838  0.0785 -0.2951 -1.0975
 3944SOL    HW223292   2.389   0.714   1.837  0.1638 -0.2743  0.8907
 3945SOL     OW23293   3.709   2.417   7.395  0.7602  0.2155 -0.2475
 3945SOL    HW123294   3.640   2.409   7.329  0.9719  0.5579 -0.5145
 3945SOL    HW223295   3.700   2.345   7.458  0.5529  0.5381  0.0927
 3946SOL     OW23296   1.680   4.120  14.831 -0.3133 -0.2668  0.4442
 3946SOL    HW123297   1.638   4.203  14.808  0.6959  0.3246  0.7461
 3946SOL    HW223298   1.715   4.142  14.917 -2.2920 -2.7094  1.8569
 3947SOL     OW23299   2.991   0.864   8.378  0.8203 -0.2313  0.3437
 3947SOL    HW123300   3.013   0.780   8.339  1.2821 -0.0104  0.1259
 3947SOL    HW223301   2.959   0.837   8.464 -1.2859 -1.1509 -0.7223
 3948SOL     OW23302   2.173   1.387   7.249  0.0642 -0.5473  0.1148
 3948SOL    HW123303   2.134   1.470   7.275  1.7902  0.6527 -1.0903
 3948SOL    HW223304   2.190   1.339   7.331 -0.2804 -0.5111  0.2064
 3949SOL     OW23305   4.258   0.473  11.981 -0.0868  0.5134  0.8061
 3949SOL    HW123306   4.218   0.466  11.894  0.2553 -0.3996  0.7166
 3949SOL    HW223307   4.347   0.504  11.966 -1.0079  0.1661 -5.5902
 3950SOL     OW23308   3.940   0.956   2.759 -0.1048 -0.2832 -0.3575
 3950SOL    HW123309   3.852   0.925   2.737 -0.8600  0.8050  1.1150
 3950SOL    HW223310   3.987   0.873   2.768 -0.8147 -0.8397 -1.7142
 3951SOL     OW23311   1.641   3.011   1.902  0.4508  0.1023 -0.2813
 3951SOL    HW123312   1.647   3.062   1.982  1.0990 -2.1657  1.1220
 3951SOL    HW223313   1.724   3.042   1.867 -0.3941  1.8878 -0.7175
 3952SOL     OW23314   3.384   2.929   4.757  0.2060 -0.2759  0.0540
 3952SOL    HW123315   3.297   2.943   4.718  0.2723  3.1218  1.1487
 3952SOL    HW223316   3.356   2.849   4.801  0.0809  0.6889  1.7346
 3953SOL     OW23317   3.730   2.552   8.933  0.2172  0.4951 -0.0848
 3953SOL    HW123318   3.651   2.547   8.879  0.4095 -0.4498 -0.2843
 3953SOL    HW223319   3.724   2.471   8.984  1.0823  0.8918  0.6442
 3954SOL     OW23320   3.030   3.102   7.951 -0.3857  0.0433 -0.4124
 3954SOL    HW123321   3.025   3.009   7.970  2.4284  0.1333  0.7620
 3954SOL    HW223322   3.124   3.116   7.947 -0.6237  2.0790  1.1829
 3955SOL     OW23323   0.953   0.972   1.570 -0.2630 -0.0224  0.7313
 3955SOL    HW123324   0.995   1.056   1.587 -2.5077  1.3099 -0.2687
 3955SOL    HW223325   0.966   0.972   1.476  1.0425 -0.6987  0.9170
 3956SOL     OW23326   3.125   3.834   4.981  0.0026 -0.1899 -0.0272
 3956SOL    HW123327   3.085   3.752   5.008 -0.0535 -0.3984 -0.7443
 3956SOL    HW223328   3.138   3.819   4.887  1.9813  0.4813  0.1353
 3957SOL     OW23329   2.028   2.536  14.088  0.3528 -0.3816 -0.5793
 3957SOL    HW123330   2.103   2.482  14.114  0.9945  0.3792 -0.8774
 3957SOL    HW223331   1.960   2.479  14.125  2.0825 -1.9635  0.1914
 3958SOL     OW23332   3.420   0.630   4.843 -0.2506  0.1673  0.3816
 3958SOL    HW123333   3.470   0.565   4.795  1.5129  2.2803 -0.6469
 3958SOL    HW223334   3.461   0.712   4.816 -1.5301  0.5150 -0.4827
 3959SOL     OW23335   3.193   4.074   6.341 -0.2309  0.1583  0.1601
 3959SOL    HW123336   3.143   4.156   6.336 -1.0621 -0.4409 -1.2438
 3959SOL    HW223337   3.255   4.101   6.409 -0.9291 -2.2892  1.7822
 3960SOL     OW23338   1.445   3.389  14.483 -0.3305 -0.1504 -0.3565
 3960SOL    HW123339   1.456   3.300  14.448  1.7827  0.2495 -0.6720
 3960SOL    HW223340   1.520   3.436  14.446 -1.4610  1.7937 -0.1738
 3961SOL     OW23341   0.842   0.934   1.845 -0.0389 -0.5471  0.3397
 3961SOL    HW123342   0.847   0.928   1.750 -0.8665 -0.5566  0.2933
 3961SOL    HW223343   0.933   0.918   1.871  0.3763 -2.3336 -2.2155
 3962SOL     OW23344   1.154   4.226   6.601  0.1944 -0.0120  0.1156
 3962SOL    HW123345   1.097   4.180   6.539 -0.9862  0.9895  0.4473
 3962SOL    HW223346   1.208   4.271   6.535  1.5356  0.6845  1.6817
 3963SOL     OW23347   4.208   3.387  11.025 -0.2131 -0.3879 -0.1211
 3963SOL    HW123348   4.254   3.447  11.083  0.2665  0.2399 -1.1570
 3963SOL    HW223349   4.276   3.337  10.979 -0.4649 -0.1304 -0.7852
 3964SOL     OW23350   1.414   0.207   8.554 -0.2351 -0.5821  0.0862
 3964SOL    HW123351   1.382   0.218   8.644  1.4256  1.0993  0.4905
 3964SOL    HW223352   1.493   0.261   8.564 -0.3536 -0.1856 -1.1127
 3965SOL     OW23353   0.214   2.803   0.799 -0.7058  0.2535 -0.3176
 3965SOL    HW123354   0.220   2.710   0.778 -1.1179  0.1136  0.1705
 3965SOL    HW223355   0.292   2.814   0.853  0.4965 -1.2204 -1.7783
 3966SOL     OW23356   4.545   2.118  17.368  0.0897  0.9315  0.1999
 3966SOL    HW123357   4.604   2.148  17.438  1.0062  1.2930 -0.7373
 3966SOL    HW223358   4.473   2.078  17.417  0.1920 -0.1229 -0.5258
 3967SOL     OW23359   3.663   1.417   4.032  0.0891 -0.1021 -0.2746
 3967SOL    HW123360   3.592   1.431   3.970  0.3286  2.3305 -0.0252
 3967SOL    HW223361   3.731   1.378   3.978  0.1329 -1.2967  0.6440
 3968SOL     OW23362   1.630   0.764   1.411  0.3385  0.2175  0.1197
 3968SOL    HW123363   1.720   0.748   1.440  1.1140  1.2802 -1.6740
 3968SOL    HW223364   1.575   0.759   1.489 -0.6895 -1.0183 -0.6893
 3969SOL     OW23365   4.495   4.017  11.823 -0.3047 -0.7337  0.1951
 3969SOL    HW123366   4.511   4.112  11.827 -0.3036 -0.8294  2.3468
 3969SOL    HW223367   4.533   4.003  11.736 -0.5128  2.6052 -0.4535
 3970SOL     OW23368   2.453   3.969   9.654  0.2806  0.1138 -0.0420
 3970SOL    HW123369   2.471   3.915   9.731  0.2781 -1.4074 -1.1195
 3970SOL    HW223370   2.489   4.053   9.683  0.7622 -0.2661  0.4651
 3971SOL     OW23371   3.803   3.197   8.122 -0.4200  0.6537  0.0725
 3971SOL    HW123372   3.858   3.248   8.181  1.7788 -2.8152  1.0177
 3971SOL    HW223373   3.863   3.124   8.109  0.7779  1.7203 -0.3444
 3972SOL     OW23374   2.939   4.331   7.653  0.4058 -0.0972 -0.3411
 3972SOL    HW123375   2.940   4.339   7.748 -0.9362  0.1153 -0.3539
 3972SOL    HW223376   3.033   4.319   7.639  0.3785 -0.2370 -0.4027
 3973SOL     OW23377   3.173   0.885  16.831  0.3853 -0.5487  0.3140
 3973SOL    HW123378   3.240   0.829  16.870  0.6123 -0.4586  0.0577
 3973SOL    HW223379   3.226   0.951  16.785 -0.7747  1.5288  1.9360
 3974SOL     OW23380   0.557   3.779   8.974  0.1262  0.9040 -0.2831
 3974SOL    HW123381   0.619   3.725   8.924 -0.7936  0.2275 -0.6853
 3974SOL    HW223382   0.524   3.717   9.039  2.0224  0.3952  0.2022
 3975SOL     OW23383   1.022   0.259   6.366  0.4693 -0.1418 -0.2551
 3975SOL    HW123384   0.987   0.269   6.278  1.9626  2.0549 -0.5902
 3975SOL    HW223385   1.114   0.235   6.355  0.5799 -1.4014  3.3409
 3976SOL     OW23386   4.339   2.611   5.370 -0.0588 -0.0846  0.2644
 3976SOL    HW123387   4.264   2.670   5.379  0.3230 -0.1107  3.5186
 3976SOL    HW223388   4.308   2.520   5.369  0.0223 -0.0700 -2.6906
 3977SOL     OW23389   0.968   4.252  16.322 -0.0320 -0.2641 -0.4203
 3977SOL    HW123390   1.048   4.223  16.279  0.8031  0.0445  0.9218
 3977SOL    HW223391   0.942   4.168  16.359 -0.3418 -0.9662 -2.2580
 3978SOL     OW23392   0.749   1.486   9.158 -0.0745  0.4306  0.5694
 3978SOL    HW123393   0.841   1.506   9.178 -0.0610 -1.3556  2.2764
 3978SOL    HW223394   0.772   1.419   9.093 -0.3941  1.1836 -0.3196
 3979SOL     OW23395   1.120   4.452   1.537  0.1596  0.3431  0.2070
 3979SOL    HW123396   1.067   4.421   1.611 -0.4849 -1.4062 -0.9851
 3979SOL    HW223397   1.075   4.416   1.461  1.7229  0.5275 -0.8028
 3980SOL     OW23398   0.869   0.416   4.034 -0.4588 -0.1811 -0.0981
 3980SOL    HW123399   0.923   0.341   4.058  1.2015  1.0038 -0.1463
 3980SOL    HW223400   0.846   0.398   3.943  1.0020 -2.7722  0.0352
 3981SOL     OW23401   2.928   0.551   2.773  0.0172 -0.9121  0.0795
 3981SOL    HW123402   2.942   0.489   2.845  0.9240  0.0732  0.7419
 3981SOL    HW223403   2.858   0.611   2.798  0.9805 -0.0038  0.6078
 3982SOL     OW23404   1.741   1.136   8.506  0.5612  0.1394  0.6860
 3982SOL    HW123405   1.707   1.203   8.566 -0.3618  1.2896 -1.1080
 3982SOL    HW223406   1.798   1.085   8.563  0.5045  2.1575  2.5882
 3983SOL     OW23407   2.606   4.644   5.228  0.1687 -1.2794 -0.2584
 3983SOL    HW123408   2.563   0.003   5.210  0.0961 -1.2513  0.0476
 3983SOL    HW223409   2.566   4.626   5.314 -1.7665 -1.3393 -1.1735
 3984SOL     OW23410   4.437   3.719  12.100 -0.4408 -0.2241 -0.1380
 3984SOL    HW123411   4.410   3.635  12.137 -4.0938  1.2429  0.5139
 3984SOL    HW223412   4.403   3.702  12.012 -0.2978  0.4090 -0.3124
 3985SOL     OW23413   4.020   1.905   3.766 -0.1920 -0.0293  0.0680
 3985SOL    HW123414   4.052   1.815   3.772 -0.6580 -0.2238 -0.4151
 3985SOL    HW223415   3.969   1.895   3.686 -0.6735  0.6513  0.2824
 3986SOL     OW23416   3.234   2.061   0.179  0.1661  0.5608  0.0493
 3986SOL    HW123417   3.305   2.004   0.209 -1.0711 -1.0524 -0.0648
 3986SOL    HW223418   3.162   2.008   0.212  0.5764  0.3474  0.6079
 3987SOL     OW23419   4.106   3.840  12.370 -0.6522  0.4073 -0.0139
 3987SOL    HW123420   4.183   3.795  12.406 -0.3072  1.7191  0.8944
 3987SOL    HW223421   4.088   3.903  12.440  1.1385 -0.3206  1.1001
 3988SOL     OW23422   2.947   1.581   1.524  0.7863 -0.0414 -0.2671
 3988SOL    HW123423   3.013   1.649   1.535  0.2372  0.2180  1.4582
 3988SOL    HW223424   2.874   1.643   1.533  1.1257  0.3563 -0.2959
 3989SOL     OW23425   3.281   0.121   4.249 -0.9792 -0.4766 -0.1485
 3989SOL    HW123426   3.230   0.156   4.177  0.2356  1.0001 -0.3024
 3989SOL    HW223427   3.334   0.048   4.217 -0.7725 -0.1699 -0.5095
 3990SOL     OW23428   0.921   1.419   2.981 -0.1709 -0.2312 -0.3899
 3990SOL    HW123429   0.863   1.426   3.056  0.7825  1.9645  0.1151
 3990SOL    HW223430   0.873   1.361   2.921 -1.0718 -2.3430  2.3739
 3991SOL     OW23431   1.556   2.176   6.028  0.5218 -0.1485 -0.3802
 3991SOL    HW123432   1.534   2.269   6.037  3.2024  0.6188 -1.6081
 3991SOL    HW223433   1.475   2.126   6.038  1.1307 -1.5541 -2.4917
 3992SOL     OW23434   1.622   1.895   2.501 -0.3940 -0.0819  0.3884
 3992SOL    HW123435   1.644   1.829   2.566 -0.4412 -0.8348 -0.3706
 3992SOL    HW223436   1.594   1.844   2.425  0.0151  1.0894 -0.5578
 3993SOL     OW23437   1.899   2.786   4.209  0.2936 -0.5913 -0.2773
 3993SOL    HW123438   1.881   2.788   4.115 -0.3989 -0.6517 -0.1451
 3993SOL    HW223439   1.894   2.881   4.222  0.3488 -0.6233 -0.0332
 3994SOL     OW23440   2.828   1.836   2.520  0.4586 -0.4085  0.2054
 3994SOL    HW123441   2.809   1.819   2.427 -2.5546  0.2447  0.7081
 3994SOL    HW223442   2.922   1.824   2.515  0.6582  1.6142 -1.1591
 3995SOL     OW23443   4.322   1.204   7.075 -0.1350  0.2946 -0.7293
 3995SOL    HW123444   4.391   1.269   7.085 -0.0294 -0.0308  0.7326
 3995SOL    HW223445   4.287   1.213   7.164 -1.1050  0.5463 -1.1393
 3996SOL     OW23446   3.707   1.632   4.731  0.5999 -0.3320 -0.1170
 3996SOL    HW123447   3.735   1.724   4.730 -2.8155  0.6649 -2.4148
 3996SOL    HW223448   3.630   1.630   4.674  0.5195 -2.0031  0.0604
 3997SOL     OW23449   1.028   3.455   2.534  0.0251 -0.2519  0.2812
 3997SOL    HW123450   1.088   3.529   2.544  0.4526 -0.3217 -1.6519
 3997SOL    HW223451   0.945   3.498   2.559  2.3217  2.9490  2.4290
 3998SOL     OW23452   4.667   4.007   3.768  0.1555  0.7041  0.2775
 3998SOL    HW123453   4.708   4.059   3.699  0.2753  0.7131  0.3533
 3998SOL    HW223454   0.019   3.957   3.799 -0.0016  0.0363 -0.4116
 3999SOL     OW23455   4.169   2.621  17.288  0.0389 -0.0278 -0.2768
 3999SOL    HW123456   4.244   2.675  17.314 -1.1882  0.5535  2.1364
 3999SOL    HW223457   4.149   2.656  17.202  2.1118 -0.2259 -0.8310
 4000SOL     OW23458   1.578   1.398   6.032  0.6455 -0.4410 -0.4310
 4000SOL    HW123459   1.557   1.465   5.966  3.2494  2.1731  1.4159
 4000SOL    HW223460   1.585   1.460   6.104  0.0552 -0.6985 -0.1503
 4001SOL     OW23461   3.708   0.555   5.059 -0.2486  0.0655  0.0365
 4001SOL    HW123462   3.741   0.592   4.977 -0.1010  0.2037  0.1588
 4001SOL    HW223463   3.776   0.493   5.084  0.9003  0.6661 -1.5458
 4002SOL     OW23464   4.205   2.185   3.576 -0.0080  0.3045  0.4930
 4002SOL    HW123465   4.185   2.257   3.515  2.7508 -0.0860 -0.8684
 4002SOL    HW223466   4.131   2.174   3.637 -0.7985 -0.4033 -0.5931
 4003SOL     OW23467   1.418   0.871  15.626 -0.6424  0.0137 -0.8117
 4003SOL    HW123468   1.442   0.841  15.713 -1.0806  0.0684 -0.6688
 4003SOL    HW223469   1.391   0.781  15.604  0.7596 -0.6356  0.1797
 4004SOL     OW23470   2.411   2.584   2.780 -0.4611 -0.1028 -0.7002
 4004SOL    HW123471   2.381   2.533   2.705  0.6157  1.6724 -2.3619
 4004SOL    HW223472   2.389   2.673   2.753  2.5741 -0.1335 -3.3217
 4005SOL     OW23473   1.387   3.132  16.018 -0.1456 -0.1703  0.9733
 4005SOL    HW123474   1.299   3.158  16.045 -0.8368  1.0950 -2.4679
 4005SOL    HW223475   1.392   3.041  16.048  1.8275 -0.6642 -0.8076
 4006SOL     OW23476   2.113   1.283   9.486  0.7345  0.2615 -0.1716
 4006SOL    HW123477   2.051   1.316   9.552  2.0787  0.0453  1.2149
 4006SOL    HW223478   2.085   1.331   9.408  2.8599  1.2005 -0.3474
 4007SOL     OW23479   0.025   2.923   5.431 -0.3540  0.0208  0.4153
 4007SOL    HW123480   4.691   2.852   5.456 -1.2415  0.6608  0.1643
 4007SOL    HW223481   4.708   2.944   5.347 -0.4010  2.2013  0.9829
 4008SOL     OW23482   2.175   1.710   8.384  0.0728 -0.2486  0.1266
 4008SOL    HW123483   2.221   1.658   8.450 -1.8581 -3.2151 -0.8525
 4008SOL    HW223484   2.178   1.799   8.419  1.2872 -1.0894  2.1460
 4009SOL     OW23485   3.073   1.013   6.725  0.3722 -0.0704  0.5778
 4009SOL    HW123486   3.142   0.950   6.707  1.7350  2.3298 -2.6774
 4009SOL    HW223487   3.112   1.095   6.694 -3.4699  0.9974 -1.4658
 4010SOL     OW23488   1.573   0.825   4.020 -0.3435  0.4986 -0.1082
 4010SOL    HW123489   1.609   0.766   4.086  1.4928  1.3257 -0.3602
 4010SOL    HW223490   1.515   0.771   3.966 -1.4081 -0.8830  2.4623
 4011SOL     OW23491   1.468   3.298  15.443  0.1537  0.4570 -0.0562
 4011SOL    HW123492   1.512   3.274  15.361  2.2291 -0.2530  1.2495
 4011SOL    HW223493   1.518   3.245  15.506  0.0157  1.5927  1.0014
 4012SOL     OW23494   1.114   1.050   6.449 -0.3943  0.0811 -0.0216
 4012SOL    HW123495   1.136   0.957   6.437  3.1207  0.9664 -0.6835
 4012SOL    HW223496   1.052   1.030   6.519  0.0824 -0.5999  0.2020
 4013SOL     OW23497   1.304   2.541   3.812  0.0287 -0.1754 -0.1184
 4013SOL    HW123498   1.238   2.491   3.860  0.7255 -0.3141  0.6878
 4013SOL    HW223499   1.258   2.598   3.750 -0.5300  0.6436  1.0484
 4014SOL     OW23500   0.727   0.443   5.129  0.1257 -0.1072  0.1652
 4014SOL    HW123501   0.703   0.417   5.040  1.4213  1.3128 -0.6012
 4014SOL    HW223502   0.641   0.468   5.161 -0.8911 -2.2506 -0.9025
 4015SOL     OW23503   0.754   1.211   0.112  0.1241 -0.1299 -0.2902
 4015SOL    HW123504   0.817   1.139   0.120  0.6057  0.0036 -2.9901
 4015SOL    HW223505   0.736   1.225   0.205  0.1859  0.8625 -0.4333
 4016SOL     OW23506   1.762   1.855  12.992  0.2337 -0.0425 -0.1604
 4016SOL    HW123507   1.688   1.912  13.014  0.4592 -0.5214  1.8761
 4016SOL    HW223508   1.758   1.863  12.897  0.4036 -2.4565 -0.3577
 4017SOL     OW23509   1.174   3.689   9.470 -0.0763  0.1048 -0.0387
 4017SOL    HW123510   1.090   3.647   9.488  0.2832 -0.6287 -0.0631
 4017SOL    HW223511   1.149   3.713   9.381  0.5946  2.7155  0.4873
 4018SOL     OW23512   3.262   2.552   8.735  0.1105 -0.5390 -0.0228
 4018SOL    HW123513   3.255   2.607   8.813  0.8992 -1.7122  0.8713
 4018SOL    HW223514   3.167   2.555   8.720  0.3309  2.5734 -0.7043
 4019SOL     OW23515   2.550   1.783   8.632  0.0638  0.0021  0.3778
 4019SOL    HW123516   2.583   1.858   8.682 -0.5638 -0.2282  1.1420
 4019SOL    HW223517   2.457   1.789   8.655  0.0804  1.1820  0.1223
 4020SOL     OW23518   3.693   0.084   5.234  0.4360 -0.6702  0.4866
 4020SOL    HW123519   3.665   0.141   5.162 -0.4432 -1.6507  0.0375
 4020SOL    HW223520   3.774   0.045   5.202 -0.3654  0.1006 -2.4778
 4021SOL     OW23521   1.914   4.362   3.977 -0.3344  0.3159 -0.7728
 4021SOL    HW123522   1.992   4.403   3.939 -0.0922 -1.0441 -1.7506
 4021SOL    HW223523   1.847   4.416   3.935 -0.0143  1.0422 -0.3378
 4022SOL     OW23524   1.247   2.746  13.068 -0.1539 -1.2595  0.0153
 4022SOL    HW123525   1.160   2.776  13.092 -0.5246 -1.9232 -0.4857
 4022SOL    HW223526   1.230   2.654  13.045 -0.9262 -1.2359  0.4910
 4023SOL     OW23527   1.559   0.549   3.691  0.1536 -0.0379  0.1378
 4023SOL    HW123528   1.596   0.636   3.676 -1.2709  0.6075  0.3754
 4023SOL    HW223529   1.625   0.501   3.641  0.7295  2.3921 -1.4484
 4024SOL     OW23530   2.785   2.873   4.659 -0.0614  0.5317 -0.4922
 4024SOL    HW123531   2.771   2.935   4.729 -0.4896 -0.0307 -0.0789
 4024SOL    HW223532   2.697   2.836   4.666  0.3031 -0.3251 -0.3344
 4025SOL     OW23533   0.038   0.801  10.051 -0.0286 -0.0561  0.1061
 4025SOL    HW123534   0.005   0.788  10.140  1.0194 -0.9945  0.3656
 4025SOL    HW223535   4.717   0.882  10.028  0.7226 -0.1743 -1.7870
 4026SOL     OW23536   0.601   3.085   5.332  0.3237  0.3532 -0.3733
 4026SOL    HW123537   0.554   3.010   5.296  1.6813  0.0458 -1.4941
 4026SOL    HW223538   0.668   3.042   5.385  0.7725 -0.1021 -1.3052
 4027SOL     OW23539   2.262   3.313  15.094  0.3680 -0.3482 -0.2707
 4027SOL    HW123540   2.184   3.361  15.120 -0.0274 -1.1099 -0.0538
 4027SOL    HW223541   2.230   3.255  15.025  0.7921  0.4888 -1.1739
 4028SOL     OW23542   1.200   2.164   3.233  0.3990  0.0385  0.4443
 4028SOL    HW123543   1.118   2.211   3.219  0.4720  0.9492  3.0650
 4028SOL    HW223544   1.259   2.234   3.205 -0.5783  0.7017  0.0179
 4029SOL     OW23545   1.759   0.723   5.952  0.3332  0.5679 -0.0622
 4029SOL    HW123546   1.697   0.782   5.909 -1.3368 -1.4971 -0.4747
 4029SOL    HW223547   1.839   0.776   5.944  0.8281 -0.0179  1.0132
 4030SOL     OW23548   0.879   4.126   5.962 -0.0327 -0.2209  0.6594
 4030SOL    HW123549   0.831   4.063   6.015  1.6128 -3.1426 -1.2989
 4030SOL    HW223550   0.963   4.105   6.003  0.2582  1.2052  0.7872
 4031SOL     OW23551   0.999   0.548   7.438  0.8766 -0.0596 -0.1309
 4031SOL    HW123552   1.032   0.636   7.459  0.7741 -0.0369 -0.0660
 4031SOL    HW223553   0.967   0.526   7.525  2.0776  2.2018  0.8933
 4032SOL     OW23554   0.219   3.393   5.728 -0.4376 -0.1483  0.0508
 4032SOL    HW123555   0.250   3.303   5.734  0.8792  0.3352  0.6002
 4032SOL    HW223556   0.281   3.434   5.668 -0.6041 -1.6846 -1.1501
 4033SOL     OW23557   2.342   1.973   7.978  0.0692  0.1656  0.4022
 4033SOL    HW123558   2.332   1.882   8.005  0.7980  0.0543  0.2774
 4033SOL    HW223559   2.265   2.016   8.017  0.9473 -0.0954  2.4182
 4034SOL     OW23560   3.946   2.883   1.488 -0.1037 -0.1767  0.2619
 4034SOL    HW123561   4.019   2.874   1.550  0.1409 -1.6791 -0.2602
 4034SOL    HW223562   3.950   2.800   1.440  0.1632 -1.1356  1.9413
 4035SOL     OW23563   0.178   1.508   5.426 -0.6306 -0.1721 -0.2565
 4035SOL    HW123564   0.221   1.592   5.411 -1.4094  0.9490  3.5932
 4035SOL    HW223565   0.137   1.522   5.512  0.4630 -0.9070  0.3736
 4036SOL     OW23566   2.986   2.330   9.301 -0.0779 -0.2790 -0.9087
 4036SOL    HW123567   2.906   2.316   9.351  0.1179 -0.5017 -0.6591
 4036SOL    HW223568   3.045   2.280   9.358 -2.1517 -0.7397  0.8125
 4037SOL     OW23569   0.642   4.072   0.686  0.2613 -0.2755  0.5496
 4037SOL    HW123570   0.705   4.069   0.757  1.0198 -2.1988 -0.1956
 4037SOL    HW223571   0.615   4.164   0.687  0.1832 -0.2796 -0.9664
 4038SOL     OW23572   4.408   2.574  10.245  0.3880  0.4375 -0.1623
 4038SOL    HW123573   4.391   2.635  10.173  0.5004  0.6938  0.0290
 4038SOL    HW223574   4.484   2.621  10.280  1.2854 -0.3623 -1.0154
 4039SOL     OW23575   4.217   0.837  17.422 -0.1713 -0.3099  0.1410
 4039SOL    HW123576   4.297   0.869  17.465 -0.0548  1.1009 -1.1022
 4039SOL    HW223577   4.148   0.882  17.471 -1.5822 -0.6683 -1.5316
 4040SOL     OW23578   2.680   1.055   7.016  0.7811 -0.4761 -0.0821
 4040SOL    HW123579   2.665   1.115   6.943  1.7085 -3.3165 -2.6112
 4040SOL    HW223580   2.761   1.024   6.977  0.9324 -0.8870  0.5562
 4041SOL     OW23581   3.514   4.100   9.329 -0.2399 -0.1896 -0.3497
 4041SOL    HW123582   3.527   4.113   9.423 -1.3245 -1.0127 -0.0872
 4041SOL    HW223583   3.431   4.145   9.314  0.0092  0.1181 -0.8153
 4042SOL     OW23584   1.395   1.046   6.866 -0.4013  0.3861 -0.4839
 4042SOL    HW123585   1.332   1.003   6.809 -1.1388  3.8868 -2.3315
 4042SOL    HW223586   1.346   1.068   6.945 -0.4789  0.7948 -0.6434
 4043SOL     OW23587   3.010   1.563   7.040  0.3040  0.3000  0.3797
 4043SOL    HW123588   2.949   1.631   7.013 -0.5681 -0.7565 -0.3025
 4043SOL    HW223589   2.947   1.490   7.038  0.1645  0.4580 -0.6989
 4044SOL     OW23590   3.400   1.259  15.979 -0.1433 -0.2917 -0.0903
 4044SOL    HW123591   3.377   1.254  15.886  0.5185  0.7702 -0.3147
 4044SOL    HW223592   3.367   1.348  15.995  2.8113  0.6783  0.6694
 4045SOL     OW23593   0.848   0.635   7.928  0.1509  0.1307  0.1345
 4045SOL    HW123594   0.845   0.712   7.985 -2.2292  0.0962  0.0846
 4045SOL    HW223595   0.910   0.588   7.985  0.1277 -1.2066 -0.9403
 4046SOL     OW23596   0.230   0.873   8.125 -0.5336  0.1457  0.2698
 4046SOL    HW123597   0.300   0.883   8.189 -1.8061  3.5120  1.1554
 4046SOL    HW223598   0.158   0.866   8.188  0.2164 -0.4217  1.0522
 4047SOL     OW23599   0.165   3.021   2.652 -0.3743  0.6808  0.2076
 4047SOL    HW123600   0.141   3.037   2.744  0.9892 -0.9685  0.8588
 4047SOL    HW223601   0.159   2.926   2.648 -0.3377  0.6106  1.7475
 4048SOL     OW23602   2.540   0.243   1.082  0.1164  0.6143 -0.0562
 4048SOL    HW123603   2.450   0.235   1.114  0.5399 -0.2861  0.9269
 4048SOL    HW223604   2.553   0.152   1.055 -2.0861 -0.2914  1.9274
 4049SOL     OW23605   4.607   3.224  10.138  0.2108  0.0593 -0.4604
 4049SOL    HW123606   4.550   3.301  10.144 -0.2708 -0.2780 -0.7213
 4049SOL    HW223607   4.571   3.181  10.061 -0.9164  0.2671 -0.0559
 4050SOL     OW23608   2.357   1.573  14.466  0.1731 -0.0786 -0.0300
 4050SOL    HW123609   2.390   1.619  14.389 -0.1350 -0.0837 -0.1660
 4050SOL    HW223610   2.271   1.613  14.478  0.1236  0.6110 -2.7412
 4051SOL     OW23611   1.985   3.870   7.900  0.2585  0.2233 -0.1082
 4051SOL    HW123612   1.982   3.936   7.970  0.1482  0.2004 -0.0904
 4051SOL    HW223613   2.065   3.877   7.848  1.4883 -1.8885  1.5189
 4052SOL     OW23614   3.541   4.131   7.470 -0.1114  0.5384  0.5709
 4052SOL    HW123615   3.525   4.211   7.520  1.1006  0.0345  1.7896
 4052SOL    HW223616   3.454   4.093   7.480 -0.8846  1.4693 -2.6130
 4053SOL     OW23617   2.356   0.197  10.858  0.1136  0.3396 -0.0385
 4053SOL    HW123618   2.300   0.268  10.827 -0.8357 -0.9061 -1.2064
 4053SOL    HW223619   2.405   0.188  10.777  1.0568  0.5269  0.5148
 4054SOL     OW23620   1.472   1.836   4.586  0.8238 -0.2194  0.2765
 4054SOL    HW123621   1.561   1.849   4.554  1.3529 -3.2573  0.5373
 4054SOL    HW223622   1.427   1.920   4.599  1.8040  0.4091 -0.3186
 4055SOL     OW23623   4.635   3.760   5.284 -0.9681  0.1325 -0.3893
 4055SOL    HW123624   4.579   3.697   5.239 -0.0047  1.1808 -3.0484
 4055SOL    HW223625   4.716   3.712   5.266 -0.5291  1.1515 -1.1413
 4056SOL     OW23626   0.022   2.934   5.694  0.2216  0.3120  0.1282
 4056SOL    HW123627   0.047   2.951   5.603  2.6620 -1.2951  0.5120
 4056SOL    HW223628   0.049   2.843   5.707 -0.0752 -0.1610 -2.5373
 4057SOL     OW23629   3.504   3.530  11.829 -0.7126 -0.6279  0.0337
 4057SOL    HW123630   3.547   3.485  11.902 -0.9011  2.1227  1.8511
 4057SOL    HW223631   3.419   3.546  11.869 -1.1526 -1.9868 -0.3800
 4058SOL     OW23632   0.352   1.067   1.143  0.0290  0.3849 -0.1699
 4058SOL    HW123633   0.398   1.055   1.059 -0.8954  0.0932 -0.6303
 4058SOL    HW223634   0.383   0.999   1.202  0.0038  0.3251 -0.2256
 4059SOL     OW23635   3.647   3.538   1.256 -0.0488  0.1657 -0.3100
 4059SOL    HW123636   3.585   3.466   1.265 -0.1230  0.2081 -0.4632
 4059SOL    HW223637   3.585   3.611   1.251  3.9240  3.6681  2.2318
 4060SOL     OW23638   0.993   1.530   6.511  0.3447 -0.4623 -0.2291
 4060SOL    HW123639   1.070   1.572   6.549  1.3550 -0.8585 -1.8289
 4060SOL    HW223640   0.940   1.509   6.587  0.7577  0.5773  0.3432
 4061SOL     OW23641   3.221   2.776  13.994 -0.3114  0.1160 -0.2517
 4061SOL    HW123642   3.150   2.804  14.051  0.1554  1.0807 -0.1449
 4061SOL    HW223643   3.190   2.686  13.983 -0.2424  0.2923 -1.9520
 4062SOL     OW23644   0.729   1.125  16.707 -0.1887  0.4304 -0.0355
 4062SOL    HW123645   0.646   1.092  16.672  0.7200  1.8735 -3.5494
 4062SOL    HW223646   0.759   1.052  16.760  0.9643  0.6339 -0.4125
 4063SOL     OW23647   2.129   1.961   8.810 -0.0859 -0.0500 -0.4666
 4063SOL    HW123648   2.146   2.049   8.844 -0.7029 -0.6672  1.4177
 4063SOL    HW223649   2.155   1.905   8.883  0.6460  1.4593  0.4316
 4064SOL     OW23650   1.741   3.107   6.886 -0.6978  0.1010  0.4484
 4064SOL    HW123651   1.693   3.171   6.940  1.1204  1.3529  0.5701
 4064SOL    HW223652   1.759   3.047   6.958  1.4917 -1.9717 -1.8674
 4065SOL     OW23653   3.895   1.243   8.765  0.0639  0.0009 -0.3875
 4065SOL    HW123654   3.892   1.175   8.833 -1.6508 -0.8473 -1.2979
 4065SOL    HW223655   3.939   1.318   8.806 -0.0146  0.6209 -1.4448
 4066SOL     OW23656   3.534   3.803   7.599 -0.7965 -0.0255 -1.0541
 4066SOL    HW123657   3.548   3.711   7.624 -2.6097 -0.5890 -2.0969
 4066SOL    HW223658   3.577   3.788   7.515  1.4551 -1.7959  0.4139
 4067SOL     OW23659   2.403   2.940   5.570  0.0190 -0.5205 -0.4304
 4067SOL    HW123660   2.418   3.033   5.551  0.0620 -0.7257 -1.4076
 4067SOL    HW223661   2.318   2.921   5.530 -0.4151  1.9828 -0.6848
 4068SOL     OW23662   0.174   0.423   3.310 -0.1173 -0.3732 -0.1604
 4068SOL    HW123663   0.137   0.457   3.391  2.0036  1.4142  0.0585
 4068SOL    HW223664   0.257   0.387   3.341 -0.4964 -0.3393  0.8935
 4069SOL     OW23665   1.823   4.304   0.015 -0.1723 -0.7969  0.8602
 4069SOL    HW123666   1.762   4.284   0.086 -0.8614 -0.6647  0.3039
 4069SOL    HW223667   1.841   4.214  17.687 -0.3599 -0.1527 -1.3348
 4070SOL     OW23668   0.083   3.170   7.277 -0.4951  0.0145  0.3132
 4070SOL    HW123669   0.080   3.117   7.356  0.1407  0.5607  0.7108
 4070SOL    HW223670   0.004   3.224   7.276 -1.3100 -1.1941  1.3927
 4071SOL     OW23671   2.605   0.598   4.335  0.2600  0.0092 -0.0271
 4071SOL    HW123672   2.643   0.549   4.408  0.0555 -1.7493 -1.1257
 4071SOL    HW223673   2.638   0.550   4.260 -2.4531 -0.8973 -0.6261
 4072SOL     OW23674   2.899   2.039   9.015 -0.0388 -0.0033 -0.4095
 4072SOL    HW123675   2.881   2.133   9.021  0.6446  0.1620 -0.9931
 4072SOL    HW223676   2.995   2.048   9.023 -0.0926 -0.0583  0.3545
 4073SOL     OW23677   1.536   0.406  17.126  0.9456 -0.5575  0.7809
 4073SOL    HW123678   1.481   0.366  17.193  0.9027  1.1630  1.7750
 4073SOL    HW223679   1.569   0.338  17.067  1.7970 -0.3366  1.0080
 4074SOL     OW23680   3.927   1.682   5.675 -0.2034 -0.0649 -0.0954
 4074SOL    HW123681   3.923   1.589   5.699 -0.6359 -0.3594 -1.3081
 4074SOL    HW223682   4.011   1.710   5.713  1.8896 -2.1798 -3.1544
 4075SOL     OW23683   2.886   2.858  13.822 -0.0485  0.1190 -0.2714
 4075SOL    HW123684   2.951   2.794  13.792 -2.2413 -1.3151 -1.8902
 4075SOL    HW223685   2.895   2.914  13.745  0.4381  0.3610 -0.0424
 4076SOL     OW23686   1.330   0.116   2.572  0.3423 -0.0488  0.4281
 4076SOL    HW123687   1.337   0.199   2.617  2.5648 -0.1255  0.2126
 4076SOL    HW223688   1.311   0.139   2.481  0.2229 -1.4165  0.1092
 4077SOL     OW23689   0.517   0.941  16.785 -0.3548 -0.0174 -0.2727
 4077SOL    HW123690   0.475   1.006  16.842  0.0909  1.5467 -1.7348
 4077SOL    HW223691   0.552   0.884  16.853  1.1056  0.1390 -0.8989
 4078SOL     OW23692   4.457   1.551  10.492  0.0957  0.2258  0.4720
 4078SOL    HW123693   4.552   1.547  10.479  0.2582 -0.0887  1.8180
 4078SOL    HW223694   4.444   1.632  10.540 -0.6495  0.6469 -0.4311
 4079SOL     OW23695   0.792   0.112   7.644 -0.0909 -0.2014 -0.1594
 4079SOL    HW123696   0.829   0.184   7.594  1.5272  0.6787  2.3171
 4079SOL    HW223697   0.795   0.137   7.736 -0.3491 -1.2153  0.1300
 4080SOL     OW23698   3.953   2.730   6.819  0.2744  0.2291  0.3442
 4080SOL    HW123699   4.042   2.727   6.856  0.3817  2.8160  0.2898
 4080SOL    HW223700   3.939   2.645   6.779  1.4994 -1.2948  3.1388
 4081SOL     OW23701   0.802   4.656   3.715 -0.4565 -0.1673  0.5236
 4081SOL    HW123702   0.877   4.636   3.660 -0.4271 -0.1558  0.5595
 4081SOL    HW223703   0.806   4.589   3.784  0.9835 -0.9375 -0.3114
 4082SOL     OW23704   3.804   4.193  16.781 -0.0259 -0.8344  0.1546
 4082SOL    HW123705   3.728   4.196  16.722  2.1064  1.6341 -2.4693
 4082SOL    HW223706   3.875   4.186  16.718  0.4640 -0.4524  0.6591
 4083SOL     OW23707   2.473   0.875   6.426  0.0266 -0.2765  0.1467
 4083SOL    HW123708   2.425   0.957   6.419 -2.1095 -1.6597 -1.3599
 4083SOL    HW223709   2.468   0.847   6.334 -0.3708 -1.8409  0.6439
 4084SOL     OW23710   3.470   2.039  17.081  0.2377  0.1668  0.2542
 4084SOL    HW123711   3.502   1.951  17.059  1.3186  0.6969 -0.3479
 4084SOL    HW223712   3.544   2.093  17.053 -0.0274 -0.1614 -1.0838
 4085SOL     OW23713   1.780   2.432  11.241  0.3563 -0.1703 -0.1665
 4085SOL    HW123714   1.819   2.357  11.287 -0.5986 -0.2867  0.4624
 4085SOL    HW223715   1.788   2.489  11.317 -1.5142 -1.9966  1.4028
 4086SOL     OW23716   2.765   0.208  11.352 -0.8842 -0.3969 -0.8114
 4086SOL    HW123717   2.826   0.252  11.411 -1.2186 -1.8217  0.5824
 4086SOL    HW223718   2.816   0.174  11.278 -0.1164 -0.3137 -0.3274
 4087SOL     OW23719   3.400   2.373   7.703  0.4005 -0.2175  0.4233
 4087SOL    HW123720   3.308   2.382   7.679  0.1112 -3.4586  0.2796
 4087SOL    HW223721   3.419   2.459   7.740  0.9258  0.2308 -0.8782
 4088SOL     OW23722   0.236   3.953   2.348 -0.1358  0.1690 -0.1118
 4088SOL    HW123723   0.289   3.947   2.269 -0.1496 -1.2382 -0.0278
 4088SOL    HW223724   0.169   4.014   2.317  0.8466  1.3108  0.0236
 4089SOL     OW23725   2.431   1.087   5.134  0.1598  0.4681  0.0897
 4089SOL    HW123726   2.510   1.090   5.187  0.0468 -0.9059  0.3438
 4089SOL    HW223727   2.429   0.991   5.134 -0.5451  0.4800 -0.1887
 4090SOL     OW23728   3.328   4.568  10.620 -0.0023 -0.1215  0.0397
 4090SOL    HW123729   3.361   4.554  10.531 -1.5547 -2.6640 -0.1336
 4090SOL    HW223730   3.251   4.511  10.620  1.5876 -2.2759  1.7871
 4091SOL     OW23731   0.533   0.186   6.020 -0.3042  0.7149  0.1560
 4091SOL    HW123732   0.577   0.107   6.052  2.1894  0.0689 -4.8678
 4091SOL    HW223733   0.461   0.144   5.972 -0.0799 -0.1371  0.5603
 4092SOL     OW23734   3.235   3.800   1.922 -0.5512  0.0328 -0.7493
 4092SOL    HW123735   3.238   3.705   1.929  1.4870  0.1777  0.2984
 4092SOL    HW223736   3.188   3.822   2.002 -3.8517 -2.0313 -2.1091
 4093SOL     OW23737   1.121   4.494   0.130 -0.1970  0.2741 -0.3304
 4093SOL    HW123738   1.026   4.488   0.117  0.1078  1.5622 -3.1260
 4093SOL    HW223739   1.142   4.401   0.125  2.1634  0.7517  0.9148
 4094SOL     OW23740   3.224   4.131  10.695  0.4342 -0.2832 -0.2255
 4094SOL    HW123741   3.279   4.083  10.633 -0.3200  0.3250 -1.3442
 4094SOL    HW223742   3.181   4.059  10.741 -1.4050  1.0696  0.1881
 4095SOL     OW23743   1.914   3.671   1.532 -0.6075 -0.5387  0.1006
 4095SOL    HW123744   1.959   3.653   1.615 -1.0784 -1.3112  0.1864
 4095SOL    HW223745   1.835   3.710   1.569  0.0066  0.0819  0.7409
 4096SOL     OW23746   2.131   2.276   1.860 -0.1715 -0.1571  0.3024
 4096SOL    HW123747   2.091   2.320   1.935 -0.0221  1.3824 -0.5283
 4096SOL    HW223748   2.076   2.316   1.793  0.0710 -0.5242 -0.1154
 4097SOL     OW23749   0.426   3.964   5.245  0.3648 -0.1310  0.0737
 4097SOL    HW123750   0.485   4.030   5.281  1.6904  0.9830 -4.1281
 4097SOL    HW223751   0.343   3.995   5.282 -1.0791  0.0547 -3.3384
 4098SOL     OW23752   4.162   3.078   6.219 -0.2894  0.1054 -0.2501
 4098SOL    HW123753   4.157   3.122   6.134  1.3548 -1.6329 -1.2495
 4098SOL    HW223754   4.117   2.996   6.196 -3.1723  1.4088  0.7088
 4099SOL     OW23755   2.106   4.575   0.512  0.0895  0.5020 -0.0541
 4099SOL    HW123756   2.106   4.641   0.581  0.4968  1.4397 -0.9685
 4099SOL    HW223757   2.127   4.493   0.557 -1.6122  0.2904  0.3455
 4100SOL     OW23758   2.401   1.821  10.182 -0.0419  0.0322  0.3976
 4100SOL    HW123759   2.306   1.809  10.193 -0.1588  1.6920  1.2167
 4100SOL    HW223760   2.403   1.851  10.091  0.6275  0.5532  0.5816
 4101SOL     OW23761   2.627   1.172   0.718  0.5875 -0.7557 -0.6111
 4101SOL    HW123762   2.559   1.110   0.692 -1.4747  0.6860  1.2856
 4101SOL    HW223763   2.592   1.251   0.678  0.0891 -0.1635  0.9841
 4102SOL     OW23764   3.439   0.307  16.351  0.4810  0.2480 -0.2059
 4102SOL    HW123765   3.489   0.259  16.416  0.1268 -1.9932 -1.6012
 4102SOL    HW223766   3.349   0.278  16.366 -0.4914  4.1689  1.6721
 4103SOL     OW23767   2.663   4.218   1.850  0.5140 -0.0972  0.0090
 4103SOL    HW123768   2.623   4.147   1.799  1.2584 -0.8731  0.5294
 4103SOL    HW223769   2.636   4.299   1.805  0.1525 -0.3742 -0.2764
 4104SOL     OW23770   4.147   1.560  13.150 -0.0089  0.2199  0.5525
 4104SOL    HW123771   4.093   1.482  13.165  0.2721 -0.7469 -3.5926
 4104SOL    HW223772   4.216   1.532  13.091 -0.0774 -0.7801  0.9373
 4105SOL     OW23773   3.481   3.866   0.219 -0.3029  0.5945 -0.4395
 4105SOL    HW123774   3.553   3.912   0.263  0.5583 -1.8498  0.6843
 4105SOL    HW223775   3.412   3.901   0.275 -0.5868 -1.2258  0.3411
 4106SOL     OW23776   3.674   3.046   5.033  0.2684  0.2368  0.2326
 4106SOL    HW123777   3.719   2.988   4.971  0.0441 -0.8834  1.1315
 4106SOL    HW223778   3.741   3.114   5.030 -1.1642  1.5930 -1.6723
 4107SOL     OW23779   2.155   3.648   5.760 -0.7552  0.2663  0.5036
 4107SOL    HW123780   2.232   3.601   5.792 -0.4606  0.5350  0.1832
 4107SOL    HW223781   2.159   3.728   5.813 -2.4225  2.3827 -2.6073
 4108SOL     OW23782   2.404   0.686   6.068  0.0767 -0.1022 -0.8076
 4108SOL    HW123783   2.359   0.683   5.983 -0.5194  0.0934 -0.4975
 4108SOL    HW223784   2.412   0.592   6.080  1.2693  0.2718  1.2436
 4109SOL     OW23785   3.117   0.085   7.927  0.3430  0.0221  0.9802
 4109SOL    HW123786   3.122   0.179   7.908 -1.1392 -0.6712 -2.8229
 4109SOL    HW223787   3.124   0.054   7.836 -0.2891  0.1509  0.8868
 4110SOL     OW23788   1.538   3.522  14.066 -0.5349 -0.0420  0.2053
 4110SOL    HW123789   1.623   3.559  14.086 -0.3950 -0.3360  0.1587
 4110SOL    HW223790   1.544   3.437  14.109 -0.7430 -0.8349 -1.3182
 4111SOL     OW23791   2.457   0.354   8.736 -0.6289 -0.2021 -0.2015
 4111SOL    HW123792   2.382   0.339   8.678 -0.9693 -1.3910  0.5412
 4111SOL    HW223793   2.428   0.437   8.773  1.1818 -0.1752  1.1602
 4112SOL     OW23794   4.285   2.997   5.559 -0.0833 -0.5031 -0.2219
 4112SOL    HW123795   4.364   3.042   5.590 -0.2806 -1.8013  2.1180
 4112SOL    HW223796   4.224   3.071   5.558  0.3128 -0.1880 -2.0679
 4113SOL     OW23797   1.738   2.271   1.980 -0.9715 -0.1498 -0.2344
 4113SOL    HW123798   1.818   2.299   2.025 -1.7518  0.6132  0.6917
 4113SOL    HW223799   1.743   2.330   1.904 -0.5811 -0.5744 -0.5414
 4114SOL     OW23800   4.285   4.517  13.063  0.0752  0.2160 -0.1930
 4114SOL    HW123801   4.319   4.481  13.144  0.4532 -2.3375 -1.4830
 4114SOL    HW223802   4.284   4.610  13.087  2.7553  0.4252 -0.9095
 4115SOL     OW23803   2.549   0.829   2.271 -0.0215 -0.4854 -0.4262
 4115SOL    HW123804   2.600   0.891   2.323 -2.5386  1.2606 -0.0413
 4115SOL    HW223805   2.489   0.792   2.335 -0.0763  1.4484  0.6522
 4116SOL     OW23806   1.511   3.673   4.530 -0.1577  0.1145 -0.3137
 4116SOL    HW123807   1.479   3.588   4.557 -0.4285  0.5653  0.7649
 4116SOL    HW223808   1.605   3.655   4.537 -0.5134 -2.1731 -1.3525
 4117SOL     OW23809   2.478   0.992   4.141 -0.1229  0.0452 -0.1394
 4117SOL    HW123810   2.541   0.986   4.213 -1.1632 -0.9284  0.6956
 4117SOL    HW223811   2.474   1.084   4.118  0.3135  0.2308  0.5302
 4118SOL     OW23812   3.701   1.795   7.814  0.2806  0.3906 -0.2177
 4118SOL    HW123813   3.713   1.738   7.891  1.0429  0.6374 -0.1469
 4118SOL    HW223814   3.609   1.782   7.793  0.0876 -1.2297  1.5835
 4119SOL     OW23815   3.068   0.025   9.294 -0.3403  0.4756  0.2130
 4119SOL    HW123816   3.016   0.079   9.354 -2.7348 -2.4985  0.7979
 4119SOL    HW223817   3.120   4.698   9.355  0.6796  1.0824 -0.1587
 4120SOL     OW23818   0.657   2.732   2.933 -0.5561 -0.0691 -0.3623
 4120SOL    HW123819   0.669   2.672   2.859  1.0274  1.1981 -1.1350
 4120SOL    HW223820   0.719   2.716   3.003 -0.6206  0.5686 -0.1590
 4121SOL     OW23821   2.953   0.286  16.095 -0.3027 -0.0030 -0.0639
 4121SOL    HW123822   2.891   0.300  16.024 -0.1626  2.7812  0.3779
 4121SOL    HW223823   2.922   0.343  16.166 -0.5631  0.0247 -0.2027
 4122SOL     OW23824   2.310   0.527   6.833  0.2386  0.0430 -0.1767
 4122SOL    HW123825   2.236   0.587   6.842  0.2688  0.0001  0.3545
 4122SOL    HW223826   2.375   0.589   6.799  0.6087 -0.7164 -0.8755
 4123SOL     OW23827   2.988   0.901  10.203  0.1869  0.6608 -0.0902
 4123SOL    HW123828   2.979   0.869  10.293 -1.9975  1.7211  0.0598
 4123SOL    HW223829   3.074   0.865  10.183 -0.4673 -0.3603 -1.0949
 4124SOL     OW23830   4.455   0.974  15.417 -0.3350 -0.2163  0.1039
 4124SOL    HW123831   4.455   0.906  15.484 -0.3682 -1.3531 -1.0431
 4124SOL    HW223832   4.432   0.926  15.337 -3.5208  3.5388 -1.2360
 4125SOL     OW23833   3.558   0.397  16.014 -0.6182 -0.4831 -0.4093
 4125SOL    HW123834   3.646   0.391  16.051 -0.1858 -0.0869 -1.3719
 4125SOL    HW223835   3.549   0.319  15.959 -0.5026 -1.6388  1.1981
 4126SOL     OW23836   1.440   4.273   1.700  0.0922 -0.2340  0.0922
 4126SOL    HW123837   1.428   4.182   1.672 -0.3727  0.5834 -2.3876
 4126SOL    HW223838   1.363   4.274   1.757  1.0873 -0.8461  1.4382
 4127SOL     OW23839   1.354   4.626   7.532  0.4945  0.0304  0.2098
 4127SOL    HW123840   1.445   4.652   7.516  0.2193 -0.3080 -1.9244
 4127SOL    HW223841   1.372   4.534   7.551  1.8369  0.7080  2.2314
 4128SOL     OW23842   0.230   3.500   3.358  0.1094 -0.1862 -0.0376
 4128SOL    HW123843   0.222   3.480   3.265  1.7960  2.1451 -0.6959
 4128SOL    HW223844   0.317   3.541   3.365  0.9309 -1.9902  0.2950
 4129SOL     OW23845   3.003   0.855   4.081  0.2150 -0.2719 -0.0118
 4129SOL    HW123846   3.081   0.818   4.122  0.6572  0.0510 -0.5616
 4129SOL    HW223847   2.981   0.940   4.120  0.1867  0.2740 -1.1971
 4130SOL     OW23848   3.163   2.352   1.602  0.1023  0.7611  0.1491
 4130SOL    HW123849   3.132   2.262   1.591 -0.0326  1.2359 -3.4926
 4130SOL    HW223850   3.205   2.343   1.517  1.9034  0.2863  1.0928
 4131SOL     OW23851   4.326   0.065   2.543  0.2180 -0.4769  0.0747
 4131SOL    HW123852   4.364   4.703   2.524  2.5627  0.6417 -0.2338
 4131SOL    HW223853   4.347   0.118   2.466  0.5469 -1.1929 -0.3358
 4132SOL     OW23854   1.506   2.040  11.120 -0.0622  0.0319 -0.0297
 4132SOL    HW123855   1.431   1.989  11.150  0.0015 -0.5497 -0.8408
 4132SOL    HW223856   1.483   2.016  11.030 -1.5717  0.1702  0.3331
 4133SOL     OW23857   0.723   4.600   2.572  0.5066 -0.2921  0.3544
 4133SOL    HW123858   0.775   4.548   2.633 -0.5039 -0.4510  1.0956
 4133SOL    HW223859   0.786   4.608   2.501  0.1330 -1.4669 -0.1107
 4134SOL     OW23860   4.577   2.093   3.680  0.3369  0.2982 -0.8549
 4134SOL    HW123861   4.503   2.153   3.688  0.3890  0.5933 -2.4485
 4134SOL    HW223862   4.626   2.136   3.610  3.5604  1.3014  2.0218
 4135SOL     OW23863   2.594   3.437   2.210 -0.8129 -0.4982  0.3799
 4135SOL    HW123864   2.621   3.501   2.145 -0.7006 -0.1780  0.7433
 4135SOL    HW223865   2.507   3.417   2.175  0.0078  0.0925 -1.9815
 4136SOL     OW23866   3.161   2.642  13.426 -0.3255  0.6401 -0.0983
 4136SOL    HW123867   3.179   2.716  13.368  0.0514 -0.7425 -1.7214
 4136SOL    HW223868   3.210   2.567  13.392 -0.5133  2.0434 -3.4456
 4137SOL     OW23869   1.532   3.652   7.683 -0.4930  0.8227  0.7552
 4137SOL    HW123870   1.520   3.730   7.737 -1.1719  1.7013 -0.6370
 4137SOL    HW223871   1.475   3.677   7.609  0.1190  0.5107  0.1780
 4138SOL     OW23872   4.555   3.125   2.996 -0.1791  0.1060  0.0120
 4138SOL    HW123873   4.528   3.038   3.024 -1.5200  0.9309  1.2744
 4138SOL    HW223874   4.481   3.150   2.940  0.4478 -0.1955 -0.9602
 4139SOL     OW23875   4.290   2.297   2.617  0.0122 -0.9153 -0.3966
 4139SOL    HW123876   4.344   2.218   2.608  0.9105 -0.2029 -1.3362
 4139SOL    HW223877   4.346   2.347   2.676  0.2896 -1.8701  0.1592
 4140SOL     OW23878   3.736   4.434   1.814 -0.0970 -0.5373  0.4767
 4140SOL    HW123879   3.643   4.431   1.794  0.0614 -1.0722 -0.2201
 4140SOL    HW223880   3.759   4.503   1.752 -1.2176  0.5402  1.2736
 4141SOL     OW23881   3.102   1.117   4.365  0.4070 -0.1841 -0.4845
 4141SOL    HW123882   3.100   1.211   4.383  1.6680 -0.5178  1.3994
 4141SOL    HW223883   3.126   1.085   4.452  1.4031 -0.8823 -1.0129
 4142SOL     OW23884   0.198   4.685   4.724  0.0661  0.1706  0.2713
 4142SOL    HW123885   0.252   4.606   4.733 -0.8856 -0.4614  0.4914
 4142SOL    HW223886   0.193   4.707   4.817  2.7533  0.7315  0.2815
 4143SOL     OW23887   0.128   3.510   6.731 -0.3029 -0.2307 -0.4256
 4143SOL    HW123888   0.201   3.488   6.789 -1.3226 -1.7842  0.2567
 4143SOL    HW223889   0.080   3.554   6.801 -3.3678 -0.8260 -2.1756
 4144SOL     OW23890   0.657   2.145   8.821 -0.2989  1.0370  0.0969
 4144SOL    HW123891   0.656   2.053   8.795  1.2127  0.9136  0.4799
 4144SOL    HW223892   0.571   2.178   8.793 -0.1937  2.9453  2.0141
 4145SOL     OW23893   0.530   2.964   3.053 -0.2591  0.6215 -0.0955
 4145SOL    HW123894   0.488   2.916   3.125  0.1384  0.6147  0.1325
 4145SOL    HW223895   0.624   2.962   3.070 -0.3241 -2.6015 -0.1563
 4146SOL     OW23896   3.988   1.379   7.849  0.3306  0.4834 -0.3794
 4146SOL    HW123897   4.048   1.452   7.866  1.4979 -0.3029 -1.0621
 4146SOL    HW223898   3.957   1.409   7.764  0.7619 -2.5648 -1.6333
 4147SOL     OW23899   1.414   1.876   1.636  0.2706  0.2304  0.0831
 4147SOL    HW123900   1.453   1.853   1.551  2.1943  0.0885  0.9976
 4147SOL    HW223901   1.475   1.944   1.664  1.8909 -1.6188  1.0843
 4148SOL     OW23902   3.995   4.165  16.223  0.0618 -0.5318 -0.0487
 4148SOL    HW123903   4.062   4.102  16.250 -1.3284 -1.5683  0.9158
 4148SOL    HW223904   4.030   4.172  16.134 -0.0434  0.4469 -0.0196
 4149SOL     OW23905   2.149   4.357   4.993  0.1562 -0.1150 -0.2436
 4149SOL    HW123906   2.140   4.447   4.962  1.0880 -0.8871 -2.6901
 4149SOL    HW223907   2.226   4.379   5.046 -0.5588 -0.4702  0.9468
 4150SOL     OW23908   2.153   4.464   0.187  0.3726 -0.0587 -0.3842
 4150SOL    HW123909   2.137   4.557   0.171 -1.4316 -0.2277  0.4363
 4150SOL    HW223910   2.239   4.453   0.147  1.1762 -1.0741  1.6498
 4151SOL     OW23911   3.475   4.435   6.721 -0.0652  0.1149  0.5477
 4151SOL    HW123912   3.398   4.452   6.668  1.2456 -0.4697 -1.5250
 4151SOL    HW223913   3.546   4.464   6.664  0.3974 -2.8287 -0.3767
 4152SOL     OW23914   0.877   1.629   6.241  0.6485  0.7305 -0.6507
 4152SOL    HW123915   0.891   1.584   6.324  2.0336 -1.9701 -2.3424
 4152SOL    HW223916   0.962   1.626   6.198  1.0541 -2.6608  0.4717
 4153SOL     OW23917   1.481   2.528  11.513  0.3764 -0.1253  0.2566
 4153SOL    HW123918   1.496   2.621  11.495 -2.3756  0.7581  2.5978
 4153SOL    HW223919   1.531   2.505  11.591 -2.0258 -2.1305  1.1964
 4154SOL     OW23920   2.255   2.383   8.093  0.0376  0.2186  0.4205
 4154SOL    HW123921   2.175   2.347   8.131  0.9645 -3.5670 -1.2131
 4154SOL    HW223922   2.315   2.309   8.085 -1.7199 -0.9609 -1.6829
 4155SOL     OW23923   2.835   0.096   6.824  0.3906 -0.9591 -0.7034
 4155SOL    HW123924   2.873   0.159   6.763  4.0069 -1.5864  0.9089
 4155SOL    HW223925   2.909   0.045   6.856  0.9106  0.0983 -0.1923
 4156SOL     OW23926   0.728   2.577   8.021  0.0733  0.3946  0.1082
 4156SOL    HW123927   0.800   2.577   7.959  1.3569 -1.4902  1.5958
 4156SOL    HW223928   0.742   2.658   8.070  0.2833 -0.8956  2.2012
 4157SOL     OW23929   1.306   3.152   7.397  0.1856  0.1061  0.8031
 4157SOL    HW123930   1.359   3.132   7.320  1.3192  2.0971  1.0487
 4157SOL    HW223931   1.377   3.151   7.460  0.1882 -0.3696  0.7903
 4158SOL     OW23932   1.821   2.222   2.897 -0.0802 -0.1768  0.1644
 4158SOL    HW123933   1.778   2.139   2.878 -1.8377  0.2148  2.4166
 4158SOL    HW223934   1.898   2.187   2.941  0.5045  0.7483 -0.1151
 4159SOL     OW23935   2.705   3.027   4.269 -0.3947 -0.0528  0.0202
 4159SOL    HW123936   2.619   2.987   4.278 -0.6678  0.7622  0.9659
 4159SOL    HW223937   2.686   3.121   4.277  0.9821  0.0779  1.7354
 4160SOL     OW23938   2.322   0.821   3.558 -0.1828  0.7344  0.1339
 4160SOL    HW123939   2.410   0.857   3.552  0.1599 -0.1582 -0.1635
 4160SOL    HW223940   2.340   0.729   3.540  1.9799  0.7556  2.2723
 4161SOL     OW23941   1.555   3.478  11.562 -0.6462 -0.2575 -0.1693
 4161SOL    HW123942   1.556   3.427  11.643  0.7173  0.0257 -0.0044
 4161SOL    HW223943   1.465   3.509  11.558 -0.5087  0.1873  0.1649
 4162SOL     OW23944   0.334   0.713   1.754 -0.4248 -0.1866 -0.2949
 4162SOL    HW123945   0.310   0.805   1.750 -1.4712 -0.4944 -1.2169
 4162SOL    HW223946   0.246   0.677   1.764 -1.1308  1.3380 -1.0295
 4163SOL     OW23947   2.895   2.144   8.327  0.7410 -0.0565 -0.0016
 4163SOL    HW123948   2.990   2.129   8.323  0.7793 -0.0456  0.7802
 4163SOL    HW223949   2.891   2.238   8.347  1.9539 -0.1165  0.5259
 4164SOL     OW23950   2.447   2.193   2.120  0.3705 -0.0207 -0.4110
 4164SOL    HW123951   2.506   2.123   2.092  0.0027 -0.9437  1.0938
 4164SOL    HW223952   2.421   2.233   2.037 -1.7618  0.5214  0.5242
 4165SOL     OW23953   0.484   1.325  12.586 -0.6455  0.3624 -0.0461
 4165SOL    HW123954   0.489   1.376  12.667 -2.7440 -1.6325  1.3358
 4165SOL    HW223955   0.518   1.395  12.531  1.8709 -1.4093 -0.7385
 4166SOL     OW23956   1.618   4.530   5.850 -0.4893 -0.4292 -0.3773
 4166SOL    HW123957   1.580   4.445   5.828 -3.3301  1.3122 -2.2158
 4166SOL    HW223958   1.652   4.553   5.764 -0.5072  0.2394 -0.2033
 4167SOL     OW23959   0.586   4.077   0.290  0.0155  0.2140  0.3587
 4167SOL    HW123960   0.581   4.161   0.245 -2.5923 -1.1979 -2.0635
 4167SOL    HW223961   0.495   4.047   0.301  0.0011  0.9182  2.1504
 4168SOL     OW23962   2.640   2.783   2.125 -0.0520 -0.1119 -0.4602
 4168SOL    HW123963   2.682   2.868   2.138  0.1436 -0.4552  1.1532
 4168SOL    HW223964   2.548   2.806   2.110 -0.1363  0.2201  0.6361
 4169SOL     OW23965   0.863   3.066   7.392 -0.5208  0.3083  0.1776
 4169SOL    HW123966   0.790   3.071   7.330  0.2212  1.9798 -0.5471
 4169SOL    HW223967   0.934   3.078   7.330 -1.3431  1.7165 -0.4922
 4170SOL     OW23968   0.832   4.566   1.118  0.0334  0.0096  0.3094
 4170SOL    HW123969   0.750   4.518   1.110 -0.0822  0.4189 -0.9139
 4170SOL    HW223970   0.845   4.608   1.033 -1.4946 -4.3473 -2.0284
 4171SOL     OW23971   3.509   4.712   2.494 -0.0398 -0.4805 -0.3140
 4171SOL    HW123972   3.460   4.641   2.535 -0.1798 -1.0756 -1.4950
 4171SOL    HW223973   3.482   0.063   2.545 -0.4756 -1.0281  0.2764
 4172SOL     OW23974   4.581   0.220   2.804 -0.3543 -0.3096  0.2166
 4172SOL    HW123975   4.610   0.211   2.713  1.1183 -0.7136  0.7310
 4172SOL    HW223976   4.544   0.309   2.808 -0.4230 -0.4128  2.0161
 4173SOL     OW23977   2.435   3.832   2.353  0.5486  0.5166  0.6291
 4173SOL    HW123978   2.343   3.850   2.335  0.9419  0.8345 -1.1389
 4173SOL    HW223979   2.448   3.758   2.293  1.3573  1.4118 -0.3190
 4174SOL     OW23980   2.716   4.158   3.157  0.2563  0.5214  0.1623
 4174SOL    HW123981   2.799   4.130   3.119 -0.7082 -0.7991 -0.9748
 4174SOL    HW223982   2.670   4.075   3.143  1.2465 -0.0138  0.1012
 4175SOL     OW23983   1.630   2.554   2.786  0.3423  0.3054 -0.1557
 4175SOL    HW123984   1.718   2.548   2.749  0.4397 -4.3608  0.8928
 4175SOL    HW223985   1.582   2.475   2.761 -1.3349  0.7637  1.5686
 4176SOL     OW23986   4.310   3.104  10.167  0.2731 -0.2569  0.2739
 4176SOL    HW123987   4.350   3.089  10.081  0.7110  0.4366  0.3553
 4176SOL    HW223988   4.216   3.104  10.145  0.2692 -1.0964  0.3058
 4177SOL     OW23989   0.981   3.027  13.679 -0.2554 -0.3722 -0.8434
 4177SOL    HW123990   0.988   3.110  13.725 -0.1626 -0.4860 -0.6533
 4177SOL    HW223991   0.932   3.056  13.602 -1.7917 -1.9627 -0.4746
 4178SOL     OW23992   3.879   0.084   2.315  0.6060 -0.1669  0.6306
 4178SOL    HW123993   3.799   0.137   2.312 -0.0268 -1.3257 -3.1552
 4178SOL    HW223994   3.833   0.000   2.312  3.4318 -1.5893 -2.1028
 4179SOL     OW23995   1.625   1.800   5.527 -0.0566 -0.1976 -0.2284
 4179SOL    HW123996   1.678   1.733   5.484  0.5257  0.3108 -0.2995
 4179SOL    HW223997   1.699   1.846   5.567 -0.9710  0.1333  1.1013
 4180SOL     OW23998   1.162   3.565   7.202 -0.4045 -0.2526  0.3432
 4180SOL    HW123999   1.251   3.596   7.184 -0.7981  1.6562  1.7174
 4180SOL    HW224000   1.169   3.537   7.293  0.5585  1.2917  0.7310
 4181SOL     OW24001   2.354   0.843   8.590 -0.4983  0.0843 -0.2646
 4181SOL    HW124002   2.387   0.813   8.675  0.3775 -0.3904 -0.7702
 4181SOL    HW224003   2.400   0.928   8.590 -0.2228 -0.0573 -1.1782
 4182SOL     OW24004   2.188   3.489   8.979  0.2831 -0.3608  0.1031
 4182SOL    HW124005   2.259   3.445   8.931  0.2830  2.4702 -2.5422
 4182SOL    HW224006   2.198   3.446   9.064  0.3353  2.5965  1.5895
 4183SOL     OW24007   4.014   0.184   2.608 -0.0315  0.1523  0.4925
 4183SOL    HW124008   4.074   0.258   2.594 -2.4142  1.7173 -1.5928
 4183SOL    HW224009   3.943   0.210   2.549  0.6540  1.5566  0.2852
 4184SOL     OW24010   1.904   1.606   6.345 -0.3117 -0.2570  0.2914
 4184SOL    HW124011   1.987   1.583   6.303  0.8709  1.6158  1.5850
 4184SOL    HW224012   1.892   1.540   6.414  0.7923  2.2177  2.8730
 4185SOL     OW24013   4.546   4.306   4.228  0.1981 -0.1762 -0.2223
 4185SOL    HW124014   4.615   4.284   4.291  0.5453  2.5386  0.3747
 4185SOL    HW224015   4.594   4.282   4.149 -0.6400  1.0205 -1.0955
 4186SOL     OW24016   4.535   3.403  17.503  0.4691 -0.4174  0.3683
 4186SOL    HW124017   4.585   3.444  17.573 -0.2633  0.4195  0.4019
 4186SOL    HW224018   4.448   3.394  17.542 -0.1817  1.6436 -0.6078
 4187SOL     OW24019   4.313   1.792   7.102 -0.2071 -0.8614 -0.6092
 4187SOL    HW124020   4.385   1.733   7.081  1.6093  0.9382  0.6000
 4187SOL    HW224021   4.351   1.879   7.094 -1.5738 -0.0491  1.4573
 4188SOL     OW24022   3.543   1.994   3.850 -0.3221  0.0629  0.2302
 4188SOL    HW124023   3.485   1.990   3.925 -1.6132 -1.1592 -0.8210
 4188SOL    HW224024   3.495   2.060   3.799  1.4436  0.8382 -0.4222
 4189SOL     OW24025   3.302   3.377   7.037 -0.2710  0.1987 -0.3747
 4189SOL    HW124026   3.341   3.290   7.034  0.4212  0.4039  2.1333
 4189SOL    HW224027   3.380   3.430   7.022 -0.0408 -0.2491 -0.7810
 4190SOL     OW24028   1.462   1.485  10.280 -0.4307  0.8417  0.1485
 4190SOL    HW124029   1.496   1.395  10.278  0.5615  1.2131  0.1603
 4190SOL    HW224030   1.389   1.473  10.340 -0.2101  0.5418  0.3613
 4191SOL     OW24031   3.956   0.496   9.836 -0.2359 -0.4313 -0.4365
 4191SOL    HW124032   3.957   0.402   9.850 -2.3975 -0.0717  2.1971
 4191SOL    HW224033   4.029   0.529   9.889  1.1272  1.3641 -3.4356
 4192SOL     OW24034   0.529   1.746   6.433 -0.2602  0.3173  0.2005
 4192SOL    HW124035   0.441   1.769   6.464 -0.8911 -1.2501 -0.3927
 4192SOL    HW224036   0.556   1.832   6.403 -1.0560  0.9963  1.4396
 4193SOL     OW24037   3.346   2.425   2.151  0.3291 -0.0567  0.3657
 4193SOL    HW124038   3.311   2.489   2.089  1.2228  0.0220 -0.0464
 4193SOL    HW224039   3.438   2.415   2.126  0.3336 -1.2637  0.8299
 4194SOL     OW24040   4.420   2.622   2.339 -0.2564 -0.0860  0.4032
 4194SOL    HW124041   4.461   2.590   2.420 -0.2844  2.6876  1.5212
 4194SOL    HW224042   4.342   2.570   2.323  0.5817 -0.9864 -0.6914
 4195SOL     OW24043   2.493   0.533   6.505 -0.6317  0.4893  0.2656
 4195SOL    HW124044   2.431   0.558   6.436 -1.5533 -0.4376  0.7528
 4195SOL    HW224045   2.479   0.606   6.565  2.5534  0.6709  0.7882
 4196SOL     OW24046   2.835   3.293   8.025  0.1078  0.1196  0.0301
 4196SOL    HW124047   2.913   3.243   8.000 -1.3530 -1.6960 -0.9780
 4196SOL    HW224048   2.865   3.371   8.070 -0.0079  0.4280 -0.4309
 4197SOL     OW24049   0.066   0.318   7.580 -0.0569  0.5444 -0.3606
 4197SOL    HW124050   0.073   0.273   7.496 -0.2823  0.0109 -0.0955
 4197SOL    HW224051   0.146   0.289   7.625 -0.4002  1.0899  0.6029
 4198SOL     OW24052   3.339   3.188   4.323 -0.3184 -0.0586  0.0044
 4198SOL    HW124053   3.341   3.193   4.419  3.5357 -2.3741  0.0860
 4198SOL    HW224054   3.410   3.125   4.308 -0.8153 -0.3941 -0.9048
 4199SOL     OW24055   3.668   2.691   6.656 -0.0371 -0.1020 -0.1847
 4199SOL    HW124056   3.617   2.734   6.588  2.2439 -0.0887 -1.8672
 4199SOL    HW224057   3.639   2.726   6.741  1.3202  1.2284 -0.2646
 4200SOL     OW24058   3.097   1.382   3.959  0.5493 -0.4768 -0.4532
 4200SOL    HW124059   3.123   1.381   3.867 -2.0510  0.1915 -1.1812
 4200SOL    HW224060   3.011   1.343   3.949 -0.4453  1.6504 -0.1352
 4201SOL     OW24061   3.251   2.369   1.337 -0.1495 -0.3022  0.0144
 4201SOL    HW124062   3.323   2.432   1.335 -1.0132  0.6610 -1.1656
 4201SOL    HW224063   3.283   2.303   1.276 -2.1578 -0.6422 -0.6783
 4202SOL     OW24064   3.532   4.587   8.445  0.7346 -0.5604 -0.1073
 4202SOL    HW124065   3.480   4.583   8.525  2.7527 -2.4949  1.1167
 4202SOL    HW224066   3.499   4.665   8.402  0.7991 -0.1191  0.6514
 4203SOL     OW24067   1.849   3.165  10.336  0.1454 -0.1019 -0.2492
 4203SOL    HW124068   1.772   3.205  10.296 -0.1146 -1.0336 -0.6628
 4203SOL    HW224069   1.871   3.096  10.274 -2.5504 -1.8610  0.7739
 4204SOL     OW24070   1.163   3.105   7.895  0.0786 -0.6471  0.0773
 4204SOL    HW124071   1.212   3.022   7.892  1.8832  0.5543 -3.5088
 4204SOL    HW224072   1.094   3.079   7.834  0.7304  1.0235 -1.3906
 4205SOL     OW24073   1.176   2.937   5.167 -0.2107  0.3885  0.0164
 4205SOL    HW124074   1.237   2.871   5.136 -2.6111 -0.5764 -2.5915
 4205SOL    HW224075   1.122   2.892   5.232  0.0312  1.8926  1.2818
 4206SOL     OW24076   0.004   1.818  17.351  0.1526 -0.0524 -0.1551
 4206SOL    HW124077   0.044   1.811  17.438  1.1980 -1.2280 -0.7310
 4206SOL    HW224078   0.022   1.910  17.330 -2.1627  0.3822 -0.1939
 4207SOL     OW24079   1.161   2.416  10.516  0.5171 -0.1710  0.3438
 4207SOL    HW124080   1.110   2.387  10.592 -0.8494  1.6359  0.1222
 4207SOL    HW224081   1.092   2.432  10.451 -0.4157 -1.1682  1.0745
 4208SOL     OW24082   3.105   4.385   1.096 -0.0311  0.3558  0.3492
 4208SOL    HW124083   3.057   4.361   1.175 -1.0903  0.9974 -0.1110
 4208SOL    HW224084   3.031   4.362   1.040  0.5884 -2.9083  0.8953
 4209SOL     OW24085   2.831   1.664  10.615 -0.0499 -0.1277 -0.1921
 4209SOL    HW124086   2.828   1.569  10.623 -0.7040 -0.0855  0.0755
 4209SOL    HW224087   2.888   1.684  10.690 -0.0820  1.5038 -0.5937
 4210SOL     OW24088   1.260   2.593   7.032  0.1695  0.0116  0.1272
 4210SOL    HW124089   1.315   2.597   6.954 -1.0734  0.2836 -0.7269
 4210SOL    HW224090   1.317   2.628   7.101 -0.3854 -0.3210  0.7518
 4211SOL     OW24091   0.785   0.301  15.047 -0.2301 -0.4151  0.1828
 4211SOL    HW124092   0.862   0.282  15.100  0.0959  0.5805  0.0660
 4211SOL    HW224093   0.756   0.383  15.088 -1.9382 -0.8865 -0.0796
 4212SOL     OW24094   3.515   2.390   8.444 -0.5671  0.1829  0.0189
 4212SOL    HW124095   3.508   2.336   8.366  1.0573 -0.5795  0.3957
 4212SOL    HW224096   3.588   2.448   8.419 -1.8200  1.0829 -1.5387
 4213SOL     OW24097   0.968   3.306  15.852 -0.3549 -0.0799 -0.4747
 4213SOL    HW124098   0.946   3.222  15.811  1.0201 -1.1001  0.8976
 4213SOL    HW224099   1.042   3.292  15.910  0.8403 -0.9595 -2.2138
 4214SOL     OW24100   3.618   3.875  15.630  0.3524  0.3940  0.3608
 4214SOL    HW124101   3.534   3.830  15.624  0.7723 -0.2582 -0.6538
 4214SOL    HW224102   3.671   3.818  15.574 -0.7862  2.4175 -2.8082
 4215SOL     OW24103   2.836   3.938   8.125  0.3827  0.6010 -0.2731
 4215SOL    HW124104   2.774   3.937   8.198 -0.8921  1.1522 -1.3549
 4215SOL    HW224105   2.781   3.925   8.048 -0.4652 -0.1664  0.4636
 4216SOL     OW24106   1.207   0.269   3.639  0.2163 -0.2668  0.2778
 4216SOL    HW124107   1.201   0.300   3.548  2.8891  1.5554  0.7058
 4216SOL    HW224108   1.115   0.261   3.662  0.3250 -1.8327  0.1954
 4217SOL     OW24109   4.512   3.779   2.191 -0.2339  0.0828  0.0439
 4217SOL    HW124110   4.426   3.753   2.225  0.3211 -1.1962  0.4648
 4217SOL    HW224111   4.558   3.697   2.210 -0.7418 -1.0827 -3.6462
 4218SOL     OW24112   2.007   2.070  14.165  0.5510  0.3180  0.0188
 4218SOL    HW124113   1.993   1.984  14.206  0.8449 -1.6087 -3.9670
 4218SOL    HW224114   1.928   2.121  14.185  0.6485  0.0846  1.0292
 4219SOL     OW24115   3.406   3.213   5.779 -0.6140 -0.1044 -0.3203
 4219SOL    HW124116   3.361   3.194   5.861 -1.0098 -2.5977 -1.1236
 4219SOL    HW224117   3.436   3.128   5.746 -0.5678  0.3897 -1.5441
 4220SOL     OW24118   2.904   3.924   7.750  0.2120  0.5903  0.2932
 4220SOL    HW124119   2.948   3.994   7.799  0.9341  0.7720 -0.6099
 4220SOL    HW224120   2.964   3.912   7.676  2.7480  0.4491  2.3573
 4221SOL     OW24121   0.718   2.856   6.483  0.6623  0.4475  0.0231
 4221SOL    HW124122   0.764   2.780   6.519  2.2728  1.7993  0.8053
 4221SOL    HW224123   0.782   2.918   6.516 -0.2666  0.8342  1.1194
 4222SOL     OW24124   1.544   3.431  17.641 -0.3356 -0.1198 -0.5910
 4222SOL    HW124125   1.546   3.354  17.584 -0.6121 -2.1426  2.1005
 4222SOL    HW224126   1.472   3.475  17.595 -0.2830  1.3338  0.7149
 4223SOL     OW24127   2.106   4.300  11.850  0.1117  0.0962  0.2671
 4223SOL    HW124128   2.011   4.304  11.863 -0.2460 -1.5172 -1.8821
 4223SOL    HW224129   2.105   4.273  11.758 -1.1408  1.7528 -0.2152
 4224SOL     OW24130   2.300   0.678   5.819 -0.0765 -0.2917 -0.1374
 4224SOL    HW124131   2.345   0.612   5.766  0.8801  0.4706 -0.2603
 4224SOL    HW224132   2.218   0.677   5.769 -0.1954 -2.0934  0.0976
 4225SOL     OW24133   1.757   1.343   3.235 -0.5569 -0.9926  0.4428
 4225SOL    HW124134   1.790   1.392   3.159  0.7563 -0.4710  1.3424
 4225SOL    HW224135   1.764   1.250   3.213 -0.5550 -1.1968  1.3179
 4226SOL     OW24136   1.670   1.489   4.850  0.0823 -0.0474  0.0080
 4226SOL    HW124137   1.594   1.432   4.863 -0.6234  1.1554  1.1267
 4226SOL    HW224138   1.674   1.497   4.755  0.0912  0.2413  0.0343
 4227SOL     OW24139   0.566   4.195   7.536 -0.3193 -0.2206  0.0125
 4227SOL    HW124140   0.623   4.260   7.578 -0.4836 -0.5778  0.7891
 4227SOL    HW224141   0.596   4.192   7.445  3.0696  0.6523  1.0788
 4228SOL     OW24142   3.473   3.983   5.660  0.0715 -0.2020  0.1644
 4228SOL    HW124143   3.459   4.075   5.684  1.4340 -0.0190  0.3059
 4228SOL    HW224144   3.413   3.934   5.716  1.0921 -1.8597 -0.1879
 4229SOL     OW24145   3.513   0.551  16.363 -0.1745 -0.0868 -0.5186
 4229SOL    HW124146   3.498   0.578  16.273  0.2881 -0.5675 -0.7460
 4229SOL    HW224147   3.487   0.459  16.358 -0.5827 -0.0659  1.0619
 4230SOL     OW24148   3.950   4.532   4.023  0.2990 -0.2078  0.2819
 4230SOL    HW124149   4.015   4.570   3.964  0.2490 -0.5747 -0.0104
 4230SOL    HW224150   4.004   4.490   4.090  1.1829 -1.6797 -1.3562
 4231SOL     OW24151   1.772   1.527  16.634 -0.9051 -0.1077 -0.0109
 4231SOL    HW124152   1.678   1.514  16.625 -0.9082  0.7936 -1.2202
 4231SOL    HW224153   1.787   1.564  16.721 -0.6520  0.4525 -0.2926
 4232SOL     OW24154   2.265   4.079   5.574 -0.3611  0.5559  0.1965
 4232SOL    HW124155   2.294   4.003   5.524 -3.1015 -0.5823  0.3452
 4232SOL    HW224156   2.212   4.117   5.504 -0.2795 -0.1543 -0.2519
 4233SOL     OW24157   1.052   1.203   8.504  0.1138  0.4490  0.4656
 4233SOL    HW124158   1.118   1.248   8.557  1.2499  1.6620 -1.9687
 4233SOL    HW224159   1.105   1.128   8.475 -0.6488  0.1019 -0.0156
 4234SOL     OW24160   0.230   1.269   3.182 -0.2599 -0.2932 -0.0801
 4234SOL    HW124161   0.322   1.270   3.208  0.4566 -0.4015 -2.6366
 4234SOL    HW224162   0.231   1.340   3.118 -0.8244  0.5939  0.8935
 4235SOL     OW24163   3.169   3.937  17.410  0.2129  0.0696 -0.1675
 4235SOL    HW124164   3.171   3.929  17.505  1.8512  2.8616  0.0616
 4235SOL    HW224165   3.212   3.855  17.384  1.2858  0.6183 -0.1319
 4236SOL     OW24166   4.690   1.242   8.538 -0.6124  0.0884  0.0820
 4236SOL    HW124167   4.666   1.152   8.559 -1.3070  0.2078 -0.2040
 4236SOL    HW224168   4.714   1.237   8.446  1.1797  0.6436  0.5174
 4237SOL     OW24169   2.583   2.744  10.666 -0.2502 -0.0816 -0.0714
 4237SOL    HW124170   2.522   2.688  10.618  0.1119 -2.3748  2.1320
 4237SOL    HW224171   2.612   2.793  10.589  0.7734  1.0707  1.0569
 4238SOL     OW24172   4.643   3.010  14.696  0.2126  0.0844 -0.4047
 4238SOL    HW124173   4.626   3.097  14.662 -1.0341  0.9755  2.4974
 4238SOL    HW224174   4.702   3.029  14.768 -1.1021 -0.8957  0.9314
 4239SOL     OW24175   3.186   0.718  15.926  0.1204 -0.6748  0.5290
 4239SOL    HW124176   3.247   0.679  15.989  0.2766  0.0534  0.8308
 4239SOL    HW224177   3.137   0.775  15.985 -2.8342 -0.2655 -2.3225
 4240SOL     OW24178   3.825   3.063   1.835 -0.4550  0.0813 -0.3849
 4240SOL    HW124179   3.805   2.978   1.875 -0.4075  0.4526  0.4417
 4240SOL    HW224180   3.785   3.118   1.903  1.5497 -0.8765  1.5736
 4241SOL     OW24181   1.796   4.247   8.172  0.4683  0.2970 -0.8249
 4241SOL    HW124182   1.732   4.198   8.223  1.6253 -0.7278 -0.3801
 4241SOL    HW224183   1.790   4.333   8.214 -2.2269  0.8329 -2.2669
 4242SOL     OW24184   2.130   3.037   1.928 -0.3731 -0.5382  0.2692
 4242SOL    HW124185   2.198   3.056   1.863  0.7888 -0.9024  1.3596
 4242SOL    HW224186   2.155   2.948   1.953  1.7930  0.2071  0.7602
 4243SOL     OW24187   4.624   1.215   8.885 -0.4319  0.4579 -0.3838
 4243SOL    HW124188   4.657   1.303   8.905  1.7228 -0.6988  1.1660
 4243SOL    HW224189   4.704   1.170   8.856 -0.2868  0.2302  0.3701
 4244SOL     OW24190   0.450   4.268   0.763  0.3836 -0.1548  0.2234
 4244SOL    HW124191   0.516   4.332   0.734  0.6602 -0.4984  0.0949
 4244SOL    HW224192   0.370   4.317   0.750  1.5503  1.4962 -0.7013
 4245SOL     OW24193   0.706   3.941  14.711  0.0829  0.0219 -0.2831
 4245SOL    HW124194   0.759   3.980  14.780 -1.3566  1.2389  0.1226
 4245SOL    HW224195   0.655   4.017  14.682 -0.1848  0.2357  0.7441
 4246SOL     OW24196   1.881   2.330   5.553  0.2110  0.3889 -0.5642
 4246SOL    HW124197   1.803   2.315   5.606  0.5819  2.9258  0.7215
 4246SOL    HW224198   1.866   2.417   5.515 -4.2952 -1.0959 -2.0746
 4247SOL     OW24199   0.313   3.744  14.158  0.0960  0.0938 -0.3034
 4247SOL    HW124200   0.279   3.712  14.242 -1.2972  0.9285 -0.5528
 4247SOL    HW224201   0.371   3.815  14.184 -0.7977  1.1965 -1.3119
 4248SOL     OW24202   2.708   0.358   8.674 -0.1363 -0.0305 -0.2363
 4248SOL    HW124203   2.695   0.418   8.601  4.2137  0.7049 -0.3965
 4248SOL    HW224204   2.615   0.352   8.697 -0.2378  1.4017 -0.3193
 4249SOL     OW24205   2.582   4.456   1.695  0.4895  0.6494  0.3317
 4249SOL    HW124206   2.543   4.389   1.640  1.9906 -1.0342  1.3015
 4249SOL    HW224207   2.622   4.501   1.621  1.2205 -1.1559 -0.3828
 4250SOL     OW24208   0.765   2.810   7.073 -0.2948  0.0143 -0.3339
 4250SOL    HW124209   0.707   2.799   7.149  0.8938  0.7243  0.6965
 4250SOL    HW224210   0.747   2.903   7.056 -1.6125 -0.2615 -0.4768
 4251SOL     OW24211   2.049   4.261   2.775  1.0862  0.0947 -0.1606
 4251SOL    HW124212   2.087   4.178   2.804  0.7412  0.6403  1.8392
 4251SOL    HW224213   1.985   4.275   2.845 -0.4920  3.7705 -2.2662
 4252SOL     OW24214   3.749   4.641   3.551  0.0597  0.1105  0.1546
 4252SOL    HW124215   3.818   4.592   3.597  0.9421  0.1138 -1.1764
 4252SOL    HW224216   3.700   4.564   3.522  0.1425  1.0475 -2.3845
 4253SOL     OW24217   3.204   2.302   6.281 -0.7177  0.2769 -0.2881
 4253SOL    HW124218   3.176   2.238   6.347 -0.8882  1.1190  0.4742
 4253SOL    HW224219   3.221   2.372   6.345 -2.1348 -0.7987  1.2681
 4254SOL     OW24220   0.516   2.845  10.546 -0.2269 -0.4644  0.1986
 4254SOL    HW124221   0.497   2.938  10.537  0.9954 -0.0611  1.7419
 4254SOL    HW224222   0.550   2.849  10.636 -0.1598  1.7062  0.0848
 4255SOL     OW24223   4.388   3.831   1.938  0.3752  0.2108 -0.1667
 4255SOL    HW124224   4.384   3.921   1.970  0.7348  0.2586 -0.2496
 4255SOL    HW224225   4.449   3.801   2.006 -0.0187  2.0293  0.9756
 4256SOL     OW24226   1.480   3.566   3.348 -0.2445 -0.0682  0.1094
 4256SOL    HW124227   1.488   3.659   3.371 -0.9803 -0.5569  2.3076
 4256SOL    HW224228   1.550   3.551   3.284  2.5831  1.7453  2.7997
 4257SOL     OW24229   3.139   1.721  11.154  0.1801  0.5667 -0.4354
 4257SOL    HW124230   3.218   1.713  11.208 -0.6191  1.1033  0.8206
 4257SOL    HW224231   3.171   1.793  11.101  2.1640  1.4174  1.9078
 4258SOL     OW24232   2.989   0.111  12.915 -0.3230 -0.5268  0.5692
 4258SOL    HW124233   2.913   0.145  12.962  0.3306  1.5053  0.1593
 4258SOL    HW224234   3.048   0.077  12.983 -0.2534  1.1429  1.3619
 4259SOL     OW24235   3.311   3.102   3.599 -0.2355  0.0727  0.2393
 4259SOL    HW124236   3.225   3.124   3.563 -0.7527 -0.5592  1.0759
 4259SOL    HW224237   3.301   3.006   3.604  0.0910 -0.0211 -1.1584
 4260SOL     OW24238   0.120   4.430  14.032 -0.1824 -0.2800  0.7042
 4260SOL    HW124239   0.139   4.346  13.990  0.1802 -0.2875  0.8858
 4260SOL    HW224240   0.079   4.405  14.115  2.7060  0.0666  2.2516
 4261SOL     OW24241   4.322   3.261   1.386 -0.0153  0.1778 -0.3641
 4261SOL    HW124242   4.227   3.258   1.381  0.0866 -3.2142 -0.7193
 4261SOL    HW224243   4.344   3.197   1.453  2.5625  0.4889 -0.8990
 4262SOL     OW24244   4.609   1.491  14.442 -0.3133 -0.7383  0.0619
 4262SOL    HW124245   4.617   1.421  14.377 -0.6643  3.0651 -4.1282
 4262SOL    HW224246   4.574   1.550  14.375 -0.9337 -1.0029  0.1531
 4263SOL     OW24247   3.749   3.052   4.150  0.1349 -0.2895  0.0949
 4263SOL    HW124248   3.738   3.134   4.101 -0.2182  0.9885  2.2847
 4263SOL    HW224249   3.668   3.009   4.125 -1.0066  0.1284  3.0982
 4264SOL     OW24250   1.072   1.118  13.847 -0.4114  0.3562 -0.1524
 4264SOL    HW124251   0.983   1.110  13.814  0.2501 -2.7013 -1.2824
 4264SOL    HW224252   1.062   1.056  13.919 -0.2948 -0.3849 -0.7701
 4265SOL     OW24253   2.197   0.307  17.357 -0.0914 -0.7631  0.1654
 4265SOL    HW124254   2.154   0.223  17.374  0.6018 -0.9355  1.0814
 4265SOL    HW224255   2.127   0.372  17.355  0.9962  0.4578  1.6548
 4266SOL     OW24256   1.280   3.316   0.463 -0.3023  0.0433 -0.3216
 4266SOL    HW124257   1.190   3.324   0.495  0.5551  1.2693  1.8008
 4266SOL    HW224258   1.324   3.265   0.532  0.1230 -0.4174 -0.9328
 4267SOL     OW24259   2.350   2.122   9.314  0.0423  0.0107  0.3207
 4267SOL    HW124260   2.390   2.162   9.392  0.2268  0.4383  0.0128
 4267SOL    HW224261   2.281   2.188   9.306 -0.2410 -0.5037 -1.4668
 4268SOL     OW24262   3.976   1.479   6.222  0.5312 -0.1299 -0.5154
 4268SOL    HW124263   3.963   1.389   6.194  0.6440  0.4090 -2.3068
 4268SOL    HW224264   3.895   1.519   6.189 -0.6812 -1.1361  1.2715
 4269SOL     OW24265   0.438   3.617   3.493  0.1565  0.4717  0.3498
 4269SOL    HW124266   0.375   3.607   3.565  0.7893  0.0129  0.8416
 4269SOL    HW224267   0.516   3.580   3.535 -0.6213 -0.9127  0.5727
 4270SOL     OW24268   1.087   4.096   9.518 -0.5108 -0.7553  0.3221
 4270SOL    HW124269   1.006   4.054   9.548 -0.0539 -1.2722  0.8446
 4270SOL    HW224270   1.122   4.122   9.604  2.4660  0.1344 -1.1744
 4271SOL     OW24271   2.762   1.589  16.937  0.4145 -0.6138  0.0409
 4271SOL    HW124272   2.803   1.509  16.905  0.0766 -0.4815 -0.7194
 4271SOL    HW224273   2.671   1.562  16.926 -0.6657  3.0020 -0.0082
 4272SOL     OW24274   3.458   4.164  16.267  0.0275 -0.2825 -0.6349
 4272SOL    HW124275   3.393   4.106  16.307 -1.5162  3.0515  1.7660
 4272SOL    HW224276   3.532   4.105  16.281 -1.0312 -2.4652 -4.4095
 4273SOL     OW24277   1.170   1.425   7.824  0.2040 -0.7696 -0.3683
 4273SOL    HW124278   1.241   1.376   7.782  0.3100 -1.2677  0.3885
 4273SOL    HW224279   1.178   1.385   7.910 -1.3029 -1.0022 -0.3493
 4274SOL     OW24280   3.523   0.478   7.971  0.0049  0.7079 -0.2744
 4274SOL    HW124281   3.460   0.411   7.999  0.9425  0.1673  0.5453
 4274SOL    HW224282   3.507   0.553   8.027 -0.4708 -0.1823  0.7734
 4275SOL     OW24283   4.037   0.444  14.741 -0.1024 -0.2338 -0.1507
 4275SOL    HW124284   4.121   0.474  14.706  1.2335 -2.0571  1.4783
 4275SOL    HW224285   4.033   0.496  14.821  0.6824 -0.8220  0.2693
 4276SOL     OW24286   1.693   2.606   6.377 -0.6195  0.5556 -0.4241
 4276SOL    HW124287   1.748   2.575   6.450 -1.9666  0.2788  0.4824
 4276SOL    HW224288   1.752   2.588   6.303  0.7452 -0.3185  0.8624
 4277SOL     OW24289   1.616   0.471   7.038  0.0555 -0.5185  0.2776
 4277SOL    HW124290   1.644   0.386   7.071  2.9103  0.2644 -0.1501
 4277SOL    HW224291   1.685   0.522   7.081  0.6891  0.4013 -1.8416
 4278SOL     OW24292   3.534   2.945   8.060  0.3778 -0.6321 -0.2866
 4278SOL    HW124293   3.537   3.038   8.038  1.9226 -0.7178 -0.4128
 4278SOL    HW224294   3.613   2.920   8.013 -0.5051 -0.3754 -1.9199
 4279SOL     OW24295   4.354   0.507   5.911  0.3081  0.2665  0.0055
 4279SOL    HW124296   4.272   0.461   5.893  0.8546 -0.8199  0.2740
 4279SOL    HW224297   4.333   0.597   5.885 -0.6137 -0.2111 -0.9079
 4280SOL     OW24298   3.069   2.011   8.754 -0.4235  0.1194 -0.3445
 4280SOL    HW124299   3.124   2.085   8.729 -1.3530  1.0393  0.3259
 4280SOL    HW224300   3.138   1.973   8.809 -1.4365  0.8269  1.4286
 4281SOL     OW24301   1.068   3.941   6.141  0.3335  0.3018 -0.2496
 4281SOL    HW124302   1.146   3.993   6.162  0.5184 -0.1816  0.2623
 4281SOL    HW224303   1.106   3.869   6.091  1.0243  1.5509 -1.5149
 4282SOL     OW24304   4.096   2.746   8.431  0.0292 -0.1106  0.3087
 4282SOL    HW124305   4.153   2.785   8.365 -3.2806  0.8964 -1.8878
 4282SOL    HW224306   4.021   2.804   8.445  2.4759  2.9989  0.4731
 4283SOL     OW24307   3.380   1.800   2.977  0.6527  0.0479  0.3909
 4283SOL    HW124308   3.387   1.745   3.055  0.9467 -0.3510  0.0876
 4283SOL    HW224309   3.319   1.748   2.924  2.0494 -0.4752 -0.7350
 4284SOL     OW24310   0.176   4.503  14.763  0.0514 -0.5358 -0.2369
 4284SOL    HW124311   0.238   4.513  14.691  0.3699 -0.2707  0.0748
 4284SOL    HW224312   0.096   4.542  14.729 -1.1310 -1.3373  1.6058
 4285SOL     OW24313   4.702   4.415  16.031  0.7715 -0.5597  0.1554
 4285SOL    HW124314   4.681   4.461  16.113 -2.6066 -0.5451 -0.7043
 4285SOL    HW224315   4.641   4.460  15.973  2.2792  0.2946 -0.7518
 4286SOL     OW24316   3.853   2.578   5.457  0.5069  0.3202  0.3634
 4286SOL    HW124317   3.880   2.509   5.517  0.0036  0.5453  0.8457
 4286SOL    HW224318   3.760   2.563   5.473  0.7253  0.8116  2.0103
 4287SOL     OW24319   3.783   0.500   2.699  1.1768 -0.0461 -0.4656
 4287SOL    HW124320   3.846   0.478   2.630  1.3623 -0.1611 -0.2595
 4287SOL    HW224321   3.829   0.570   2.746  1.5534 -0.7217  0.1740
 4288SOL     OW24322   0.698   0.607   9.874 -0.0610  0.5347 -0.1486
 4288SOL    HW124323   0.693   0.698   9.905  0.1486  0.2365  0.7716
 4288SOL    HW224324   0.606   0.591   9.853  0.3713 -1.3151 -0.6130
 4289SOL     OW24325   2.590   1.300  16.911 -0.2129  0.1687 -0.6239
 4289SOL    HW124326   2.627   1.218  16.944 -0.3506 -0.0369 -0.9882
 4289SOL    HW224327   2.546   1.336  16.988  1.2213 -0.6286  0.5881
 4290SOL     OW24328   2.723   4.306   0.734  0.0791  0.2404 -0.0997
 4290SOL    HW124329   2.674   4.311   0.816  0.3664 -1.4187  0.1603
 4290SOL    HW224330   2.681   4.381   0.691  0.6031 -0.7026 -2.2881
 4291SOL     OW24331   1.620   4.177   6.678 -0.2819  0.4652 -0.0216
 4291SOL    HW124332   1.647   4.124   6.754  1.2466  2.6358  0.9393
 4291SOL    HW224333   1.621   4.108   6.611  1.5699  0.8529 -0.4006
 4292SOL     OW24334   0.462   2.002  13.732  0.5332  0.0972  0.1713
 4292SOL    HW124335   0.483   2.033  13.820  1.0098  3.9252 -1.2863
 4292SOL    HW224336   0.376   1.966  13.751 -0.2152  1.4257 -0.7364
 4293SOL     OW24337   0.361   3.407  14.413 -0.2070 -0.3326 -0.1946
 4293SOL    HW124338   0.300   3.348  14.457 -0.0539 -1.4713 -1.5160
 4293SOL    HW224339   0.306   3.485  14.405  0.8207  0.5367  1.2835
 4294SOL     OW24340   1.890   3.076   0.369  0.6866 -0.3428  0.2298
 4294SOL    HW124341   1.934   3.160   0.357 -0.3403  0.2388  0.5161
 4294SOL    HW224342   1.813   3.108   0.322  0.0132 -1.5261  0.5303
 4295SOL     OW24343   1.372   2.961   1.972  0.4616 -0.6675 -0.0783
 4295SOL    HW124344   1.385   3.009   2.054 -1.2146  0.4423 -0.4562
 4295SOL    HW224345   1.458   2.979   1.935  1.2205  0.9062  2.5089
 4296SOL     OW24346   3.825   1.170   5.198 -0.3944 -0.7221 -0.3317
 4296SOL    HW124347   3.748   1.115   5.187 -0.1305 -0.4757 -3.1952
 4296SOL    HW224348   3.826   1.187   5.293  1.3830  0.4840 -0.5638
 4297SOL     OW24349   2.012   0.498   4.823  0.1905  0.5888  0.4462
 4297SOL    HW124350   1.976   0.473   4.738 -0.6111 -0.1173  0.9863
 4297SOL    HW224351   1.971   0.430   4.878  0.6441 -1.1872 -1.4079
 4298SOL     OW24352   1.761   1.097   3.672 -0.6883 -0.4547 -0.5034
 4298SOL    HW124353   1.672   1.062   3.668 -0.6309 -0.4761 -1.8412
 4298SOL    HW224354   1.769   1.091   3.767  0.9784 -0.9133 -0.6853
 4299SOL     OW24355   3.970   4.646   5.701 -0.0560 -0.6152  0.2263
 4299SOL    HW124356   3.981   4.661   5.795  0.1422 -3.8434  0.7263
 4299SOL    HW224357   3.888   4.694   5.685 -0.2705 -1.1528 -0.2677
 4300SOL     OW24358   1.460   3.190   2.772  0.6850 -0.4661 -0.0373
 4300SOL    HW124359   1.508   3.174   2.853  1.1450  3.1071  0.3661
 4300SOL    HW224360   1.380   3.142   2.794  0.1687  0.9763  1.2262
 4301SOL     OW24361   1.681   2.966   5.682  0.1297 -0.2191 -0.1591
 4301SOL    HW124362   1.636   2.937   5.761 -0.3819  0.5301 -0.1797
 4301SOL    HW224363   1.620   3.034   5.654 -1.3341 -1.4253  0.1462
 4302SOL     OW24364   1.408   1.407  11.624  0.2927 -0.2843 -0.1733
 4302SOL    HW124365   1.401   1.502  11.631 -0.8229 -0.3301 -0.7154
 4302SOL    HW224366   1.334   1.394  11.565 -0.1243 -3.2408  1.0205
 4303SOL     OW24367   3.312   1.732   8.073 -0.5793  0.4283 -0.0326
 4303SOL    HW124368   3.354   1.744   7.988  0.5802 -1.3383  0.3002
 4303SOL    HW224369   3.368   1.786   8.129 -2.2081  0.1437  1.8983
 4304SOL     OW24370   4.053   2.891   0.343  0.5975  0.0226  0.4133
 4304SOL    HW124371   3.988   2.885   0.412 -1.9582  1.0459 -1.8974
 4304SOL    HW224372   4.022   2.816   0.291 -0.2177 -0.8095  2.1084
 4305SOL     OW24373   0.266   0.129   5.519 -0.3442  0.3867  0.0470
 4305SOL    HW124374   0.344   0.165   5.476  1.0016 -0.4216  1.8031
 4305SOL    HW224375   0.291   0.039   5.541 -2.2759 -1.0704 -3.7329
 4306SOL     OW24376   0.842   1.410   0.763 -0.5908 -0.7861  0.4008
 4306SOL    HW124377   0.892   1.431   0.684 -0.2364 -1.3238  0.4857
 4306SOL    HW224378   0.869   1.322   0.789 -2.0871 -1.2227  0.5014
 4307SOL     OW24379   3.956   3.686   2.189  0.2906  0.3526 -0.6613
 4307SOL    HW124380   4.008   3.742   2.132  1.1746  0.7866  0.5753
 4307SOL    HW224381   4.027   3.664   2.249 -1.7823 -1.6296  1.0597
 4308SOL     OW24382   1.973   0.068   3.840  0.1524  0.2437  0.0624
 4308SOL    HW124383   1.971   0.154   3.800 -0.7013 -0.3434 -1.1386
 4308SOL    HW224384   1.976   0.088   3.934 -0.2570 -1.7966  0.5073
 4309SOL     OW24385   2.947   3.048  13.466  0.3091  0.4520  0.2627
 4309SOL    HW124386   3.041   3.028  13.468  0.7831  2.6880  0.1449
 4309SOL    HW224387   2.925   3.095  13.547 -1.2192 -0.3429  0.3011
 4310SOL     OW24388   0.480   0.263   4.215 -0.1954  0.2889  0.0955
 4310SOL    HW124389   0.407   0.202   4.217  1.3182 -1.6159 -3.1418
 4310SOL    HW224390   0.554   0.203   4.214 -0.9450 -0.6369  0.5111
 4311SOL     OW24391   3.854   1.161  11.382 -0.0929 -0.2275  0.0837
 4311SOL    HW124392   3.878   1.078  11.423  0.7633 -0.5383 -1.0669
 4311SOL    HW224393   3.900   1.229  11.432 -0.5637  0.3283 -0.2391
 4312SOL     OW24394   3.864   4.286  11.487 -0.4048 -0.3217  0.2449
 4312SOL    HW124395   3.945   4.261  11.442  0.4072 -0.5446  1.8537
 4312SOL    HW224396   3.810   4.216  11.453 -1.3132  0.2707  0.4725
 4313SOL     OW24397   1.463   2.432   1.867 -0.3122  0.2871 -0.1205
 4313SOL    HW124398   1.538   2.467   1.915  0.3515 -1.2386 -0.0613
 4313SOL    HW224399   1.409   2.503   1.832 -2.1230 -0.0469  1.9738
 4314SOL     OW24400   4.383   0.867   9.059 -0.4775 -0.0189  0.1996
 4314SOL    HW124401   4.344   0.883   8.973  0.1342  0.2989 -0.0210
 4314SOL    HW224402   4.393   0.957   9.091  0.9077 -0.6286  1.4809
 4315SOL     OW24403   2.594   0.094  10.943 -0.1953 -0.2027 -0.1806
 4315SOL    HW124404   2.503   0.121  10.932 -0.0335  0.3355 -0.1556
 4315SOL    HW224405   2.643   0.163  10.900 -0.1748 -0.8671 -1.2358
 4316SOL     OW24406   3.313   0.248   3.185 -0.8228 -0.3166  0.3301
 4316SOL    HW124407   3.232   0.233   3.233 -0.6026 -1.2523  0.4062
 4316SOL    HW224408   3.382   0.191   3.221  0.7053  1.2414 -0.0983
 4317SOL     OW24409   0.959   1.962   6.276 -0.4976 -0.5648  0.7799
 4317SOL    HW124410   1.053   1.973   6.265 -0.6321 -0.7035 -0.4592
 4317SOL    HW224411   0.936   1.907   6.202 -1.5156  0.6349  0.2029
 4318SOL     OW24412   2.278   0.460   7.752  0.3293 -0.0548 -0.1507
 4318SOL    HW124413   2.253   0.375   7.715  0.3429  0.0411 -0.3782
 4318SOL    HW224414   2.245   0.520   7.686  0.8633  1.3041  0.8170
 4319SOL     OW24415   3.770   1.100   2.964 -0.1232 -0.7309  0.6221
 4319SOL    HW124416   3.827   1.054   2.901  0.8592  1.3783 -0.0196
 4319SOL    HW224417   3.805   1.189   2.955 -1.1194 -0.4337 -0.2859
 4320SOL     OW24418   3.982   1.858   2.646  0.0109 -0.3604  0.1688
 4320SOL    HW124419   3.953   1.801   2.574  1.1748 -2.9170  1.7173
 4320SOL    HW224420   4.035   1.921   2.598 -0.7295  0.0138 -0.1634
 4321SOL     OW24421   2.032   0.962   7.280  0.6462  0.0413  0.2867
 4321SOL    HW124422   2.004   0.972   7.189 -1.8841  1.7045  1.2348
 4321SOL    HW224423   1.952   0.931   7.323  0.0368  1.6619  0.3448
 4322SOL     OW24424   0.573   0.504  15.962 -0.3253  0.4033  0.1439
 4322SOL    HW124425   0.629   0.579  15.978 -1.2126  1.2091 -0.5431
 4322SOL    HW224426   0.536   0.523  15.876 -0.2380  1.2666  0.2975
 4323SOL     OW24427   4.091   3.444   5.836  0.3534 -0.0649 -0.2192
 4323SOL    HW124428   4.161   3.507   5.854  1.3513 -0.4846 -2.5084
 4323SOL    HW224429   4.081   3.444   5.740  0.5142 -3.2662 -0.2446
 4324SOL     OW24430   0.463   3.715  16.975  0.3064 -0.2249  0.2280
 4324SOL    HW124431   0.405   3.789  16.958  0.9181  0.7816  2.5374
 4324SOL    HW224432   0.397   3.656  17.013  2.2213 -0.7832  2.6406
 4325SOL     OW24433   1.761   2.452   9.296 -0.3492  0.4707  0.2440
 4325SOL    HW124434   1.801   2.398   9.228 -0.6522  1.4854 -0.7563
 4325SOL    HW224435   1.736   2.531   9.248 -0.8044 -0.4890 -1.1140
 4326SOL     OW24436   4.171   1.101   7.843  0.7426  0.3721  0.0133
 4326SOL    HW124437   4.223   1.175   7.811 -1.1552  1.0190 -1.5874
 4326SOL    HW224438   4.085   1.139   7.860 -0.4870 -1.9525 -1.0705
 4327SOL     OW24439   4.131   3.637   6.105  0.2019  0.3074  0.8608
 4327SOL    HW124440   4.091   3.550   6.114 -0.3554  0.4476 -0.3056
 4327SOL    HW224441   4.200   3.613   6.043  0.9801  0.6454  1.5903
 4328SOL     OW24442   0.248   0.754  17.013  0.1293  0.2454  0.3028
 4328SOL    HW124443   0.212   0.704  17.087  1.9582 -2.9212 -0.8988
 4328SOL    HW224444   0.339   0.763  17.042  0.5075  2.5162 -1.6338
 4329SOL     OW24445   0.485   1.876   2.946 -0.3452 -0.3273  0.0912
 4329SOL    HW124446   0.516   1.918   3.026 -0.3214 -3.1515  1.5932
 4329SOL    HW224447   0.505   1.789   2.981 -0.5855 -0.3600  0.1494
 4330SOL     OW24448   0.734   3.806   7.153  0.6419 -0.1387  0.2126
 4330SOL    HW124449   0.722   3.895   7.118  1.2048 -0.4693 -0.8337
 4330SOL    HW224450   0.682   3.818   7.232 -0.9042  0.6438 -0.9180
 4331SOL     OW24451   2.060   0.085  13.420 -0.6851 -0.2387 -0.0084
 4331SOL    HW124452   2.081   0.033  13.343 -0.9996 -2.0875  1.1466
 4331SOL    HW224453   2.097   0.165  13.383 -2.7255  1.0421  0.7661
 4332SOL     OW24454   2.753   0.478   7.348  0.1547 -0.0403 -0.1483
 4332SOL    HW124455   2.800   0.557   7.322 -3.3715  1.5299 -1.7620
 4332SOL    HW224456   2.814   0.416   7.308 -1.3019 -0.9579 -0.9556
 4333SOL     OW24457   2.706   4.596   3.919  0.5109  0.1459 -0.4785
 4333SOL    HW124458   2.797   4.572   3.902  0.3775 -0.8583  0.1707
 4333SOL    HW224459   2.713   4.688   3.942  1.2087 -0.2424  0.8479
 4334SOL     OW24460   1.511   1.873   5.789  0.2273 -0.0881 -0.5261
 4334SOL    HW124461   1.507   1.879   5.694 -1.7134  0.7959 -0.3983
 4334SOL    HW224462   1.587   1.927   5.809  0.1278 -0.0979 -0.1264
 4335SOL     OW24463   2.145   0.070   2.334 -0.4478 -0.0664 -0.2303
 4335SOL    HW124464   2.210   0.128   2.374 -1.9184  2.6966 -1.8910
 4335SOL    HW224465   2.151   4.716   2.389 -0.3903 -0.0681 -0.2392
 4336SOL     OW24466   1.561   1.357  16.276 -0.1147 -0.9374 -0.0720
 4336SOL    HW124467   1.558   1.452  16.287  0.8878 -0.7039 -1.8367
 4336SOL    HW224468   1.476   1.335  16.315 -1.3969  2.4434 -0.9536
 4337SOL     OW24469   4.662   0.005   8.787 -0.0946 -0.0780  0.7038
 4337SOL    HW124470   4.648   0.084   8.735 -0.8838 -1.3165 -0.9863
 4337SOL    HW224471   4.706   4.666   8.730  0.4739 -0.3401  1.4322
 4338SOL     OW24472   3.153   3.151   9.350  0.7042  0.1739  0.6442
 4338SOL    HW124473   3.076   3.125   9.401  1.2397 -0.3963  1.1743
 4338SOL    HW224474   3.162   3.242   9.378  1.5049  0.4594 -0.5387
 4339SOL     OW24475   1.922   2.338  14.328  0.0136  0.9232  0.2389
 4339SOL    HW124476   1.882   2.298  14.405  1.1910  1.8992  1.3567
 4339SOL    HW224477   1.984   2.398  14.370  2.5833 -2.1914  0.9326
 4340SOL     OW24478   2.576   3.226   6.819  0.6462 -0.2602 -0.2008
 4340SOL    HW124479   2.547   3.260   6.734  1.0137  1.7493  0.4596
 4340SOL    HW224480   2.608   3.312   6.846  0.5339 -0.2566 -0.0800
 4341SOL     OW24481   1.543   4.319  14.721 -0.2681  0.3624 -0.6554
 4341SOL    HW124482   1.493   4.307  14.640  0.4459  1.8597 -1.3279
 4341SOL    HW224483   1.476   4.321  14.789  2.8210  0.3064  2.3562
 4342SOL     OW24484   0.916   1.343   2.447  0.5637 -0.2215 -0.0363
 4342SOL    HW124485   0.998   1.337   2.496 -0.4649 -1.3226  1.5578
 4342SOL    HW224486   0.929   1.429   2.408 -0.4079  0.2827  0.7359
 4343SOL     OW24487   1.911   2.914   9.910  0.1102  0.3509 -0.2725
 4343SOL    HW124488   1.959   2.961   9.842  1.1116 -0.3593 -0.0453
 4343SOL    HW224489   1.830   2.909   9.859  0.4484 -1.3082 -0.6479
 4344SOL     OW24490   1.296   0.391   0.580 -0.1022 -0.3570 -0.1358
 4344SOL    HW124491   1.215   0.432   0.610 -0.5432 -0.2655 -1.4474
 4344SOL    HW224492   1.285   0.309   0.629 -1.2595  1.0089  1.8998
 4345SOL     OW24493   2.768   0.847   0.110 -0.2568  0.6247 -0.8025
 4345SOL    HW124494   2.803   0.758   0.109 -0.4070  0.5583  0.0152
 4345SOL    HW224495   2.682   0.845   0.151  1.3721 -0.6278  2.5301
 4346SOL     OW24496   0.429   4.285   9.094  0.2943 -0.7817  0.0793
 4346SOL    HW124497   0.399   4.371   9.065 -1.7063 -1.2903  0.6666
 4346SOL    HW224498   0.429   4.286   9.190  0.5847 -2.6642  0.0991
 4347SOL     OW24499   2.487   0.138   0.717 -0.3859 -0.0183  0.2285
 4347SOL    HW124500   2.473   0.134   0.623  1.4816 -1.4848  0.0156
 4347SOL    HW224501   2.580   0.118   0.711 -0.6957 -0.1078 -3.8788
 4348SOL     OW24502   0.848   2.579   3.996  0.1870 -0.6360  0.4743
 4348SOL    HW124503   0.886   2.543   3.916 -0.9295 -0.7967  0.0149
 4348SOL    HW224504   0.867   2.512   4.061  1.0743  1.6215  2.5416
 4349SOL     OW24505   1.147   2.050   4.777  0.1154  0.0977  0.3338
 4349SOL    HW124506   1.084   2.012   4.838  0.4521 -0.0070  0.6166
 4349SOL    HW224507   1.226   2.008   4.813 -0.4734 -2.4548 -1.2948
 4350SOL     OW24508   4.117   2.246   6.128 -0.5876 -0.5459  0.2601
 4350SOL    HW124509   4.176   2.321   6.119  0.3488 -1.4304 -1.0966
 4350SOL    HW224510   4.155   2.221   6.212 -0.9471  0.0730  0.6032
 4351SOL     OW24511   4.062   2.593   2.567 -0.6015 -0.5237  0.3319
 4351SOL    HW124512   4.144   2.612   2.613  1.1278 -1.0831 -2.5361
 4351SOL    HW224513   4.004   2.557   2.634 -1.2498  0.6795  0.4283
 4352SOL     OW24514   4.378   3.623   7.012 -0.4103 -0.1893 -0.0562
 4352SOL    HW124515   4.386   3.551   7.074 -3.3667  0.3238  0.9023
 4352SOL    HW224516   4.424   3.687   7.066  2.6417 -2.5183  0.0570
 4353SOL     OW24517   3.658   1.013  16.521  0.2256  0.5973  0.3527
 4353SOL    HW124518   3.657   0.949  16.451 -0.1501  0.3555  0.5767
 4353SOL    HW224519   3.598   0.966  16.580 -2.6906  1.7739 -1.6827
 4354SOL     OW24520   0.640   0.097  14.938 -0.2628  0.1948 -0.7155
 4354SOL    HW124521   0.683   0.165  14.990 -0.6786 -1.0171  1.1917
 4354SOL    HW224522   0.550   0.116  14.962  0.5407  1.1584  1.5346
 4355SOL     OW24523   2.730   4.286  16.806 -0.1966 -0.6448  0.0622
 4355SOL    HW124524   2.682   4.361  16.772 -1.6336 -0.8667  1.6064
 4355SOL    HW224525   2.766   4.242  16.729  0.2848 -1.1578  0.5740
 4356SOL     OW24526   1.443   2.666   8.176  0.0592 -0.1724  0.5391
 4356SOL    HW124527   1.410   2.676   8.265 -0.0701 -1.6841  0.6628
 4356SOL    HW224528   1.512   2.600   8.185  0.2727  0.0377  0.4649
 4357SOL     OW24529   0.179   3.991   5.383 -0.0583  0.9131  0.1450
 4357SOL    HW124530   0.189   3.904   5.422  0.1784  0.7918 -0.1835
 4357SOL    HW224531   0.156   4.042   5.460 -0.1221  0.4522  0.4325
 4358SOL     OW24532   0.449   0.197   0.331 -0.3014 -0.5595  0.1096
 4358SOL    HW124533   0.437   0.104   0.349 -0.9151 -0.4479  0.2794
 4358SOL    HW224534   0.358   0.223   0.346 -0.3562  0.9200 -2.8437
 4359SOL     OW24535   1.816   3.237   3.071 -0.1448  0.0519 -0.2638
 4359SOL    HW124536   1.858   3.311   3.028 -0.7434 -0.3987 -1.6042
 4359SOL    HW224537   1.893   3.203   3.118 -0.3620  0.6711  0.5555
 4360SOL     OW24538   2.089   4.524  11.568 -0.7577 -0.2376 -0.4629
 4360SOL    HW124539   2.087   4.546  11.661  0.6563 -3.0298  0.2399
 4360SOL    HW224540   2.132   4.438  11.564  2.6038  1.4727 -1.0580
 4361SOL     OW24541   0.949   3.132  15.090  0.1765 -0.2062 -0.8603
 4361SOL    HW124542   0.907   3.084  15.019 -1.7281  1.3508 -0.7879
 4361SOL    HW224543   0.907   3.218  15.080 -0.1102 -0.2392  0.0659
 4362SOL     OW24544   0.343   3.545   3.792 -0.4056 -0.4170  0.6962
 4362SOL    HW124545   0.360   3.585   3.878  0.7123 -0.1555  0.3585
 4362SOL    HW224546   0.389   3.463   3.807  0.7734 -0.1893 -1.6705
 4363SOL     OW24547   3.726   4.252   6.973  0.7741 -0.1777 -0.0012
 4363SOL    HW124548   3.701   4.310   7.045 -1.4221  1.0075 -1.7266
 4363SOL    HW224549   3.674   4.171   6.980  0.7236 -0.2822 -1.4811
 4364SOL     OW24550   0.334   2.308   6.683 -0.3529 -0.5132  0.3434
 4364SOL    HW124551   0.404   2.359   6.725 -0.3334 -0.6870  0.5210
 4364SOL    HW224552   0.376   2.306   6.596  1.3185 -0.2096  1.1290
 4365SOL     OW24553   2.946   3.667   7.007  0.1162 -0.1092 -0.3097
 4365SOL    HW124554   2.932   3.582   6.965 -3.9399  0.2512  0.3588
 4365SOL    HW224555   2.930   3.732   6.938 -0.1581 -0.6192 -0.7274
 4366SOL     OW24556   0.775   2.311   4.406  0.0425 -0.2767 -0.0775
 4366SOL    HW124557   0.782   2.322   4.312  0.0888 -0.1034 -0.0539
 4366SOL    HW224558   0.843   2.245   4.417  0.4469 -0.2043 -2.2490
 4367SOL     OW24559   3.334   1.022   4.344  0.8755  0.2982  0.3705
 4367SOL    HW124560   3.364   1.025   4.253  0.8597  0.6029  0.3743
 4367SOL    HW224561   3.241   1.043   4.333  1.0674  1.3029  0.7162
 4368SOL     OW24562   0.089   1.920   7.794 -0.2836 -0.0883  0.8423
 4368SOL    HW124563   4.719   1.904   7.798 -0.5905  1.8642  1.1011
 4368SOL    HW224564   0.088   2.003   7.840  1.2213  0.2789  0.1890
 4369SOL     OW24565   3.477   3.842   4.009 -0.0400 -0.0588 -0.6720
 4369SOL    HW124566   3.549   3.903   3.999  1.5872 -1.5447  2.0101
 4369SOL    HW224567   3.495   3.817   4.099 -1.0538  1.7803  0.0341
 4370SOL     OW24568   2.814   0.711  12.804  0.1276 -0.0623  0.7651
 4370SOL    HW124569   2.724   0.682  12.791  0.3849 -0.1371 -0.9802
 4370SOL    HW224570   2.801   0.782  12.867 -1.9538  0.0073  0.2603
 4371SOL     OW24571   2.960   2.995   1.073  0.3809  0.1115 -0.9046
 4371SOL    HW124572   3.009   3.071   1.042 -0.0631  0.1414 -1.5406
 4371SOL    HW224573   2.950   2.941   0.995  0.5240 -0.1984 -0.7077
 4372SOL     OW24574   4.449   1.069   6.550 -0.3087 -0.5632 -0.0988
 4372SOL    HW124575   4.403   1.107   6.625  3.5162 -0.3595  2.1369
 4372SOL    HW224576   4.408   1.125   6.484  0.5010  0.8345  0.5718
 4373SOL     OW24577   0.446   1.750   7.247  0.4980 -0.2796 -0.1920
 4373SOL    HW124578   0.437   1.677   7.185  1.2786 -0.5700  0.0377
 4373SOL    HW224579   0.527   1.785   7.211  0.4536  0.4925  0.4663
 4374SOL     OW24580   0.680   0.944   7.026  0.0248  0.1456 -0.5302
 4374SOL    HW124581   0.771   0.959   7.049 -0.2499  0.0183  0.6345
 4374SOL    HW224582   0.636   1.019   7.067 -0.8401  0.1144 -1.3735
 4375SOL     OW24583   3.581   1.833   8.632  0.0745  0.1520 -0.0890
 4375SOL    HW124584   3.653   1.896   8.632  1.2876 -1.2377  2.0067
 4375SOL    HW224585   3.618   1.751   8.600 -0.4238  0.2370 -0.8666
 4376SOL     OW24586   2.211   1.469   5.320  0.0082  0.0817 -0.2123
 4376SOL    HW124587   2.144   1.420   5.368 -1.1410  0.3114 -1.5824
 4376SOL    HW224588   2.174   1.556   5.331 -1.4677 -0.6398  0.5955
 4377SOL     OW24589   2.581   0.819   8.256  0.2014  0.4066  0.5853
 4377SOL    HW124590   2.595   0.900   8.208  0.7083 -0.2748 -0.4169
 4377SOL    HW224591   2.646   0.832   8.326 -0.6435 -0.6321  1.5731
 4378SOL     OW24592   4.151   2.695  17.014  0.2536 -0.1511 -0.0213
 4378SOL    HW124593   4.159   2.784  16.981  0.3801 -0.1582 -0.0095
 4378SOL    HW224594   4.224   2.649  16.973 -0.9279 -0.3142 -1.9263
 4379SOL     OW24595   0.163   0.776   2.360  0.3452 -0.0905  0.3124
 4379SOL    HW124596   0.073   0.806   2.375 -0.4568 -1.2312 -2.1990
 4379SOL    HW224597   0.188   0.820   2.279  2.6980 -1.0210  0.5321
 4380SOL     OW24598   0.625   4.348   4.716  0.3522 -0.5625 -0.4375
 4380SOL    HW124599   0.672   4.425   4.684 -0.8886  0.5607  0.4678
 4380SOL    HW224600   0.683   4.331   4.789 -0.8306  1.3876  0.9695
 4381SOL     OW24601   0.107   1.987   3.934 -0.0923 -0.3512  0.0399
 4381SOL    HW124602   0.146   1.900   3.922 -2.0464 -1.5528  2.4338
 4381SOL    HW224603   0.017   1.966   3.909  0.9835 -2.4000 -2.1288
 4382SOL     OW24604   1.964   0.112  17.429 -0.1992 -0.0818 -0.9729
 4382SOL    HW124605   1.919   0.123  17.345 -0.3818  1.3091 -0.6955
 4382SOL    HW224606   1.895   0.085  17.489 -1.0251  0.9037 -1.4862
 4383SOL     OW24607   1.389   1.138   2.085 -0.0119  0.1982  0.8150
 4383SOL    HW124608   1.338   1.220   2.083 -0.0464  0.1516 -0.8013
 4383SOL    HW224609   1.441   1.155   2.163  0.0789  2.4539  0.2564
 4384SOL     OW24610   4.717   0.210   8.518 -0.3353  0.3518  0.7000
 4384SOL    HW124611   4.654   0.153   8.474 -0.0885  0.1167  0.6527
 4384SOL    HW224612   0.052   0.229   8.445 -0.0515 -1.1243  0.5443
 4385SOL     OW24613   0.527   3.961  10.767 -0.6045 -0.2261 -0.0288
 4385SOL    HW124614   0.498   4.039  10.814 -1.2035 -0.6632  0.3309
 4385SOL    HW224615   0.446   3.911  10.764 -0.3320 -0.7725  1.8424
 4386SOL     OW24616   0.424   3.695   5.207 -0.8212 -0.4584 -0.0263
 4386SOL    HW124617   0.445   3.785   5.233 -0.4068 -1.2428  2.4092
 4386SOL    HW224618   0.474   3.676   5.127  1.5204  1.7167  0.8776
 4387SOL     OW24619   4.157   0.902  12.360  0.2743 -0.0736  0.1775
 4387SOL    HW124620   4.066   0.873  12.365  0.3849 -0.4609 -0.0773
 4387SOL    HW224621   4.201   0.821  12.335 -2.6404 -1.3556 -0.8534
 4388SOL     OW24622   3.695   1.955   6.789  0.4092  0.3158 -0.2438
 4388SOL    HW124623   3.746   1.875   6.800 -1.3410 -0.3679  2.6374
 4388SOL    HW224624   3.657   1.926   6.706 -2.1087  1.4882  0.4900
 4389SOL     OW24625   0.489   0.105   4.595  0.1775 -0.1712 -0.1900
 4389SOL    HW124626   0.401   0.134   4.570 -0.4516 -0.9760  1.1442
 4389SOL    HW224627   0.472   0.101   4.689  0.4903 -1.4328 -0.1884
 4390SOL     OW24628   2.094   3.863   6.376  0.1565 -0.3869  0.6224
 4390SOL    HW124629   2.054   3.901   6.454 -2.5626 -0.6328 -0.6532
 4390SOL    HW224630   2.052   3.777   6.378  1.7321 -1.2078 -0.6683
 4391SOL     OW24631   3.438   1.515   6.721 -0.8171 -0.4497 -0.4657
 4391SOL    HW124632   3.525   1.526   6.760 -1.2694 -1.7758  0.9666
 4391SOL    HW224633   3.385   1.471   6.787 -0.8083  1.6743  0.9740
 4392SOL     OW24634   1.468   3.998   7.203  0.3749 -0.1657  0.0218
 4392SOL    HW124635   1.556   4.024   7.228 -0.5809  1.6015  1.5506
 4392SOL    HW224636   1.419   4.080   7.195 -1.0658 -0.8398  1.9617
 4393SOL     OW24637   3.017   2.884   2.715 -0.5786  0.2861 -0.0813
 4393SOL    HW124638   3.094   2.883   2.659 -0.0120  3.2190  0.6765
 4393SOL    HW224639   3.014   2.791   2.740  2.6159 -0.0139 -0.7682
 4394SOL     OW24640   3.070   0.121   5.804  0.7592 -0.0558 -0.2230
 4394SOL    HW124641   3.120   0.085   5.878  1.0319 -1.8104 -1.2706
 4394SOL    HW224642   3.022   0.200   5.829 -0.3163 -1.3482  1.8743
 4395SOL     OW24643   1.498   3.719   2.494  0.6102 -0.2294  0.2612
 4395SOL    HW124644   1.475   3.647   2.553  0.4573 -0.2860  0.1319
 4395SOL    HW224645   1.517   3.679   2.409 -0.4969  0.7590 -0.4550
 4396SOL     OW24646   0.976   2.605   4.380  0.2888  0.4131  0.1785
 4396SOL    HW124647   0.881   2.595   4.385  0.3898 -0.5328  0.1199
 4396SOL    HW224648   0.989   2.697   4.403  1.0619  0.1374  0.8446
 4397SOL     OW24649   1.497   2.390  15.474  0.4965  0.8310  0.2089
 4397SOL    HW124650   1.486   2.354  15.386 -0.0837 -0.4695  0.8136
 4397SOL    HW224651   1.417   2.355  15.513  0.2019  0.7978 -0.4326
 4398SOL     OW24652   1.082   1.632   1.998 -0.2993  0.4933  0.0284
 4398SOL    HW124653   1.149   1.626   1.931  0.3703 -2.0750  0.9455
 4398SOL    HW224654   1.007   1.656   1.943 -1.8600 -0.1879  1.8554
 4399SOL     OW24655   4.724   3.014   8.644 -0.6360  0.3357 -0.5873
 4399SOL    HW124656   4.703   2.945   8.581  1.5478 -1.8504  1.0805
 4399SOL    HW224657   4.648   3.018   8.702 -1.0781 -1.8400 -1.0093
 4400SOL     OW24658   2.328   3.056   1.751  0.2243  0.0464  0.2037
 4400SOL    HW124659   2.410   3.010   1.769 -1.2832 -2.4287  0.8507
 4400SOL    HW224660   2.321   3.025   1.660  2.6689  2.3987 -0.7845
 4401SOL     OW24661   3.765   3.581   3.523  0.0729  0.0573 -0.1304
 4401SOL    HW124662   3.781   3.496   3.481  0.6735  1.1951 -2.2189
 4401SOL    HW224663   3.804   3.647   3.465  0.1306 -0.2433 -0.4359
 4402SOL     OW24664   4.634   0.504  14.628  0.2255  0.6745  0.2169
 4402SOL    HW124665   4.682   0.583  14.605  1.2026  0.3858  1.2797
 4402SOL    HW224666   4.601   0.484  14.541 -4.1055  0.7445  1.8010
 4403SOL     OW24667   0.602   2.395   8.412  1.1465  0.4543 -0.3513
 4403SOL    HW124668   0.567   2.403   8.323  0.3819  1.0196  0.0037
 4403SOL    HW224669   0.601   2.300   8.424 -0.4234  0.5078 -0.0428
 4404SOL     OW24670   4.266   1.533  14.755 -0.1543  0.8735  0.4402
 4404SOL    HW124671   4.196   1.597  14.746  0.3993  1.4387  0.1509
 4404SOL    HW224672   4.327   1.582  14.700 -0.7710  1.8549  0.6291
 4405SOL     OW24673   4.215   2.047   2.197  0.1560  0.1965 -0.0229
 4405SOL    HW124674   4.201   2.128   2.247  2.6397  1.1526 -0.8755
 4405SOL    HW224675   4.306   2.057   2.168  0.3986 -0.6638  0.4459
 4406SOL     OW24676   1.851   3.211   5.915  0.0391 -0.7553 -0.4304
 4406SOL    HW124677   1.788   3.152   5.874  0.8677  0.0569 -2.8894
 4406SOL    HW224678   1.835   3.276   5.846  0.3623 -1.7465 -1.4457
 4407SOL     OW24679   4.648   4.121   8.736 -0.0118  0.2933  0.1148
 4407SOL    HW124680   0.015   4.128   8.708 -0.2674 -0.3078 -0.8588
 4407SOL    HW224681   4.611   4.155   8.655 -0.5827  0.5690  0.4959
 4408SOL     OW24682   2.739   0.598   6.280 -0.4650 -0.7765 -0.1880
 4408SOL    HW124683   2.705   0.592   6.191 -0.3736  2.5596 -0.4735
 4408SOL    HW224684   2.712   0.687   6.305  1.4240 -0.3017  0.1144
 4409SOL     OW24685   1.238   2.444  11.421  0.2097 -0.0363  0.5421
 4409SOL    HW124686   1.303   2.487  11.476  1.4213 -1.3870  0.1726
 4409SOL    HW224687   1.224   2.361  11.467  1.6301 -0.1385  0.8053
 4410SOL     OW24688   3.758   0.150   1.259  0.2910  0.0920  0.2124
 4410SOL    HW124689   3.782   0.139   1.167  2.1751 -0.2330  0.7429
 4410SOL    HW224690   3.819   0.088   1.300  0.5858 -0.4657 -1.0901
 4411SOL     OW24691   2.650   2.523   8.817 -0.5084  0.6808  0.5579
 4411SOL    HW124692   2.699   2.461   8.762 -2.1962 -1.1993  1.1963
 4411SOL    HW224693   2.723   2.582   8.836  1.0568 -0.2304 -2.5400
 4412SOL     OW24694   3.357   0.742  17.527  0.2139 -0.1753  0.1053
 4412SOL    HW124695   3.315   0.768  17.445 -0.4491  2.0958  1.1706
 4412SOL    HW224696   3.336   0.820  17.578 -2.2025  0.2092 -1.4770
 4413SOL     OW24697   1.828   4.144  17.384 -0.4385 -0.0280  0.4552
 4413SOL    HW124698   1.735   4.151  17.407 -0.7847 -0.3549 -0.8602
 4413SOL    HW224699   1.852   4.236  17.378  1.7936 -0.8336 -2.5648
 4414SOL     OW24700   1.764   1.033  14.595 -0.2294  0.1308 -0.3612
 4414SOL    HW124701   1.781   0.965  14.529  1.2360 -0.0583  0.1951
 4414SOL    HW224702   1.842   1.087  14.580  1.7641 -2.4454  0.6526
 4415SOL     OW24703   4.306   1.110  16.113 -0.0608 -0.0517  0.2468
 4415SOL    HW124704   4.335   1.038  16.169  0.4725 -1.0067 -1.2685
 4415SOL    HW224705   4.351   1.190  16.142 -0.6727 -0.1690  1.5285
 4416SOL     OW24706   1.340   2.040   9.718  0.6581 -0.1562 -0.5446
 4416SOL    HW124707   1.337   1.983   9.796 -0.4168  1.6363  0.7310
 4416SOL    HW224708   1.328   2.124   9.763  0.1443 -1.0716  1.0717
 4417SOL     OW24709   2.542   2.723   6.658 -0.7922  0.1457 -0.2060
 4417SOL    HW124710   2.481   2.676   6.714 -0.5739  2.4606  1.9750
 4417SOL    HW224711   2.576   2.792   6.715  0.5460 -0.5522 -0.1618
 4418SOL     OW24712   3.942   3.885   8.470  0.1703  0.2389 -0.5173
 4418SOL    HW124713   4.031   3.894   8.438 -0.4512 -1.4237 -2.6559
 4418SOL    HW224714   3.913   3.975   8.488  1.2001  0.5569 -0.4361
 4419SOL     OW24715   0.673   3.598   6.920  0.1274  0.4382 -0.8026
 4419SOL    HW124716   0.683   3.670   6.982 -0.0361 -0.6792  0.5144
 4419SOL    HW224717   0.586   3.618   6.885  0.1719  1.0138 -0.5898
 4420SOL     OW24718   2.572   1.049   2.602  0.3026  0.0751  0.1905
 4420SOL    HW124719   2.610   1.041   2.514 -1.2462 -0.2256 -0.4561
 4420SOL    HW224720   2.651   1.041   2.654 -0.4799  1.9948  1.6499
 4421SOL     OW24721   0.142   0.408   7.116 -0.1759 -0.5050  0.1396
 4421SOL    HW124722   0.080   0.446   7.178 -0.8860  0.3746 -1.1084
 4421SOL    HW224723   0.223   0.419   7.166  0.0648  0.0327 -0.3578
 4422SOL     OW24724   3.411   1.815   7.813 -0.5067 -0.0780 -0.0958
 4422SOL    HW124725   3.358   1.880   7.768  1.4421  1.5761 -0.0082
 4422SOL    HW224726   3.434   1.759   7.738  0.2044  1.7295 -1.2325
 4423SOL     OW24727   3.407   0.789   2.474 -0.4645  0.4300 -0.0633
 4423SOL    HW124728   3.368   0.703   2.457  0.6282  0.5476 -3.0677
 4423SOL    HW224729   3.400   0.817   2.383  1.1538  1.7715  0.2081
 4424SOL     OW24730   1.863   2.816   8.389  0.2529 -0.1707 -0.2287
 4424SOL    HW124731   1.890   2.728   8.363 -1.8443 -1.1213  0.8191
 4424SOL    HW224732   1.942   2.870   8.387 -0.5740  1.0094 -0.8815
 4425SOL     OW24733   3.464   1.004  11.382 -0.0780  0.2998  0.5107
 4425SOL    HW124734   3.533   0.996  11.315 -1.5348 -2.4002 -0.6727
 4425SOL    HW224735   3.509   0.993  11.465 -1.3936  1.3646  1.3515
 4426SOL     OW24736   1.508   1.203   2.336  0.6951 -0.1341 -0.0865
 4426SOL    HW124737   1.563   1.136   2.378 -0.8138 -1.3940 -0.1429
 4426SOL    HW224738   1.461   1.236   2.413  0.5131  0.7806 -0.5921
 4427SOL     OW24739   3.496   0.108   3.304  0.7246 -0.2761  0.6906
 4427SOL    HW124740   3.577   0.139   3.263  0.9174 -1.0355  0.4914
 4427SOL    HW224741   3.502   0.013   3.297  4.0039 -0.1200  1.4038
 4428SOL     OW24742   2.650   2.209   6.740  0.1450 -0.5064 -0.4950
 4428SOL    HW124743   2.701   2.260   6.678  0.4048 -0.8898 -0.6013
 4428SOL    HW224744   2.561   2.207   6.704  0.4003  2.0680 -1.2495
 4429SOL     OW24745   2.859   4.609   3.578  0.2124  0.3532  0.2468
 4429SOL    HW124746   2.772   4.623   3.616  1.7130  1.8913  3.1823
 4429SOL    HW224747   2.876   4.520   3.608  1.3973  0.1885 -0.9693
 4430SOL     OW24748   3.309   2.172   2.544  0.0132 -0.4876 -0.3424
 4430SOL    HW124749   3.355   2.098   2.504  0.2609 -1.2192  1.2875
 4430SOL    HW224750   3.360   2.239   2.499 -0.8283 -0.3817 -1.1633
 4431SOL     OW24751   0.799   0.592  12.357 -0.1966  0.0092 -0.2246
 4431SOL    HW124752   0.886   0.601  12.319  0.8713  1.8998  2.6875
 4431SOL    HW224753   0.813   0.514  12.410 -0.6522  1.9255  2.7212
 4432SOL     OW24754   1.504   1.568  17.242  0.1638  0.0039 -0.0789
 4432SOL    HW124755   1.515   1.641  17.182  0.4915  0.5014  0.5873
 4432SOL    HW224756   1.415   1.549  17.212 -0.2378  3.7702 -1.2404
 4433SOL     OW24757   4.375   2.352   3.017  0.0490  0.2073  0.0334
 4433SOL    HW124758   4.401   2.260   3.023 -2.5145 -0.4784  0.5384
 4433SOL    HW224759   4.459   2.398   3.005 -1.1835  2.5777  0.4585
 4434SOL     OW24760   3.099   0.737  12.831  0.1896 -0.2743 -0.5131
 4434SOL    HW124761   3.120   0.651  12.867 -1.0971 -0.9426 -1.3436
 4434SOL    HW224762   3.007   0.728  12.805  0.3489 -0.6721 -0.9530
 4435SOL     OW24763   4.428   4.373  12.377 -0.1672 -0.0949  0.1291
 4435SOL    HW124764   4.424   4.450  12.321 -2.2648  0.8624  1.5654
 4435SOL    HW224765   4.482   4.314  12.324 -1.6991 -0.6718 -0.8193
 4436SOL     OW24766   1.603   0.190   4.324 -0.3272 -0.2969  0.4478
 4436SOL    HW124767   1.641   0.150   4.246  0.0114 -1.9021  1.4476
 4436SOL    HW224768   1.627   0.132   4.396 -0.7856 -2.4533 -1.1469
 4437SOL     OW24769   3.896   4.481   7.695 -0.0592  0.5592 -0.4217
 4437SOL    HW124770   3.830   4.419   7.725  1.6484 -1.7199 -1.4345
 4437SOL    HW224771   3.855   4.506   7.612 -0.3380 -0.2325 -0.5193
 4438SOL     OW24772   2.827   2.283   2.597 -0.5735  0.0651  0.3971
 4438SOL    HW124773   2.919   2.301   2.578 -0.9804  0.2464 -1.4595
 4438SOL    HW224774   2.795   2.251   2.512  1.9115 -1.0129 -0.1381
 4439SOL     OW24775   2.793   0.160   2.511 -0.2409 -0.6708  0.3287
 4439SOL    HW124776   2.781   0.169   2.605 -0.7913 -2.1050  0.3992
 4439SOL    HW224777   2.727   0.091   2.495  0.4896 -1.2538 -0.1656
 4440SOL     OW24778   3.750   4.243   8.717  0.7277 -0.0083  0.2989
 4440SOL    HW124779   3.798   4.216   8.795  1.4458  2.9352  0.8830
 4440SOL    HW224780   3.698   4.163   8.704  1.9094 -0.9225  1.2518
 4441SOL     OW24781   3.417   2.393   2.430 -0.7243 -0.3656  0.2062
 4441SOL    HW124782   3.512   2.405   2.432 -0.8774  0.7850  0.7261
 4441SOL    HW224783   3.404   2.383   2.336  0.4831 -0.5408  0.0565
 4442SOL     OW24784   1.933   1.638   4.849 -0.4301  0.0978 -0.2576
 4442SOL    HW124785   1.999   1.612   4.784  0.4656  2.0908 -0.1264
 4442SOL    HW224786   1.892   1.553   4.865 -1.2593  0.8579  1.6523
 4443SOL     OW24787   0.783   1.876   2.961  0.0350  0.3196 -0.3182
 4443SOL    HW124788   0.771   1.813   2.890 -0.4467  0.3313 -0.2483
 4443SOL    HW224789   0.876   1.896   2.950 -0.2086  0.6121 -1.8779
 4444SOL     OW24790   4.204   3.804   2.681  0.5092 -0.0500  0.0804
 4444SOL    HW124791   4.202   3.864   2.756  0.7162  0.9142 -0.6905
 4444SOL    HW224792   4.266   3.733   2.697 -1.2482 -1.4474  0.6789
 4445SOL     OW24793   2.991   1.488   1.794  0.3946 -0.1756  0.0586
 4445SOL    HW124794   3.084   1.467   1.791  0.7507  1.3622  0.3351
 4445SOL    HW224795   2.979   1.525   1.706  0.2157  1.3110  0.7066
 4446SOL     OW24796   3.344   1.426   6.462 -0.0028  0.0633  0.0736
 4446SOL    HW124797   3.335   1.503   6.405 -0.8543 -0.8152 -0.9926
 4446SOL    HW224798   3.370   1.464   6.546  0.4772  0.3597 -0.2077
 4447SOL     OW24799   2.072   0.081  14.446 -0.5445  0.1691  1.0180
 4447SOL    HW124800   2.127   0.073  14.368 -2.3150  1.8781 -0.3890
 4447SOL    HW224801   1.991   0.092  14.396  0.1723  1.9467  0.2567
 4448SOL     OW24802   3.047   4.325   2.138 -0.5809 -0.1956 -0.4934
 4448SOL    HW124803   3.129   4.364   2.107  0.8313 -1.7657  1.2699
 4448SOL    HW224804   3.072   4.294   2.225 -0.1706 -0.3140 -0.6526
 4449SOL     OW24805   3.938   2.491   3.637  0.4002 -0.7826 -0.2162
 4449SOL    HW124806   4.020   2.533   3.613 -0.0354 -0.0812 -0.4855
 4449SOL    HW224807   3.918   2.423   3.574 -0.3990  0.3333 -1.1638
 4450SOL     OW24808   2.112   4.421   5.884  0.1606  0.3545  0.1975
 4450SOL    HW124809   2.112   4.511   5.850  0.4303  0.2006 -0.1990
 4450SOL    HW224810   2.185   4.391   5.831 -0.1656  1.7567 -1.0609
 4451SOL     OW24811   4.663   2.962   7.553 -0.1443 -0.3506 -0.5005
 4451SOL    HW124812   4.648   2.992   7.643  1.5769 -1.5621  0.1784
 4451SOL    HW224813   0.022   3.005   7.532  0.0323  0.4483  1.7600
 4452SOL     OW24814   3.272   2.048  10.390  0.0617  0.1334  0.1788
 4452SOL    HW124815   3.258   1.960  10.427 -2.8120 -0.3766 -2.1296
 4452SOL    HW224816   3.348   2.079  10.440  2.2196 -2.7113 -1.3179
 4453SOL     OW24817   2.384   0.668   8.823  0.3059 -0.3560 -0.0326
 4453SOL    HW124818   2.447   0.675   8.894 -1.9259  3.1842  1.6132
 4453SOL    HW224819   2.311   0.625   8.868  0.6492 -0.3236  0.5577
 4454SOL     OW24820   1.819   0.757   6.234  0.1142  0.2931  0.1091
 4454SOL    HW124821   1.760   0.825   6.267 -0.3938  0.6647 -1.5393
 4454SOL    HW224822   1.785   0.742   6.146  0.9075 -1.1509  0.0538
 4455SOL     OW24823   2.389   4.104   2.412 -0.2186  0.8158 -0.2451
 4455SOL    HW124824   2.327   4.105   2.486 -1.2995  2.0421 -1.1666
 4455SOL    HW224825   2.428   4.018   2.425 -0.6336  0.9128  1.6843
 4456SOL     OW24826   3.141   2.789   7.887 -0.1624 -0.3756  0.5305
 4456SOL    HW124827   3.194   2.767   7.964 -0.0819 -1.4389  0.1703
 4456SOL    HW224828   3.203   2.785   7.814  2.3662 -0.9901  2.7047
 4457SOL     OW24829   2.744   0.902  13.325  0.5330  0.6039  0.4756
 4457SOL    HW124830   2.697   0.973  13.368 -0.6387 -0.7435  1.4307
 4457SOL    HW224831   2.737   0.836  13.395 -0.4928  0.9085  0.6643
 4458SOL     OW24832   1.071   1.661  11.923 -0.0953 -0.1693 -0.0311
 4458SOL    HW124833   1.122   1.597  11.874  1.1857  0.7807  0.0463
 4458SOL    HW224834   0.983   1.623  11.932  0.2694 -1.2233 -0.9361
 4459SOL     OW24835   3.711   3.933   4.997  0.2788  0.1993  0.0033
 4459SOL    HW124836   3.632   3.987   4.996 -0.8312 -1.4765 -2.2089
 4459SOL    HW224837   3.711   3.890   5.082  3.1831  1.4539  0.6684
 4460SOL     OW24838   2.302   3.073   5.784  0.4672  0.4554 -0.0018
 4460SOL    HW124839   2.269   3.018   5.856  1.4486  0.0764  0.1630
 4460SOL    HW224840   2.330   3.006   5.722  0.3842  0.2059  0.2279
 4461SOL     OW24841   3.016   3.878   8.843 -0.7359 -0.4093 -0.2102
 4461SOL    HW124842   2.935   3.927   8.855 -1.4941 -1.8816  0.6841
 4461SOL    HW224843   3.052   3.872   8.932  0.6238 -1.2760 -0.8177
 4462SOL     OW24844   3.964   1.416   9.316 -0.9475  0.2177  0.3644
 4462SOL    HW124845   4.046   1.464   9.330  0.3737 -1.5669 -1.2221
 4462SOL    HW224846   3.923   1.468   9.247  0.2410  0.8818  0.1562
 4463SOL     OW24847   2.449   3.986   9.394 -0.2831  0.1977  0.4653
 4463SOL    HW124848   2.394   3.909   9.375 -0.3242  0.5053 -0.6276
 4463SOL    HW224849   2.462   3.982   9.489  2.3663  2.0109  0.1563
 4464SOL     OW24850   2.293   2.751   6.226  0.4502  0.3779  0.6606
 4464SOL    HW124851   2.307   2.804   6.304 -0.2702 -0.7067  1.5239
 4464SOL    HW224852   2.317   2.813   6.157 -0.4390  1.8616  1.6908
 4465SOL     OW24853   3.858   1.706   6.796 -0.1937  0.7653  0.5679
 4465SOL    HW124854   3.802   1.630   6.810  2.1072 -1.0071 -0.0159
 4465SOL    HW224855   3.948   1.673   6.793 -0.5669 -0.2113  0.0762
 4466SOL     OW24856   2.485   2.004   7.766  0.0421 -0.1583  0.0374
 4466SOL    HW124857   2.407   2.001   7.711  0.2891  0.7833 -0.3791
 4466SOL    HW224858   2.440   2.001   7.850 -0.5295 -0.1174 -0.2694
 4467SOL     OW24859   2.697   0.426   2.573  0.1048  0.4896  0.1248
 4467SOL    HW124860   2.746   0.345   2.560 -0.5743  0.0445  0.3679
 4467SOL    HW224861   2.760   0.495   2.595 -0.1896  0.4803  0.9904
 4468SOL     OW24862   2.962   2.776   9.582 -0.3835  0.7549 -0.4477
 4468SOL    HW124863   2.874   2.743   9.598 -0.9412  2.1754 -0.5609
 4468SOL    HW224864   2.980   2.732   9.498  0.7954  0.1232  0.1362
 4469SOL     OW24865   1.168   3.521   4.445 -0.0647  0.1363 -0.0843
 4469SOL    HW124866   1.148   3.560   4.360 -1.2416  1.3524  0.7533
 4469SOL    HW224867   1.167   3.600   4.499  2.1246 -0.3921  0.7011
 4470SOL     OW24868   0.722   1.763  12.196 -0.8830 -0.0029 -0.1715
 4470SOL    HW124869   0.773   1.842  12.218 -0.2141 -0.5289  0.1607
 4470SOL    HW224870   0.635   1.797  12.216 -1.0754 -0.8234  0.3880
 4471SOL     OW24871   2.599   1.382   8.376 -0.1132 -0.1695  0.0816
 4471SOL    HW124872   2.609   1.449   8.443 -2.0139 -0.8442  1.0218
 4471SOL    HW224873   2.685   1.340   8.374 -0.6182 -1.1010 -2.3728
 4472SOL     OW24874   0.750   2.383   0.216  0.1976  0.1540 -0.6164
 4472SOL    HW124875   0.805   2.375   0.295  1.9783  1.1834 -1.7457
 4472SOL    HW224876   0.766   2.300   0.171 -2.9291  0.5452 -2.3853
 4473SOL     OW24877   3.467   0.248   6.824 -0.0684 -0.5252  0.6830
 4473SOL    HW124878   3.548   0.224   6.870 -0.6719  0.5126  2.2887
 4473SOL    HW224879   3.413   0.173   6.848 -1.4535 -0.0932 -1.0785
 4474SOL     OW24880   1.586   2.849   6.705 -0.4619 -0.3105  0.5061
 4474SOL    HW124881   1.675   2.871   6.734  0.4220 -0.5399 -2.1083
 4474SOL    HW224882   1.592   2.842   6.610  1.6658 -1.3472  0.7154
 4475SOL     OW24883   4.170   3.325  13.645  0.5535 -0.3843  0.1577
 4475SOL    HW124884   4.153   3.253  13.585  0.3300  0.5747 -0.9427
 4475SOL    HW224885   4.109   3.306  13.716  0.8972  1.1605  0.8787
 4476SOL     OW24886   1.113   1.166  17.511  0.3847  0.2249 -0.2092
 4476SOL    HW124887   1.208   1.166  17.525 -0.2986 -1.3677  4.6020
 4476SOL    HW224888   1.079   1.083  17.543 -0.0075  0.8993  1.1498
 4477SOL     OW24889   4.334   0.056   2.888 -0.7998 -1.0740  0.0459
 4477SOL    HW124890   4.300   0.145   2.890 -0.5281 -1.0010  1.9067
 4477SOL    HW224891   4.412   0.069   2.835 -0.2514 -1.0682  0.8428
 4478SOL     OW24892   1.808   0.545   2.175 -0.1960  0.2099  0.8505
 4478SOL    HW124893   1.773   0.576   2.259 -0.7079  0.0648  0.6855
 4478SOL    HW224894   1.799   0.450   2.176 -0.6431  0.2275 -1.9092
 4479SOL     OW24895   2.582   2.881   5.962  0.0021  0.9206 -0.1048
 4479SOL    HW124896   2.603   2.788   5.965  2.2452  1.3924 -1.4236
 4479SOL    HW224897   2.637   2.900   5.887 -0.5017 -1.9930 -1.2341
 4480SOL     OW24898   2.495   3.106  12.706  0.4053 -0.1421 -0.4187
 4480SOL    HW124899   2.565   3.051  12.670  2.9802  3.6811 -1.1573
 4480SOL    HW224900   2.439   3.036  12.741  0.6582 -0.1337  0.0120
 4481SOL     OW24901   3.277   2.666   2.049  0.8222  0.2224  0.1444
 4481SOL    HW124902   3.364   2.703   2.050  0.6874  0.5253  0.3895
 4481SOL    HW224903   3.252   2.668   2.141 -1.4466 -0.4587 -0.4418
 4482SOL     OW24904   4.595   4.262   2.496  0.2474 -0.0265 -0.2965
 4482SOL    HW124905   4.687   4.256   2.470  1.0379  1.5614  2.0842
 4482SOL    HW224906   4.571   4.229   2.410 -0.8338  0.0182 -0.0055
 4483SOL     OW24907   1.937   0.224   4.354  0.7500 -0.3182 -0.0326
 4483SOL    HW124908   1.914   0.206   4.445 -2.1973  0.7843 -0.5655
 4483SOL    HW224909   2.025   0.256   4.374  0.3244  0.0468  1.2774
 4484SOL     OW24910   1.809   2.855   0.511  0.1344  0.2422 -0.2664
 4484SOL    HW124911   1.861   2.775   0.502 -0.6820 -0.3619  0.4260
 4484SOL    HW224912   1.868   2.919   0.471  0.1156 -1.7601 -3.5521
 4485SOL     OW24913   0.173   3.770  16.646 -0.1269 -0.2918 -0.2460
 4485SOL    HW124914   0.151   3.693  16.595 -0.9594 -0.2234  0.0149
 4485SOL    HW224915   0.099   3.757  16.705 -0.5074  1.4216 -0.3598
 4486SOL     OW24916   1.477   3.574   0.654 -0.6844 -0.1398  0.2106
 4486SOL    HW124917   1.412   3.537   0.713  1.1458 -0.1851  2.2343
 4486SOL    HW224918   1.543   3.504   0.649 -0.0478  0.5350 -0.7357
 4487SOL     OW24919   0.334   0.577   2.474  0.2801  0.1440  0.2113
 4487SOL    HW124920   0.278   0.625   2.413 -1.6461  0.0565  1.9130
 4487SOL    HW224921   0.367   0.645   2.532  0.1822 -0.7216  1.2874
 4488SOL     OW24922   2.090   3.037  10.951 -0.4069  0.4262 -0.2049
 4488SOL    HW124923   2.020   2.972  10.947  0.8861 -0.9770  0.3606
 4488SOL    HW224924   2.137   3.011  11.030 -1.6212 -3.4541 -0.7667
 4489SOL     OW24925   3.335   3.387   2.441 -0.1875  0.5313 -0.5263
 4489SOL    HW124926   3.413   3.440   2.424  1.2636 -2.0744 -2.1404
 4489SOL    HW224927   3.365   3.296   2.439 -2.2390 -0.1878  1.3432
 4490SOL     OW24928   0.924   2.156   6.451  0.2142  0.0074  0.1402
 4490SOL    HW124929   1.012   2.185   6.425 -0.5065  0.9401 -1.2959
 4490SOL    HW224930   0.924   2.077   6.397  3.5261  0.5198 -0.6038
 4491SOL     OW24931   1.476   1.916   7.813 -0.1565  0.4070  0.1672
 4491SOL    HW124932   1.401   1.865   7.841 -0.1527  0.7790  0.8447
 4491SOL    HW224933   1.545   1.850   7.813 -0.7531 -0.2363 -2.3034
 4492SOL     OW24934   2.774   0.176   1.873  0.2143 -0.5966  0.1180
 4492SOL    HW124935   2.763   0.182   1.967 -0.6510  1.9584 -0.1680
 4492SOL    HW224936   2.718   0.099   1.863 -0.3888 -0.0433 -0.7372
 4493SOL     OW24937   2.492   1.469  11.745 -0.0857  0.1840 -0.8130
 4493SOL    HW124938   2.458   1.517  11.821  2.2960 -0.5816  0.7503
 4493SOL    HW224939   2.509   1.386  11.789 -0.3593  0.8492  0.5667
 4494SOL     OW24940   1.802   1.258   7.593 -0.5950 -0.0947 -0.0619
 4494SOL    HW124941   1.897   1.250   7.579 -0.9763 -1.1610 -2.1446
 4494SOL    HW224942   1.806   1.247   7.688 -0.6308 -2.9361 -0.3829
 4495SOL     OW24943   2.164   1.950   5.456 -0.5061  0.2896  0.2877
 4495SOL    HW124944   2.241   2.001   5.431 -1.0030  1.3670  0.9326
 4495SOL    HW224945   2.096   2.005   5.417 -0.8448 -0.2252  0.1538
 4496SOL     OW24946   2.665   2.609   6.011  0.0417 -0.1272  0.4406
 4496SOL    HW124947   2.688   2.528   6.056 -0.3383  0.0382  0.9411
 4496SOL    HW224948   2.716   2.598   5.931  0.2387  1.3998  0.3563
 4497SOL     OW24949   3.787   3.605   8.684  0.3213 -0.0670 -0.6546
 4497SOL    HW124950   3.824   3.588   8.598  1.1573  0.3399 -0.3736
 4497SOL    HW224951   3.833   3.679   8.723  0.2772 -1.1685  1.5367
 4498SOL     OW24952   0.170   3.431  15.892 -0.3237  0.5764 -0.3303
 4498SOL    HW124953   0.246   3.408  15.840  0.3362 -1.0774  1.3819
 4498SOL    HW224954   0.146   3.514  15.850 -0.9702  1.6004  2.0287
 4499SOL     OW24955   3.659   0.366   1.078 -1.0379 -0.2714 -0.2351
 4499SOL    HW124956   3.743   0.374   1.124 -0.7484  0.6310 -0.9306
 4499SOL    HW224957   3.638   0.272   1.078  0.7481 -0.6795  3.9232
 4500SOL     OW24958   0.339   0.631  14.482  0.0629  0.2443  0.2665
 4500SOL    HW124959   0.399   0.689  14.437 -0.4412  2.7954  2.8697
 4500SOL    HW224960   0.346   0.552  14.428  0.2799  0.4113  0.0519
 4501SOL     OW24961   4.395   0.920  14.604 -0.3311  0.0513  0.2937
 4501SOL    HW124962   4.404   0.850  14.669  0.1298 -0.1412  0.0219
 4501SOL    HW224963   4.482   0.931  14.567 -1.4112 -0.0367 -2.2280
 4502SOL     OW24964   1.149   0.416   8.577  0.3032 -0.0600  0.6323
 4502SOL    HW124965   1.139   0.410   8.672  0.4446  0.0696  0.6549
 4502SOL    HW224966   1.073   0.368   8.543 -0.4300  0.0947  2.0378
 4503SOL     OW24967   4.199   0.617   8.513  0.0216  0.0870 -0.2456
 4503SOL    HW124968   4.108   0.602   8.540  0.2629 -1.4077 -0.3022
 4503SOL    HW224969   4.196   0.595   8.420 -0.9637  2.7476 -0.8623
 4504SOL     OW24970   1.407   4.164   4.359 -0.3259  0.2222  0.5096
 4504SOL    HW124971   1.467   4.121   4.419  0.2431  0.2442 -0.0453
 4504SOL    HW224972   1.342   4.213   4.411 -0.1259 -1.0570  1.9395
 4505SOL     OW24973   3.968   3.299   3.590 -1.2862  0.3689  0.1768
 4505SOL    HW124974   4.030   3.231   3.617  0.6014  1.2904 -1.8239
 4505SOL    HW224975   3.887   3.249   3.599 -1.9538  1.1261 -1.5882
 4506SOL     OW24976   3.885   1.496   4.506  0.3411 -0.2517  0.0593
 4506SOL    HW124977   3.797   1.535   4.508  0.0686 -0.8750  0.1586
 4506SOL    HW224978   3.865   1.406   4.482 -1.2607  0.1123  0.0283
 4507SOL     OW24979   0.400   0.795  13.944  0.2300 -0.1414  0.3281
 4507SOL    HW124980   0.373   0.708  13.974  0.5594 -0.7152 -1.0599
 4507SOL    HW224981   0.327   0.851  13.970  0.4659 -0.9428  2.7622
 4508SOL     OW24982   3.268   4.547   6.559 -0.6467  0.4434 -0.3755
 4508SOL    HW124983   3.281   4.634   6.595  1.4735 -0.0074 -0.0159
 4508SOL    HW224984   3.218   4.570   6.481 -1.0156  1.2407  0.1063
 4509SOL     OW24985   0.329   1.258   5.721 -0.0254  0.4514 -0.1844
 4509SOL    HW124986   0.341   1.179   5.669  2.0170  1.5902 -1.4672
 4509SOL    HW224987   0.410   1.308   5.724 -0.2053  0.7352 -0.0640
 4510SOL     OW24988   2.714   4.413   3.258 -0.3544 -0.1585 -0.0929
 4510SOL    HW124989   2.697   4.393   3.350  0.5652  0.4790  0.2169
 4510SOL    HW224990   2.698   4.328   3.217 -1.5522  0.1215 -0.2310
 4511SOL     OW24991   2.790   4.185   8.639 -0.1027 -0.2446 -0.2892
 4511SOL    HW124992   2.792   4.144   8.553  1.6866  1.6079 -1.1443
 4511SOL    HW224993   2.858   4.252   8.629 -0.0690 -0.2249  0.0575
 4512SOL     OW24994   2.717   0.883   6.309  0.1201 -0.0773  0.0774
 4512SOL    HW124995   2.767   0.958   6.340 -2.5502  1.3070  1.0389
 4512SOL    HW224996   2.648   0.886   6.376 -1.4461 -1.2594 -1.4594
 4513SOL     OW24997   4.302   3.195  12.136 -0.1031 -0.1990  0.1372
 4513SOL    HW124998   4.252   3.229  12.062  2.4797 -0.8075 -1.9260
 4513SOL    HW224999   4.326   3.109  12.100 -3.5733 -1.4663  0.8989
 4514SOL     OW25000   3.284   0.323   5.516  0.4662 -0.0836 -0.5658
 4514SOL    HW125001   3.366   0.349   5.557  0.7019 -1.6065 -0.0942
 4514SOL    HW225002   3.260   0.401   5.466 -2.2938  0.3779  1.4451
 4515SOL     OW25003   2.061   0.365  16.072  0.4123 -0.4071 -0.0773
 4515SOL    HW125004   2.103   0.347  15.988  0.7686 -1.0766  0.2355
 4515SOL    HW225005   1.973   0.382  16.039  0.2378 -3.6713 -1.2988
 4516SOL     OW25006   0.064   2.283   9.075 -0.2351  0.2940 -0.2538
 4516SOL    HW125007   0.034   2.362   9.030  2.3379  0.5303 -1.5576
 4516SOL    HW225008   0.089   2.312   9.162 -1.2080  2.6819 -0.7681
 4517SOL     OW25009   2.346   2.242   4.110 -0.1213  0.1188 -0.5149
 4517SOL    HW125010   2.256   2.274   4.121 -0.8782 -1.9957 -0.5408
 4517SOL    HW225011   2.333   2.153   4.143  0.7829  1.0734  2.4177
 4518SOL     OW25012   2.779   4.155  13.367 -0.5900 -0.4736 -0.7394
 4518SOL    HW125013   2.763   4.155  13.461 -0.1208  0.0031 -0.6639
 4518SOL    HW225014   2.862   4.202  13.374 -0.3346 -0.9450 -0.6328
 4519SOL     OW25015   1.211   1.382   8.086 -0.2321  0.6930 -0.2540
 4519SOL    HW125016   1.118   1.401   8.100 -0.2292  0.2264  0.4013
 4519SOL    HW225017   1.236   1.335   8.166 -0.0828  0.0013 -0.7093
 4520SOL     OW25018   1.077   4.391   5.448  0.0473 -0.2895  0.1485
 4520SOL    HW125019   1.039   4.401   5.361  1.8829 -0.5794 -0.6952
 4520SOL    HW225020   0.994   4.388   5.495 -0.3535  2.7535 -0.3727
 4521SOL     OW25021   2.128   1.488   6.202  0.1347  0.5557 -0.4138
 4521SOL    HW125022   2.219   1.477   6.229 -0.2851 -2.0384 -0.0803
 4521SOL    HW225023   2.136   1.509   6.109 -1.0846  2.6734 -0.0548
 4522SOL     OW25024   0.079   1.132   4.127  0.1542  0.1653 -0.3379
 4522SOL    HW125025   4.719   1.175   4.134  1.2537  2.5081 -1.6891
 4522SOL    HW225026   0.090   1.139   4.033  0.5916  0.5356 -0.2619
 4523SOL     OW25027   2.341   0.133   2.525  0.6204 -0.2006 -0.1925
 4523SOL    HW125028   2.336   0.097   2.614  1.0665  1.2066  0.3963
 4523SOL    HW225029   2.425   0.098   2.495  0.8063 -0.1824  0.2926
 4524SOL     OW25030   2.367   3.260  12.374  0.0223  0.1695  0.0441
 4524SOL    HW125031   2.388   3.311  12.452 -0.4225 -1.2562  1.0889
 4524SOL    HW225032   2.385   3.325  12.306  2.4035  3.8205  4.1532
 4525SOL     OW25033   1.983   2.634   8.593  0.4278 -0.1205  0.2436
 4525SOL    HW125034   1.972   2.548   8.633 -0.3512  0.1297  0.5727
 4525SOL    HW225035   1.889   2.651   8.581  0.4042 -0.3722  0.0843
 4526SOL     OW25036   0.898   3.069  12.925 -0.3163  0.2538 -0.0726
 4526SOL    HW125037   0.881   3.053  12.832 -0.9788 -1.4644  0.3451
 4526SOL    HW225038   0.908   3.164  12.918 -1.3526  0.3262 -0.5347
 4527SOL     OW25039   2.649   3.502  10.871 -0.1598  0.3467  0.2085
 4527SOL    HW125040   2.610   3.545  10.947 -0.9060 -2.7338  1.5751
 4527SOL    HW225041   2.573   3.467  10.824  1.3824 -2.4605 -0.2159
 4528SOL     OW25042   4.380   0.991   6.899 -0.1514 -0.5992 -0.1021
 4528SOL    HW125043   4.424   1.069   6.864  1.8773 -0.7146  2.1241
 4528SOL    HW225044   4.337   1.033   6.974 -0.7329 -0.8479 -0.2992
 4529SOL     OW25045   3.311   0.939   2.923  0.3084 -0.5183 -0.3347
 4529SOL    HW125046   3.398   0.949   2.960  0.1478 -0.6564  0.0769
 4529SOL    HW225047   3.311   0.852   2.885 -1.6444  0.8524 -3.5133
 4530SOL     OW25048   1.304   2.723  10.264 -0.2845 -0.0536  0.0045
 4530SOL    HW125049   1.218   2.684  10.272 -0.2221  0.3151  2.3135
 4530SOL    HW225050   1.319   2.717  10.169  0.1409  0.4273  0.0369
 4531SOL     OW25051   1.599   3.047   9.894 -0.0912  0.6248 -0.0830
 4531SOL    HW125052   1.626   3.129   9.854  0.9728 -0.3165 -1.2934
 4531SOL    HW225053   1.505   3.057   9.906  0.0080  0.2011  1.0832
 4532SOL     OW25054   3.904   1.034   6.930 -0.2636  0.0421  0.2502
 4532SOL    HW125055   3.928   0.976   6.858 -0.9822  0.9894 -0.7513
 4532SOL    HW225056   3.961   1.001   6.999  2.1823  1.7616 -0.9471
 4533SOL     OW25057   2.142   3.371   0.364 -0.3633 -0.1585 -0.3181
 4533SOL    HW125058   2.201   3.317   0.417 -0.4369  0.8690  0.8082
 4533SOL    HW225059   2.116   3.442   0.423  1.3252 -1.5747  2.1627
 4534SOL     OW25060   0.078   1.855   4.454 -0.0358  0.3453 -0.5755
 4534SOL    HW125061   0.008   1.812   4.502  0.2279  1.4710  0.8142
 4534SOL    HW225062   0.155   1.815   4.495 -0.7537  0.3255  0.7439
 4535SOL     OW25063   1.851   0.548   0.163 -0.3591  0.5679  0.3267
 4535SOL    HW125064   1.877   0.467   0.120  0.5709  0.5054  1.0030
 4535SOL    HW225065   1.757   0.537   0.178 -0.3661  1.3594  0.8767
 4536SOL     OW25066   3.660   2.787   8.256  0.8923  0.4562  0.0439
 4536SOL    HW125067   3.660   2.852   8.185 -0.3806  0.1411 -0.2483
 4536SOL    HW225068   3.622   2.842   8.325  0.1930  1.5535 -1.2057
 4537SOL     OW25069   2.311   1.116   6.467  0.7266 -0.4151 -0.2009
 4537SOL    HW125070   2.245   1.066   6.514  1.2283 -0.8308  0.0645
 4537SOL    HW225071   2.284   1.207   6.459 -0.7032 -0.9099 -1.0629
 4538SOL     OW25072   0.790   0.312  10.879  0.5133  0.0778  0.0144
 4538SOL    HW125073   0.825   0.275  10.798 -1.9918 -1.0789 -0.5270
 4538SOL    HW225074   0.857   0.298  10.947 -0.0090 -2.0876  0.0962
 4539SOL     OW25075   0.537   0.691   4.101 -0.1119 -0.6223 -0.2967
 4539SOL    HW125076   0.466   0.719   4.043 -0.0554 -2.2303 -1.1397
 4539SOL    HW225077   0.504   0.630   4.168 -2.5979  0.4154 -0.5759
 4540SOL     OW25078   4.529   2.521   6.587 -0.0403  0.0068 -0.0689
 4540SOL    HW125079   4.544   2.504   6.680 -0.7512  0.1561  0.0741
 4540SOL    HW225080   4.604   2.483   6.542 -1.7831 -2.6912 -0.6960
 4541SOL     OW25081   1.494   0.229   7.698 -0.4789  0.0260 -0.2954
 4541SOL    HW125082   1.541   0.297   7.746  0.0891  2.1712 -3.8746
 4541SOL    HW225083   1.417   0.215   7.753  0.5700 -0.7501  0.9742
 4542SOL     OW25084   1.014   1.901   1.778 -0.4753  0.7573 -0.1914
 4542SOL    HW125085   1.004   1.991   1.810  2.2696  0.3061  1.9389
 4542SOL    HW225086   0.923   1.871   1.775 -1.2855  3.2388 -0.7978
 4543SOL     OW25087   0.248   4.136   7.140 -0.6089 -0.5212 -0.2838
 4543SOL    HW125088   0.315   4.068   7.149 -1.1107 -1.1573 -1.3948
 4543SOL    HW225089   0.187   4.083   7.089 -1.4883  1.1984 -1.0195
 4544SOL     OW25090   4.667   1.187   7.554  0.2130 -0.1498  0.4457
 4544SOL    HW125091   4.601   1.160   7.617 -0.7871  4.2725  1.2384
 4544SOL    HW225092   0.022   1.170   7.605 -1.2448 -1.6253  2.2327
 4545SOL     OW25093   1.738   4.378   0.639  0.0619  0.1924  0.3674
 4545SOL    HW125094   1.763   4.300   0.590  1.2628  0.4392  0.5824
 4545SOL    HW225095   1.773   4.355   0.725  2.5817 -0.3805 -0.8133
 4546SOL     OW25096   1.555   4.332  13.290 -0.0323  1.0540 -0.5298
 4546SOL    HW125097   1.477   4.299  13.245 -0.7899  3.5206 -1.0135
 4546SOL    HW225098   1.532   4.315  13.382 -0.0769  1.2258 -0.5094
 4547SOL     OW25099   2.128   2.170   1.149 -0.2804  0.0560  0.2592
 4547SOL    HW125100   2.143   2.080   1.180 -1.4516 -0.9171 -1.9957
 4547SOL    HW225101   2.142   2.160   1.055  1.6717  1.8429  0.3479
 4548SOL     OW25102   4.138   0.115   6.973 -0.1337 -0.3486  0.0170
 4548SOL    HW125103   4.190   0.139   6.896 -0.2600 -0.0895  0.0136
 4548SOL    HW225104   4.199   0.115   7.047  0.2654  0.8097 -0.3138
 4549SOL     OW25105   2.425   1.579   7.236 -0.5631  0.1528 -0.2361
 4549SOL    HW125106   2.410   1.528   7.157 -0.7079  0.3699 -0.3489
 4549SOL    HW225107   2.517   1.562   7.256 -1.1371 -2.0179  0.5574
 4550SOL     OW25108   0.858   1.312   2.097  0.3850 -0.0271 -0.2823
 4550SOL    HW125109   0.871   1.379   2.164  2.1499 -1.5525  0.8782
 4550SOL    HW225110   0.892   1.238   2.147  1.2786  0.6120  0.0611
 4551SOL     OW25111   4.500   2.522  13.737 -0.3359  0.8491 -0.1861
 4551SOL    HW125112   4.462   2.434  13.742  2.8891 -0.4776  0.8001
 4551SOL    HW225113   4.448   2.560  13.665 -2.1277  3.1422  2.3266
 4552SOL     OW25114   3.069   4.081   5.046  0.1147  0.8360 -0.0999
 4552SOL    HW125115   3.095   3.995   5.015 -0.8106  1.4567 -2.6093
 4552SOL    HW225116   3.028   4.051   5.127  1.2339  1.3643  0.6544
 4553SOL     OW25117   1.584   3.435   4.751  0.1709 -0.3821 -0.0161
 4553SOL    HW125118   1.628   3.357   4.787 -0.1919 -0.7213 -0.3029
 4553SOL    HW225119   1.520   3.399   4.690 -0.3296 -0.5898  0.6364
 4554SOL     OW25120   1.962   0.582   3.411  0.2278  0.3215 -0.4013
 4554SOL    HW125121   2.031   0.647   3.424  2.2008 -0.9495 -4.4522
 4554SOL    HW225122   2.010   0.502   3.389  0.3923  0.5197 -0.7671
 4555SOL     OW25123   3.972   0.434   4.271  0.7191  0.0893 -0.2380
 4555SOL    HW125124   3.900   0.372   4.259  2.5125 -1.7912 -1.1613
 4555SOL    HW225125   3.989   0.429   4.365 -2.5542 -0.0094  0.3469
 4556SOL     OW25126   4.054   4.571   4.726 -0.0923 -0.0262  0.0466
 4556SOL    HW125127   4.065   4.648   4.781 -0.7714 -0.9255  1.4297
 4556SOL    HW225128   3.978   4.521   4.757  0.6323  0.7849  3.0752
 4557SOL     OW25129   0.006   3.910   4.119  0.0556 -0.0517 -0.3462
 4557SOL    HW125130   4.685   3.826   4.110 -1.2146  0.5402  0.6566
 4557SOL    HW225131   0.040   3.912   4.029  1.2166  2.1002  0.1420
 4558SOL     OW25132   4.382   1.154  12.022  0.6896  0.1376  0.0157
 4558SOL    HW125133   4.402   1.135  11.930 -1.4535 -2.3466  0.0699
 4558SOL    HW225134   4.345   1.072  12.054  1.6534 -0.0922  0.5203
 4559SOL     OW25135   2.681   2.506   8.234 -0.1424 -0.1420 -0.1139
 4559SOL    HW125136   2.590   2.534   8.234  0.0223  0.3804 -0.9360
 4559SOL    HW225137   2.706   2.529   8.145  0.3615  3.9534  1.0970
 4560SOL     OW25138   0.004   0.273   3.586 -0.2298 -0.2282  0.5753
 4560SOL    HW125139   4.692   0.333   3.521  0.0660  1.0581  1.6066
 4560SOL    HW225140   4.704   0.314   3.669 -0.8688  1.4215 -0.4284
 4561SOL     OW25141   1.015   3.962   1.110  0.0304  0.5850 -0.3128
 4561SOL    HW125142   1.073   3.945   1.037 -2.0426  1.4024 -2.1509
 4561SOL    HW225143   1.045   4.041   1.156 -1.3029  1.8564 -1.6084
 4562SOL     OW25144   0.409   1.410   8.583  0.1674  0.4678 -0.1858
 4562SOL    HW125145   0.315   1.395   8.578  0.1024  0.9926 -0.6016
 4562SOL    HW225146   0.397   1.495   8.625 -2.2600  0.3861 -0.6831
 4563SOL     OW25147   2.532   1.776   8.064 -0.1167  0.6105  0.2998
 4563SOL    HW125148   2.590   1.707   8.096 -0.0335  0.1271 -0.8972
 4563SOL    HW225149   2.544   1.769   7.969  1.1138 -1.4817  0.6268
 4564SOL     OW25150   3.280   2.382  10.150 -0.2814 -0.2577 -0.0050
 4564SOL    HW125151   3.278   2.422  10.237 -0.3825 -1.2463  0.4419
 4564SOL    HW225152   3.289   2.291  10.179 -0.1681  0.1861  1.3643
 4565SOL     OW25153   2.761   4.710   0.815 -0.2053  0.0921  0.5866
 4565SOL    HW125154   2.855   4.692   0.818 -0.5564 -1.5280  1.6580
 4565SOL    HW225155   2.720   4.640   0.763 -3.1232  0.9322  1.7198
 4566SOL     OW25156   1.050   3.465   6.423  0.0125  0.2130 -0.0642
 4566SOL    HW125157   1.007   3.407   6.485 -0.0793 -0.4262 -0.7206
 4566SOL    HW225158   1.122   3.474   6.486  1.9633  0.3388 -2.3155
 4567SOL     OW25159   2.147   0.764  10.958  0.4345  0.4217  0.8413
 4567SOL    HW125160   2.239   0.768  10.984  0.2709  0.9848  1.3477
 4567SOL    HW225161   2.111   0.705  11.024 -1.8937 -0.6632 -1.4383
 4568SOL     OW25162   0.569   0.483   8.433 -0.1133  0.3529 -0.2374
 4568SOL    HW125163   0.576   0.474   8.338  2.6136 -2.3407  0.2080
 4568SOL    HW225164   0.633   0.414   8.452 -1.2300 -0.4674  0.5605
 4569SOL     OW25165   0.871   4.126   3.108 -0.3040  0.1124 -0.7214
 4569SOL    HW125166   0.800   4.072   3.074 -1.6005  0.7668  0.9909
 4569SOL    HW225167   0.834   4.163   3.188  1.4448 -0.2928  0.2705
 4570SOL     OW25168   2.977   3.607   8.858  0.0909  0.0823  0.1699
 4570SOL    HW125169   2.993   3.696   8.825  3.9062 -1.3448 -1.8745
 4570SOL    HW225170   3.024   3.548   8.798 -1.6836 -1.1127 -0.0325
 4571SOL     OW25171   2.442   4.635  17.231 -0.1528 -0.7132 -0.4865
 4571SOL    HW125172   2.357   4.678  17.220  0.2496 -0.2017 -1.5355
 4571SOL    HW225173   2.478   4.657  17.145  3.0891 -1.2164  0.7516
 4572SOL     OW25174   4.617   0.013   5.452 -0.1811  0.0772 -0.5229
 4572SOL    HW125175   4.651   0.100   5.431 -0.0353  0.9273  3.1744
 4572SOL    HW225176   4.640   0.003   5.544 -0.0740 -0.7206 -0.6406
 4573SOL     OW25177   2.316   3.199   8.664  0.1685 -0.1065 -0.3370
 4573SOL    HW125178   2.240   3.216   8.607 -0.3767 -0.4491  0.2880
 4573SOL    HW225179   2.374   3.156   8.601 -0.0462 -1.4685  0.3942
 4574SOL     OW25180   1.590   3.214   5.652  0.1560 -1.0665 -0.1894
 4574SOL    HW125181   1.587   3.236   5.745 -0.6650  1.0711 -0.7030
 4574SOL    HW225182   1.626   3.292   5.609  2.0894 -2.2192 -0.6581
 4575SOL     OW25183   2.845   4.392  11.499  0.1827 -0.3343  0.0819
 4575SOL    HW125184   2.852   4.488  11.500  1.4053 -0.4357  1.1146
 4575SOL    HW225185   2.805   4.383  11.412 -0.8316  0.3490  0.4726
 4576SOL     OW25186   2.718   1.160   1.329 -0.1242  0.1082  0.0976
 4576SOL    HW125187   2.658   1.138   1.401 -1.2327  1.4971 -0.3893
 4576SOL    HW225188   2.761   1.079   1.303  1.5584  0.9064  0.4451
 4577SOL     OW25189   3.625   3.370  10.645 -0.8177  0.3625  0.1728
 4577SOL    HW125190   3.697   3.373  10.582 -0.1835 -3.4656  0.6595
 4577SOL    HW225191   3.564   3.422  10.593  0.1402  0.7560 -0.5596
 4578SOL     OW25192   2.226   4.024   6.213  0.2141  0.2600  0.1556
 4578SOL    HW125193   2.241   4.102   6.267 -0.1286  0.6018 -0.2368
 4578SOL    HW225194   2.186   3.966   6.277  1.8280  1.5148  2.2936
 4579SOL     OW25195   2.759   3.205   2.552 -0.2701  0.0082 -0.0586
 4579SOL    HW125196   2.707   3.205   2.632  0.0218  1.3043  0.1293
 4579SOL    HW225197   2.715   3.130   2.512 -0.6653  0.6943 -0.9050
 4580SOL     OW25198   3.122   3.052   5.284  0.1163  0.0566  0.1705
 4580SOL    HW125199   3.209   3.031   5.319 -0.4295  0.3029  1.6669
 4580SOL    HW225200   3.096   2.964   5.257  1.2460 -1.0228  2.6664
 4581SOL     OW25201   3.900   3.575   8.463  0.0257  0.4728 -0.4618
 4581SOL    HW125202   3.957   3.526   8.404 -0.6137 -3.2209  1.9766
 4581SOL    HW225203   3.922   3.663   8.432 -1.7702  0.8165 -0.7292
 4582SOL     OW25204   4.147   4.198   8.876  0.6675  0.1282 -0.0800
 4582SOL    HW125205   4.200   4.237   8.807 -1.2945  0.9118 -1.1627
 4582SOL    HW225206   4.073   4.155   8.833  0.5545  0.9305 -0.7089
 4583SOL     OW25207   4.553   2.653   3.268 -0.0527  0.3350  0.0066
 4583SOL    HW125208   4.572   2.684   3.356  2.0440 -2.9295  0.7134
 4583SOL    HW225209   4.642   2.640   3.234 -0.1341  3.0223 -1.2766
 4584SOL     OW25210   2.009   3.108   3.184  0.5898  0.0220 -0.4761
 4584SOL    HW125211   1.974   3.026   3.219  0.2597 -0.5437 -2.1337
 4584SOL    HW225212   2.051   3.134   3.266 -1.4912  1.0603  0.2726
 4585SOL     OW25213   1.803   4.562   4.861 -0.3067 -0.0332 -0.1123
 4585SOL    HW125214   1.838   4.581   4.773 -1.5323  0.4786 -0.4817
 4585SOL    HW225215   1.833   4.638   4.911 -0.8174  1.1221 -1.5488
 4586SOL     OW25216   4.571   3.491   3.829 -0.1744 -0.7632  0.0255
 4586SOL    HW125217   4.529   3.479   3.744  0.4400 -1.6787 -0.1561
 4586SOL    HW225218   4.652   3.528   3.793  0.4524 -0.4137  1.7785
 4587SOL     OW25219   1.846   0.036   6.378  0.1036  0.3164 -0.1918
 4587SOL    HW125220   1.809   4.675   6.357  0.1447  0.6518 -1.6835
 4587SOL    HW225221   1.927   0.027   6.328 -0.3917 -2.0448 -0.5657
 4588SOL     OW25222   2.671   1.017  13.553  0.2586 -0.5061  0.5114
 4588SOL    HW125223   2.642   1.003  13.643 -0.3797 -1.4091  0.1648
 4588SOL    HW225224   2.586   1.043  13.517  0.2033  0.4647  1.3293
 4589SOL     OW25225   2.053   2.417  14.747  0.1098  0.2983 -0.0879
 4589SOL    HW125226   2.031   2.324  14.745  1.9982 -0.0822 -3.4152
 4589SOL    HW225227   2.128   2.420  14.807  0.2249 -0.6243 -0.1874
 4590SOL     OW25228   3.918   2.278  11.915 -0.1410  0.7482 -0.2975
 4590SOL    HW125229   3.906   2.243  11.827 -2.6992  0.5656  0.1284
 4590SOL    HW225230   3.881   2.213  11.975 -0.0444  1.3970  0.4608
 4591SOL     OW25231   3.026   2.084  12.270  0.0130  0.1523 -0.2236
 4591SOL    HW125232   3.113   2.118  12.290 -1.3023  2.4748  1.5512
 4591SOL    HW225233   2.982   2.155  12.223  0.0806  1.0421  1.0723
 4592SOL     OW25234   2.745   2.650  14.334 -0.0458 -0.7441 -0.2544
 4592SOL    HW125235   2.777   2.735  14.365 -0.8022 -0.3766 -0.4855
 4592SOL    HW225236   2.785   2.655  14.247  0.4903 -0.1079  0.0297
 4593SOL     OW25237   3.460   0.636   5.114 -0.0791  0.0908  0.7459
 4593SOL    HW125238   3.554   0.644   5.128  0.2359 -1.5299 -0.4537
 4593SOL    HW225239   3.443   0.637   5.020 -1.5682 -0.3019  1.0061
 4594SOL     OW25240   0.486   2.181   4.867  0.4049  0.1766  0.0724
 4594SOL    HW125241   0.429   2.182   4.944  0.4772 -1.8941  0.1479
 4594SOL    HW225242   0.544   2.110   4.894  2.2450  2.2415  1.5784
 4595SOL     OW25243   0.308   3.496   6.939 -0.5247 -0.3565 -0.4990
 4595SOL    HW125244   0.366   3.568   6.915 -1.4811  1.4941  2.8068
 4595SOL    HW225245   0.303   3.494   7.035  1.9335 -0.4481 -0.3745
 4596SOL     OW25246   3.009   0.031  16.174  0.5223 -0.3151  0.5214
 4596SOL    HW125247   2.967   0.115  16.153  0.0118 -0.7083 -0.0380
 4596SOL    HW225248   3.086   0.038  16.117  1.3369  0.9155  1.7773
 4597SOL     OW25249   2.840   2.712  15.514  0.7135  0.2915 -0.3775
 4597SOL    HW125250   2.930   2.688  15.492  1.2905  0.2768  1.9810
 4597SOL    HW225251   2.798   2.695  15.430  1.2757  0.8862 -0.7804
 4598SOL     OW25252   1.648   3.615  12.709  0.0939  0.3146 -0.0439
 4598SOL    HW125253   1.715   3.582  12.649 -1.4210  0.8547 -2.0186
 4598SOL    HW225254   1.704   3.670  12.764  0.6374 -1.0757  0.7832
 4599SOL     OW25255   1.528   0.298   4.065 -0.2534  0.0065 -0.5264
 4599SOL    HW125256   1.528   0.229   3.998  1.2224 -1.0586  0.5493
 4599SOL    HW225257   1.537   0.250   4.148  1.5145  3.0768  1.0409
 4600SOL     OW25258   4.036   2.638   5.227 -0.1345  0.1187 -0.6676
 4600SOL    HW125259   3.954   2.645   5.274 -0.9200  2.9476 -2.4739
 4600SOL    HW225260   4.085   2.684   5.295  0.4138 -2.1168  0.4425
 4601SOL     OW25261   1.678   1.169   0.185 -0.1974 -0.0121  0.5031
 4601SOL    HW125262   1.753   1.219   0.217  1.2032 -2.2751  0.7141
 4601SOL    HW225263   1.605   1.229   0.199 -1.2991 -1.3460  0.4971
 4602SOL     OW25264   1.053   1.247   3.996  0.1738 -0.4018 -0.0696
 4602SOL    HW125265   1.113   1.216   3.928  0.3466  0.5338 -0.3383
 4602SOL    HW225266   1.039   1.170   4.052 -0.7143 -1.3601 -1.6185
 4603SOL     OW25267   2.513   0.312   7.371 -0.3795  0.0598  0.0047
 4603SOL    HW125268   2.586   0.374   7.364 -1.7135  1.5693 -0.5944
 4603SOL    HW225269   2.439   0.369   7.352  1.1061  1.9099 -0.2789
 4604SOL     OW25270   2.288   4.332   7.709  0.1860  0.7571 -0.5144
 4604SOL    HW125271   2.310   4.242   7.686 -0.0993  0.5055  0.1983
 4604SOL    HW225272   2.235   4.319   7.788 -0.5877 -0.0287 -1.1632
 4605SOL     OW25273   1.722   1.644   3.304 -0.0598  0.3638  0.0568
 4605SOL    HW125274   1.629   1.659   3.319 -0.1779 -1.4397  1.1516
 4605SOL    HW225275   1.740   1.554   3.278  1.4437  0.8966 -0.7668
 4606SOL     OW25276   4.637   0.734   3.504  0.0822  0.0253 -0.1269
 4606SOL    HW125277   4.609   0.762   3.591  1.4265  1.4092 -0.1430
 4606SOL    HW225278   4.581   0.779   3.440 -0.2436 -0.9082 -0.4988
 4607SOL     OW25279   1.814   2.724  13.725 -0.2126  0.3198  0.0495
 4607SOL    HW125280   1.798   2.816  13.744  1.1285  0.5495  0.1018
 4607SOL    HW225281   1.901   2.710  13.763 -0.7020 -1.3675  0.5780
 4608SOL     OW25282   3.582   2.159   2.207  0.4607  0.2723  0.0860
 4608SOL    HW125283   3.605   2.151   2.300 -1.3149 -0.7508  0.4420
 4608SOL    HW225284   3.503   2.105   2.201 -1.1005  2.6411 -0.4184
 4609SOL     OW25285   2.485   2.441   9.033 -0.7487 -0.5632 -0.0145
 4609SOL    HW125286   2.539   2.458   9.110 -0.1367 -1.8310 -0.1565
 4609SOL    HW225287   2.542   2.493   8.976  1.1791 -1.3155  1.2287
 4610SOL     OW25288   1.335   3.351   8.637 -0.2801  0.2811  0.0196
 4610SOL    HW125289   1.370   3.287   8.699 -2.3565 -0.1080  0.7776
 4610SOL    HW225290   1.392   3.426   8.658  0.4090 -0.5576  1.1569
 4611SOL     OW25291   4.325   2.873  10.295 -0.4969  0.3865 -0.3998
 4611SOL    HW125292   4.410   2.893  10.334  0.1267 -1.0844 -0.9974
 4611SOL    HW225293   4.306   2.961  10.263  1.2446 -0.7040 -4.4176
 4612SOL     OW25294   0.180   2.459   7.183 -0.1910 -0.1894  0.2542
 4612SOL    HW125295   0.198   2.422   7.269 -0.9109  0.0791  0.5175
 4612SOL    HW225296   0.235   2.405   7.126  0.6373  0.4774  0.4291
 4613SOL     OW25297   2.327   4.272   3.825 -0.5516 -0.4590  0.2000
 4613SOL    HW125298   2.393   4.304   3.887  0.5979  2.7270 -2.6661
 4613SOL    HW225299   2.374   4.286   3.742 -0.2661 -1.3934  0.2007
 4614SOL     OW25300   1.325   3.303  10.548 -0.3136 -0.0256  0.1380
 4614SOL    HW125301   1.255   3.311  10.613  1.0330  0.6320  1.5057
 4614SOL    HW225302   1.283   3.239  10.490  1.3666 -0.6909 -0.3337
 4615SOL     OW25303   3.983   4.587   8.303 -0.2874  0.3066  0.0929
 4615SOL    HW125304   3.954   4.679   8.306 -2.9688 -0.5599  0.8626
 4615SOL    HW225305   3.905   4.541   8.332 -0.3539  1.2682  1.4174
 4616SOL     OW25306   0.560   0.018   1.623  0.1978  0.2408 -0.3497
 4616SOL    HW125307   0.519   0.064   1.550 -0.7749  0.4839  0.3610
 4616SOL    HW225308   0.629   0.078   1.652 -0.4172  1.3431 -1.2080
 4617SOL     OW25309   3.185   0.152  11.796 -0.1167  0.0636  0.2222
 4617SOL    HW125310   3.257   0.097  11.763  1.3548  0.0967  3.3118
 4617SOL    HW225311   3.182   0.139  11.891  0.8753 -0.6073  0.1712
 4618SOL     OW25312   1.140   3.787  11.563 -0.0029  0.2254  0.4641
 4618SOL    HW125313   1.203   3.858  11.554 -0.6589  0.6120 -1.0228
 4618SOL    HW225314   1.160   3.754  11.651  2.8765  2.0931  0.5068
 4619SOL     OW25315   3.109   1.189   1.919  0.2818  0.1797  0.1624
 4619SOL    HW125316   3.163   1.267   1.908 -1.3206  1.1967 -0.3690
 4619SOL    HW225317   3.045   1.217   1.984  0.8618  0.3863  0.6429
 4620SOL     OW25318   2.927   1.794   8.863 -0.6395  0.1069  0.7297
 4620SOL    HW125319   2.965   1.875   8.829 -1.0041 -0.2281 -0.4744
 4620SOL    HW225320   2.872   1.824   8.936 -0.1025 -0.7747  1.5029
 4621SOL     OW25321   1.320   2.455   5.334 -0.3344 -0.0189 -0.0851
 4621SOL    HW125322   1.315   2.474   5.241 -0.8762 -0.2458 -0.1008
 4621SOL    HW225323   1.412   2.429   5.344 -0.0874 -0.6313 -4.0790
 4622SOL     OW25324   1.069   2.339   4.369 -0.2739  0.3626  0.2049
 4622SOL    HW125325   1.093   2.340   4.277 -1.5391  0.1944 -0.1217
 4622SOL    HW225326   1.021   2.420   4.382  0.5334  0.8404  0.1833
 4623SOL     OW25327   1.827   0.083   2.551  0.0843 -0.1884 -0.0168
 4623SOL    HW125328   1.870   0.031   2.483 -1.3836 -0.7356 -0.5339
 4623SOL    HW225329   1.851   0.040   2.633 -0.3889  0.9518  0.7087
 4624SOL     OW25330   0.707   3.348   6.210  0.0653  0.2849  0.0129
 4624SOL    HW125331   0.746   3.428   6.246  1.7865 -0.2001 -0.7858
 4624SOL    HW225332   0.629   3.389   6.172  0.1032  0.8597  0.5589
 4625SOL     OW25333   1.973   4.186   6.764  0.3468 -0.0538  0.2046
 4625SOL    HW125334   1.961   4.189   6.859  0.5472 -2.9542  0.3129
 4625SOL    HW225335   1.933   4.272   6.754 -0.3020 -0.4514 -0.5964
 4626SOL     OW25336   0.419   2.070   3.953 -0.1292  0.6863 -0.1076
 4626SOL    HW125337   0.407   1.999   4.016 -1.1177  0.2395 -0.8045
 4626SOL    HW225338   0.330   2.104   3.961 -1.4627 -2.8434  0.1308
 4627SOL     OW25339   3.571   2.856   2.437  0.0724 -0.3535  0.6464
 4627SOL    HW125340   3.502   2.809   2.390 -0.9640 -0.5429  2.3907
 4627SOL    HW225341   3.563   2.948   2.411  0.4758 -0.4676  0.1039
 4628SOL     OW25342   0.952   4.469   2.692 -0.2105  0.2231 -0.2451
 4628SOL    HW125343   1.001   4.550   2.678  0.2020 -0.0687 -0.5110
 4628SOL    HW225344   0.966   4.467   2.787  1.0135 -0.1340 -0.4285
 4629SOL     OW25345   1.785   1.585  17.247  0.5251  0.6848 -0.0689
 4629SOL    HW125346   1.827   1.512  17.292 -0.9658 -1.1787 -1.6704
 4629SOL    HW225347   1.699   1.545  17.233  0.7001 -0.1720  1.3109
 4630SOL     OW25348   1.204   3.454   5.645  0.3341 -0.1751 -0.1957
 4630SOL    HW125349   1.109   3.441   5.637  0.4889 -0.6051 -1.5105
 4630SOL    HW225350   1.248   3.369   5.652 -1.1795 -0.8237  1.5343
 4631SOL     OW25351   0.371   0.632  15.266  0.4276  0.5384 -0.5973
 4631SOL    HW125352   0.297   0.691  15.282  0.9397  0.5266  1.9434
 4631SOL    HW225353   0.398   0.618  15.357  0.6911 -3.4364 -1.2996
 4632SOL     OW25354   4.127   4.667   3.852  0.0979 -0.2963  0.2882
 4632SOL    HW125355   4.221   4.656   3.868 -0.0425 -1.0693  0.5962
 4632SOL    HW225356   4.114   0.021   3.906  0.9857 -1.5586  2.3373
 4633SOL     OW25357   4.203   4.387  13.953 -0.1316 -0.5674 -0.3695
 4633SOL    HW125358   4.184   4.477  13.927  2.0246  0.8485  2.9848
 4633SOL    HW225359   4.297   4.396  13.935 -0.5032  3.8228 -0.0618
 4634SOL     OW25360   3.299   1.963   0.946 -0.1169  0.1746  0.0738
 4634SOL    HW125361   3.236   2.022   0.988  1.1789  1.2173  0.5725
 4634SOL    HW225362   3.311   1.995   0.857  0.9498  2.0207  0.8812
 4635SOL     OW25363   4.001   4.465   6.465 -0.1355 -0.1028 -0.1204
 4635SOL    HW125364   4.070   4.519   6.425 -0.6442  0.6461  0.0172
 4635SOL    HW225365   3.961   4.541   6.507  4.1439  2.2170 -0.1798
 4636SOL     OW25366   0.603   3.159   4.591  0.0099  0.3696  0.0834
 4636SOL    HW125367   0.544   3.218   4.544  0.9974  0.3519 -1.1710
 4636SOL    HW225368   0.619   3.213   4.669  0.3593  0.5229 -0.0956
 4637SOL     OW25369   1.139   1.149   8.887  0.4546  0.3723 -0.1344
 4637SOL    HW125370   1.191   1.071   8.903  0.5832  0.6045  0.5812
 4637SOL    HW225371   1.154   1.174   8.796 -1.9476 -1.7691 -1.1141
 4638SOL     OW25372   4.628   3.596  17.664 -0.3540 -0.4814  0.0611
 4638SOL    HW125373   4.577   3.677  17.669 -1.8262 -1.3858 -0.2713
 4638SOL    HW225374   4.658   3.601   0.055 -1.1876 -0.4243  0.3283
 4639SOL     OW25375   1.205   2.161   2.064 -0.3470 -0.3478  0.1408
 4639SOL    HW125376   1.288   2.125   2.034 -1.1570 -0.5857 -1.8031
 4639SOL    HW225377   1.147   2.129   1.995 -1.5450  0.2558  0.8589
 4640SOL     OW25378   0.535   4.570  12.876 -0.2835 -0.2666  0.0500
 4640SOL    HW125379   0.591   4.531  12.944 -0.4578  0.3919  0.5736
 4640SOL    HW225380   0.588   4.575  12.797 -1.7547  0.1602 -0.9132
 4641SOL     OW25381   2.796   3.958   2.646 -0.1459  0.2214 -0.4334
 4641SOL    HW125382   2.874   3.920   2.607  1.0875  1.6506  0.6246
 4641SOL    HW225383   2.745   3.878   2.658  1.7565 -0.4667  3.0493
 4642SOL     OW25384   2.265   4.169   6.785 -0.0382 -0.0392  0.3575
 4642SOL    HW125385   2.174   4.191   6.764  0.0024  1.1179  1.4163
 4642SOL    HW225386   2.285   4.122   6.704 -2.1418 -3.1119  1.6051
 4643SOL     OW25387   3.424   3.740   8.362  0.0933  0.5340  0.7271
 4643SOL    HW125388   3.452   3.679   8.431 -0.2343 -0.4480 -0.0053
 4643SOL    HW225389   3.330   3.727   8.347  0.1946  0.7606 -0.1114
 4644SOL     OW25390   0.411   1.921   5.777  0.0959 -0.5079  0.2597
 4644SOL    HW125391   0.426   1.901   5.869  1.2100  2.1299  0.6574
 4644SOL    HW225392   0.383   1.832   5.758  0.0486 -0.4440  0.0349
 4645SOL     OW25393   1.409   4.604   2.677 -0.0589 -0.1843  0.4165
 4645SOL    HW125394   1.382   4.696   2.673  0.2407 -0.0316  1.9154
 4645SOL    HW225395   1.446   4.578   2.593  0.6377 -0.6972  0.8802
 4646SOL     OW25396   0.830   2.633  12.750  0.5148 -0.2939  0.4306
 4646SOL    HW125397   0.816   2.601  12.839  0.9272  1.4666  1.1360
 4646SOL    HW225398   0.822   2.547  12.710  1.7219 -0.6747  1.0082
 4647SOL     OW25399   0.054   3.093   3.725  0.7005  0.8518  0.5686
 4647SOL    HW125400   0.110   3.161   3.688  1.8335 -0.1064  0.5144
 4647SOL    HW225401   0.117   3.021   3.721  2.3890  2.3425  0.4816
 4648SOL     OW25402   1.597   4.299  17.256 -0.4394 -0.5204  0.0538
 4648SOL    HW125403   1.554   4.273  17.174  1.2270 -1.1797 -0.5993
 4648SOL    HW225404   1.569   4.390  17.255 -1.1356 -0.7312  0.5840
 4649SOL     OW25405   3.851   3.582  12.393  0.1210 -0.1187 -0.3560
 4649SOL    HW125406   3.767   3.606  12.354 -0.5242 -2.4128 -0.3857
 4649SOL    HW225407   3.907   3.606  12.319  1.5681 -1.9409  0.1277
 4650SOL     OW25408   1.344   4.146  15.699 -0.3290  0.3469  0.1747
 4650SOL    HW125409   1.431   4.118  15.729 -0.0496  1.0569  0.0438
 4650SOL    HW225410   1.354   4.241  15.686 -0.5504  0.2907 -0.4123
 4651SOL     OW25411   3.303   0.501   7.225  0.0273  0.0914 -0.7424
 4651SOL    HW125412   3.263   0.424   7.184 -1.2835  0.6272 -0.4850
 4651SOL    HW225413   3.319   0.554   7.147 -0.5491  0.7052 -0.4494
 4652SOL     OW25414   1.003   1.689   3.359  0.3445 -0.4580 -0.0883
 4652SOL    HW125415   1.010   1.778   3.324 -0.7012  0.0855  1.0400
 4652SOL    HW225416   1.041   1.688   3.447 -0.8427  1.7938  0.4604
 4653SOL     OW25417   3.807   0.061   4.643 -0.0711  0.0741  0.1138
 4653SOL    HW125418   3.763   0.078   4.560 -0.5626 -1.7109 -0.0018
 4653SOL    HW225419   3.738   0.044   4.708 -2.3187  1.3125 -1.9699
 4654SOL     OW25420   1.013   2.859  13.116 -0.1692 -0.1584 -0.0674
 4654SOL    HW125421   1.004   2.941  13.066 -2.3811 -0.8383 -0.7737
 4654SOL    HW225422   0.933   2.822  13.080  0.3981 -1.8246  0.4200
 4655SOL     OW25423   3.014   0.556   8.767  0.1060  0.0366 -0.3397
 4655SOL    HW125424   2.958   0.517   8.834 -0.6115 -1.7965 -1.9953
 4655SOL    HW225425   3.103   0.532   8.793 -0.5738  1.1325  3.0261
 4656SOL     OW25426   4.053   3.459   8.273  0.0582  0.1969 -0.5335
 4656SOL    HW125427   4.148   3.444   8.272 -0.2311 -1.5507 -1.3895
 4656SOL    HW225428   4.032   3.477   8.181 -1.0416  1.0816 -0.1029
 4657SOL     OW25429   3.061   4.552   7.999  0.3155  0.3447  0.5607
 4657SOL    HW125430   3.044   4.644   7.978 -1.0569  0.6145  2.9137
 4657SOL    HW225431   3.157   4.548   8.001  0.2355 -1.0232  1.6436
 4658SOL     OW25432   0.257   2.802   8.896  0.1983  0.0870  0.5924
 4658SOL    HW125433   0.337   2.794   8.947  1.2281  0.1019 -1.0378
 4658SOL    HW225434   0.200   2.846   8.960 -1.2134 -0.7533 -0.0809
 4659SOL     OW25435   2.212   2.780   5.869 -0.5213 -0.5887  0.4685
 4659SOL    HW125436   2.261   2.699   5.886 -0.0739 -0.3702  0.2237
 4659SOL    HW225437   2.150   2.785   5.942  0.5622  0.0731  1.3537
 4660SOL     OW25438   0.112   2.921   7.174 -0.2317 -0.2217  0.1139
 4660SOL    HW125439   0.022   2.903   7.146  0.1536 -0.3707 -1.0325
 4660SOL    HW225440   0.103   3.013   7.197 -1.4649 -0.5487  0.9168
 4661SOL     OW25441   0.488   1.709   9.202 -0.0831  0.2573 -0.5645
 4661SOL    HW125442   0.505   1.620   9.231  2.7564  0.6087 -1.2227
 4661SOL    HW225443   0.573   1.752   9.196  0.2631 -0.6516 -1.9531
 4662SOL     OW25444   0.182   4.652  11.011 -0.5849 -0.1603 -0.1959
 4662SOL    HW125445   0.126   4.668  10.934  1.2998 -1.6947 -1.8876
 4662SOL    HW225446   0.119   4.626  11.078  0.0143 -0.6740  0.1662
 4663SOL     OW25447   3.847   0.297  14.120  0.2752 -0.0305 -0.0656
 4663SOL    HW125448   3.884   0.332  14.201 -2.7902  2.1977  0.3732
 4663SOL    HW225449   3.756   0.281  14.145  0.4074 -0.1601  0.3282
 4664SOL     OW25450   2.460   1.968  13.647 -0.3519 -0.1373 -0.1620
 4664SOL    HW125451   2.400   1.949  13.719 -0.7983 -1.4076 -0.8823
 4664SOL    HW225452   2.408   2.031  13.597 -0.9148 -1.2542 -0.9634
 4665SOL     OW25453   1.222   3.652  16.087  0.9141  0.2748  0.2700
 4665SOL    HW125454   1.226   3.568  16.042 -0.5036 -0.0499  0.7475
 4665SOL    HW225455   1.151   3.636  16.150  1.5880  0.8321  1.1818
 4666SOL     OW25456   2.282   0.498   6.345  0.0077 -0.2004  0.1509
 4666SOL    HW125457   2.227   0.425   6.374 -2.2054  1.6356  0.5570
 4666SOL    HW225458   2.297   0.485   6.251  0.3983  3.6350 -0.2965
 4667SOL     OW25459   3.395   1.387   9.548 -0.0118 -0.0283 -0.3321
 4667SOL    HW125460   3.456   1.318   9.522  0.0756 -0.8093  1.9392
 4667SOL    HW225461   3.342   1.332   9.605  1.5886 -1.7543 -0.5001
 4668SOL     OW25462   0.104   1.766   2.941 -0.2312  0.8558  0.2400
 4668SOL    HW125463   0.050   1.726   2.873  0.4424  1.3095 -0.5735
 4668SOL    HW225464   0.141   1.847   2.906  0.5362  0.2538 -0.3391
 4669SOL     OW25465   1.289   3.393   3.284  0.3914 -0.1126  0.1265
 4669SOL    HW125466   1.361   3.454   3.303  0.1886 -0.7879  3.0648
 4669SOL    HW225467   1.280   3.363   3.374 -0.7539 -1.3114 -0.3950
 4670SOL     OW25468   4.324   0.594  17.482  0.4044  0.3027  0.4443
 4670SOL    HW125469   4.389   0.634  17.540  0.6662 -0.0041  0.3643
 4670SOL    HW225470   4.296   0.675  17.440  0.4402 -0.4931 -1.1110
 4671SOL     OW25471   3.268   1.208   9.731 -0.8964  0.9880 -0.2187
 4671SOL    HW125472   3.340   1.149   9.754 -0.3339  1.3814 -0.9739
 4671SOL    HW225473   3.196   1.155   9.764 -0.6833 -0.0216 -1.3875
 4672SOL     OW25474   2.163   0.584   8.990 -0.3416  0.0586  0.3469
 4672SOL    HW125475   2.191   0.493   8.987  0.1880  0.2271  0.2887
 4672SOL    HW225476   2.185   0.614   9.078  1.1869 -3.5714  1.1860
 4673SOL     OW25477   4.103   3.796   9.044 -0.0447  0.0803 -0.2761
 4673SOL    HW125478   4.190   3.836   9.045 -0.3414  0.7147 -0.2547
 4673SOL    HW225479   4.120   3.748   9.125  0.1207 -1.5419 -1.2632
 4674SOL     OW25480   0.708   0.120   7.199 -0.7658  0.3023  0.1126
 4674SOL    HW125481   0.687   0.213   7.192  1.1522  0.8216  1.5764
 4674SOL    HW225482   0.752   0.130   7.283 -0.5023 -0.2837  0.0420
 4675SOL     OW25483   2.833   4.671  17.498 -0.2884  0.5581 -0.4940
 4675SOL    HW125484   2.738   4.676  17.493 -0.3573  0.7687  1.0945
 4675SOL    HW225485   2.846   4.686  17.592 -0.8924 -0.8798 -0.1826
 4676SOL     OW25486   3.147   0.396  15.003 -0.3022 -0.5827  0.9935
 4676SOL    HW125487   3.053   0.380  15.016 -0.1001  0.9386  4.2506
 4676SOL    HW225488   3.168   0.472  15.057  0.2302  0.5903 -0.8297
 4677SOL     OW25489   4.508   2.541   7.551  0.3206  0.6092 -0.2212
 4677SOL    HW125490   4.431   2.589   7.582 -0.7202 -0.9852 -0.3086
 4677SOL    HW225491   4.481   2.450   7.562  2.0905  0.4310  2.5825
 4678SOL     OW25492   4.664   2.942  12.030 -0.2171 -0.2504 -0.3514
 4678SOL    HW125493   0.035   2.942  12.017 -0.1345  1.1215  0.2503
 4678SOL    HW225494   4.660   3.022  12.083  2.4552  0.5487 -1.3430
 4679SOL     OW25495   3.972   1.485  10.931  0.3179  0.4222 -0.2666
 4679SOL    HW125496   3.974   1.435  10.850 -0.2444  0.4279 -0.2858
 4679SOL    HW225497   3.930   1.419  10.986  0.5193  0.6170  0.1218
 4680SOL     OW25498   3.197   0.028  13.050 -0.2205 -0.2956  0.0801
 4680SOL    HW125499   3.273   4.694  13.038 -2.0398 -2.8243  0.8525
 4680SOL    HW225500   3.185   0.018  13.145 -0.3782  0.5885  0.1490
 4681SOL     OW25501   2.167   2.618  12.913  0.9809  0.0532  0.2464
 4681SOL    HW125502   2.254   2.652  12.891  0.6538  2.1583  2.1330
 4681SOL    HW225503   2.167   2.613  13.009 -3.8623  0.2477  0.2161
 4682SOL     OW25504   2.340   4.462  17.422 -0.2562 -0.5701  0.5697
 4682SOL    HW125505   2.267   4.525  17.418  1.3320  1.1539 -0.9189
 4682SOL    HW225506   2.392   4.499  17.352 -0.8275 -0.1942  0.3429
 4683SOL     OW25507   1.042   3.602   5.916 -0.3550 -0.0034 -0.6726
 4683SOL    HW125508   1.045   3.543   5.841 -0.7816 -0.7893 -0.0620
 4683SOL    HW225509   0.955   3.583   5.950 -0.8683  3.1485 -0.1482
 4684SOL     OW25510   4.123   0.343   8.818  0.5589 -0.0119 -0.6363
 4684SOL    HW125511   4.189   0.380   8.760 -0.2339  1.9972 -0.2599
 4684SOL    HW225512   4.075   0.292   8.753  2.2253 -0.3047 -1.6099
 4685SOL     OW25513   4.207   2.939   4.463 -0.2030  0.2548 -0.2486
 4685SOL    HW125514   4.171   2.902   4.383 -2.2942  3.1783 -0.6965
 4685SOL    HW225515   4.203   2.864   4.522  0.5771  0.4755  0.0838
 4686SOL     OW25516   2.785   3.568   4.059 -0.8082  0.3755 -0.2660
 4686SOL    HW125517   2.826   3.554   3.974 -2.3526 -0.7660 -0.8287
 4686SOL    HW225518   2.864   3.550   4.111 -0.2181 -0.1785 -1.3467
 4687SOL     OW25519   4.224   3.807   7.442 -0.2663  0.0995 -0.2009
 4687SOL    HW125520   4.261   3.857   7.370 -0.0279 -0.5273 -0.5151
 4687SOL    HW225521   4.278   3.827   7.518  0.7224 -0.1345 -0.8474
 4688SOL     OW25522   2.052   0.436   3.957 -0.1422  0.1704  0.7767
 4688SOL    HW125523   1.959   0.434   3.981 -0.2337 -2.5949  0.1769
 4688SOL    HW225524   2.060   0.516   3.905 -0.0894 -0.9117 -0.8955
 4689SOL     OW25525   1.135   4.223   0.093 -0.4040 -0.8374  0.0583
 4689SOL    HW125526   1.080   4.180   0.158 -0.1989 -0.4148  0.5136
 4689SOL    HW225527   1.138   4.165   0.017  1.5369  0.6634 -1.0022
 4690SOL     OW25528   0.854   2.566  11.212 -0.0299 -0.0029  0.0218
 4690SOL    HW125529   0.789   2.605  11.270 -0.8541 -1.6021  0.1816
 4690SOL    HW225530   0.799   2.542  11.137  0.2380  0.5361 -0.3461
 4691SOL     OW25531   2.256   3.434   9.743 -0.0257 -0.5366 -0.0865
 4691SOL    HW125532   2.276   3.361   9.802  1.4738  0.6006  0.8154
 4691SOL    HW225533   2.258   3.510   9.802 -1.7423  0.2002 -0.9921
 4692SOL     OW25534   4.635   3.104   7.820  0.6291 -0.5836  0.4729
 4692SOL    HW125535   4.711   3.074   7.870  0.9249 -1.2545 -0.3796
 4692SOL    HW225536   4.566   3.053   7.863  0.8509 -0.6615  0.7328
 4693SOL     OW25537   0.797   1.346   5.860  0.0019 -0.2689  0.4972
 4693SOL    HW125538   0.832   1.373   5.945 -1.6068  0.0638  1.0526
 4693SOL    HW225539   0.809   1.251   5.870 -0.0395 -0.4260 -0.9065
 4694SOL     OW25540   4.431   2.446   7.953  0.4398  0.2590 -0.9172
 4694SOL    HW125541   4.461   2.534   7.933  0.0504  0.1631 -1.9123
 4694SOL    HW225542   4.416   2.453   8.047 -0.3532 -1.3392 -0.9256
 4695SOL     OW25543   2.227   1.661  13.651 -0.1101 -0.5992  0.2639
 4695SOL    HW125544   2.309   1.669  13.602  0.9333  2.4774  2.5087
 4695SOL    HW225545   2.231   1.730  13.717 -0.5731 -0.2926 -0.0336
 4696SOL     OW25546   1.002   0.440   9.164 -0.1661  0.1785  0.2669
 4696SOL    HW125547   1.093   0.468   9.175 -0.6746  1.1633  1.9023
 4696SOL    HW225548   1.002   0.359   9.113 -0.8715  0.2136  0.2190
 4697SOL     OW25549   1.737   4.200   7.603 -0.6795  0.1256 -0.4350
 4697SOL    HW125550   1.831   4.202   7.619 -0.7492  1.5799 -0.2552
 4697SOL    HW225551   1.693   4.228   7.683 -2.2446 -2.0226 -0.5390
 4698SOL     OW25552   2.577   2.911   9.802  0.0873  0.5950  0.4298
 4698SOL    HW125553   2.654   2.966   9.812 -0.2292  0.6740  2.4689
 4698SOL    HW225554   2.536   2.972   9.740 -1.4039 -0.6176  0.2130
 4699SOL     OW25555   0.439   3.488   8.807  0.0467  0.5764 -0.0232
 4699SOL    HW125556   0.382   3.480   8.883 -0.8109  1.4456 -0.5853
 4699SOL    HW225557   0.525   3.497   8.849 -0.0883 -1.5450  0.7181
 4700SOL     OW25558   0.537   2.477   6.744  0.0119 -0.3986 -0.2691
 4700SOL    HW125559   0.614   2.514   6.786 -1.5919  0.7785  1.5922
 4700SOL    HW225560   0.528   2.552   6.686  0.1430  0.2716  0.5825
 4701SOL     OW25561   4.227   4.101   9.125  0.0207 -0.3980  0.1398
 4701SOL    HW125562   4.180   4.142   9.053  1.6419 -1.2951 -1.4279
 4701SOL    HW225563   4.157   4.057   9.173 -0.5259  1.6014  1.1709
 4702SOL     OW25564   1.973   0.085   4.830  0.0392 -0.0470 -0.1866
 4702SOL    HW125565   1.950   0.094   4.737 -2.2178 -2.6538  0.1112
 4702SOL    HW225566   1.914   0.150   4.869  0.6846 -0.9699  2.3168
 4703SOL     OW25567   0.439   3.936   3.507 -0.2743 -0.7901  0.3807
 4703SOL    HW125568   0.502   3.864   3.499 -0.1056 -0.7931  1.7067
 4703SOL    HW225569   0.490   4.004   3.463  1.0387 -0.8701  1.7779
 4704SOL     OW25570   3.167   1.048   3.814  0.1850  0.2261  0.0059
 4704SOL    HW125571   3.179   1.033   3.721 -2.0614 -0.2472 -0.2114
 4704SOL    HW225572   3.073   1.030   3.814  0.4844 -1.3757  1.1414
 4705SOL     OW25573   2.122   2.274   9.656 -0.2170 -0.3680  0.4183
 4705SOL    HW125574   2.074   2.300   9.577 -0.6516 -2.5087 -0.0127
 4705SOL    HW225575   2.054   2.283   9.724  0.5258  0.0097  1.1093
 4706SOL     OW25576   0.621   4.702  16.751 -0.1725 -0.0599  0.1644
 4706SOL    HW125577   0.567   4.680  16.675  0.1768 -0.9840  0.1866
 4706SOL    HW225578   0.707   4.678  16.715  0.3112 -0.0412  1.3263
 4707SOL     OW25579   1.505   3.265   5.239  0.2680  0.5136  0.2302
 4707SOL    HW125580   1.411   3.260   5.259  0.0401  0.5137 -0.8623
 4707SOL    HW225581   1.516   3.205   5.165 -0.1396 -1.6604  1.9037
 4708SOL     OW25582   3.358   4.348   6.314  0.3325 -0.1502  0.7541
 4708SOL    HW125583   3.337   4.334   6.406  0.2330  2.6972  1.1888
 4708SOL    HW225584   3.375   4.258   6.287 -1.8155 -0.8567  1.7834
 4709SOL     OW25585   1.519   1.674  16.987  0.4217 -0.0493  0.0826
 4709SOL    HW125586   1.615   1.671  16.987  0.4148 -0.2775  0.3042
 4709SOL    HW225587   1.495   1.606  16.924 -1.9349  0.5337  0.3498
 4710SOL     OW25588   2.649   4.504   7.693  0.4744 -0.0662 -0.2014
 4710SOL    HW125589   2.655   4.410   7.709  1.1748  0.3738  2.0390
 4710SOL    HW225590   2.587   4.509   7.621 -1.0180  0.6081  1.1296
 4711SOL     OW25591   1.384   1.199  17.303  0.4701 -0.4042  0.2860
 4711SOL    HW125592   1.372   1.132  17.236 -0.7204  0.0147  0.0874
 4711SOL    HW225593   1.391   1.279  17.251 -0.8358 -1.3664 -1.3489
 4712SOL     OW25594   0.227   1.018   6.313  0.2263  0.0043 -0.4090
 4712SOL    HW125595   0.137   1.009   6.344 -0.1787 -0.2638 -1.6966
 4712SOL    HW225596   0.269   1.077   6.376 -1.4937 -0.4846  1.2083
 4713SOL     OW25597   1.953   4.445   2.251  0.6373 -0.5569 -0.0816
 4713SOL    HW125598   1.924   4.390   2.323  0.0496 -0.9995 -0.6611
 4713SOL    HW225599   2.049   4.447   2.248  0.6438  1.8869  1.5426
 4714SOL     OW25600   1.666   4.611   5.597 -0.2480 -0.1358  0.0183
 4714SOL    HW125601   1.753   4.626   5.560 -0.3026  0.1290 -0.0079
 4714SOL    HW225602   1.640   4.544   5.534  0.4258  2.2975 -2.8488
 4715SOL     OW25603   4.264   0.922   0.380  0.2390  0.6294 -0.5858
 4715SOL    HW125604   4.207   0.856   0.419 -0.7682  2.2720  0.7350
 4715SOL    HW225605   4.282   0.971   0.460 -1.1678  2.9746 -1.7165
 4716SOL     OW25606   1.694   1.319   4.619 -0.3235 -0.2366  0.2114
 4716SOL    HW125607   1.726   1.304   4.530  0.6000  2.3679  0.1034
 4716SOL    HW225608   1.761   1.273   4.669  0.4144  1.9689  1.2468
 4717SOL     OW25609   0.808   3.226   2.913 -0.7461 -0.2042  0.5687
 4717SOL    HW125610   0.899   3.225   2.942 -0.7902  0.8512  0.7496
 4717SOL    HW225611   0.758   3.285   2.969  1.8253  1.2845  1.3121
 4718SOL     OW25612   4.007   1.840   4.058 -0.0010  1.0153  0.1663
 4718SOL    HW125613   3.968   1.923   4.084 -1.4718 -0.6061  3.1392
 4718SOL    HW225614   4.041   1.858   3.970 -0.0899  0.4999  0.0268
 4719SOL     OW25615   3.214   1.766   4.726  0.3583  0.7522  0.2611
 4719SOL    HW125616   3.261   1.732   4.802  0.2915 -0.7150 -0.3645
 4719SOL    HW225617   3.291   1.810   4.690  1.0214 -1.1839 -0.6872
 4720SOL     OW25618   3.889   4.372  14.059  0.8995  0.4835  0.1973
 4720SOL    HW125619   3.946   4.428  14.006 -2.4689  1.7535 -2.0976
 4720SOL    HW225620   3.951   4.302  14.075  2.9786  2.9890  3.2883
 4721SOL     OW25621   2.223   3.322   3.004 -0.1549  0.4349 -0.0911
 4721SOL    HW125622   2.296   3.343   2.945 -1.0891 -0.4334 -1.5822
 4721SOL    HW225623   2.155   3.383   2.974 -2.0367 -2.3793 -1.5835
 4722SOL     OW25624   2.876   4.537   6.668 -0.3879  0.1182 -0.2493
 4722SOL    HW125625   2.868   4.481   6.591 -0.1540 -0.5431  0.2099
 4722SOL    HW225626   2.816   4.496   6.731 -0.9485 -0.6502 -1.2978
 4723SOL     OW25627   1.147   0.123  10.962 -0.1041 -0.1754  0.9218
 4723SOL    HW125628   1.212   0.150  10.897  1.3371 -2.2897  1.4735
 4723SOL    HW225629   1.143   0.029  10.945 -1.4098  0.1634 -0.6435
 4724SOL     OW25630   1.030   0.374   5.100  0.6728  0.3328 -0.7036
 4724SOL    HW125631   1.010   0.286   5.132 -0.8368  0.5729 -0.9738
 4724SOL    HW225632   0.945   0.416   5.089 -1.1456 -2.2221  3.7848
 4725SOL     OW25633   2.585   0.259   6.349 -0.2230 -0.3831  0.0463
 4725SOL    HW125634   2.618   0.328   6.407 -0.8594  0.0989 -0.1753
 4725SOL    HW225635   2.492   0.246   6.367 -0.9334  1.7931 -2.0011
 4726SOL     OW25636   2.872   4.634  13.146  0.5049  0.1634 -0.6336
 4726SOL    HW125637   2.951   4.637  13.198  1.6333 -0.1677 -2.3206
 4726SOL    HW225638   2.902   4.582  13.071  2.2143  0.6995 -0.3101
 4727SOL     OW25639   0.290   3.258   7.123  0.0969 -0.4086  0.1396
 4727SOL    HW125640   0.338   3.178   7.102 -2.7016 -2.2892  0.9063
 4727SOL    HW225641   0.218   3.223   7.176  0.2322 -0.3454  0.3657
 4728SOL     OW25642   4.427   1.630  14.249 -0.5196  0.2551 -0.1242
 4728SOL    HW125643   4.347   1.628  14.196 -0.3631  0.4656 -0.3709
 4728SOL    HW225644   4.453   1.722  14.250 -1.6476  0.5468  2.2030
 4729SOL     OW25645   2.697   4.447   6.836 -0.9728 -0.0656 -0.3009
 4729SOL    HW125646   2.661   4.365   6.803 -3.8237  0.6868  0.9203
 4729SOL    HW225647   2.616   4.482   6.873  0.2286 -0.1341  2.4846
 4730SOL     OW25648   3.101   3.014   6.156 -0.0938 -0.4073 -0.0273
 4730SOL    HW125649   3.076   3.002   6.247  0.4125  1.3085  0.3499
 4730SOL    HW225650   3.025   2.976   6.112 -0.4041  0.7216 -0.4571
 4731SOL     OW25651   0.316   0.218   7.321 -0.3093  0.3431 -0.2538
 4731SOL    HW125652   0.335   0.309   7.343 -1.3493  0.4177  0.3629
 4731SOL    HW225653   0.373   0.171   7.381  0.5952 -0.0572 -1.4347
 4732SOL     OW25654   2.010   3.233  13.035 -0.3334 -0.4871 -0.5290
 4732SOL    HW125655   2.006   3.139  13.055 -1.5631 -0.3779 -0.2741
 4732SOL    HW225656   1.920   3.262  13.018 -0.5706 -0.1532  1.2812
 4733SOL     OW25657   3.502   2.232  17.605  0.1059 -0.2949 -0.6754
 4733SOL    HW125658   3.568   2.171  17.637  0.0562 -0.3375 -0.6544
 4733SOL    HW225659   3.519   2.312  17.655 -2.9556 -1.4579  2.2198
 4734SOL     OW25660   4.179   1.558   6.067 -0.1213 -0.0790 -0.0312
 4734SOL    HW125661   4.201   1.501   5.993  1.3952  1.8225 -1.0682
 4734SOL    HW225662   4.093   1.522   6.089 -0.3744  1.4634  1.4980
 4735SOL     OW25663   1.188   4.525   7.320  0.3326  0.0406 -0.3173
 4735SOL    HW125664   1.115   4.582   7.343  0.2340  0.8006 -2.5045
 4735SOL    HW225665   1.253   4.561   7.380 -0.0311  0.1772 -0.0109
 4736SOL     OW25666   0.346   4.231   8.331 -0.2677  0.0939 -0.3952
 4736SOL    HW125667   0.416   4.235   8.266  1.5068 -1.0589  1.4268
 4736SOL    HW225668   0.400   4.254   8.407 -1.3441  1.4138 -0.0286
 4737SOL     OW25669   1.119   1.693   2.565  0.1048  0.1081  0.2459
 4737SOL    HW125670   1.137   1.615   2.511 -2.2236  0.3744 -0.9334
 4737SOL    HW225671   1.085   1.663   2.649 -3.5813  1.4735 -0.7746
 4738SOL     OW25672   4.006   0.841   3.338 -0.5570 -0.2797 -0.1346
 4738SOL    HW125673   3.955   0.770   3.298 -0.1637 -0.2134 -0.7625
 4738SOL    HW225674   4.033   0.797   3.419 -2.2588 -0.6238  0.2342
 4739SOL     OW25675   0.189   4.571   7.023 -0.0300  0.4061  0.0820
 4739SOL    HW125676   0.126   4.613   6.964 -0.5798  1.3497  1.3707
 4739SOL    HW225677   0.218   4.642   7.080 -0.5016  0.3513  0.3880
 4740SOL     OW25678   0.533   1.827  13.124  0.0818 -0.7277  0.0160
 4740SOL    HW125679   0.555   1.903  13.071  3.3237 -1.4749  0.2873
 4740SOL    HW225680   0.450   1.793  13.088 -0.3730 -0.7965  1.1273
 4741SOL     OW25681   2.930   4.288   0.876 -0.0927 -0.3358  0.2738
 4741SOL    HW125682   2.998   4.279   0.809  1.0716  0.3449  1.3618
 4741SOL    HW225683   2.856   4.295   0.816 -1.5546 -1.0115  2.0194
 4742SOL     OW25684   1.390   4.214   2.983  0.6183  0.3053 -0.0419
 4742SOL    HW125685   1.444   4.268   2.925 -0.4445 -0.2843 -1.5527
 4742SOL    HW225686   1.302   4.247   2.969  0.1867 -1.7449 -2.0864
 4743SOL     OW25687   3.883   3.249  11.903  0.1751 -0.1634 -0.3125
 4743SOL    HW125688   3.960   3.281  11.949  0.1539  0.9006 -1.0166
 4743SOL    HW225689   3.873   3.323  11.842  0.4955  1.1953  1.2956
 4744SOL     OW25690   3.297   0.424  12.305  0.3718  0.2676 -0.5807
 4744SOL    HW125691   3.228   0.363  12.332  0.6035  1.1101  1.9501
 4744SOL    HW225692   3.314   0.469  12.388  1.0944 -1.1423  0.0439
 4745SOL     OW25693   0.717   2.184   5.640 -0.2607  0.7498 -0.0036
 4745SOL    HW125694   0.631   2.198   5.601 -0.6492  2.6623  1.5420
 4745SOL    HW225695   0.691   2.197   5.731  0.7884  0.5121  0.3387
 4746SOL     OW25696   1.586   3.340  10.666  0.4033 -0.4696  0.0833
 4746SOL    HW125697   1.655   3.273  10.662  2.2686  1.6773 -3.7947
 4746SOL    HW225698   1.529   3.322  10.592  0.6379  2.3450 -0.7770
 4747SOL     OW25699   4.574   1.621   4.071  0.6279 -0.3556  0.2209
 4747SOL    HW125700   4.547   1.673   4.147 -0.3606  0.8214 -0.9483
 4747SOL    HW225701   4.639   1.562   4.109  2.4628  1.9187  0.5806
 4748SOL     OW25702   2.315   1.033   9.068  0.0500 -0.3462 -0.0113
 4748SOL    HW125703   2.369   0.995   9.138  1.5741  1.3376 -0.2713
 4748SOL    HW225704   2.382   1.039   9.000 -1.2675  0.3029 -1.2388
 4749SOL     OW25705   1.049   1.058   4.473  0.1903  0.4078  0.8109
 4749SOL    HW125706   0.957   1.035   4.487  0.9013 -0.6846  3.6371
 4749SOL    HW225707   1.039   1.125   4.405  3.2455  0.6298  0.5999
 4750SOL     OW25708   2.428   4.489   2.550  0.0422 -0.0570  0.2441
 4750SOL    HW125709   2.356   4.473   2.611 -0.2099 -0.6514 -0.2053
 4750SOL    HW225710   2.505   4.446   2.587  1.2483  0.6915 -1.3878
 4751SOL     OW25711   3.183   1.791   6.957  0.0197 -0.2596 -0.1077
 4751SOL    HW125712   3.142   1.792   6.870 -1.7862  0.2419  0.7427
 4751SOL    HW225713   3.132   1.717   6.992 -0.4600  0.2264  0.2143
 4752SOL     OW25714   3.052   4.545   8.391  0.5767  0.0569  0.0669
 4752SOL    HW125715   3.097   4.629   8.394 -1.3562  1.0842  0.1999
 4752SOL    HW225716   3.025   4.533   8.299 -1.9434 -0.8970  0.9062
 4753SOL     OW25717   3.511   0.824   9.163 -0.3342  0.2550 -0.7794
 4753SOL    HW125718   3.497   0.909   9.121  2.9649  1.0496 -0.2647
 4753SOL    HW225719   3.486   0.859   9.249 -0.2049  1.2417 -1.1382
 4754SOL     OW25720   4.479   2.749  17.140  0.2026  0.8451 -0.7615
 4754SOL    HW125721   4.517   2.718  17.222  2.5452  3.5296 -0.8499
 4754SOL    HW225722   4.461   2.666  17.096  1.3379  0.7511 -1.0388
 4755SOL     OW25723   3.257   3.171  13.962  0.1260  0.1675 -0.0179
 4755SOL    HW125724   3.310   3.250  13.980 -1.7269  1.6867 -1.2431
 4755SOL    HW225725   3.179   3.196  14.011  0.9787  1.2574  0.7927
 4756SOL     OW25726   2.109   0.821   3.379 -0.4321  0.4850 -0.0238
 4756SOL    HW125727   2.079   0.910   3.394  0.1532  1.1376 -2.7568
 4756SOL    HW225728   2.191   0.812   3.428  0.2437  0.9866 -1.0549
 4757SOL     OW25729   0.277   0.954   6.789  0.5243 -0.0463  0.0512
 4757SOL    HW125730   0.305   0.866   6.761 -0.5950 -0.5520  0.5422
 4757SOL    HW225731   0.182   0.950   6.785  0.5485  0.7308 -1.3305
 4758SOL     OW25732   0.441   2.838   0.962  0.8444  0.6789  0.3931
 4758SOL    HW125733   0.466   2.930   0.969  1.5927  0.5536 -0.6629
 4758SOL    HW225734   0.386   2.834   1.040 -1.6668  1.8140 -1.3205
 4759SOL     OW25735   4.550   1.834   1.314  0.2006 -0.1538 -0.3045
 4759SOL    HW125736   4.617   1.770   1.338  0.8459 -0.0328 -1.7860
 4759SOL    HW225737   4.467   1.794   1.341 -0.0111  0.0522 -0.6626
 4760SOL     OW25738   2.482   3.247   2.617 -0.5601  0.0652  0.5306
 4760SOL    HW125739   2.434   3.318   2.575 -1.1926 -0.7405 -0.0874
 4760SOL    HW225740   2.527   3.296   2.687 -1.6964 -0.8827  1.9392
 4761SOL     OW25741   1.921   0.730   1.456 -0.4340  0.3598  0.5824
 4761SOL    HW125742   1.993   0.791   1.440  1.3685 -1.7578  0.6078
 4761SOL    HW225743   1.946   0.661   1.396  1.4086  1.2417  0.3443
 4762SOL     OW25744   2.962   2.447   5.379 -0.3691  1.0851  0.5397
 4762SOL    HW125745   2.990   2.355   5.377 -0.9401  0.8829  2.6430
 4762SOL    HW225746   3.035   2.506   5.398  0.2951 -0.0073  1.3245
 4763SOL     OW25747   1.400   0.202   3.381 -0.2659 -0.6434  0.4135
 4763SOL    HW125748   1.314   0.234   3.406 -0.3272 -0.0458 -0.5430
 4763SOL    HW225749   1.449   0.281   3.355  1.6575 -1.2937  2.1098
 4764SOL     OW25750   0.571   2.779   7.250 -0.3052 -0.3644 -0.3069
 4764SOL    HW125751   0.582   2.812   7.339 -1.5044 -0.4112 -0.1433
 4764SOL    HW225752   0.488   2.815   7.219 -1.2549 -0.8396  1.7197
 4765SOL     OW25753   3.122   0.681  12.490  0.2676 -0.8498 -0.8947
 4765SOL    HW125754   3.195   0.689  12.551 -0.4983 -0.8034  0.0208
 4765SOL    HW225755   3.059   0.642  12.550  1.4397  0.3506  1.1181
 4766SOL     OW25756   3.280   0.231  10.027  0.4354 -0.0843  0.2316
 4766SOL    HW125757   3.278   0.178  10.106  0.8094 -1.1326 -0.4577
 4766SOL    HW225758   3.205   0.290  10.036 -0.8695 -1.7258  0.1126
 4767SOL     OW25759   4.194   2.571   4.464  0.3861  0.0594  0.1134
 4767SOL    HW125760   4.115   2.564   4.517  1.3096 -0.2354  1.4648
 4767SOL    HW225761   4.252   2.619   4.524  1.0535 -1.3051  0.5584
 4768SOL     OW25762   2.515   3.828  11.837 -0.3838 -0.0577  0.2783
 4768SOL    HW125763   2.592   3.829  11.779 -1.0262  2.1205 -0.5073
 4768SOL    HW225764   2.518   3.920  11.861  2.9962  0.1119 -0.7749
 4769SOL     OW25765   4.109   2.862   7.805 -0.0128 -0.1292 -0.3877
 4769SOL    HW125766   4.118   2.955   7.787  1.4578 -0.3674 -0.9008
 4769SOL    HW225767   4.171   2.826   7.741  0.2287  2.0838 -1.3728
 4770SOL     OW25768   3.450   2.446  15.323  0.8307  0.0292  0.2861
 4770SOL    HW125769   3.446   2.540  15.306 -0.1334 -0.6465 -3.2182
 4770SOL    HW225770   3.390   2.425  15.251  2.0222 -2.6924  0.0817
 4771SOL     OW25771   4.350   3.345   5.034  0.2220 -0.1722 -0.1147
 4771SOL    HW125772   4.354   3.367   4.941  1.9221 -1.8466 -0.4447
 4771SOL    HW225773   4.378   3.255   5.019 -1.9295 -0.8024 -0.3649
 4772SOL     OW25774   1.563   1.303  11.810 -0.5924 -0.2027 -0.2184
 4772SOL    HW125775   1.490   1.304  11.748  0.3218 -0.2180 -1.2993
 4772SOL    HW225776   1.605   1.384  11.782  2.5184 -0.6191  3.2606
 4773SOL     OW25777   0.079   0.386   6.121 -0.1685 -0.0505 -0.0749
 4773SOL    HW125778   0.057   0.479   6.118 -1.0062 -0.2781 -0.7200
 4773SOL    HW225779   0.116   0.367   6.035 -0.6820  0.9514 -0.5122
 4774SOL     OW25780   2.703   1.855   5.985  0.0087  0.5249 -0.1577
 4774SOL    HW125781   2.731   1.806   6.062 -1.0383 -1.0152 -0.7526
 4774SOL    HW225782   2.701   1.779   5.928 -1.6360  0.3936  0.0776
 4775SOL     OW25783   1.095   1.252   5.335 -0.0653  0.5717  0.0642
 4775SOL    HW125784   1.082   1.277   5.244  0.2595  0.5066  0.0026
 4775SOL    HW225785   1.134   1.166   5.322  0.2122  0.6664  0.2681
 4776SOL     OW25786   4.500   2.577   8.457  0.1626 -0.4267 -0.0879
 4776SOL    HW125787   4.562   2.522   8.505  0.0354 -1.3170 -0.9413
 4776SOL    HW225788   4.450   2.613   8.531  0.5446  0.0846 -0.0826
 4777SOL     OW25789   2.121   4.223  17.403  0.6411  0.1276 -0.4164
 4777SOL    HW125790   2.178   4.232  17.479  0.4182  2.3966 -0.5263
 4777SOL    HW225791   2.066   4.301  17.412  0.4994 -0.3122  2.7065
 4778SOL     OW25792   2.886   1.854   2.785  0.1188  1.0404  0.4248
 4778SOL    HW125793   2.942   1.931   2.794  0.6204  0.5415  1.4993
 4778SOL    HW225794   2.844   1.876   2.702 -1.3166 -2.1002  0.3396
 4779SOL     OW25795   0.930   4.502   5.112  0.2705 -0.2219  0.3621
 4779SOL    HW125796   1.025   4.494   5.103  0.3745  0.7792  0.5189
 4779SOL    HW225797   0.923   4.428   5.172  1.6254 -1.1829 -0.6512
 4780SOL     OW25798   4.692   2.614   3.535 -0.3156 -0.1091 -0.2667
 4780SOL    HW125799   0.058   2.636   3.555 -0.3014 -0.8806  0.5130
 4780SOL    HW225800   4.664   2.547   3.597 -1.2742  1.0650  0.5923
 4781SOL     OW25801   0.769   2.565   6.315 -1.3227  0.3102  0.3128
 4781SOL    HW125802   0.823   2.643   6.304 -0.8903 -0.0158  0.1171
 4781SOL    HW225803   0.685   2.594   6.280 -1.3666 -0.8876 -0.5928
 4782SOL     OW25804   2.087   2.259   9.349  0.0470 -0.4735 -0.6988
 4782SOL    HW125805   2.111   2.333   9.292  2.8166  2.0125  3.7029
 4782SOL    HW225806   2.009   2.294   9.392 -1.2673 -1.4093 -2.3520
 4783SOL     OW25807   0.988   3.915  14.490 -0.0138 -0.2183 -0.4026
 4783SOL    HW125808   1.045   3.839  14.478  1.2240  0.8855 -1.4681
 4783SOL    HW225809   1.021   3.975  14.423 -1.8452 -0.4859 -1.5257
 4784SOL     OW25810   1.962   1.083   7.033  0.0899  0.2931 -0.1754
 4784SOL    HW125811   2.047   1.125   7.047 -0.2302  1.0548 -0.5626
 4784SOL    HW225812   1.929   1.133   6.959 -1.8028  0.1691  0.5726
 4785SOL     OW25813   3.926   2.043  13.412 -0.3125  0.2679 -0.2162
 4785SOL    HW125814   3.887   1.956  13.402  0.7730 -0.4594  1.9670
 4785SOL    HW225815   3.945   2.052  13.505 -1.3102 -1.8941  0.2064
 4786SOL     OW25816   3.458   2.948   1.700  1.2436 -0.0461  0.6448
 4786SOL    HW125817   3.451   2.853   1.687  2.1169  0.4592 -3.4498
 4786SOL    HW225818   3.551   2.961   1.684  0.9102  0.5813 -0.7438
 4787SOL     OW25819   2.139   0.587   3.707  0.2407  0.5053 -0.3801
 4787SOL    HW125820   2.206   0.622   3.648 -0.4355 -1.1629 -2.1398
 4787SOL    HW225821   2.193   0.529   3.761 -0.1647  1.1151  0.6896
 4788SOL     OW25822   3.483   0.156   1.050 -0.2439  0.3128  0.1810
 4788SOL    HW125823   3.457   0.243   1.081 -0.6030 -0.2645  1.4992
 4788SOL    HW225824   3.404   0.103   1.041 -1.0774  1.9806 -2.2802
 4789SOL     OW25825   1.782   4.511  13.283 -0.2963  0.0591 -0.8961
 4789SOL    HW125826   1.752   4.558  13.361 -1.1305 -0.1980 -1.0626
 4789SOL    HW225827   1.701   4.461  13.272  0.4829 -1.8305  1.7179
 4790SOL     OW25828   1.322   3.629  13.922 -0.0826 -0.3340 -0.4663
 4790SOL    HW125829   1.403   3.599  13.964 -0.6830  0.4815  1.2790
 4790SOL    HW225830   1.339   3.724  13.921 -1.3586 -0.0976  0.5708
 4791SOL     OW25831   1.559   2.857   5.098 -0.4295 -0.3683 -0.1559
 4791SOL    HW125832   1.512   2.929   5.056 -2.5182 -2.0228 -0.6751
 4791SOL    HW225833   1.579   2.811   5.016  0.3383  1.9976 -1.2724
 4792SOL     OW25834   3.136   4.458  12.275  0.2169 -0.5384 -0.0583
 4792SOL    HW125835   3.144   4.366  12.301 -0.0447 -1.0113 -1.6813
 4792SOL    HW225836   3.225   4.480  12.303  0.4986 -0.2245 -1.2051
 4793SOL     OW25837   0.399   3.161   6.466 -0.3606 -0.4523  0.0826
 4793SOL    HW125838   0.475   3.126   6.419 -0.4515 -1.1428  0.4476
 4793SOL    HW225839   0.323   3.129   6.418 -1.4556  0.8637  0.9618
 4794SOL     OW25840   3.618   4.533   8.754 -0.4142  0.0257  0.6322
 4794SOL    HW125841   3.549   4.493   8.701 -2.4506 -1.2899  4.2647
 4794SOL    HW225842   3.671   4.458   8.778 -1.0201 -0.3935  0.6525
 4795SOL     OW25843   1.990   1.512  15.283 -0.0575  0.0207  0.1560
 4795SOL    HW125844   1.905   1.472  15.266  0.9342 -0.7661 -2.9286
 4795SOL    HW225845   2.044   1.437  15.308  0.0875  0.0375 -0.1074
 4796SOL     OW25846   3.230   0.394   8.367  0.1706 -0.5461 -0.2072
 4796SOL    HW125847   3.262   0.462   8.425  0.2756 -0.5725 -0.2350
 4796SOL    HW225848   3.167   0.353   8.426  0.9150 -0.6315  0.5228
 4797SOL     OW25849   3.839   0.401   0.559 -0.0675  0.0784 -0.3963
 4797SOL    HW125850   3.786   0.481   0.567  0.7243  0.6418 -0.6783
 4797SOL    HW225851   3.928   0.427   0.586 -0.2068  0.5095 -0.3414
 4798SOL     OW25852   2.717   2.403   7.262 -0.1056 -0.1976 -0.8292
 4798SOL    HW125853   2.804   2.405   7.301 -0.7138  0.7874  0.4784
 4798SOL    HW225854   2.718   2.458   7.183  2.6757  1.1010  0.1062
 4799SOL     OW25855   1.932   2.738   2.846  0.2499  0.5740 -0.1057
 4799SOL    HW125856   1.916   2.718   2.754 -3.9355 -0.6027  0.8927
 4799SOL    HW225857   1.976   2.655   2.864  1.8487  1.2355 -0.9116
 4800SOL     OW25858   4.208   0.301   3.683 -0.3092  0.4118  0.2788
 4800SOL    HW125859   4.280   0.288   3.745  0.9910  3.1704 -0.6936
 4800SOL    HW225860   4.140   0.331   3.744  0.6023  0.7890  1.1046
 4801SOL     OW25861   4.455   4.501   5.482  0.0270 -0.4372  0.5061
 4801SOL    HW125862   4.525   4.564   5.464 -1.1273  0.8798  0.6206
 4801SOL    HW225863   4.392   4.544   5.540  2.3852  0.2867  2.5267
 4802SOL     OW25864   0.777   2.763   8.181 -0.5847  0.2131  0.3582
 4802SOL    HW125865   0.830   2.839   8.155  1.4916 -0.6278  2.1285
 4802SOL    HW225866   0.761   2.781   8.274 -1.6001  1.3159 -0.0279
 4803SOL     OW25867   2.317   3.507   2.257  0.4183 -0.5043  0.6667
 4803SOL    HW125868   2.307   3.438   2.191  1.1201  1.0896 -1.1151
 4803SOL    HW225869   2.347   3.574   2.196  0.0025 -0.0572  0.9491
 4804SOL     OW25870   2.978   0.673   5.075  0.0630  0.0231  0.0663
 4804SOL    HW125871   2.964   0.737   5.005  3.5308  0.7711  0.0776
 4804SOL    HW225872   3.037   0.612   5.030 -1.0207 -2.2186  1.7005
 4805SOL     OW25873   3.717   3.896  12.435 -0.1171  0.4294 -0.2937
 4805SOL    HW125874   3.801   3.866  12.469 -0.3563 -0.2710 -0.3261
 4805SOL    HW225875   3.705   3.832  12.365 -1.0057  0.5730 -0.2703
 4806SOL     OW25876   1.800   0.586   5.099  0.8476  0.0336  0.0364
 4806SOL    HW125877   1.754   0.522   5.153 -0.6160 -0.6420 -2.0252
 4806SOL    HW225878   1.751   0.568   5.020  0.9665  1.3548 -0.3305
 4807SOL     OW25879   3.516   0.213  12.954 -0.9205 -0.4172 -0.4819
 4807SOL    HW125880   3.581   0.145  12.973 -2.0835 -1.6720 -1.0097
 4807SOL    HW225881   3.555   0.295  12.983  0.4413 -1.2526  0.0583
 4808SOL     OW25882   4.183   2.916  15.142 -0.5853  0.3892  0.2101
 4808SOL    HW125883   4.210   2.947  15.228 -0.6414  0.4114  0.2200
 4808SOL    HW225884   4.101   2.873  15.168 -0.9958 -0.7634 -2.9822
 4809SOL     OW25885   2.826   0.225  14.841 -0.5629  0.1463  0.3601
 4809SOL    HW125886   2.746   0.267  14.872 -0.0144  2.1663 -1.0312
 4809SOL    HW225887   2.883   0.262  14.908  1.1031 -1.8393  0.0597
 4810SOL     OW25888   2.815   4.295   4.289 -0.6346  0.1665  0.1716
 4810SOL    HW125889   2.828   4.201   4.289  1.6008  0.4730  0.6040
 4810SOL    HW225890   2.760   4.301   4.367 -0.8185 -1.5849  0.1710
 4811SOL     OW25891   1.476   2.608   5.899  0.1092  0.6933  0.2564
 4811SOL    HW125892   1.532   2.686   5.909 -1.7495  1.7429  2.7192
 4811SOL    HW225893   1.474   2.603   5.804 -1.0245 -1.1382  0.3952
 4812SOL     OW25894   3.962   4.531  17.466  0.7165  0.0812 -0.0082
 4812SOL    HW125895   3.929   4.462  17.409 -0.3172 -0.1336  0.8442
 4812SOL    HW225896   4.011   4.585  17.404  0.4214  1.8745  1.3197
 4813SOL     OW25897   0.086   1.688  14.478  0.1719 -0.0877  0.3326
 4813SOL    HW125898   0.022   1.619  14.461  1.2752 -0.6949 -1.3710
 4813SOL    HW225899   0.104   1.657  14.567 -0.0582  0.1312  0.4548
 4814SOL     OW25900   0.941   3.795  14.776  0.1115  0.5642  0.2229
 4814SOL    HW125901   0.851   3.821  14.754  0.1008  0.8639  0.6195
 4814SOL    HW225902   0.983   3.836  14.702 -0.9988 -0.9372 -1.2448
 4815SOL     OW25903   1.014   1.083   0.464 -0.1978 -0.3321 -0.1030
 4815SOL    HW125904   0.947   1.148   0.443  1.5011  0.8615 -1.7720
 4815SOL    HW225905   0.987   1.000   0.426  0.3011 -0.9352  0.8585
 4816SOL     OW25906   2.247   1.893   7.586 -0.1099 -0.2517  0.0402
 4816SOL    HW125907   2.221   1.813   7.540 -1.9906  1.3237 -1.6176
 4816SOL    HW225908   2.186   1.879   7.659  1.0028  0.5816  1.1455
 4817SOL     OW25909   2.031   2.708  13.883  0.0590  0.5577 -0.0626
 4817SOL    HW125910   2.072   2.787  13.919  1.1121  0.8177 -1.8523
 4817SOL    HW225911   2.019   2.657  13.963  2.3203 -1.1911 -0.8438
 4818SOL     OW25912   3.258   0.218  11.514  0.1493 -0.5848 -0.0303
 4818SOL    HW125913   3.179   0.232  11.462 -0.1159 -0.2813  0.4614
 4818SOL    HW225914   3.207   0.204  11.594  0.5879 -1.6297  0.0677
 4819SOL     OW25915   0.949   0.223   0.480 -0.2618  0.3337  0.2886
 4819SOL    HW125916   1.011   0.154   0.457 -0.7223  0.5284 -1.5557
 4819SOL    HW225917   1.005   0.301   0.485 -0.2112  0.4826 -2.8324
 4820SOL     OW25918   1.203   1.753  12.136 -0.1325  0.2396  0.5207
 4820SOL    HW125919   1.284   1.703  12.123 -1.6692 -2.0029 -0.3748
 4820SOL    HW225920   1.159   1.742  12.052  0.2969 -1.4080  0.5089
 4821SOL     OW25921   0.315   4.454   0.988 -0.0847 -0.1218  0.2359
 4821SOL    HW125922   0.336   4.391   1.057 -2.1273 -0.1513  0.8092
 4821SOL    HW225923   0.241   4.411   0.946  0.2450 -1.4332  0.9846
 4822SOL     OW25924   3.629   1.542   8.982 -0.3132  0.2212 -0.2898
 4822SOL    HW125925   3.698   1.526   8.917 -0.1264 -1.7874  0.3903
 4822SOL    HW225926   3.683   1.534   9.060  0.9885  2.4727 -0.9791
 4823SOL     OW25927   1.511   0.009  17.088  0.2878 -1.0152  0.1700
 4823SOL    HW125928   1.535   0.079  17.027 -0.4070  0.2648  1.3343
 4823SOL    HW225929   1.474   4.670  17.027 -2.0295  0.4707 -0.0011
 4824SOL     OW25930   2.896   0.843  17.279  0.0272 -0.0573  0.1473
 4824SOL    HW125931   2.856   0.846  17.366  0.6577  1.5808  0.3741
 4824SOL    HW225932   2.830   0.801  17.224 -0.3571  2.3579 -1.2592
 4825SOL     OW25933   2.605   1.182   6.003 -0.2270 -0.3935  0.0321
 4825SOL    HW125934   2.635   1.091   5.995  1.1476  0.3883 -3.5596
 4825SOL    HW225935   2.576   1.203   5.914  1.3550  0.1388 -0.3642
 4826SOL     OW25936   0.432   4.228   6.079  0.2590 -0.0363  0.0671
 4826SOL    HW125937   0.463   4.153   6.029 -2.3252 -0.6996 -0.5215
 4826SOL    HW225938   0.463   4.206   6.167 -1.3180 -4.1612 -0.4283
 4827SOL     OW25939   3.500   1.623   5.557 -0.7698 -0.2292 -0.0041
 4827SOL    HW125940   3.419   1.636   5.507 -1.1167  0.7862  0.8203
 4827SOL    HW225941   3.493   1.694   5.621  0.0860 -0.5522  0.4320
 4828SOL     OW25942   3.741   0.335   2.908 -0.2714 -0.1374  0.4183
 4828SOL    HW125943   3.744   0.391   2.831  0.2478  0.4343  0.8528
 4828SOL    HW225944   3.694   0.258   2.876  0.2636 -0.1766 -0.2738
 4829SOL     OW25945   2.880   1.748  16.727  0.7324  0.2935  0.7371
 4829SOL    HW125946   2.797   1.793  16.716  0.4716 -0.7472 -1.5782
 4829SOL    HW225947   2.861   1.690  16.802  1.6348 -1.0626 -0.0769
 4830SOL     OW25948   2.857   4.582  10.518  0.5557 -0.2029 -0.6858
 4830SOL    HW125949   2.856   4.503  10.572 -2.2382 -0.2997 -0.9120
 4830SOL    HW225950   2.787   4.633  10.559  0.4222 -0.0528 -1.1070
 4831SOL     OW25951   2.893   0.348   3.831 -0.6047  0.3620  0.0496
 4831SOL    HW125952   2.975   0.395   3.848  0.4795 -1.2157 -0.8552
 4831SOL    HW225953   2.926   0.284   3.767 -4.0638  1.0385 -2.4002
 4832SOL     OW25954   4.540   1.129  12.704  0.0006  0.4257 -0.6933
 4832SOL    HW125955   4.465   1.071  12.711  1.3668 -1.4817 -2.0750
 4832SOL    HW225956   4.498   1.187  12.640  0.8383  1.8898  0.0802
 4833SOL     OW25957   1.559   0.775  16.129  0.0240  0.5309  0.1696
 4833SOL    HW125958   1.555   0.809  16.219 -4.3266 -0.3103  0.2614
 4833SOL    HW225959   1.643   0.727  16.132  1.5677  3.1908 -0.5934
 4834SOL     OW25960   3.144   1.043  10.938 -0.0083 -0.1451  0.3270
 4834SOL    HW125961   3.155   1.138  10.944 -1.5572  0.0782 -0.5055
 4834SOL    HW225962   3.221   1.014  10.887  0.2836 -1.2265  1.3896
 4835SOL     OW25963   1.295   4.519   2.952  0.2649  0.6322  0.4823
 4835SOL    HW125964   1.367   4.561   2.906  0.5092 -1.8100 -1.3941
 4835SOL    HW225965   1.261   4.472   2.876 -0.9875  1.3421  0.5958
 4836SOL     OW25966   2.494   1.574   6.714  0.2960  0.3888  0.3156
 4836SOL    HW125967   2.490   1.646   6.651 -1.3543 -1.4695 -1.7095
 4836SOL    HW225968   2.510   1.490   6.672 -2.3036 -0.3087  0.7131
 4837SOL     OW25969   3.127   0.712  14.533  0.6156 -0.3421  0.3929
 4837SOL    HW125970   3.181   0.764  14.593 -0.0359 -0.4939  1.1064
 4837SOL    HW225971   3.133   0.756  14.448 -1.4886 -0.8651 -0.0094
 4838SOL     OW25972   3.898   3.392   5.650  0.2867 -0.2733  0.8090
 4838SOL    HW125973   3.849   3.461   5.606 -1.9651 -2.4229 -0.0699
 4838SOL    HW225974   3.819   3.357   5.691  0.5599  2.0360  3.3482
 4839SOL     OW25975   2.464   0.138   6.731 -0.3162 -0.1159 -0.4256
 4839SOL    HW125976   2.441   0.219   6.777  2.1310  0.2212  0.1940
 4839SOL    HW225977   2.383   0.127   6.682 -0.1439  1.8146 -1.1250
 4840SOL     OW25978   0.763   1.272   2.837 -0.0840 -0.3824 -0.0751
 4840SOL    HW125979   0.733   1.281   2.746  1.1312  0.1443 -0.4327
 4840SOL    HW225980   0.811   1.189   2.836  1.2453  0.3837 -0.1110
 4841SOL     OW25981   4.625   2.475  17.148 -0.3263  0.2949  0.3782
 4841SOL    HW125982   4.636   2.446  17.238 -0.0415  0.2409  0.3267
 4841SOL    HW225983   4.647   2.391  17.107  0.4249  0.4047  0.5676
 4842SOL     OW25984   2.956   1.912  10.621 -0.2294 -0.0707  0.4065
 4842SOL    HW125985   2.899   1.842  10.589  1.1886 -0.8307 -0.4188
 4842SOL    HW225986   3.001   1.865  10.691  0.7389 -0.4675 -0.4887
 4843SOL     OW25987   4.206   0.533   7.209  0.7257 -0.1266  0.4907
 4843SOL    HW125988   4.261   0.466   7.169  4.2279  2.0160  1.7260
 4843SOL    HW225989   4.122   0.507   7.172  0.1773  2.2402  0.0775
 4844SOL     OW25990   1.548   0.454   8.919  0.2523 -0.0780  0.3076
 4844SOL    HW125991   1.605   0.531   8.917 -0.3045  0.2794 -1.3948
 4844SOL    HW225992   1.494   0.484   8.993  1.9326 -0.5766  1.7485
 4845SOL     OW25993   2.703   2.303  13.332 -0.6455  0.0841  0.5589
 4845SOL    HW125994   2.677   2.390  13.301 -1.3522 -0.2570  0.1911
 4845SOL    HW225995   2.640   2.291  13.402 -0.8652 -0.4164  0.2729
 4846SOL     OW25996   2.894   4.400   6.996  0.2229  0.2187 -0.0895
 4846SOL    HW125997   2.856   4.317   7.023 -0.0636 -0.2510 -1.9682
 4846SOL    HW225998   2.823   4.425   6.938  1.0895  0.1144 -1.1936
 4847SOL     OW25999   4.581   3.995  16.833  0.1435  0.1205  0.1928
 4847SOL    HW126000   4.526   4.059  16.788 -0.1577  1.2307  2.1464
 4847SOL    HW226001   4.671   4.006  16.804  0.9984  0.3162  2.9518
 4848SOL     OW26002   2.766   2.637   4.938  0.1454 -0.0458 -0.1471
 4848SOL    HW126003   2.772   2.629   5.033 -0.7879 -0.4126 -0.1149
 4848SOL    HW226004   2.855   2.661   4.913 -0.3710  2.7617  0.7254
 4849SOL     OW26005   1.243   1.016   8.455  0.0504 -0.4808 -0.2523
 4849SOL    HW126006   1.243   0.920   8.464  3.2437 -0.4625  0.0134
 4849SOL    HW226007   1.312   1.027   8.522 -0.6161 -1.2175  0.5627
 4850SOL     OW26008   0.013   0.652  15.205  0.5149 -0.3790 -0.1591
 4850SOL    HW126009   0.027   0.740  15.241 -0.8063 -0.2052 -0.0842
 4850SOL    HW226010   0.063   0.608  15.273 -0.7666 -1.1423  0.2836
 4851SOL     OW26011   0.828   2.676   6.648  0.7322  0.1539 -0.3490
 4851SOL    HW126012   0.806   2.653   6.738 -0.6007  3.5272  0.1824
 4851SOL    HW226013   0.914   2.715   6.661  0.5096  0.5773 -0.1275
 4852SOL     OW26014   0.295   4.010   4.287 -0.0737  0.6621  0.0614
 4852SOL    HW126015   0.229   4.073   4.318 -1.3272 -1.0841  0.9629
 4852SOL    HW226016   0.294   4.026   4.193  1.5715  0.6233  0.0410
 4853SOL     OW26017   1.173   2.402   2.217  0.6067  0.0681  0.5311
 4853SOL    HW126018   1.206   2.473   2.162  1.5866 -1.1406 -0.4464
 4853SOL    HW226019   1.191   2.320   2.170  0.3775  0.7488 -0.7434
 4854SOL     OW26020   0.857   3.118   5.690 -0.1316 -0.4479  0.0986
 4854SOL    HW126021   0.838   3.060   5.615  1.8374  0.7174 -1.3071
 4854SOL    HW226022   0.893   3.056   5.753 -0.0474 -2.1146 -1.5931
 4855SOL     OW26023   1.844   3.047   1.381 -0.0192 -0.2374  1.0837
 4855SOL    HW126024   1.932   3.067   1.412  0.2463 -1.8593  1.3935
 4855SOL    HW226025   1.866   3.036   1.289  1.6945 -1.8121  1.6917
 4856SOL     OW26026   1.644   3.901   5.071  0.9017 -0.0830  0.2674
 4856SOL    HW126027   1.564   3.902   5.124  0.5753 -1.7463 -0.1944
 4856SOL    HW226028   1.624   3.853   4.991  2.1498 -0.1888  0.0291
 4857SOL     OW26029   2.233   1.844   2.572  0.2956  0.6356  0.8435
 4857SOL    HW126030   2.221   1.762   2.525  0.4455 -0.0628  2.0392
 4857SOL    HW226031   2.327   1.856   2.563 -0.1849  3.4610 -0.7654
 4858SOL     OW26032   0.197   4.285  15.901 -0.5196 -0.1613  0.2266
 4858SOL    HW126033   0.125   4.318  15.955 -1.9358 -2.0627 -0.5232
 4858SOL    HW226034   0.223   4.371  15.867 -2.8375 -0.0709 -1.3502
 4859SOL     OW26035   4.176   1.589   7.932  0.1096  0.1976  0.0433
 4859SOL    HW126036   4.240   1.630   7.874 -0.1930 -0.7158 -0.9326
 4859SOL    HW226037   4.103   1.648   7.911 -2.5394 -3.8725 -1.9680
 4860SOL     OW26038   0.813   3.873   5.796  0.3720 -0.0455 -0.4973
 4860SOL    HW126039   0.809   3.829   5.881 -0.5962  0.1490 -0.4393
 4860SOL    HW226040   0.853   3.957   5.818 -0.7921  0.4059 -0.0851
 4861SOL     OW26041   2.245   0.826   4.914  0.4653 -0.2038 -0.1066
 4861SOL    HW126042   2.287   0.912   4.927  1.1678 -0.8499  1.9698
 4861SOL    HW226043   2.298   0.803   4.838  2.7232  0.7175  1.1591
 4862SOL     OW26044   4.022   3.797   6.289 -0.5989  0.1339  0.4827
 4862SOL    HW126045   4.070   3.740   6.349  1.6261  1.2133 -0.2662
 4862SOL    HW226046   4.045   3.752   6.207  0.0525  1.4478 -0.0515
 4863SOL     OW26047   3.605   3.628   9.006  0.1425 -0.4245 -0.3735
 4863SOL    HW126048   3.689   3.590   8.979 -0.5788 -1.5665 -1.0713
 4863SOL    HW226049   3.547   3.554   8.987 -0.7685 -0.0709  1.0956
 4864SOL     OW26050   2.030   3.125   6.507 -0.2578 -0.4112  0.0425
 4864SOL    HW126051   2.003   3.139   6.598 -0.1267 -1.5790  0.2568
 4864SOL    HW226052   1.981   3.189   6.455  1.8146  1.0254 -0.1787
 4865SOL     OW26053   1.235   3.560  12.411  0.6741 -0.7787 -0.3099
 4865SOL    HW126054   1.272   3.476  12.435  2.5509 -0.0125 -0.5237
 4865SOL    HW226055   1.285   3.623  12.463 -0.5568 -0.3853  0.3968
 4866SOL     OW26056   0.947   2.958  16.386 -0.4856 -0.6916 -0.1338
 4866SOL    HW126057   0.886   2.884  16.381 -1.2728 -0.1824  1.8235
 4866SOL    HW226058   0.961   2.974  16.293  1.2754 -1.3153  0.0227
 4867SOL     OW26059   0.089   3.556   6.268 -0.1579  0.2167  0.7519
 4867SOL    HW126060   0.010   3.516   6.233 -0.8346  1.8897  0.3379
 4867SOL    HW226061   0.102   3.503   6.347 -0.1941 -2.1024 -0.8101
 4868SOL     OW26062   3.830   4.427   0.502 -0.0079  0.0002 -0.3383
 4868SOL    HW126063   3.788   4.423   0.588 -1.5394  1.2271 -1.0433
 4868SOL    HW226064   3.778   4.369   0.447  0.6892 -2.2476  1.3691
 4869SOL     OW26065   3.063   0.010   7.136  0.3679  0.0137  0.2935
 4869SOL    HW126066   3.051   0.006   7.041  0.9247 -1.0653  0.2679
 4869SOL    HW226067   2.971   0.001   7.161 -0.1148 -0.5444 -1.6411
 4870SOL     OW26068   0.280   0.559   5.070  0.2696 -0.4926  0.2238
 4870SOL    HW126069   0.219   0.563   5.144 -1.8442  1.8420 -1.6590
 4870SOL    HW226070   0.321   0.645   5.076 -0.1626 -0.4962  3.1970
 4871SOL     OW26071   1.454   4.338  13.605 -0.6352 -0.4613  0.1544
 4871SOL    HW126072   1.375   4.392  13.613 -0.4985 -0.4245  1.2736
 4871SOL    HW226073   1.510   4.358  13.680 -0.7908  1.0050 -0.1141
 4872SOL     OW26074   3.232   0.221  15.849  0.2952 -0.2712 -0.0821
 4872SOL    HW126075   3.160   0.170  15.813 -1.6206  2.0909  0.3729
 4872SOL    HW226076   3.186   0.305  15.856 -1.0153 -1.2183  2.4294
 4873SOL     OW26077   3.642   0.333  16.810  0.1566 -0.1604  0.5536
 4873SOL    HW126078   3.677   0.398  16.871 -0.1823  1.5874 -1.1068
 4873SOL    HW226079   3.562   0.301  16.852 -0.3620 -1.0652 -1.1004
 4874SOL     OW26080   1.489   0.795   8.009 -0.3580  0.2098  0.1296
 4874SOL    HW126081   1.530   0.841   8.082 -2.3302  1.1161  0.6767
 4874SOL    HW226082   1.399   0.825   8.023 -0.0164  0.8208  0.9779
 4875SOL     OW26083   0.113   2.979   8.003  0.7483  0.2420  0.1515
 4875SOL    HW126084   0.202   2.953   7.979 -0.2702 -1.4635 -1.7950
 4875SOL    HW226085   0.136   3.046   8.067  0.1324 -0.8344  1.5087
 4876SOL     OW26086   0.789   4.649  15.346  0.5663 -0.0192  0.0171
 4876SOL    HW126087   0.794   4.557  15.372  2.2476  0.9633  3.0807
 4876SOL    HW226088   0.881   4.673  15.358  0.9137 -1.3141  0.0317
 4877SOL     OW26089   1.670   3.416  17.133  0.1805 -1.1073  0.2305
 4877SOL    HW126090   1.729   3.492  17.131 -1.8090  0.5124  2.9822
 4877SOL    HW226091   1.589   3.456  17.100 -1.3135 -2.3917  2.2954
 4878SOL     OW26092   4.486   2.696   6.321 -0.8764 -0.0247  0.9578
 4878SOL    HW126093   4.499   2.611   6.279  2.5966  0.8764  0.1645
 4878SOL    HW226094   4.412   2.666   6.373 -1.9754 -1.6449 -1.5218
 4879SOL     OW26095   1.504   4.543   0.343  0.1380 -0.0308 -0.5344
 4879SOL    HW126096   1.474   4.477   0.282 -2.1991  1.4461 -0.9817
 4879SOL    HW226097   1.425   4.595   0.352 -0.6568 -1.0834 -1.5503
 4880SOL     OW26098   2.359   1.940   8.306 -0.0360  1.0431  0.9614
 4880SOL    HW126099   2.274   1.962   8.267  0.1525 -2.5353 -1.5353
 4880SOL    HW226100   2.325   1.906   8.389  1.5043  0.0825  1.2030
 4881SOL     OW26101   3.091   2.489  15.668  0.4400 -0.5591 -0.0645
 4881SOL    HW126102   3.096   2.517  15.577  3.5028  1.3899  0.7124
 4881SOL    HW226103   3.087   2.394  15.655 -4.6032 -0.2975 -0.3796
 4882SOL     OW26104   1.187   1.819   4.339 -0.4631  0.6961 -0.2696
 4882SOL    HW126105   1.254   1.881   4.370  2.5574 -4.2692  3.1378
 4882SOL    HW226106   1.181   1.763   4.416  1.4875 -0.8351 -1.2446
 4883SOL     OW26107   4.183   0.793   4.486  0.2532  0.6061 -0.5593
 4883SOL    HW126108   4.107   0.810   4.432 -0.1926 -0.5044 -0.2899
 4883SOL    HW226109   4.258   0.817   4.432  0.4558 -1.3135 -1.1357
 4884SOL     OW26110   3.354   3.582   2.685  0.5826  0.0244  0.2321
 4884SOL    HW126111   3.413   3.506   2.686  0.5195  0.0052  1.9092
 4884SOL    HW226112   3.283   3.548   2.631  1.1985  1.5540 -1.5418
 4885SOL     OW26113   3.227   2.960  17.352 -0.1381 -0.2906 -0.1604
 4885SOL    HW126114   3.136   2.990  17.350  0.6277  2.0410 -0.0682
 4885SOL    HW226115   3.217   2.866  17.342  0.2703 -0.5243  1.5199
 4886SOL     OW26116   3.702   1.810  16.192 -0.0927  0.0071  0.5133
 4886SOL    HW126117   3.634   1.806  16.260 -0.8336  0.3737 -0.2123
 4886SOL    HW226118   3.763   1.849  16.254 -0.1252  1.5094 -0.3987
 4887SOL     OW26119   4.356   3.359  16.002 -0.7073 -0.0276 -0.5042
 4887SOL    HW126120   4.404   3.422  15.949 -0.9456 -2.2737 -3.3735
 4887SOL    HW226121   4.283   3.348  15.940 -2.6959  1.2304  1.6092
 4888SOL     OW26122   2.601   1.095   8.900 -0.0093  0.4057  0.1996
 4888SOL    HW126123   2.682   1.147   8.892  0.0026  0.6624  2.1016
 4888SOL    HW226124   2.602   1.052   8.985  0.9366 -2.6333 -1.3525
 4889SOL     OW26125   4.417   1.280  14.682  0.5562 -0.4687  0.7846
 4889SOL    HW126126   4.429   1.374  14.692  2.0888 -0.6331  0.4685
 4889SOL    HW226127   4.503   1.253  14.650  1.1960 -0.4634  2.4889
 4890SOL     OW26128   3.283   2.818   3.629  0.0930 -0.4407 -0.2711
 4890SOL    HW126129   3.280   2.742   3.571  1.1146 -0.7462  0.0782
 4890SOL    HW226130   3.325   2.776   3.704  0.0935  0.9713  0.5253
 4891SOL     OW26131   2.205   1.206   7.025  0.2464  0.1422 -0.9096
 4891SOL    HW126132   2.251   1.253   6.956  0.5403  0.6290 -0.3880
 4891SOL    HW226133   2.206   1.277   7.089  1.5125 -0.1883 -0.5622
 4892SOL     OW26134   0.219   0.004   4.431 -0.4397  0.2180 -0.2887
 4892SOL    HW126135   0.203   4.696   4.520  1.7009  2.3680  0.8776
 4892SOL    HW226136   0.135   4.706   4.391 -1.0267  1.2883  0.3786
 4893SOL     OW26137   4.463   3.553   5.215  0.0240 -0.6644 -0.1336
 4893SOL    HW126138   4.395   3.620   5.211  0.1250 -0.5398  0.2248
 4893SOL    HW226139   4.424   3.493   5.152 -0.5650 -0.0759 -0.3259
 4894SOL     OW26140   2.857   2.742  13.060 -0.0791  0.1597 -0.3809
 4894SOL    HW126141   2.914   2.810  13.025  0.7103 -0.2763  0.0519
 4894SOL    HW226142   2.858   2.763  13.153  0.2046 -0.7809 -0.1665
 4895SOL     OW26143   1.409   0.695  12.544  0.4157 -0.4042 -0.1131
 4895SOL    HW126144   1.356   0.688  12.623  0.0265 -1.2748 -0.4451
 4895SOL    HW226145   1.416   0.600  12.533  0.2228 -0.4571  0.2242
 4896SOL     OW26146   1.270   3.213   6.139 -0.0515 -0.3101 -0.2957
 4896SOL    HW126147   1.273   3.204   6.044  0.8951  2.2005 -0.5037
 4896SOL    HW226148   1.198   3.276   6.144  0.9424  1.1051 -3.8743
 4897SOL     OW26149   4.660   0.330   3.176 -0.0380 -0.1394 -0.0690
 4897SOL    HW126150   4.688   0.377   3.254  1.0740  2.1975 -1.9056
 4897SOL    HW226151   0.012   0.327   3.119 -0.0670 -0.0089 -0.1153
 4898SOL     OW26152   0.975   0.171   6.622 -0.1028 -0.3046  0.0472
 4898SOL    HW126153   0.974   0.210   6.534  0.2971  0.3916  0.3490
 4898SOL    HW226154   1.068   0.180   6.644 -0.6666  2.5801  1.3142
 4899SOL     OW26155   0.916   0.038  17.643  0.1623 -0.6998  0.4135
 4899SOL    HW126156   0.876   4.712   0.015 -1.3710 -1.0495 -0.6972
 4899SOL    HW226157   0.885   0.128  17.656  1.8409  0.1310 -1.3251
 4900SOL     OW26158   0.200   3.637  14.387 -0.0865  0.0085 -0.2395
 4900SOL    HW126159   0.175   3.667  14.474 -0.3989  0.1611 -0.3806
 4900SOL    HW226160   0.118   3.607  14.349  1.2969 -2.5221 -1.2235
 4901SOL     OW26161   4.428   1.137   9.119 -0.5534 -0.1575  0.2118
 4901SOL    HW126162   4.498   1.163   9.060  0.8588  0.0816  1.9807
 4901SOL    HW226163   4.391   1.224   9.132 -1.0192 -0.3217 -0.0357
 4902SOL     OW26164   3.587   3.089   0.026 -0.1213  0.0074  0.0262
 4902SOL    HW126165   3.515   3.056  17.673  0.0526  0.6508 -0.6201
 4902SOL    HW226166   3.590   3.183   0.009 -1.3379 -0.0364 -0.3690
 4903SOL     OW26167   2.522   4.200   9.773  0.6063  0.0937 -0.0295
 4903SOL    HW126168   2.549   4.276   9.721  0.1289 -0.0485 -0.4873
 4903SOL    HW226169   2.488   4.248   9.848  1.9904  0.2047  0.5310
 4904SOL     OW26170   0.694   1.579  10.476  0.2134 -0.2086 -0.0491
 4904SOL    HW126171   0.686   1.506  10.415 -0.2146  0.5098 -0.8617
 4904SOL    HW226172   0.707   1.533  10.559  1.5579  0.0239 -0.1269
 4905SOL     OW26173   4.351   0.043   5.250  0.9354 -0.0988 -0.0714
 4905SOL    HW126174   4.265   0.002   5.262  1.8569 -2.3788 -1.2353
 4905SOL    HW226175   4.373   0.020   5.160 -0.0371  0.1419 -0.3731
 4906SOL     OW26176   2.918   3.919   6.874  0.5590 -0.7294 -0.0407
 4906SOL    HW126177   2.921   4.010   6.902 -0.4868  0.1926 -2.9441
 4906SOL    HW226178   3.001   3.906   6.829  1.2534  3.3037  0.1333
 4907SOL     OW26179   4.403   2.963  12.020 -0.3401 -0.4071 -0.4332
 4907SOL    HW126180   4.494   2.951  11.994 -0.0228  2.7599 -0.7934
 4907SOL    HW226181   4.378   2.875  11.991  0.5362 -0.8986  0.3123
 4908SOL     OW26182   4.081   1.550  10.296 -0.1104  0.3104  0.4986
 4908SOL    HW126183   4.067   1.456  10.303  1.8903 -0.1256 -1.3314
 4908SOL    HW226184   4.006   1.584  10.248  0.7463  1.6570  0.0938
 4909SOL     OW26185   3.440   1.191  11.694  0.2830  0.3939  0.0351
 4909SOL    HW126186   3.411   1.155  11.778 -2.8368  0.8701 -0.8560
 4909SOL    HW226187   3.464   1.115  11.642 -1.5613  1.6011 -2.5499
 4910SOL     OW26188   2.469   1.306   8.629  0.4541  0.3551 -0.0061
 4910SOL    HW126189   2.547   1.320   8.683 -1.3977 -0.5743  2.9319
 4910SOL    HW226190   2.447   1.391   8.593  1.5527 -0.5040 -2.7509
 4911SOL     OW26191   4.624   0.544  16.575  0.0028  0.0771 -0.0534
 4911SOL    HW126192   4.611   0.582  16.488  1.1839 -0.2264 -0.3599
 4911SOL    HW226193   4.711   0.580  16.597 -0.7099  1.9309 -0.2484
 4912SOL     OW26194   2.928   4.510   5.036  0.1074  0.6435  0.1722
 4912SOL    HW126195   2.932   4.508   5.132  0.1242 -2.3684  0.1266
 4912SOL    HW226196   2.853   4.452   5.020 -0.0928  0.7284  0.7894
 4913SOL     OW26197   3.035   3.011   6.408  1.0127 -0.1692 -0.4185
 4913SOL    HW126198   3.064   3.082   6.466  0.9656  0.4579 -1.1625
 4913SOL    HW226199   2.940   3.006   6.417  0.6382  3.0125 -2.5855
 4914SOL     OW26200   2.918   0.384   2.976 -0.1939  0.3863 -0.2327
 4914SOL    HW126201   2.949   0.298   3.005  0.2787  0.6697  0.1023
 4914SOL    HW226202   2.871   0.410   3.055 -1.8153 -0.1189 -1.0327
 4915SOL     OW26203   0.726   3.094   1.726  0.2196 -0.2820  0.5557
 4915SOL    HW126204   0.778   3.059   1.798  0.5174 -0.0090  0.4759
 4915SOL    HW226205   0.801   3.121   1.672 -0.8129 -1.8337 -1.6473
 4916SOL     OW26206   1.885   3.908  14.848  0.0098  0.1818 -0.1663
 4916SOL    HW126207   1.953   3.928  14.784  0.5000  1.2761  0.6949
 4916SOL    HW226208   1.819   3.972  14.823  0.5055  1.0465  0.7553
 4917SOL     OW26209   2.389   0.471   9.791  0.4423  0.2750  0.3782
 4917SOL    HW126210   2.406   0.544   9.850 -0.2062 -0.8501  1.9718
 4917SOL    HW226211   2.428   0.400   9.842  3.1262  2.2999  1.1316
 4918SOL     OW26212   4.288   2.144   6.308 -0.7660  0.0306 -0.3646
 4918SOL    HW126213   4.316   2.061   6.270 -0.2532 -0.4542  1.0575
 4918SOL    HW226214   4.372   2.178   6.339 -1.1091 -0.8203  1.5340
 4919SOL     OW26215   3.826   2.650   8.684  0.3547 -0.3376 -0.1750
 4919SOL    HW126216   3.796   2.604   8.762 -1.5266 -1.7013 -1.7132
 4919SOL    HW226217   3.810   2.741   8.706 -0.7523 -0.1059 -1.8941
 4920SOL     OW26218   3.457   3.754   7.315 -0.1623 -0.4044 -0.2685
 4920SOL    HW126219   3.444   3.659   7.322 -0.7254 -0.2551  0.7368
 4920SOL    HW226220   3.529   3.754   7.252 -0.0694 -1.0665 -0.1700
 4921SOL     OW26221   3.180   0.355   5.170  0.5581 -0.1556  0.0856
 4921SOL    HW126222   3.215   0.413   5.237  0.5411 -0.8500  0.7049
 4921SOL    HW226223   3.163   0.421   5.104  1.0867  1.7793  1.8948
 4922SOL     OW26224   3.483   3.371   4.171 -0.4160  0.0791 -0.8344
 4922SOL    HW126225   3.433   3.403   4.096 -1.3402 -1.8782 -1.0425
 4922SOL    HW226226   3.414   3.329   4.223  0.4319  1.7440  1.5952
 4923SOL     OW26227   0.626   1.564  11.515 -0.3422  0.2031 -0.3797
 4923SOL    HW126228   0.656   1.474  11.518 -1.3617 -0.1007  1.0259
 4923SOL    HW226229   0.592   1.578  11.604 -2.0046 -1.4425 -0.7609
 4924SOL     OW26230   0.444   4.002   9.584  0.2886  0.3886  0.3183
 4924SOL    HW126231   0.490   4.037   9.660 -1.0386  2.5665  0.1249
 4924SOL    HW226232   0.494   3.921   9.574  0.9509  0.6595  1.4208
 4925SOL     OW26233   3.786   4.154   9.740 -0.0613  0.5597  0.1220
 4925SOL    HW126234   3.844   4.127   9.669  3.9684  1.0198  3.2357
 4925SOL    HW226235   3.829   4.117   9.816 -1.6041 -3.2342 -0.8659
 4926SOL     OW26236   2.229   0.140   1.646  0.1645  0.1927 -0.7259
 4926SOL    HW126237   2.323   0.142   1.660  0.0619 -0.7138  0.0643
 4926SOL    HW226238   2.200   0.165   1.734 -2.2479 -2.9136 -0.6548
 4927SOL     OW26239   3.079   4.242   5.440 -0.3236  0.1892  0.2388
 4927SOL    HW126240   3.082   4.309   5.508  1.4211  0.1269  0.2388
 4927SOL    HW226241   3.091   4.280   5.353  0.1583 -2.5235 -0.9110
 4928SOL     OW26242   1.276   2.896   6.478  0.2142 -0.6851  1.1230
 4928SOL    HW126243   1.361   2.859   6.455  2.5835  3.2242  3.5951
 4928SOL    HW226244   1.297   2.985   6.508 -0.4937 -0.0874 -0.1723
 4929SOL     OW26245   4.070   0.307  11.198 -0.2328  0.3242 -0.5763
 4929SOL    HW126246   4.109   0.312  11.285  1.5287 -1.8454 -1.2396
 4929SOL    HW226247   4.128   0.263  11.136 -0.5585  2.5791 -2.4496
 4930SOL     OW26248   2.439   1.160   8.326  0.5229 -0.2734 -0.3460
 4930SOL    HW126249   2.476   1.244   8.355  0.4408 -0.0213 -0.9698
 4930SOL    HW226250   2.366   1.145   8.386 -0.0588 -0.3903 -1.0788
 4931SOL     OW26251   0.950   2.895  16.114 -0.3267  0.4354 -0.0613
 4931SOL    HW126252   0.858   2.904  16.091  0.4402  0.0382 -3.3591
 4931SOL    HW226253   0.985   2.861  16.032  2.6275 -0.5382  1.5884
 4932SOL     OW26254   0.069   4.325   7.686  0.2257 -0.3420  0.6003
 4932SOL    HW126255   0.135   4.331   7.755  2.2205  0.0570 -1.3702
 4932SOL    HW226256   0.113   4.277   7.617 -0.9285  1.3261 -1.2995
 4933SOL     OW26257   1.006   4.711   1.560  0.2527 -0.5186  0.0990
 4933SOL    HW126258   0.987   0.008   1.651  1.1379  2.2346 -0.3738
 4933SOL    HW226259   1.070   4.640   1.568 -1.9978 -2.4787  0.9741
 4934SOL     OW26260   1.437   1.225   7.977 -0.3825 -0.2408 -0.1618
 4934SOL    HW126261   1.401   1.241   7.890 -0.0562 -1.7077 -0.5741
 4934SOL    HW226262   1.375   1.266   8.037 -0.2325  2.6942 -2.0055
 4935SOL     OW26263   2.003   4.646  15.724 -0.5152 -0.1579  0.1812
 4935SOL    HW126264   2.087   4.617  15.759 -0.9352 -0.3489  1.0501
 4935SOL    HW226265   1.966   4.718  15.774  1.3281  2.0478 -1.6814
 4936SOL     OW26266   3.121   3.426   8.669 -0.2827 -0.6631  0.2544
 4936SOL    HW126267   3.207   3.397   8.700 -1.5259 -0.8576  3.5493
 4936SOL    HW226268   3.065   3.355   8.701 -0.4316 -0.0944  1.2460
 4937SOL     OW26269   3.058   1.389   9.384 -0.4649  0.2213 -0.2490
 4937SOL    HW126270   3.091   1.441   9.457 -0.4643  1.9257 -1.4833
 4937SOL    HW226271   2.996   1.455   9.353 -0.9249 -0.2123 -0.2567
 4938SOL     OW26272   1.929   4.286   8.600  0.0579 -0.3571 -0.3775
 4938SOL    HW126273   1.886   4.218   8.652 -1.5058  0.6553 -0.3239
 4938SOL    HW226274   2.013   4.295   8.644 -0.9243 -1.3776  1.7355
 4939SOL     OW26275   1.791   1.976   9.447  0.5606 -0.4484  0.4748
 4939SOL    HW126276   1.866   1.990   9.389 -1.8835  0.8261 -2.3839
 4939SOL    HW226277   1.735   1.923   9.390  0.5851 -0.3612  0.3691
 4940SOL     OW26278   1.596   0.428   3.336  0.0933  0.0693 -0.4248
 4940SOL    HW126279   1.648   0.475   3.271  1.8743 -3.1223 -1.2688
 4940SOL    HW226280   1.514   0.478   3.330  0.0108  0.0561  0.5344
 4941SOL     OW26281   0.807   0.720   1.290  0.2787  0.1579  0.0043
 4941SOL    HW126282   0.883   0.665   1.271 -0.8560 -1.3974 -0.0491
 4941SOL    HW226283   0.850   0.781   1.350 -2.2314  0.6682  1.2899
 4942SOL     OW26284   0.170   3.729   8.892 -0.6904 -0.3682 -0.0245
 4942SOL    HW126285   0.257   3.770   8.892 -0.3274 -1.1610 -1.3276
 4942SOL    HW226286   0.103   3.790   8.925 -0.9660  0.5728 -2.2998
 4943SOL     OW26287   4.482   1.689   9.996  0.2774  0.2397  0.1153
 4943SOL    HW126288   4.448   1.757   9.939  0.0800 -0.5625 -0.7269
 4943SOL    HW226289   4.447   1.608   9.960  0.1142  0.9433 -1.2837
 4944SOL     OW26290   2.096   4.182   4.593 -0.4227  0.6555  0.1469
 4944SOL    HW126291   2.020   4.236   4.572 -0.0992  1.1882  0.3706
 4944SOL    HW226292   2.164   4.212   4.533 -0.0788 -0.0687  0.1637
 4945SOL     OW26293   0.695   3.136   7.186  0.9349  0.0414  0.1277
 4945SOL    HW126294   0.716   3.230   7.178 -0.3879  0.3821  0.6489
 4945SOL    HW226295   0.713   3.103   7.098 -0.6954 -1.6503  0.4303
 4946SOL     OW26296   1.384   0.551   8.531  0.5300 -0.3336 -0.1405
 4946SOL    HW126297   1.307   0.498   8.552 -0.5953  1.8974  1.4140
 4946SOL    HW226298   1.437   0.543   8.611  0.1094 -1.1296  0.0579
 4947SOL     OW26299   3.074   1.932   0.688 -0.8453 -1.2768  0.1019
 4947SOL    HW126300   3.105   1.995   0.623  0.0665 -1.9945 -0.1621
 4947SOL    HW226301   2.991   1.922   0.642 -0.9664  0.0005  0.0425
 4948SOL     OW26302   2.974   3.289  13.203  0.4368  0.0512 -0.1523
 4948SOL    HW126303   3.048   3.230  13.218  0.3856 -0.1967 -0.8914
 4948SOL    HW226304   3.015   3.337  13.130  0.4685 -1.5317 -1.1740
 4949SOL     OW26305   2.774   0.960   7.433 -0.2212 -1.0767 -0.3883
 4949SOL    HW126306   2.760   0.938   7.525 -0.5310  1.1040  0.1037
 4949SOL    HW226307   2.690   1.000   7.409 -0.1307 -0.3040  0.5683
 4950SOL     OW26308   0.617   4.500   0.721 -0.0736 -0.1527  0.3023
 4950SOL    HW126309   0.577   4.561   0.658 -0.4887 -1.2687 -0.5141
 4950SOL    HW226310   0.636   4.555   0.797 -0.6946 -0.4022  0.6352
 4951SOL     OW26311   2.147   2.389   4.543 -0.3027  0.0211  0.2297
 4951SOL    HW126312   2.153   2.293   4.552  0.3987 -0.0576 -1.0249
 4951SOL    HW226313   2.202   2.423   4.613  0.3904 -1.2781  0.3107
 4952SOL     OW26314   0.239   0.013   0.968  0.4104 -0.3979 -0.9145
 4952SOL    HW126315   0.179   0.035   1.040  1.2851 -1.7974  0.2512
 4952SOL    HW226316   0.257   4.644   0.978 -1.1625 -0.6732 -0.6162
 4953SOL     OW26317   1.900   2.561   6.527 -0.3169  0.1225  0.1814
 4953SOL    HW126318   1.896   2.623   6.600  1.1814 -1.6234  1.7322
 4953SOL    HW226319   1.988   2.569   6.491  0.1879  0.3355  1.4707
 4954SOL     OW26320   3.269   2.339   5.679 -0.2161 -0.2984  0.9623
 4954SOL    HW126321   3.223   2.283   5.740  1.3009 -2.0951  0.4470
 4954SOL    HW226322   3.342   2.280   5.659 -1.3603 -0.9868 -1.2529
 4955SOL     OW26323   3.838   3.860   6.566  0.2370  0.0822  0.2012
 4955SOL    HW126324   3.925   3.899   6.561 -0.4293  1.7312  1.2329
 4955SOL    HW226325   3.863   3.781   6.615  1.8053  0.5251  0.1210
 4956SOL     OW26326   3.236   3.419  13.106 -0.8293  0.2693  0.5597
 4956SOL    HW126327   3.180   3.460  13.040  0.3746 -0.1467 -0.7226
 4956SOL    HW226328   3.319   3.466  13.109 -0.5625 -0.0678 -1.6225
 4957SOL     OW26329   4.226   4.072   2.817  0.1340  0.0712 -0.0865
 4957SOL    HW126330   4.319   4.073   2.841  0.1901  0.6413 -0.3323
 4957SOL    HW226331   4.229   4.126   2.739  0.0270  1.8933  1.1684
 4958SOL     OW26332   2.478   2.401  16.991 -0.1799 -0.2494 -0.1044
 4958SOL    HW126333   2.436   2.421  16.907 -0.7780 -1.5721 -0.1299
 4958SOL    HW226334   2.546   2.467  16.999  0.0713 -0.6407  1.0035
 4959SOL     OW26335   2.079   0.684  15.372 -0.0114  0.0720 -0.4951
 4959SOL    HW126336   2.164   0.722  15.350  0.3848 -1.7811 -2.1522
 4959SOL    HW226337   2.035   0.682  15.287  0.4401  2.4330 -0.7681
 4960SOL     OW26338   2.926   1.849   4.139 -0.1374  0.1308  0.0496
 4960SOL    HW126339   2.894   1.930   4.179 -0.0358 -0.1613  0.7168
 4960SOL    HW226340   2.853   1.792   4.162  1.8408 -2.8415 -1.0203
 4961SOL     OW26341   2.562   1.243   3.170 -0.6610 -0.1064 -0.3587
 4961SOL    HW126342   2.507   1.197   3.233  0.3272  1.9304  1.9754
 4961SOL    HW226343   2.570   1.330   3.210 -2.3506 -0.0932 -0.0417
 4962SOL     OW26344   2.218   0.634   1.825 -0.6321 -0.2738 -0.5674
 4962SOL    HW126345   2.194   0.706   1.767 -0.0332  1.0330  0.8081
 4962SOL    HW226346   2.149   0.631   1.891  0.8314 -2.2456  0.8364
 4963SOL     OW26347   2.877   1.800  17.088  0.1753  0.0516 -0.1704
 4963SOL    HW126348   2.816   1.861  17.047 -0.1937  0.7999  1.4805
 4963SOL    HW226349   2.845   1.718  17.052  0.7016 -1.0602  1.8791
 4964SOL     OW26350   4.466   1.483   2.589 -0.2814  0.6547  0.8048
 4964SOL    HW126351   4.444   1.399   2.550 -1.4701  0.8569  1.0419
 4964SOL    HW226352   4.383   1.507   2.631 -0.7109  1.0681 -0.2836
 4965SOL     OW26353   0.155   3.195   1.818 -0.4631 -0.6370 -0.1891
 4965SOL    HW126354   0.229   3.250   1.795 -2.6395  1.7499 -1.4850
 4965SOL    HW226355   0.096   3.237   1.755 -2.0773 -1.9116  0.4510
 4966SOL     OW26356   3.658   3.976   7.045 -0.3538  0.5894 -0.4597
 4966SOL    HW126357   3.687   3.999   7.134  0.2856 -1.4409 -0.1389
 4966SOL    HW226358   3.740   3.955   7.000 -0.8886 -0.3834 -0.9783
 4967SOL     OW26359   1.875   2.548  10.689  0.8332  0.0094  0.7522
 4967SOL    HW126360   1.902   2.565  10.598  0.8031  0.9970  0.9291
 4967SOL    HW226361   1.823   2.627  10.700 -1.7850 -1.2304 -2.6942
 4968SOL     OW26362   3.151   4.404  14.828 -0.1816  0.5195 -0.0036
 4968SOL    HW126363   3.126   4.445  14.910 -0.1774  1.9684 -0.7316
 4968SOL    HW226364   3.061   4.389  14.798 -0.4179  1.5925  0.1928
 4969SOL     OW26365   0.843   1.974   7.225 -0.7362 -0.0004  0.2498
 4969SOL    HW126366   0.841   2.044   7.290 -1.4643  0.5249 -0.3387
 4969SOL    HW226367   0.920   2.001   7.176  0.4651 -2.2321  0.9176
 4970SOL     OW26368   4.543   4.488  10.543 -0.0469  0.5039 -0.0242
 4970SOL    HW126369   4.490   4.416  10.578 -0.2598 -0.3032 -2.0166
 4970SOL    HW226370   4.475   4.555  10.547  1.2511  1.8872 -1.2889
 4971SOL     OW26371   1.996   2.057  11.434 -0.4539 -0.3303  0.0052
 4971SOL    HW126372   1.921   1.998  11.428  0.4404 -1.7162  2.4053
 4971SOL    HW226373   1.974   2.128  11.494  2.6218  0.1839  0.5320
 4972SOL     OW26374   3.535   0.153   0.182 -0.7889  0.1603 -0.4502
 4972SOL    HW126375   3.553   0.136   0.275 -0.7126 -0.5036 -0.5878
 4972SOL    HW226376   3.489   0.236   0.191  0.9066  1.0898 -0.3465
 4973SOL     OW26377   2.053   1.153   9.043  0.4328 -0.3947 -0.1020
 4973SOL    HW126378   2.143   1.136   9.073  0.5442  0.9891  0.3647
 4973SOL    HW226379   2.056   1.249   9.035  0.5185 -0.2853  1.0975
 4974SOL     OW26380   3.974   2.320   0.897  0.1300 -0.2986 -0.6267
 4974SOL    HW126381   3.911   2.391   0.912 -0.1313 -0.3586 -1.4046
 4974SOL    HW226382   4.037   2.327   0.968 -0.5611 -0.7065  0.0278
 4975SOL     OW26383   1.360   1.624   2.820  0.7115 -0.3998  0.3480
 4975SOL    HW126384   1.272   1.593   2.796  1.4910 -3.2472  1.1864
 4975SOL    HW226385   1.411   1.587   2.747  0.8410  0.0787  0.1928
 4976SOL     OW26386   1.368   4.690   8.442 -0.0112  0.0075  0.0102
 4976SOL    HW126387   1.450   4.648   8.416  0.0981  1.5048 -2.0636
 4976SOL    HW226388   1.389   0.050   8.483 -2.1698  0.0653  0.9922
 4977SOL     OW26389   3.747   3.344   5.290 -0.5510 -0.4337 -0.3241
 4977SOL    HW126390   3.788   3.417   5.337 -2.6538 -0.4434  1.4842
 4977SOL    HW226391   3.670   3.389   5.257 -0.4843  1.1673  1.7136
 4978SOL     OW26392   4.376   0.263  14.657 -0.4348  0.3345  0.4187
 4978SOL    HW126393   4.379   0.201  14.730 -4.4983  1.2917  1.4261
 4978SOL    HW226394   4.456   0.228  14.618  0.1090  1.6381  0.3710
 4979SOL     OW26395   1.969   4.711   3.568  0.0565 -0.2882  0.1923
 4979SOL    HW126396   2.049   0.006   3.616  1.6484 -2.0711 -1.7070
 4979SOL    HW226397   1.990   4.641   3.506 -0.1573 -1.2334  1.1833
 4980SOL     OW26398   3.067   3.371  17.370  0.3749 -0.2270  0.3628
 4980SOL    HW126399   3.029   3.398  17.454  0.0497 -0.1597  0.1960
 4980SOL    HW226400   3.157   3.403  17.375 -0.2988  1.5385  1.1112
 4981SOL     OW26401   1.894   0.179  12.696  0.6284 -0.4466 -0.5104
 4981SOL    HW126402   1.970   0.138  12.655  1.8729  1.7550 -0.3643
 4981SOL    HW226403   1.854   0.103  12.739  0.0957  0.0335 -0.1601
 4982SOL     OW26404   4.660   3.883   2.520 -0.2565  0.4629 -0.0241
 4982SOL    HW126405   4.612   3.913   2.597 -0.0859 -1.5268  0.8719
 4982SOL    HW226406   4.616   3.932   2.450 -0.5314 -0.6152 -0.6083
 4983SOL     OW26407   0.502   1.329   6.095 -0.2555  0.3075 -0.7316
 4983SOL    HW126408   0.581   1.330   6.149 -0.3805  2.9626 -0.5596
 4983SOL    HW226409   0.468   1.418   6.104  0.2549  0.5651 -1.3596
 4984SOL     OW26410   1.341   3.121   4.738  0.5548 -0.3723 -0.1956
 4984SOL    HW126411   1.287   3.098   4.662 -0.0451 -0.1960  0.1787
 4984SOL    HW226412   1.427   3.094   4.706  0.4209 -1.3324  0.2399
 4985SOL     OW26413   2.967   2.088   3.541  0.7190 -0.5287  0.4279
 4985SOL    HW126414   2.879   2.072   3.508  0.4827 -0.2160  0.9022
 4985SOL    HW226415   2.975   2.013   3.600  1.8679 -1.1558 -0.5330
 4986SOL     OW26416   4.602   0.679   2.574 -0.3805  0.5089  0.8472
 4986SOL    HW126417   4.656   0.724   2.639  0.4603  1.5531 -0.5743
 4986SOL    HW226418   4.617   0.734   2.498 -0.6401 -2.2693 -1.2333
 4987SOL     OW26419   3.054   0.241   8.503  0.2605 -0.5142  0.1153
 4987SOL    HW126420   2.993   0.313   8.487 -0.5679 -1.4635 -1.0650
 4987SOL    HW226421   3.037   0.174   8.437  1.2565  0.7315 -1.3827
 4988SOL     OW26422   1.772   2.510   8.242 -0.7319  0.7078 -0.4155
 4988SOL    HW126423   1.768   2.594   8.196 -1.6874  0.7251 -0.3076
 4988SOL    HW226424   1.761   2.451   8.168 -0.5087  0.6765 -0.4227
 4989SOL     OW26425   2.032   3.429   5.253 -0.1092  0.0318  0.5461
 4989SOL    HW126426   1.982   3.422   5.172  1.1412 -1.2483 -0.1046
 4989SOL    HW226427   2.048   3.523   5.243  1.8003 -0.4305 -0.6485
 4990SOL     OW26428   0.736   0.356  16.912  0.2288 -0.0630 -0.0932
 4990SOL    HW126429   0.778   0.418  16.971  0.4036 -2.2413  2.1251
 4990SOL    HW226430   0.761   0.269  16.945 -0.3759  0.5687  2.0592
 4991SOL     OW26431   3.416   2.533   6.287  0.0642 -0.1716 -0.1536
 4991SOL    HW126432   3.392   2.539   6.379 -1.4951 -0.4079 -0.5488
 4991SOL    HW226433   3.386   2.614   6.246 -3.1269 -0.5519  1.4639
 4992SOL     OW26434   1.062   4.266   9.294  0.3841 -0.0364 -0.4087
 4992SOL    HW126435   1.044   4.313   9.375  0.4461 -1.0174  0.1688
 4992SOL    HW226436   0.990   4.204   9.296  0.1385  0.3410  1.9678
 4993SOL     OW26437   0.583   3.947  10.056 -0.0420 -0.0922 -0.1694
 4993SOL    HW126438   0.554   4.003  10.128  0.1056 -0.8299  0.4584
 4993SOL    HW226439   0.501   3.935  10.008  1.3096  1.1638 -2.7870
 4994SOL     OW26440   3.032   0.064   3.728  0.2868  0.0281  0.5644
 4994SOL    HW126441   3.095   0.060   3.656 -0.0770  3.1095  0.0568
 4994SOL    HW226442   3.038   4.698   3.758  0.0659 -0.4572 -0.8744
 4995SOL     OW26443   1.706   0.208   1.714 -0.2221 -0.2846 -0.4371
 4995SOL    HW126444   1.675   0.118   1.701 -0.6557 -0.4706  1.8452
 4995SOL    HW226445   1.800   0.197   1.700  0.2303 -0.3920  2.6125
 4996SOL     OW26446   4.166   4.174   5.942 -0.9139  0.4090  0.2882
 4996SOL    HW126447   4.179   4.208   6.030  0.5666 -0.5944  0.4417
 4996SOL    HW226448   4.110   4.245   5.909 -1.0437  0.0481 -0.2639
 4997SOL     OW26449   3.296   0.811   6.639 -0.2024 -1.1523  0.7280
 4997SOL    HW126450   3.342   0.834   6.720 -1.0041  2.4461  0.1750
 4997SOL    HW226451   3.370   0.805   6.579 -1.6394  0.6534 -1.2537
 4998SOL     OW26452   0.181   2.364   9.325 -0.3415  0.5463  0.5291
 4998SOL    HW126453   0.165   2.403   9.411 -1.1661  1.7590 -0.1938
 4998SOL    HW226454   0.205   2.272   9.340  2.0471  1.0452 -0.2149
 4999SOL     OW26455   2.331   1.011   1.851  0.0567 -1.0124  0.0790
 4999SOL    HW126456   2.264   0.973   1.795 -1.4473  0.2677  0.9981
 4999SOL    HW226457   2.390   0.936   1.846  1.6931  0.4779 -3.1020
 5000SOL     OW26458   1.841   1.365  14.870 -0.2512 -0.1322  0.3035
 5000SOL    HW126459   1.816   1.275  14.889  0.8437 -0.1169  1.8791
 5000SOL    HW226460   1.903   1.384  14.941 -0.5745 -0.6178  0.7147
 5001SOL     OW26461   2.710   3.264   5.239  0.1414 -0.4969 -0.0070
 5001SOL    HW126462   2.758   3.347   5.234  1.4908 -1.0702  3.7254
 5001SOL    HW226463   2.632   3.278   5.185  0.0685  1.6763  0.6428
 5002SOL     OW26464   1.125   4.375   7.102  0.5368  0.8654 -0.5040
 5002SOL    HW126465   1.154   4.443   7.042 -0.0799  1.4464 -0.1533
 5002SOL    HW226466   1.161   4.420   7.179 -0.6353  0.1806  0.4529
 5003SOL     OW26467   1.015   3.625   6.810  0.7132 -0.2307  0.5394
 5003SOL    HW126468   0.973   3.628   6.896 -0.7577 -0.0453 -0.1794
 5003SOL    HW226469   1.100   3.649   6.846  0.3030  1.8145  0.1501
 5004SOL     OW26470   1.830   0.774   7.383 -0.7277 -0.6522 -0.5703
 5004SOL    HW126471   1.826   0.814   7.470 -1.4796  1.8950 -1.7617
 5004SOL    HW226472   1.737   0.759   7.372 -0.7956 -3.2068  3.5074
 5005SOL     OW26473   1.435   0.844   4.412  0.2307 -0.3883 -0.5851
 5005SOL    HW126474   1.384   0.781   4.361 -2.2269 -0.7585  2.3047
 5005SOL    HW226475   1.375   0.868   4.482  0.1781 -0.5938 -0.5595
 5006SOL     OW26476   1.528   3.374   4.290 -0.3993  0.2402  0.2841
 5006SOL    HW126477   1.489   3.440   4.232  2.0288  1.2226 -0.2540
 5006SOL    HW226478   1.520   3.293   4.239 -0.6540 -0.0044  0.7171
 5007SOL     OW26479   2.692   0.430   7.999  0.2095 -0.7243 -0.3379
 5007SOL    HW126480   2.620   0.480   8.036 -0.4368 -1.1459 -1.0344
 5007SOL    HW226481   2.733   0.400   8.080 -3.2232 -0.6028  1.4115
 5008SOL     OW26482   3.388   0.591   1.215  0.0775 -0.0197  0.0148
 5008SOL    HW126483   3.296   0.597   1.188 -0.0629 -2.0162  0.0857
 5008SOL    HW226484   3.388   0.519   1.278 -2.9071 -0.4500 -0.4635
 5009SOL     OW26485   1.980   2.941  13.091  0.1293  0.2365 -0.3793
 5009SOL    HW126486   1.984   2.919  12.998 -1.2598 -0.8943 -0.1711
 5009SOL    HW226487   1.988   2.856  13.134  3.2316 -0.4413 -2.3312
 5010SOL     OW26488   0.973   1.047   3.580  0.5848  0.6244 -0.4871
 5010SOL    HW126489   0.899   1.098   3.612  1.5077 -0.4431  3.3294
 5010SOL    HW226490   0.992   1.093   3.498  3.1870  3.4120  1.7015
 5011SOL     OW26491   3.265   4.684  10.876  0.1101 -0.2812  0.0637
 5011SOL    HW126492   3.278   4.618  10.808 -1.4876  0.4600 -0.9688
 5011SOL    HW226493   3.220   0.025  10.822 -1.6222 -1.0593  0.5609
 5012SOL     OW26494   1.056   0.506  14.274  0.0682  0.0896  0.1760
 5012SOL    HW126495   0.960   0.504  14.270 -0.0127 -2.3307  3.2835
 5012SOL    HW226496   1.069   0.447  14.348  0.0469 -1.3508 -0.9647
 5013SOL     OW26497   0.985   2.167   7.709 -0.4067  0.6351 -0.0578
 5013SOL    HW126498   1.075   2.196   7.726 -0.2175 -0.5534  0.9764
 5013SOL    HW226499   0.944   2.253   7.698 -2.7722 -0.7635 -2.2391
 5014SOL     OW26500   3.685   3.976   0.363 -0.5098 -0.3768 -0.3443
 5014SOL    HW126501   3.688   4.069   0.339 -0.7362 -0.3539 -0.2881
 5014SOL    HW226502   3.705   3.976   0.456 -0.0585  0.0565 -0.4408
 5015SOL     OW26503   3.484   2.443   1.802 -0.2307  0.2748 -0.2256
 5015SOL    HW126504   3.509   2.398   1.883  1.7118  2.5768  0.4585
 5015SOL    HW226505   3.570   2.484   1.793 -1.3863  1.8338 -3.9310
 5016SOL     OW26506   2.250   2.575   8.955 -0.1721  0.6316 -0.2445
 5016SOL    HW126507   2.315   2.640   8.981  1.3487 -1.3850  1.0699
 5016SOL    HW226508   2.181   2.576   9.021  0.2630 -1.0519  0.2487
 5017SOL     OW26509   1.373   1.319   3.657  0.2337  0.4170  0.1857
 5017SOL    HW126510   1.296   1.283   3.701  0.1101 -0.9345 -1.1376
 5017SOL    HW226511   1.334   1.310   3.570 -0.5055 -0.5116  0.6046
 5018SOL     OW26512   4.702   2.449   4.607 -0.1959  0.5903 -0.3048
 5018SOL    HW126513   0.049   2.479   4.550  0.9420  1.4808  1.5829
 5018SOL    HW226514   4.668   2.368   4.569  0.2507 -0.3056  1.2050
 5019SOL     OW26515   1.496   2.310   6.709  0.8371 -0.0048 -0.3372
 5019SOL    HW126516   1.576   2.295   6.658  0.3658 -0.3678 -0.9741
 5019SOL    HW226517   1.432   2.318   6.639  1.2823 -0.0779 -0.7592
 5020SOL     OW26518   1.444   4.524   3.812 -0.0850  0.0730  0.1797
 5020SOL    HW126519   1.458   4.610   3.772  0.3214  1.5339  3.4455
 5020SOL    HW226520   1.465   4.560   3.899  1.5117 -0.5626  0.0660
 5021SOL     OW26521   4.271   3.167   7.236  0.1519  0.5244 -0.0834
 5021SOL    HW126522   4.326   3.121   7.300 -1.6041 -0.1965  0.9162
 5021SOL    HW226523   4.188   3.186   7.280 -0.7557  0.6511 -1.8212
 5022SOL     OW26524   0.809   0.879   5.547  0.0050 -0.2680 -0.3223
 5022SOL    HW126525   0.751   0.837   5.483 -1.9910  2.0507 -0.0455
 5022SOL    HW226526   0.876   0.813   5.563  0.8986  0.6675 -0.2456
 5023SOL     OW26527   4.668   0.000  13.657 -0.9175 -0.3519 -0.0784
 5023SOL    HW126528   4.679   4.680  13.741  1.3636  0.4621  0.0667
 5023SOL    HW226529   4.643   4.646  13.608  2.1166 -0.4652 -1.4862
 5024SOL     OW26530   2.960   1.805   5.097  0.7402  0.0362 -0.0436
 5024SOL    HW126531   2.954   1.799   5.001  0.2828  0.1756 -0.0217
 5024SOL    HW226532   2.884   1.750   5.117  1.0714 -0.3049  0.2838
 5025SOL     OW26533   3.419   1.230   0.886 -0.2566 -0.5256  0.1595
 5025SOL    HW126534   3.489   1.280   0.927 -1.4294  1.7692 -0.6186
 5025SOL    HW226535   3.367   1.208   0.963  3.0053 -1.4327  2.1201
 5026SOL     OW26536   3.984   2.305   2.702  0.3120 -0.2784  0.2861
 5026SOL    HW126537   3.967   2.310   2.608  1.4355 -2.6240 -0.0261
 5026SOL    HW226538   4.072   2.269   2.703  0.5109  0.2396  1.0471
 5027SOL     OW26539   2.508   1.244   4.455 -0.0072 -0.3786  0.0423
 5027SOL    HW126540   2.448   1.318   4.463 -0.1107 -0.5548  0.8897
 5027SOL    HW226541   2.469   1.181   4.515 -0.3874  1.6945  1.9621
 5028SOL     OW26542   1.752   3.985  14.571  0.2685 -0.1545  0.3360
 5028SOL    HW126543   1.671   3.987  14.520 -0.1189 -0.6749  0.9334
 5028SOL    HW226544   1.721   4.016  14.656  1.9532  1.1255  0.4992
 5029SOL     OW26545   1.967   4.096   7.225  0.1485  0.2897 -0.1264
 5029SOL    HW126546   2.010   4.119   7.307  1.9275 -2.8991 -0.1487
 5029SOL    HW226547   2.036   4.104   7.160  0.0832  1.8316 -0.0116
 5030SOL     OW26548   3.289   3.010   9.148 -0.3742  0.5748 -0.5739
 5030SOL    HW126549   3.311   3.102   9.135  0.1359  0.3506 -1.3005
 5030SOL    HW226550   3.239   3.024   9.229 -0.6830  1.7785 -0.9735
 5031SOL     OW26551   1.884   4.313   0.887  0.0714  0.2609 -0.4506
 5031SOL    HW126552   1.938   4.234   0.891 -0.1065  0.2773  2.0671
 5031SOL    HW226553   1.848   4.301   0.975  0.1165 -0.8712 -0.5873
 5032SOL     OW26554   3.962   4.155  16.578 -0.1471 -0.1512  0.1476
 5032SOL    HW126555   3.945   4.075  16.528 -1.9642  0.6011 -0.4291
 5032SOL    HW226556   4.047   4.134  16.616 -0.8079 -0.7395  1.2746
 5033SOL     OW26557   4.293   0.089  16.067  0.2441 -0.2514  0.1111
 5033SOL    HW126558   4.294   0.108  16.161 -1.4858  0.1463  0.0444
 5033SOL    HW226559   4.312   0.177  16.034  0.4586 -0.4381 -0.2628
 5034SOL     OW26560   0.797   2.479   7.287  0.5133 -0.0763  0.2016
 5034SOL    HW126561   0.859   2.549   7.269  0.7907 -0.5533 -0.6455
 5034SOL    HW226562   0.818   2.441   7.372 -4.1394 -0.7766  1.0648
 5035SOL     OW26563   1.085   2.028   7.114 -0.1910  0.5046 -0.0496
 5035SOL    HW126564   1.124   2.115   7.123 -0.5935  0.6838 -0.0476
 5035SOL    HW226565   1.136   2.002   7.037  1.9578 -0.4180  1.6937
 5036SOL     OW26566   3.612   0.912  16.244  0.1517  0.4814  0.3110
 5036SOL    HW126567   3.530   0.959  16.223 -1.1509 -0.9807  2.1507
 5036SOL    HW226568   3.632   0.868  16.162 -1.4844  0.0466  0.1389
 5037SOL     OW26569   2.196   2.844   6.714  0.2196 -0.0655 -0.1112
 5037SOL    HW126570   2.245   2.924   6.737 -1.0231  0.7047 -0.1326
 5037SOL    HW226571   2.250   2.775   6.751 -0.7144 -0.0696  1.2324
 5038SOL     OW26572   0.596   1.196  12.193 -0.6243 -0.6192  0.2957
 5038SOL    HW126573   0.635   1.166  12.111  1.0767  0.8445  0.5940
 5038SOL    HW226574   0.573   1.282  12.160 -1.8238 -0.3961  1.7109
 5039SOL     OW26575   2.842   1.942  13.351 -0.1702  0.1597 -0.4457
 5039SOL    HW126576   2.840   1.849  13.372 -3.4584  0.3893  0.3287
 5039SOL    HW226577   2.803   1.985  13.427 -1.9805 -2.0055 -0.1333
 5040SOL     OW26578   1.061   0.197  11.405  0.0230 -0.1325 -0.0232
 5040SOL    HW126579   1.021   0.126  11.354 -1.8797  2.1150 -1.6479
 5040SOL    HW226580   1.118   0.228  11.334  0.6013  1.0496  0.9475
 5041SOL     OW26581   0.686   0.703   1.997 -0.2483  0.3288 -0.6020
 5041SOL    HW126582   0.757   0.767   1.985 -0.4539  0.7669  0.4749
 5041SOL    HW226583   0.709   0.643   1.927 -1.1238 -2.4336  1.4675
 5042SOL     OW26584   4.091   3.191   5.563 -0.3536 -0.1027 -0.2191
 5042SOL    HW126585   4.097   3.238   5.480  0.3794  1.2548  0.6164
 5042SOL    HW226586   4.022   3.238   5.609 -0.7516 -0.3998 -0.5051
 5043SOL     OW26587   3.636   0.196   0.505  0.1245  0.1192 -0.4675
 5043SOL    HW126588   3.660   0.127   0.567  0.9140 -0.7385 -1.7448
 5043SOL    HW226589   3.707   0.260   0.507 -0.8814  1.2479 -1.0382
 5044SOL     OW26590   0.105   0.491   8.106 -0.5118  0.2390  0.0251
 5044SOL    HW126591   0.092   0.578   8.144 -2.1001 -0.3349  0.7977
 5044SOL    HW226592   0.026   0.489   8.052  0.0699 -0.4912 -0.7954
 5045SOL     OW26593   2.528   1.195  12.276 -0.3403 -0.3918  0.1041
 5045SOL    HW126594   2.617   1.161  12.282  0.3771  1.8850  2.3521
 5045SOL    HW226595   2.486   1.139  12.342  0.4309  1.5157  2.2252
 5046SOL     OW26596   4.228   3.164  11.194 -0.1207 -0.0596  0.1225
 5046SOL    HW126597   4.323   3.157  11.197 -0.0127  1.3041 -0.0540
 5046SOL    HW226598   4.212   3.242  11.141 -0.0027 -1.0315 -1.3479
 5047SOL     OW26599   3.779   2.923   5.792  0.0071 -0.4767  0.3616
 5047SOL    HW126600   3.867   2.961   5.799 -1.3971  3.1133 -1.6568
 5047SOL    HW226601   3.726   2.978   5.851 -0.9379  0.7520 -1.6455
 5048SOL     OW26602   0.957   2.264  15.122 -0.0851 -0.0755 -0.2987
 5048SOL    HW126603   1.052   2.252  15.127  0.1493  0.9917 -1.8592
 5048SOL    HW226604   0.951   2.301  15.033  0.9477  1.1784  0.1533
 5049SOL     OW26605   0.512   4.359   4.030  0.4223  0.2475  0.0641
 5049SOL    HW126606   0.443   4.296   4.053  2.1322 -1.9518 -0.8139
 5049SOL    HW226607   0.464   4.417   3.971 -1.1279 -1.7243 -0.6442
 5050SOL     OW26608   1.666   1.240  12.040 -0.1872  0.1556  0.4092
 5050SOL    HW126609   1.645   1.244  11.947  0.8511 -2.0537  0.0761
 5050SOL    HW226610   1.599   1.176  12.063  2.7959 -2.8144  0.7479
 5051SOL     OW26611   0.153   3.846   0.098  0.1683  0.0178 -0.6626
 5051SOL    HW126612   0.109   3.902   0.162  0.8818  0.2668 -0.3833
 5051SOL    HW226613   0.106   3.763   0.108  0.4754  0.1383  1.8404
 5052SOL     OW26614   3.422   4.385  16.454  0.7082  0.6087  0.1310
 5052SOL    HW126615   3.440   4.316  16.518 -1.3280  0.4631  0.5561
 5052SOL    HW226616   3.451   4.346  16.371  0.0933 -1.3578  0.8227
 5053SOL     OW26617   0.765   2.152   7.494  0.3529 -0.0254 -0.4264
 5053SOL    HW126618   0.767   2.246   7.512  1.7892 -0.0661 -0.3827
 5053SOL    HW226619   0.806   2.122   7.575  1.1468  0.1372 -0.7657
 5054SOL     OW26620   1.928   1.036  16.969 -0.6099 -0.5534 -0.2266
 5054SOL    HW126621   1.843   1.068  16.997 -1.2292 -0.5829 -2.0447
 5054SOL    HW226622   1.927   1.038  16.873 -1.3739 -0.8040 -0.2189
 5055SOL     OW26623   2.556   2.638   4.763  0.0204 -0.3864 -0.1726
 5055SOL    HW126624   2.500   2.596   4.829  0.5816 -0.4849  0.2445
 5055SOL    HW226625   2.639   2.638   4.810 -0.6951  0.7956  1.0811
 5056SOL     OW26626   3.680   0.582   4.357 -0.6477 -0.8049  0.0833
 5056SOL    HW126627   3.739   0.607   4.428 -0.2583  1.5934 -1.0769
 5056SOL    HW226628   3.659   0.495   4.391  0.7325 -0.9529  0.5643
 5057SOL     OW26629   2.443   2.851  13.850  0.0301 -0.0287 -0.2152
 5057SOL    HW126630   2.354   2.878  13.875  0.3843 -0.6679  1.7650
 5057SOL    HW226631   2.492   2.904  13.913  2.1578 -1.8841 -0.3082
 5058SOL     OW26632   0.533   1.304   3.875  0.1246 -0.5202 -0.5045
 5058SOL    HW126633   0.595   1.240   3.911 -0.6590  0.3262  2.3332
 5058SOL    HW226634   0.468   1.299   3.945  1.1323 -0.2226  0.4532
 5059SOL     OW26635   1.048   4.083   4.194  0.2471  0.5730 -0.0016
 5059SOL    HW126636   1.049   4.051   4.284 -0.6712 -0.2431 -0.2803
 5059SOL    HW226637   1.130   4.130   4.185  0.7870 -0.3165  0.2353
 5060SOL     OW26638   3.944   0.913   9.580  0.5125  0.0718  0.1587
 5060SOL    HW126639   3.993   0.911   9.497  0.1283 -2.5121 -0.0128
 5060SOL    HW226640   3.995   0.858   9.639  1.0794  1.2758  0.7914
 5061SOL     OW26641   0.891   4.142   8.359 -0.3999 -0.4494  0.0147
 5061SOL    HW126642   0.898   4.050   8.333 -1.1599 -1.1529  2.2237
 5061SOL    HW226643   0.825   4.140   8.429  0.4020 -0.8325  0.7651
 5062SOL     OW26644   3.352   0.140   3.829 -0.2838 -0.8237  0.2102
 5062SOL    HW126645   3.325   0.053   3.857  0.9175 -1.2819 -0.0326
 5062SOL    HW226646   3.403   0.117   3.751  0.9905  0.0450  0.7904
 5063SOL     OW26647   3.895   4.088   4.833 -0.1818 -0.0065  0.2712
 5063SOL    HW126648   3.892   4.169   4.781  1.1176 -1.3032 -1.7982
 5063SOL    HW226649   3.810   4.083   4.876 -0.5010 -0.8723 -0.4556
 5064SOL     OW26650   0.137   0.594  13.935 -0.0756  0.3976 -0.1537
 5064SOL    HW126651   0.076   0.637  13.876  0.6226 -0.6372 -1.6173
 5064SOL    HW226652   0.103   0.626  14.019 -1.5619 -3.2275  0.5919
 5065SOL     OW26653   2.912   2.708  16.448  0.1718 -0.2182 -0.4993
 5065SOL    HW126654   2.998   2.746  16.433  0.1982 -0.8499 -2.0660
 5065SOL    HW226655   2.905   2.716  16.543 -0.5105  1.2639 -0.6775
 5066SOL     OW26656   2.241   2.915   7.510  1.1243 -0.6114  0.2859
 5066SOL    HW126657   2.307   2.976   7.477  1.3440 -0.0052  1.8713
 5066SOL    HW226658   2.279   2.833   7.478  1.0390 -1.3486  2.0821
 5067SOL     OW26659   0.596   0.080  11.019 -0.1317  0.3046 -0.2300
 5067SOL    HW126660   0.582   0.122  10.934 -2.8241  0.4086  0.2454
 5067SOL    HW226661   0.691   0.090  11.023 -0.0578 -0.4927  0.0263
 5068SOL     OW26662   0.259   3.632   0.850 -0.2533  0.0680 -0.2699
 5068SOL    HW126663   0.169   3.660   0.864 -0.6113 -1.4458  0.4673
 5068SOL    HW226664   0.307   3.684   0.913 -0.7190  0.3590 -0.1574
 5069SOL     OW26665   3.942   2.885  16.102 -0.0980 -0.6657  0.1739
 5069SOL    HW126666   3.869   2.824  16.105 -1.1670  0.6536  1.2464
 5069SOL    HW226667   3.997   2.831  16.045 -0.5794 -0.0243 -0.8962
 5070SOL     OW26668   2.248   1.655   0.469  0.0836 -0.1626  0.3613
 5070SOL    HW126669   2.337   1.653   0.505  0.8592  1.0366 -1.4881
 5070SOL    HW226670   2.191   1.626   0.540 -3.5332  0.8769 -2.1037
 5071SOL     OW26671   0.330   2.745   3.945  0.4974 -0.6912 -0.0590
 5071SOL    HW126672   0.250   2.741   3.997  0.6132 -1.6350  0.0383
 5071SOL    HW226673   0.384   2.708   4.015  2.1450  1.0886 -0.3963
 5072SOL     OW26674   1.855   4.670  12.822 -0.2668  0.2243  0.5306
 5072SOL    HW126675   1.785   4.605  12.820  0.4099 -0.4626 -0.3679
 5072SOL    HW226676   1.878   4.634  12.908  1.9993 -0.9985 -0.5995
 5073SOL     OW26677   3.522   3.489   5.494  0.0901 -0.3735  0.3052
 5073SOL    HW126678   3.564   3.487   5.580  1.0646 -2.9481 -0.2202
 5073SOL    HW226679   3.534   3.577   5.459  0.1112 -0.4209  0.1927
 5074SOL     OW26680   2.046   0.894   5.092 -0.6657 -0.3768 -0.1146
 5074SOL    HW126681   2.093   0.859   5.017 -1.4663 -0.7074 -0.4625
 5074SOL    HW226682   1.986   0.958   5.055  0.1853 -0.3074 -1.3751
 5075SOL     OW26683   0.646   0.757   8.217  0.2614  0.3706 -0.6029
 5075SOL    HW126684   0.616   0.684   8.163  0.5152 -0.4528  0.3722
 5075SOL    HW226685   0.740   0.764   8.199  0.6797 -0.2664  1.4001
 5076SOL     OW26686   4.421   2.215   4.648  0.2382 -0.4835  0.5863
 5076SOL    HW126687   4.377   2.130   4.644 -1.1508  0.2327  0.7992
 5076SOL    HW226688   4.512   2.185   4.646  0.4242  0.2201 -2.2318
 5077SOL     OW26689   4.011   0.820   9.093 -0.7494 -0.3433 -0.6588
 5077SOL    HW126690   3.946   0.755   9.120  0.0695 -0.8476  0.0768
 5077SOL    HW226691   4.033   0.779   9.009  0.8408  0.4694 -0.6400
 5078SOL     OW26692   2.691   0.473   4.599 -0.3557 -0.5242  0.2857
 5078SOL    HW126693   2.713   0.384   4.570  0.6567 -0.5950  1.2863
 5078SOL    HW226694   2.668   0.459   4.690 -1.0495  3.1151  0.6723
 5079SOL     OW26695   0.253   0.469   3.719 -0.0989  0.0205 -0.5942
 5079SOL    HW126696   0.265   0.409   3.646  1.1906 -0.0268 -0.3366
 5079SOL    HW226697   0.160   0.492   3.725  0.5360  2.4824 -0.1250
 5080SOL     OW26698   1.718   2.541   7.437 -0.2221 -0.0230 -0.3916
 5080SOL    HW126699   1.625   2.559   7.426 -0.1796  0.1686 -0.4390
 5080SOL    HW226700   1.762   2.614   7.393 -0.9373 -0.1540 -1.3041
 5081SOL     OW26701   1.754   3.063   5.101  0.0735  0.2069 -0.4615
 5081SOL    HW126702   1.831   3.031   5.054  0.0096  1.7465 -1.6119
 5081SOL    HW226703   1.713   2.980   5.124 -1.2845  0.6363 -1.3499
 5082SOL     OW26704   4.096   3.154   3.971  0.0097  0.0929  0.4163
 5082SOL    HW126705   4.191   3.153   3.960 -0.0688 -1.5680 -0.0651
 5082SOL    HW226706   4.083   3.150   4.066  0.2252 -2.0890  0.3446
 5083SOL     OW26707   0.170   1.551   3.530 -0.1029 -0.1161 -0.2490
 5083SOL    HW126708   0.133   1.465   3.549  2.7754 -1.8221 -2.2624
 5083SOL    HW226709   0.220   1.571   3.609 -0.4319  2.9068 -0.8022
 5084SOL     OW26710   1.032   4.663   3.571  0.1849  0.3949  0.1729
 5084SOL    HW126711   1.105   4.723   3.587 -0.5257  1.1154  0.7330
 5084SOL    HW226712   1.073   4.578   3.584  1.7153  0.6980 -2.5992
 5085SOL     OW26713   2.930   3.091   1.861 -0.4131  0.4045 -0.3824
 5085SOL    HW126714   3.008   3.045   1.831 -0.3290 -0.1537  0.6836
 5085SOL    HW226715   2.863   3.030   1.831  0.6765 -3.1495  4.4294
 5086SOL     OW26716   0.335   1.772   4.558 -0.3902  0.1313 -0.4123
 5086SOL    HW126717   0.311   1.863   4.540 -0.5280  0.3383  0.8016
 5086SOL    HW226718   0.401   1.794   4.624 -0.2397 -1.6234  0.0152
 5087SOL     OW26719   0.215   2.649   7.767  0.6694  1.2107  0.3583
 5087SOL    HW126720   0.142   2.683   7.715  0.1887 -1.3652 -0.6609
 5087SOL    HW226721   0.168   2.574   7.802 -2.0736  2.2469 -1.0500
 5088SOL     OW26722   0.759   1.108   6.365 -0.2373 -0.0361 -0.4270
 5088SOL    HW126723   0.849   1.104   6.396  0.4559  0.9443 -2.2918
 5088SOL    HW226724   0.712   1.048   6.423 -1.2045  1.6701  0.5807
 5089SOL     OW26725   3.304   3.704   4.508  0.2740  0.0384 -0.1649
 5089SOL    HW126726   3.390   3.666   4.488  1.3838  2.5506 -0.1950
 5089SOL    HW226727   3.321   3.793   4.477  1.2251 -1.7661 -4.7048
 5090SOL     OW26728   2.396   1.194   6.179 -0.0289  0.2587 -0.3287
 5090SOL    HW126729   2.375   1.101   6.176 -3.4132  1.0217 -0.4314
 5090SOL    HW226730   2.448   1.204   6.099  0.8785  1.7735  0.4508
 5091SOL     OW26731   3.972   0.303   9.038 -0.2417 -0.1193  0.0408
 5091SOL    HW126732   4.029   0.318   8.963  1.3637 -1.6104  0.9702
 5091SOL    HW226733   4.018   0.343   9.111  2.6592 -2.5671 -0.4848
 5092SOL     OW26734   0.531   1.654   5.455  0.0444 -0.1650 -0.0233
 5092SOL    HW126735   0.442   1.688   5.446  1.2430  2.7916 -0.8434
 5092SOL    HW226736   0.566   1.733   5.495 -2.3264  1.3466 -0.9602
 5093SOL     OW26737   1.962   0.016   5.517 -0.1255  0.1401 -0.4486
 5093SOL    HW126738   1.956   0.093   5.573  0.6061  1.0135 -1.5511
 5093SOL    HW226739   2.055   4.717   5.524  0.0176  0.8107 -0.1347
 5094SOL     OW26740   4.600   2.336   7.240  0.1110 -0.0969 -0.0234
 5094SOL    HW126741   4.608   2.271   7.170  2.8114 -0.5041  0.6655
 5094SOL    HW226742   4.508   2.355   7.223 -0.2380 -2.5684 -1.0076
 5095SOL     OW26743   0.535   3.070   2.252  0.1125  0.6811  0.2725
 5095SOL    HW126744   0.536   3.136   2.321 -1.2296  1.1309 -0.1424
 5095SOL    HW226745   0.591   3.116   2.189 -1.5955  0.1514 -1.6128
 5096SOL     OW26746   2.481   0.407  10.253 -0.5123  0.5366 -0.0690
 5096SOL    HW126747   2.409   0.362  10.208  1.3584 -2.1187 -0.3910
 5096SOL    HW226748   2.523   0.435  10.171  1.3851  2.1468  1.4376
 5097SOL     OW26749   2.277   2.367   6.839 -0.6081  0.7170  0.4986
 5097SOL    HW126750   2.183   2.349   6.832 -0.2013 -1.5387  0.8182
 5097SOL    HW226751   2.301   2.297   6.900  2.0052  0.6819 -0.5525
 5098SOL     OW26752   0.011   2.121   7.083 -0.3706 -0.0412  0.0358
 5098SOL    HW126753   0.071   2.166   7.024  0.4307 -0.7152  0.3355
 5098SOL    HW226754   0.066   2.049   7.113  2.1185  2.1313  0.6165
 5099SOL     OW26755   3.114   1.247   6.455  0.4124 -0.0942 -0.7644
 5099SOL    HW126756   3.077   1.318   6.507  0.7706 -1.5091  1.4464
 5099SOL    HW226757   3.205   1.270   6.473  1.7383 -2.3468 -4.5565
 5100SOL     OW26758   4.660   0.179   7.330  0.0829  0.3649  0.0469
 5100SOL    HW126759   4.583   0.192   7.386 -2.4084 -0.3326 -3.1734
 5100SOL    HW226760   4.681   0.264   7.292  0.5602  0.5011  0.6170
 5101SOL     OW26761   4.214   3.378  12.340  0.0357 -0.0853 -0.4673
 5101SOL    HW126762   4.270   3.301  12.345  2.0228  1.3237 -1.1360
 5101SOL    HW226763   4.174   3.377  12.427  0.9551  1.8169 -0.0184
 5102SOL     OW26764   2.239   0.098   3.183  0.2043  0.1770  0.2635
 5102SOL    HW126765   2.264   0.101   3.276 -2.4979 -1.3345  1.0203
 5102SOL    HW226766   2.241   0.006   3.156 -1.2407 -0.5013  2.4943
 5103SOL     OW26767   2.981   2.462   6.611 -0.3854 -0.6842 -0.1618
 5103SOL    HW126768   3.003   2.533   6.550  0.5004 -1.0715 -0.2998
 5103SOL    HW226769   2.896   2.491   6.643 -0.1009  0.1883 -0.1961
 5104SOL     OW26770   4.259   0.879   2.631  0.1235 -0.6201  0.6151
 5104SOL    HW126771   4.336   0.935   2.621 -1.3685  1.0664 -1.3486
 5104SOL    HW226772   4.252   0.840   2.544  1.7855 -0.0734  0.2365
 5105SOL     OW26773   1.534   2.724  12.353 -0.0861 -0.2213  0.7288
 5105SOL    HW126774   1.571   2.751  12.269 -0.3539  0.2758  0.7668
 5105SOL    HW226775   1.486   2.805  12.371  1.9942  0.7896  1.7456
 5106SOL     OW26776   1.539   3.169   3.030  0.2370  0.3856  0.7696
 5106SOL    HW126777   1.552   3.080   3.062  0.5746 -0.7157 -2.4709
 5106SOL    HW226778   1.630   3.197   3.036  0.2648  0.3048  0.7226
 5107SOL     OW26779   4.037   3.121   4.274  0.1122  0.2146 -0.9015
 5107SOL    HW126780   3.972   3.118   4.343 -0.4481 -0.6134 -1.4716
 5107SOL    HW226781   4.035   3.030   4.243  2.5881 -0.0494 -0.2858
 5108SOL     OW26782   3.294   3.899   9.182  0.2720 -0.0974 -0.1434
 5108SOL    HW126783   3.317   3.990   9.196  0.1241 -0.0769 -0.0241
 5108SOL    HW226784   3.321   3.855   9.263 -1.6758  0.0858  0.5952
 5109SOL     OW26785   3.544   2.229   7.908 -0.4262  0.2165 -0.4248
 5109SOL    HW126786   3.472   2.176   7.873 -1.3051  0.0383  1.6625
 5109SOL    HW226787   3.506   2.309   7.871  0.2093  1.4834  1.6457
 5110SOL     OW26788   2.808   3.389   6.842 -0.1296  0.4095  0.2877
 5110SOL    HW126789   2.796   3.322   6.775  4.9399 -1.0752  0.8664
 5110SOL    HW226790   2.896   3.369   6.876 -0.5292  1.8237  2.1805
 5111SOL     OW26791   3.837   3.381   4.050 -0.2513  0.1918  0.4216
 5111SOL    HW126792   3.875   3.444   3.989  1.9399 -0.2558  1.3137
 5111SOL    HW226793   3.816   3.308   3.991 -0.4145 -1.3453  2.3792
 5112SOL     OW26794   2.072   0.879  17.141  0.0626  0.1255  0.1701
 5112SOL    HW126795   2.068   0.794  17.097  0.7881  0.9395 -1.4549
 5112SOL    HW226796   2.040   0.940  17.075  0.4355  0.7580  0.5724
 5113SOL     OW26797   4.168   1.205   7.302 -0.3541  0.3484  0.3013
 5113SOL    HW126798   4.080   1.234   7.280 -0.0230  0.2643 -1.1521
 5113SOL    HW226799   4.157   1.145   7.376 -0.9078  0.8601  0.6258
 5114SOL     OW26800   3.907   1.893   6.014  0.0477 -0.0088 -0.3465
 5114SOL    HW126801   3.845   1.965   6.001  1.6597  1.5395  0.5841
 5114SOL    HW226802   3.980   1.919   5.959  1.0670  1.9143  1.9041
 5115SOL     OW26803   0.993   1.408   0.529  0.7185 -0.0872 -0.3088
 5115SOL    HW126804   1.082   1.442   0.521  1.1493 -0.9770  0.7355
 5115SOL    HW226805   0.955   1.456   0.455 -0.8150 -1.2481 -0.2713
 5116SOL     OW26806   4.473   3.121  14.393 -0.4208  0.3816  0.4838
 5116SOL    HW126807   4.495   3.176  14.318 -1.1919 -0.6984 -0.5260
 5116SOL    HW226808   4.532   3.160  14.458  1.3152 -1.6858  0.1749
 5117SOL     OW26809   0.601   2.326  15.777  0.1829  0.5153 -0.0869
 5117SOL    HW126810   0.553   2.322  15.860 -0.1497  2.2666 -0.1883
 5117SOL    HW226811   0.686   2.298  15.808 -0.5281 -0.8735  0.5936
 5118SOL     OW26812   0.568   1.903   5.533  0.2772  0.2074 -0.1756
 5118SOL    HW126813   0.543   1.930   5.622 -0.2766  0.1840 -0.3222
 5118SOL    HW226814   0.547   1.977   5.476 -1.9555 -1.1915 -1.1763
 5119SOL     OW26815   2.128   4.533  15.495 -0.7148  0.7053 -0.4102
 5119SOL    HW126816   2.210   4.574  15.520 -0.3330  1.1357 -2.3580
 5119SOL    HW226817   2.076   4.552  15.573  1.8968  1.7165  1.0776
 5120SOL     OW26818   4.071   3.934   9.341  0.0627  0.3733 -0.1681
 5120SOL    HW126819   4.104   3.850   9.310  0.9723  1.2682 -1.5648
 5120SOL    HW226820   4.127   3.957   9.415 -1.4386 -1.0854  1.4524
 5121SOL     OW26821   2.633   0.139  13.819  0.3133 -0.1360 -0.6397
 5121SOL    HW126822   2.629   0.105  13.909  2.3138  0.0375 -0.4858
 5121SOL    HW226823   2.538   0.150  13.809  0.5673  1.3818 -1.3323
 5122SOL     OW26824   2.032   4.607   8.267 -0.6226  0.1291 -0.0801
 5122SOL    HW126825   2.040   4.677   8.202  1.4769 -0.9623 -0.9665
 5122SOL    HW226826   2.123   4.603   8.295 -0.6621 -4.0306 -0.5845
 5123SOL     OW26827   3.090   4.313   3.875 -0.1598 -0.3870  0.0811
 5123SOL    HW126828   3.165   4.256   3.857 -0.5534 -0.6350 -0.7325
 5123SOL    HW226829   3.046   4.270   3.948 -1.8097  2.3150  0.6801
 5124SOL     OW26830   3.331   4.013  16.451 -0.1314 -0.0941  0.1490
 5124SOL    HW126831   3.383   3.953  16.505 -1.1113 -1.7208 -0.7053
 5124SOL    HW226832   3.263   4.037  16.514  1.4665  0.1768  1.7915
 5125SOL     OW26833   4.059   3.361  12.831 -0.9312  0.4277  0.0904
 5125SOL    HW126834   4.100   3.334  12.914  0.3110 -0.7498 -0.9091
 5125SOL    HW226835   4.099   3.443  12.804  0.2312 -0.1668 -0.0099
 5126SOL     OW26836   2.445   1.471   5.604  0.3007 -0.6195  0.7678
 5126SOL    HW126837   2.380   1.408   5.573  1.3845 -1.7348  0.7625
 5126SOL    HW226838   2.390   1.527   5.659  1.4947  1.2739  0.0146
 5127SOL     OW26839   1.107   1.679   9.736  0.2124  0.0690 -0.2201
 5127SOL    HW126840   1.192   1.638   9.720 -0.1090 -1.0085  0.8774
 5127SOL    HW226841   1.042   1.610   9.727 -0.4798  0.8371 -1.1289
 5128SOL     OW26842   1.099   1.195  12.225  0.4567 -0.4674 -0.2714
 5128SOL    HW126843   1.042   1.142  12.280  0.4551 -0.1221  0.0598
 5128SOL    HW226844   1.028   1.220  12.167 -2.0292 -2.1685  2.0121
 5129SOL     OW26845   2.558   2.569  10.008  0.1535  0.0218  0.6936
 5129SOL    HW126846   2.502   2.501  10.046 -0.2903  0.8715  1.5399
 5129SOL    HW226847   2.648   2.538  10.021  0.7682  0.9668 -1.2456
 5130SOL     OW26848   3.533   4.654  15.154 -0.4019 -0.1498 -0.5939
 5130SOL    HW126849   3.570   4.676  15.068  0.3968  0.8461  0.0031
 5130SOL    HW226850   3.448   4.698  15.149 -0.0262  0.5598 -0.8641
 5131SOL     OW26851   3.821   3.580   5.423 -0.5144 -0.3246 -0.3557
 5131SOL    HW126852   3.913   3.596   5.400 -0.3177 -1.1344 -0.1360
 5131SOL    HW226853   3.799   3.645   5.489  2.9959 -0.2757  0.7659
 5132SOL     OW26854   2.382   4.706   2.775  0.3426 -0.2433  0.1221
 5132SOL    HW126855   2.462   4.705   2.829 -0.1808  1.1545  0.9245
 5132SOL    HW226856   2.393   4.622   2.731 -0.4900  1.2060 -2.8215
 5133SOL     OW26857   4.006   0.812  17.242  0.2403  0.0284 -0.2720
 5133SOL    HW126858   3.969   0.901  17.247  3.5398  1.3894 -0.0499
 5133SOL    HW226859   4.094   0.842  17.264 -0.6992  2.2533  0.4801
 5134SOL     OW26860   3.493   3.190   6.788  0.0186  0.0436  0.3281
 5134SOL    HW126861   3.577   3.210   6.829 -0.1304 -1.7856  1.5504
 5134SOL    HW226862   3.444   3.272   6.781  1.5999  0.7769 -1.9589
 5135SOL     OW26863   2.969   2.687   3.813  0.0210  0.4084 -0.4778
 5135SOL    HW126864   2.929   2.617   3.761 -2.8123 -0.0472  2.3117
 5135SOL    HW226865   2.976   2.643   3.898  0.5329 -0.6249 -1.0595
 5136SOL     OW26866   1.035   2.374   8.894 -0.1510 -0.1932  0.2233
 5136SOL    HW126867   0.942   2.359   8.879 -0.3109  0.6258  0.3928
 5136SOL    HW226868   1.047   2.318   8.970 -1.2659 -0.6047  0.0959
 5137SOL     OW26869   4.431   4.614   7.207  0.1886  0.4003  0.0228
 5137SOL    HW126870   4.478   4.595   7.288  0.9006 -1.1522 -0.7511
 5137SOL    HW226871   4.344   4.645   7.234 -0.1177  1.2814 -1.9437
 5138SOL     OW26872   1.723   2.875   7.655 -0.3160 -0.1990  0.4832
 5138SOL    HW126873   1.721   2.802   7.718 -1.4286  0.1118  0.8070
 5138SOL    HW226874   1.762   2.939   7.714  0.2984 -0.7766  0.7102
 5139SOL     OW26875   3.373   1.802   8.441  0.5201  0.3562  0.1530
 5139SOL    HW126876   3.402   1.713   8.423 -1.1534 -0.1843  0.1404
 5139SOL    HW226877   3.432   1.818   8.515 -1.1581  0.4580  1.4739
 5140SOL     OW26878   4.633   0.386   6.817  0.2054 -0.2105  0.5387
 5140SOL    HW126879   4.695   0.322   6.851  1.1612  1.0355  1.1412
 5140SOL    HW226880   4.666   0.393   6.727 -2.7573  0.4139 -0.5026
 5141SOL     OW26881   3.541   0.191   1.444 -0.2827 -0.5336 -0.2506
 5141SOL    HW126882   3.502   0.114   1.486 -1.1412  0.2749  0.4448
 5141SOL    HW226883   3.623   0.162   1.404  0.7860 -0.1713  1.6735
 5142SOL     OW26884   3.253   1.561   2.851  0.0892  0.0908 -0.1402
 5142SOL    HW126885   3.265   1.486   2.908 -0.0142 -0.3439 -0.6912
 5142SOL    HW226886   3.161   1.548   2.827 -0.2543 -0.1373  1.2976
 5143SOL     OW26887   0.260   0.443   6.746  0.3922  0.5127  0.0828
 5143SOL    HW126888   0.322   0.372   6.763 -0.1561 -0.0299 -0.2108
 5143SOL    HW226889   0.230   0.413   6.660  0.5783 -0.8869  0.4986
 5144SOL     OW26890   2.028   4.470   6.130 -0.4421  0.0829 -0.1536
 5144SOL    HW126891   2.056   4.472   6.039 -1.7258  2.4692 -0.4903
 5144SOL    HW226892   1.934   4.473   6.113 -0.3125 -1.8775 -1.1724
 5145SOL     OW26893   1.294   3.145  12.178  0.6419 -0.0366 -0.0690
 5145SOL    HW126894   1.262   3.225  12.138 -2.0199 -1.2747 -0.4047
 5145SOL    HW226895   1.231   3.076  12.158  1.2240 -0.7084  0.4061
 5146SOL     OW26896   1.953   1.051  16.694  0.2835 -0.6301 -0.1720
 5146SOL    HW126897   2.027   1.100  16.658  1.3421 -0.8677  1.6897
 5146SOL    HW226898   1.991   0.963  16.690 -0.9998 -1.1494 -0.6454
 5147SOL     OW26899   0.085   2.478  11.241  0.8083  0.1365 -0.6000
 5147SOL    HW126900   0.050   2.457  11.327  1.8506 -0.4289 -0.3307
 5147SOL    HW226901   0.165   2.527  11.260  1.8110 -1.7256 -0.0927
 5148SOL     OW26902   1.733   0.948   5.809 -0.2628  0.3879 -0.2921
 5148SOL    HW126903   1.769   1.013   5.869 -0.6954  0.6127 -0.2829
 5148SOL    HW226904   1.793   0.956   5.735  0.1119  1.2791  0.1058
 5149SOL     OW26905   3.840   1.653   5.402  0.8223 -0.4857  0.0566
 5149SOL    HW126906   3.877   1.708   5.471  1.3397  0.5197 -1.0047
 5149SOL    HW226907   3.911   1.632   5.341 -0.3741  0.5401 -1.6789
 5150SOL     OW26908   1.226   3.530   1.362  0.4283  0.0060  0.1274
 5150SOL    HW126909   1.279   3.469   1.413  0.8469 -0.5023 -0.9234
 5150SOL    HW226910   1.145   3.527   1.414 -0.3444  5.1253 -0.8338
 5151SOL     OW26911   4.260   4.622   3.210  0.0682  0.4153  0.2035
 5151SOL    HW126912   4.266   4.697   3.150  2.4786  1.3914  1.6604
 5151SOL    HW226913   4.255   4.670   3.293 -1.3102 -0.3086  0.5361
 5152SOL     OW26914   2.421   0.433   2.576  0.0964  0.4763 -0.1315
 5152SOL    HW126915   2.381   0.358   2.533 -0.6229  1.8577 -1.8423
 5152SOL    HW226916   2.515   0.423   2.561  0.1200  2.0851 -1.0951
 5153SOL     OW26917   2.943   0.496   8.505 -0.2920 -0.0572  0.3538
 5153SOL    HW126918   2.987   0.491   8.590 -0.4390  1.2097  0.5046
 5153SOL    HW226919   2.862   0.542   8.528 -1.8823 -3.2037  1.0931
 5154SOL     OW26920   4.092   3.162  13.896  0.5042 -0.0860 -0.1050
 5154SOL    HW126921   4.169   3.108  13.913  0.5377 -0.2656 -0.8380
 5154SOL    HW226922   4.049   3.160  13.981  1.7693  2.7270  0.6157
 5155SOL     OW26923   0.857   4.295   4.876  0.1872  0.4402  0.1553
 5155SOL    HW126924   0.937   4.242   4.886  0.9836  1.3299 -1.5848
 5155SOL    HW226925   0.876   4.363   4.941  0.4107 -0.1219  0.6902
 5156SOL     OW26926   1.997   3.800  15.087 -0.3112  0.1283  0.1178
 5156SOL    HW126927   1.954   3.853  15.020 -1.2225  0.0475  0.6491
 5156SOL    HW226928   2.057   3.752  15.030  2.5920  0.9676  2.4392
 5157SOL     OW26929   3.481   3.681   5.948 -0.1354  0.2904  0.0495
 5157SOL    HW126930   3.555   3.740   5.934 -2.3374  2.7547 -1.2255
 5157SOL    HW226931   3.525   3.597   5.950  0.4938  0.6362  0.6343
 5158SOL     OW26932   0.230   1.481  15.361  0.2508  0.5835  0.8287
 5158SOL    HW126933   0.189   1.511  15.280  2.4774 -0.9027 -0.8150
 5158SOL    HW226934   0.187   1.396  15.371 -1.6566  1.4722  0.2114
 5159SOL     OW26935   1.443   1.165   3.251  0.0835  0.1279 -0.6251
 5159SOL    HW126936   1.437   1.144   3.345  1.0601  2.1844 -0.1133
 5159SOL    HW226937   1.530   1.135   3.224  0.2008 -0.6342  0.5840
 5160SOL     OW26938   3.434   3.044   7.291  0.1074  0.1889  0.1709
 5160SOL    HW126939   3.462   2.953   7.283  1.0706  0.3756  1.5351
 5160SOL    HW226940   3.374   3.035   7.365  0.5568  0.6808  0.5921
 5161SOL     OW26941   0.508   1.622   3.049 -0.0635 -0.0648  0.8426
 5161SOL    HW126942   0.529   1.533   3.022  2.4608  1.1029 -1.0547
 5161SOL    HW226943   0.462   1.608   3.131  0.4677 -1.2372  0.9446
 5162SOL     OW26944   1.718   3.647   8.180 -0.1141 -0.0982 -0.0352
 5162SOL    HW126945   1.731   3.645   8.085 -1.2036 -1.3936 -0.1654
 5162SOL    HW226946   1.635   3.600   8.184 -0.2022 -0.0014 -0.6745
 5163SOL     OW26947   3.727   1.219   5.464 -0.2620 -0.6001  0.0104
 5163SOL    HW126948   3.739   1.306   5.501  1.7424 -1.0363  0.4040
 5163SOL    HW226949   3.632   1.215   5.457 -0.2243 -2.1738  0.4532
 5164SOL     OW26950   1.894   0.320   5.199 -0.5174  0.2608 -0.2423
 5164SOL    HW126951   1.830   0.343   5.266  0.5507  0.6068  0.6585
 5164SOL    HW226952   1.966   0.320   5.261  0.6053  0.6641 -1.5453
 5165SOL     OW26953   1.568   4.361   2.136 -0.1595 -0.0194 -0.0568
 5165SOL    HW126954   1.532   4.291   2.080 -1.2971  2.0669 -1.9120
 5165SOL    HW226955   1.627   4.402   2.073 -0.7594  0.7743 -0.0911
 5166SOL     OW26956   0.283   3.016   5.073  0.2291 -0.4924  0.2139
 5166SOL    HW126957   0.372   3.002   5.105  0.7668  1.0183 -0.6438
 5166SOL    HW226958   0.270   3.100   5.119 -0.6301  0.0798 -1.0876
 5167SOL     OW26959   1.964   0.534   7.803  0.3648 -0.3878 -0.0805
 5167SOL    HW126960   1.910   0.539   7.882 -1.3916 -0.5878 -1.2585
 5167SOL    HW226961   2.001   0.622   7.801 -1.6294  0.4557 -0.2528
 5168SOL     OW26962   3.015   3.752  14.802  0.0283 -0.4081 -0.2176
 5168SOL    HW126963   2.990   3.750  14.710 -0.3645  0.0454 -0.1226
 5168SOL    HW226964   3.001   3.659  14.817  0.5078 -0.5000 -0.3204
 5169SOL     OW26965   1.261   0.097   7.178  0.2556  0.0725  0.1893
 5169SOL    HW126966   1.286   0.136   7.262 -0.2780 -0.2887  0.5116
 5169SOL    HW226967   1.175   0.132   7.158 -0.0030 -0.6612  0.0241
 5170SOL     OW26968   3.312   3.970   7.409 -0.1582  0.0956  0.9038
 5170SOL    HW126969   3.372   3.899   7.391  0.1022  0.2443  1.1799
 5170SOL    HW226970   3.284   3.995   7.321 -0.2959 -1.9912  0.3563
 5171SOL     OW26971   2.112   3.930   0.197 -0.4366  0.7773 -0.3634
 5171SOL    HW126972   2.088   3.850   0.150  1.0242  0.1012  0.0650
 5171SOL    HW226973   2.205   3.915   0.211 -0.6738 -0.1475  0.2924
 5172SOL     OW26974   1.263   3.153   8.430 -0.9252 -0.4430  0.2467
 5172SOL    HW126975   1.222   3.092   8.491 -0.0546 -0.9826  0.2840
 5172SOL    HW226976   1.255   3.231   8.485  1.0976 -0.7263  0.9424
 5173SOL     OW26977   0.256   1.899   3.322 -0.2429  0.0698  0.2211
 5173SOL    HW126978   0.262   1.994   3.332  2.8411 -0.1195  0.0613
 5173SOL    HW226979   0.347   1.869   3.325  0.2490  1.6998  1.4161
 5174SOL     OW26980   3.563   3.213   8.022 -0.5797  0.3044  0.4269
 5174SOL    HW126981   3.540   3.298   8.060  1.5042  1.6790 -1.4249
 5174SOL    HW226982   3.655   3.205   8.046 -0.8885 -0.2933  1.4182
 5175SOL     OW26983   3.747   4.054   7.290  0.0885  0.0864 -0.2772
 5175SOL    HW126984   3.811   4.125   7.286 -2.4283  2.2302 -2.1424
 5175SOL    HW226985   3.693   4.085   7.362  0.0787 -0.5382 -0.0120
 5176SOL     OW26986   2.767   3.160  13.697  0.5188 -0.1985  0.0754
 5176SOL    HW126987   2.778   3.126  13.786  0.7239  1.3526  0.6321
 5176SOL    HW226988   2.755   3.252  13.721 -2.8846 -1.2318  2.3763
 5177SOL     OW26989   2.961   4.310   1.307 -0.0460  0.0334  0.1791
 5177SOL    HW126990   3.013   4.315   1.388  0.4182  0.0911 -0.1235
 5177SOL    HW226991   2.919   4.225   1.320  1.2375 -1.1133 -3.4064
 5178SOL     OW26992   1.919   4.630  10.062 -0.3656 -0.1680 -0.2480
 5178SOL    HW126993   1.907   4.701  10.124  1.6096 -1.0050  1.1016
 5178SOL    HW226994   1.891   4.559  10.120  2.0854 -0.2995  0.7560
 5179SOL     OW26995   2.265   0.500   0.065  0.0259  0.1706 -0.0493
 5179SOL    HW126996   2.303   0.448  17.693 -3.1611 -2.0267 -0.1604
 5179SOL    HW226997   2.171   0.484   0.055 -0.0226  1.4263 -1.5819
 5180SOL     OW26998   3.743   2.698  13.153  0.3894 -0.9129  0.2355
 5180SOL    HW126999   3.797   2.768  13.190  1.9585 -2.0331  0.1037
 5180SOL    HW227000   3.658   2.715  13.193  0.8937  1.9512  0.0604
 5181SOL     OW27001   1.852   0.294  11.775 -0.3232 -0.3724  0.9132
 5181SOL    HW127002   1.941   0.307  11.743  0.3269 -2.9290  1.6010
 5181SOL    HW227003   1.825   0.217  11.724  1.3292  1.1953 -2.3660
 5182SOL     OW27004   0.142   1.987  12.263  0.2911 -0.3057 -0.0401
 5182SOL    HW127005   0.221   1.952  12.221  0.2044 -1.7050  0.9796
 5182SOL    HW227006   0.114   1.917  12.322 -1.4179 -0.0694 -0.5941
 5183SOL     OW27007   1.949   2.635  10.437 -0.1259  0.2729 -0.2252
 5183SOL    HW127008   1.898   2.585  10.372 -1.1947 -1.9813  2.3587
 5183SOL    HW227009   1.984   2.708  10.387  1.4096 -0.9166 -0.8993
 5184SOL     OW27010   1.045   3.186  11.817  0.0919  0.2177  0.4535
 5184SOL    HW127011   1.062   3.234  11.898  0.1251  0.6813  0.1704
 5184SOL    HW227012   1.010   3.257  11.763  1.0110  0.5997  0.3656
 5185SOL     OW27013   1.028   3.806   2.051  0.5051  0.3569 -0.2866
 5185SOL    HW127014   0.968   3.762   1.991  1.5964  1.3122 -2.0774
 5185SOL    HW227015   1.047   3.729   2.104  0.3009  0.9396  0.6305
 5186SOL     OW27016   1.301   1.638   7.687  0.0793 -0.3840 -0.2945
 5186SOL    HW127017   1.277   1.563   7.742  1.9480 -1.4664 -0.9606
 5186SOL    HW227018   1.255   1.710   7.730 -1.3142 -1.9491  0.8620
 5187SOL     OW27019   3.220   2.641   4.104  0.2250  0.0816 -0.7251
 5187SOL    HW127020   3.227   2.570   4.168  0.2023  0.0645 -0.7413
 5187SOL    HW227021   3.130   2.638   4.071 -0.7369 -1.4819  2.0588
 5188SOL     OW27022   3.848   2.166   3.407 -0.0822  0.3240  0.9075
 5188SOL    HW127023   3.815   2.095   3.353 -0.0748  0.4174  0.7778
 5188SOL    HW227024   3.784   2.158   3.477 -1.5405 -0.9867 -0.5599
 5189SOL     OW27025   0.413   0.778  14.798  0.0249  0.3577 -0.7312
 5189SOL    HW127026   0.333   0.826  14.819  0.5313  0.2580  1.4201
 5189SOL    HW227027   0.462   0.792  14.879 -0.5666  0.3875 -0.3747
 5190SOL     OW27028   2.301   4.245  14.619 -0.1153  0.0692  0.3482
 5190SOL    HW127029   2.307   4.284  14.532 -2.7161 -0.2136  0.0448
 5190SOL    HW227030   2.276   4.159  14.587 -0.8673  0.3437  0.1908
 5191SOL     OW27031   2.001   2.714   9.360 -0.0140 -0.1071 -0.0202
 5191SOL    HW127032   1.958   2.720   9.445 -0.9139  0.5406 -0.5218
 5191SOL    HW227033   2.061   2.645   9.388 -0.0893 -0.3501 -0.4605
 5192SOL     OW27034   1.972   3.610  17.458 -0.0621 -0.1826  0.1932
 5192SOL    HW127035   1.938   3.698  17.474 -2.9293 -0.9519 -1.5998
 5192SOL    HW227036   1.892   3.558  17.467 -0.6640  0.5940 -0.7295
 5193SOL     OW27037   2.444   1.772   6.175  0.3926 -0.1499  0.1820
 5193SOL    HW127038   2.348   1.766   6.177  0.5636 -2.6232  0.5469
 5193SOL    HW227039   2.456   1.720   6.096 -0.0173  1.7125 -1.1182
 5194SOL     OW27040   4.147   3.373   3.356 -0.0913 -0.2690  0.7020
 5194SOL    HW127041   4.056   3.372   3.326  0.2115  0.4338 -0.2558
 5194SOL    HW227042   4.139   3.360   3.451 -2.3383 -1.9532  0.2875
 5195SOL     OW27043   1.001   4.631   4.157  0.2066  0.0493 -0.2601
 5195SOL    HW127044   1.066   4.574   4.116 -1.4412 -2.0763  0.0763
 5195SOL    HW227045   0.920   4.584   4.142  0.3604  0.1923 -1.5127
 5196SOL     OW27046   4.163   1.768  15.902 -0.3048  0.4430 -0.2381
 5196SOL    HW127047   4.192   1.852  15.867  2.1444 -1.1111 -1.9102
 5196SOL    HW227048   4.087   1.761  15.844  1.7433  1.4587 -3.0339
 5197SOL     OW27049   2.590   4.281   7.102 -0.0783 -0.2386 -0.2883
 5197SOL    HW127050   2.560   4.342   7.169  0.5212 -1.7512  1.3583
 5197SOL    HW227051   2.540   4.312   7.026  1.4834  0.7635 -0.9076
 5198SOL     OW27052   0.905   2.230   8.636 -0.0025 -0.4313 -0.1916
 5198SOL    HW127053   0.820   2.184   8.637  0.9109 -2.1683 -2.5275
 5198SOL    HW227054   0.951   2.201   8.558  0.4362  1.7508 -0.7374
 5199SOL     OW27055   0.525   4.504  17.375  0.4284  0.0326  0.2770
 5199SOL    HW127056   0.434   4.532  17.363  0.5788  0.6604  0.5731
 5199SOL    HW227057   0.509   4.411  17.364 -1.3250  0.5531 -1.6493
 5200SOL     OW27058   4.565   1.315   7.109 -0.0683  0.6285  0.2307
 5200SOL    HW127059   4.576   1.322   7.203  1.3388  0.9983  0.0374
 5200SOL    HW227060   4.656   1.299   7.083 -0.5806 -1.5743 -0.2071
 5201SOL     OW27061   2.106   0.783   7.776  0.0411 -0.1668  0.0448
 5201SOL    HW127062   2.174   0.780   7.844  2.0709  0.5465 -1.9784
 5201SOL    HW227063   2.051   0.854   7.809 -1.6225 -2.0867  1.4446
 5202SOL     OW27064   1.966   0.978  14.095  0.1130  0.1649  0.1343
 5202SOL    HW127065   2.054   0.998  14.062 -0.9319  1.4769 -1.8807
 5202SOL    HW227066   2.000   0.901  14.141 -1.6495  1.0014  2.7910
 5203SOL     OW27067   4.001   0.228   4.724  0.6918  0.0149 -0.1810
 5203SOL    HW127068   3.948   0.159   4.684  1.0315 -0.9290  0.9775
 5203SOL    HW227069   4.061   0.250   4.653 -0.4953 -0.0024 -1.1847
 5204SOL     OW27070   0.518   2.462   7.338 -0.6603 -0.1948 -0.0331
 5204SOL    HW127071   0.494   2.552   7.319  1.0549  0.8780  2.8850
 5204SOL    HW227072   0.606   2.459   7.302  0.1227 -0.2915  1.8600
 5205SOL     OW27073   4.636   0.554  17.563 -0.5313 -0.1410 -0.3749
 5205SOL    HW127074   4.583   0.627  17.596  1.2472  1.4407 -1.0201
 5205SOL    HW227075   4.586   0.476  17.587 -0.1737 -0.3194 -0.2055
 5206SOL     OW27076   3.474   2.792   9.000 -0.7869  0.0398 -1.1546
 5206SOL    HW127077   3.450   2.882   9.024  2.0900  0.0616  1.5539
 5206SOL    HW227078   3.537   2.767   9.067  0.2002 -0.4684 -2.2696
 5207SOL     OW27079   0.616   4.103   8.143 -0.2196 -0.2112 -0.6001
 5207SOL    HW127080   0.606   4.190   8.180 -0.4567 -0.8660  0.8820
 5207SOL    HW227081   0.613   4.060   8.229  0.6284 -1.3037 -1.1148
 5208SOL     OW27082   1.491   1.902  13.838  0.0300 -0.2218 -0.3607
 5208SOL    HW127083   1.428   1.843  13.796  0.9473 -1.0979 -0.4906
 5208SOL    HW227084   1.505   1.856  13.921 -1.6822 -0.3505 -0.1312
 5209SOL     OW27085   3.531   0.582   0.970 -0.2824  0.3074  0.3719
 5209SOL    HW127086   3.596   0.519   1.004  3.2651  3.6131 -0.2733
 5209SOL    HW227087   3.488   0.606   1.052  0.7288 -1.9235  1.5723
 5210SOL     OW27088   3.334   0.040   2.225  0.6934  0.2296  0.2058
 5210SOL    HW127089   3.349   0.126   2.263 -1.0410  0.8188 -0.4596
 5210SOL    HW227090   3.397   4.717   2.280  2.2013  0.4170 -1.3630
 5211SOL     OW27091   4.040   1.488   8.842  0.4204 -0.1004  0.4378
 5211SOL    HW127092   4.033   1.485   8.746 -2.0059  0.1191  0.5991
 5211SOL    HW227093   4.101   1.554   8.874  3.3487 -1.8695 -1.4703
 5212SOL     OW27094   0.471   1.835   1.434  0.0343  0.0526 -0.4491
 5212SOL    HW127095   0.458   1.829   1.339  0.3578 -4.0368 -0.2600
 5212SOL    HW227096   0.397   1.892   1.454  1.1746  1.5045 -0.3775
 5213SOL     OW27097   3.246   1.767   3.331 -0.1260 -0.4423  0.6496
 5213SOL    HW127098   3.184   1.823   3.283  1.5200  0.7687 -0.0952
 5213SOL    HW227099   3.242   1.685   3.283 -2.5430 -0.0326  0.1694
 5214SOL     OW27100   3.063   3.406  15.956 -0.3671  0.0807  0.3608
 5214SOL    HW127101   3.145   3.377  15.996 -0.2911  1.7164  1.3696
 5214SOL    HW227102   3.099   3.462  15.887 -1.7497 -0.6765 -0.9708
 5215SOL     OW27103   1.213   1.257   2.314  0.3694  0.1265 -0.3711
 5215SOL    HW127104   1.267   1.331   2.285  2.1057 -1.2556 -0.6869
 5215SOL    HW227105   1.179   1.298   2.394 -1.9560 -2.1892 -0.1879
 5216SOL     OW27106   1.906   3.498   4.992  0.3639 -0.2730 -0.7129
 5216SOL    HW127107   1.913   3.440   4.916 -1.2630 -0.4932 -0.6949
 5216SOL    HW227108   1.968   3.568   4.968  0.1348 -0.1809 -1.0420
 5217SOL     OW27109   1.973   2.247   2.317 -0.0481  0.2878 -0.1162
 5217SOL    HW127110   2.047   2.189   2.338 -0.1858 -0.9002 -3.0139
 5217SOL    HW227111   1.900   2.220   2.372  1.7066 -1.1112  1.5017
 5218SOL     OW27112   0.185   4.328  15.512 -0.5284  0.4054  0.2476
 5218SOL    HW127113   0.210   4.251  15.563 -1.3431  0.9856  1.5324
 5218SOL    HW227114   0.269   4.357  15.478  1.1504 -1.5674  2.6768
 5219SOL     OW27115   2.165   4.629   4.903 -0.3965  0.8966  0.3398
 5219SOL    HW127116   2.253   4.656   4.876  0.1172  0.7954  1.9467
 5219SOL    HW227117   2.118   4.709   4.879 -2.9765 -0.4285  1.0511
 5220SOL     OW27118   0.335   1.889   4.123 -0.6297 -0.2057 -0.1899
 5220SOL    HW127119   0.242   1.866   4.123 -0.7296  0.2115  2.6859
 5220SOL    HW227120   0.362   1.875   4.214  0.5039  0.1079 -0.4748
 5221SOL     OW27121   2.927   0.573   1.544  0.2662  0.3990 -0.4880
 5221SOL    HW127122   3.016   0.570   1.580 -0.4508 -1.6999  1.1197
 5221SOL    HW227123   2.888   0.494   1.581  0.7766  0.3392 -0.0807
 5222SOL     OW27124   3.012   0.066   1.813 -0.4563 -0.0280  0.5254
 5222SOL    HW127125   3.078   0.094   1.877  0.0888 -0.1715  0.0319
 5222SOL    HW227126   2.936   0.119   1.836 -0.5607 -0.4072  1.0730
 5223SOL     OW27127   2.114   3.243  10.377  0.0978 -0.3804  0.1481
 5223SOL    HW127128   2.078   3.332  10.373 -1.4189 -1.0160 -0.2556
 5223SOL    HW227129   2.028   3.204  10.392 -1.0056  1.3778 -1.4745
 5224SOL     OW27130   0.068   2.068   5.243  0.0443  0.9048  0.6636
 5224SOL    HW127131   0.039   1.994   5.297 -1.0691  1.3402  0.6659
 5224SOL    HW227132   0.149   2.027   5.215 -0.2960  2.0192 -1.9460
 5225SOL     OW27133   1.655   1.346  16.906  0.0347 -0.2133 -0.0672
 5225SOL    HW127134   1.657   1.266  16.854 -0.9711  0.2577 -0.8328
 5225SOL    HW227135   1.651   1.305  16.992  0.2092  1.4014  0.7178
 5226SOL     OW27136   4.042   4.058   9.683  0.2908 -0.1650 -0.2317
 5226SOL    HW127137   4.074   4.135   9.635 -1.3515 -0.9396 -2.5459
 5226SOL    HW227138   4.054   4.100   9.768 -0.3042  1.6118 -1.0297
 5227SOL     OW27139   0.308   3.866   2.776  0.0126  0.2215 -0.1585
 5227SOL    HW127140   0.369   3.940   2.772  0.8235 -0.5875 -3.0017
 5227SOL    HW227141   0.236   3.905   2.727 -0.7442  0.4163  1.1302
 5228SOL     OW27142   0.159   0.734  10.886  0.5180 -0.1276  0.7330
 5228SOL    HW127143   0.128   0.816  10.924 -0.0775 -1.0363  2.2384
 5228SOL    HW227144   0.232   0.767  10.835 -2.3027  3.3741 -0.9902
 5229SOL     OW27145   3.484   4.601   6.305  0.4408  0.2653  0.3707
 5229SOL    HW127146   3.450   4.535   6.365  1.8858 -0.6961  0.1345
 5229SOL    HW227147   3.478   4.559   6.219 -0.9330 -1.3829  1.2661
 5230SOL     OW27148   1.423   2.533   0.893 -0.0298  0.6437  0.2167
 5230SOL    HW127149   1.416   2.629   0.892 -1.1453  0.5569 -0.9305
 5230SOL    HW227150   1.474   2.518   0.972 -0.3628  1.6590  0.6347
 5231SOL     OW27151   0.923   0.143   3.106  0.3135  0.6015  0.1697
 5231SOL    HW127152   0.990   0.103   3.050 -0.3760  0.2710 -0.4337
 5231SOL    HW227153   0.853   0.158   3.042 -0.4375 -1.4864  0.5098
 5232SOL     OW27154   0.422   0.368   4.904  0.7640 -0.1452 -0.2926
 5232SOL    HW127155   0.373   0.293   4.938  2.5648  0.3661  3.4410
 5232SOL    HW227156   0.378   0.439   4.950 -0.8416 -1.2801 -0.0491
 5233SOL     OW27157   0.718   0.506   1.480 -0.0019 -0.6630 -0.3066
 5233SOL    HW127158   0.624   0.523   1.485  0.0405 -0.1556 -1.4969
 5233SOL    HW227159   0.749   0.545   1.399 -1.8372  2.7573  0.6848
 5234SOL     OW27160   1.498   2.536   3.620  0.5680 -0.2829 -0.3764
 5234SOL    HW127161   1.463   2.519   3.708 -0.3725  0.6212 -0.5793
 5234SOL    HW227162   1.430   2.517   3.556 -1.9476  2.1718  1.5322
 5235SOL     OW27163   3.473   4.722   1.670 -1.0445 -0.0121 -0.3076
 5235SOL    HW127164   3.561   4.703   1.638 -0.2965  2.7529  0.1039
 5235SOL    HW227165   3.490   0.057   1.743 -0.5057 -1.3591  0.6859
 5236SOL     OW27166   0.160   1.149  15.142  0.1788 -0.5955 -0.2650
 5236SOL    HW127167   0.141   1.160  15.235  1.9078 -0.2839  0.0557
 5236SOL    HW227168   0.087   1.201  15.108  0.1954 -0.0455  0.5400
 5237SOL     OW27169   3.173   1.563   8.450 -0.2667  0.1365 -0.4359
 5237SOL    HW127170   3.263   1.532   8.436 -0.6492 -1.1279 -0.0371
 5237SOL    HW227171   3.185   1.651   8.488 -0.5776 -0.6565  1.5067
 5238SOL     OW27172   1.055   1.962  10.340 -0.0455 -0.2913 -0.5163
 5238SOL    HW127173   1.145   1.995  10.329  0.5332 -0.6308  3.0280
 5238SOL    HW227174   1.066   1.882  10.289 -2.4108 -0.5159 -0.6720
 5239SOL     OW27175   4.540   1.398   3.467  0.1264  0.2130 -0.5164
 5239SOL    HW127176   4.587   1.477   3.439  1.5385  0.0409  1.3314
 5239SOL    HW227177   4.459   1.408   3.418 -0.7704  2.7124  1.4842
 5240SOL     OW27178   2.153   2.913  17.521 -0.2330  0.6931 -0.4734
 5240SOL    HW127179   2.197   2.902  17.605  0.2779  0.2821 -0.7906
 5240SOL    HW227180   2.197   2.836  17.484 -2.1071 -0.9613  0.6861
 5241SOL     OW27181   0.785   3.888  10.253 -0.6282  0.7685  0.7665
 5241SOL    HW127182   0.730   3.953  10.297  0.1267 -0.2598  3.2913
 5241SOL    HW227183   0.749   3.878  10.166 -2.2195 -0.4676  1.5759
 5242SOL     OW27184   4.010   2.193   3.767 -0.1290  0.4553  0.2198
 5242SOL    HW127185   3.966   2.108   3.769 -1.6444  1.1896 -2.0139
 5242SOL    HW227186   4.016   2.205   3.862  0.6978  0.2941  0.1867
 5243SOL     OW27187   3.481   3.671  17.180 -0.2707 -0.2990 -0.1450
 5243SOL    HW127188   3.572   3.641  17.177 -0.1560 -0.1248  1.8272
 5243SOL    HW227189   3.437   3.593  17.147  1.2482 -1.1921 -0.0716
 5244SOL     OW27190   1.373   3.746   7.492 -0.0639  0.1769  0.5604
 5244SOL    HW127191   1.437   3.769   7.425 -2.8542 -1.7907 -2.8155
 5244SOL    HW227192   1.301   3.806   7.474  0.1933  0.0905 -0.7665
 5245SOL     OW27193   2.780   2.005  10.812 -0.3191  0.0605  0.1166
 5245SOL    HW127194   2.783   2.101  10.805  0.0486 -0.0221 -0.8394
 5245SOL    HW227195   2.840   1.978  10.742  0.9940  0.6078  1.0114
 5246SOL     OW27196   2.204   0.082   6.612  0.0878 -0.3556  0.2230
 5246SOL    HW127197   2.167   0.160   6.654 -0.7826 -1.4642  1.5231
 5246SOL    HW227198   2.162   0.015   6.666  0.5690  0.7855  2.0274
 5247SOL     OW27199   2.168   1.730  11.957  0.2514  0.1408 -0.0351
 5247SOL    HW127200   2.141   1.772  12.039  2.0173 -1.0470  1.1508
 5247SOL    HW227201   2.159   1.638  11.984  2.1059 -0.2802 -0.9169
 5248SOL     OW27202   3.294   0.049   0.118 -0.4055 -0.1334 -0.0658
 5248SOL    HW127203   3.292   4.683   0.149  1.7807  0.3916  1.5917
 5248SOL    HW227204   3.388   0.066   0.128 -0.5478  1.4795 -1.4766
 5249SOL     OW27205   1.526   2.064  10.377  0.3693 -0.5366  0.2329
 5249SOL    HW127206   1.438   2.030  10.390 -0.6471  2.2760  0.7551
 5249SOL    HW227207   1.512   2.153  10.411 -0.3861  0.0820 -1.7325
 5250SOL     OW27208   2.281   0.043   7.423 -0.2334  0.6093 -0.2552
 5250SOL    HW127209   2.335   0.091   7.361  0.4212  1.7014  1.1634
 5250SOL    HW227210   2.335   4.691   7.446  0.7396  0.6988 -2.2596
 5251SOL     OW27211   4.581   1.199  14.331  0.2287  0.0606  0.0848
 5251SOL    HW127212   4.518   1.138  14.291  0.4926 -0.3752  0.3272
 5251SOL    HW227213   4.653   1.186  14.269  0.2885 -0.7302  0.3192
 5252SOL     OW27214   3.732   3.292   6.873  0.3293 -0.2506 -0.0166
 5252SOL    HW127215   3.802   3.309   6.809  1.3922 -0.5211  1.0764
 5252SOL    HW227216   3.773   3.258   6.952 -1.0012 -2.2948 -0.1881
 5253SOL     OW27217   1.999   2.985   9.281  0.2600 -0.3174 -0.3834
 5253SOL    HW127218   1.913   3.017   9.306  1.1184  0.7393  1.2227
 5253SOL    HW227219   1.990   2.889   9.278  0.1167 -0.3980  3.2588
 5254SOL     OW27220   2.808   2.665   6.923  0.1984  0.0109 -0.0278
 5254SOL    HW127221   2.828   2.719   7.000 -2.0414 -0.2254  0.7331
 5254SOL    HW227222   2.807   2.735   6.858 -0.3330 -0.6446 -0.7326
 5255SOL     OW27223   1.754   3.980  17.165 -0.5677 -0.1967  0.6497
 5255SOL    HW127224   1.701   4.033  17.106  3.6374  3.3716  0.0474
 5255SOL    HW227225   1.763   4.045  17.235 -0.4403 -0.1423  0.5831
 5256SOL     OW27226   3.173   0.473  12.878 -0.5878 -0.2637 -0.2935
 5256SOL    HW127227   3.256   0.507  12.910 -1.1128  0.5992  0.1667
 5256SOL    HW227228   3.130   0.443  12.958 -0.5274  0.1635 -0.1024
 5257SOL     OW27229   4.293   2.887  13.835 -0.1907  0.1663 -0.5760
 5257SOL    HW127230   4.356   2.848  13.895 -0.1851  0.9695 -0.0712
 5257SOL    HW227231   4.318   2.978  13.847  1.9438 -0.3150 -1.4036
 5258SOL     OW27232   0.505   4.697   8.547 -0.4228  0.5247 -1.0962
 5258SOL    HW127233   0.512   4.719   8.454 -1.0224  1.3139 -0.9586
 5258SOL    HW227234   0.434   0.029   8.579 -0.8458 -2.0328  2.3844
 5259SOL     OW27235   2.363   4.264   4.317  0.0358  0.0347 -0.2319
 5259SOL    HW127236   2.410   4.327   4.262  0.5800  2.2579  2.7989
 5259SOL    HW227237   2.317   4.323   4.376 -0.4155 -0.2101 -0.3359
 5260SOL     OW27238   0.816   4.228   2.647 -0.1659 -0.2701 -0.4453
 5260SOL    HW127239   0.731   4.271   2.653  0.7030  1.6667 -1.8785
 5260SOL    HW227240   0.857   4.248   2.731  0.0216 -0.7770 -0.4183
 5261SOL     OW27241   0.949   0.664   2.226  0.9914 -0.7073  0.0266
 5261SOL    HW127242   1.007   0.723   2.275 -0.4472 -0.6878  1.7083
 5261SOL    HW227243   0.872   0.653   2.281  0.8102  0.8512  0.0907
 5262SOL     OW27244   0.698   3.509   8.856  0.5359 -0.2787 -0.0580
 5262SOL    HW127245   0.697   3.428   8.805  0.2930 -0.3752  0.0971
 5262SOL    HW227246   0.785   3.511   8.895  1.6200 -1.6289 -2.4325
 5263SOL     OW27247   0.945   4.171   7.191 -0.3899  0.2557  1.0522
 5263SOL    HW127248   0.999   4.164   7.270 -1.5055  0.0621  1.8075
 5263SOL    HW227249   0.998   4.239   7.151 -1.3592  0.4733  0.1576
 5264SOL     OW27250   4.450   1.154  14.956 -0.0096 -0.1263 -0.1508
 5264SOL    HW127251   4.542   1.131  14.946 -0.5374 -2.0309 -0.6679
 5264SOL    HW227252   4.420   1.157  14.865 -1.3547  1.1620  0.3373
 5265SOL     OW27253   0.880   4.293   4.318 -0.0629  0.0111 -0.2518
 5265SOL    HW127254   0.916   4.228   4.257  0.3370  0.8360 -0.8964
 5265SOL    HW227255   0.896   4.246   4.400 -0.0293 -1.3215 -1.0149
 5266SOL     OW27256   0.386   0.689  13.692 -0.2222 -0.1179  0.0450
 5266SOL    HW127257   0.422   0.732  13.770  0.0390  0.7011 -0.5288
 5266SOL    HW227258   0.335   0.617  13.730 -2.5901  1.2351 -0.5705
 5267SOL     OW27259   0.609   4.536   9.046  0.0585  0.3882  1.0457
 5267SOL    HW127260   0.628   4.443   9.039  2.5709  0.9784  0.0544
 5267SOL    HW227261   0.514   4.535   9.041  0.0688  1.7415  0.6909
 5268SOL     OW27262   1.370   0.224   7.416 -0.1271  0.4189  0.1962
 5268SOL    HW127263   1.325   0.298   7.456  0.2888 -0.1420  1.7043
 5268SOL    HW227264   1.428   0.188   7.483 -0.3187  0.5329  0.4260
 5269SOL     OW27265   0.945   2.510   8.632  0.0843 -0.3711 -0.7404
 5269SOL    HW127266   0.923   2.417   8.638 -0.7740 -0.0786  0.5609
 5269SOL    HW227267   0.885   2.557   8.690  1.0492 -0.8914  0.6691
 5270SOL     OW27268   0.000   2.300  11.049  0.5805  0.3548 -0.4228
 5270SOL    HW127269   0.034   2.379  11.092 -0.8148  0.1489  1.0276
 5270SOL    HW227270   4.662   2.274  11.116 -0.7189 -2.0968 -2.6037
 5271SOL     OW27271   2.032   4.665   7.790 -0.7209 -0.1009  0.0590
 5271SOL    HW127272   2.004   4.573   7.792 -0.9863 -0.1015 -3.8452
 5271SOL    HW227273   1.963   4.711   7.743 -1.0617 -1.7607 -1.0362
 5272SOL     OW27274   2.456   0.562   8.225  0.5657  0.4045  0.5464
 5272SOL    HW127275   2.407   0.527   8.151  2.8212 -1.0163 -0.2697
 5272SOL    HW227276   2.468   0.655   8.203 -1.2984  0.2201 -1.2170
 5273SOL     OW27277   0.793   3.628   2.028  0.3295 -0.4153 -0.2102
 5273SOL    HW127278   0.735   3.674   2.089  0.6637  0.8934 -0.8688
 5273SOL    HW227279   0.778   3.683   1.951  1.4035 -1.9791 -1.5174
 5274SOL     OW27280   0.103   2.809   4.078  0.1836  0.2234  0.3018
 5274SOL    HW127281   0.029   2.868   4.059 -0.6040 -0.7631  0.2972
 5274SOL    HW227282   0.089   2.785   4.169 -0.5205 -1.8924 -0.3677
 5275SOL     OW27283   0.363   3.790  17.599 -0.1789  0.6418  0.4170
 5275SOL    HW127284   0.291   3.821  17.655 -1.2040  0.8685 -1.0177
 5275SOL    HW227285   0.330   3.704  17.573 -2.1546  1.1524  1.2359
 5276SOL     OW27286   2.388   3.654   6.432  0.9677  0.1620  0.0959
 5276SOL    HW127287   2.301   3.617   6.422 -0.3729  3.0878  0.8434
 5276SOL    HW227288   2.375   3.747   6.411 -1.9755 -0.6436 -1.6308
 5277SOL     OW27289   2.489   4.042  13.901 -0.1604  0.1558  0.4638
 5277SOL    HW127290   2.447   3.957  13.900  1.7743 -0.7817 -2.4190
 5277SOL    HW227291   2.528   4.041  13.988 -1.9142  1.5571  1.2720
 5278SOL     OW27292   0.578   0.245  12.877 -0.2697  0.4258  0.0825
 5278SOL    HW127293   0.673   0.236  12.874 -0.2444  0.9721 -0.7111
 5278SOL    HW227294   0.569   0.335  12.907  0.2208  0.8144 -0.9267
 5279SOL     OW27295   2.153   1.115   1.189 -0.2406  0.4819  0.2746
 5279SOL    HW127296   2.130   1.144   1.101 -1.3413 -2.5515 -0.4544
 5279SOL    HW227297   2.067   1.082   1.215  0.1486 -1.0688 -0.4004
 5280SOL     OW27298   2.904   4.340   7.967 -0.0347  0.2972  0.7026
 5280SOL    HW127299   2.973   4.278   7.991 -1.2704 -0.9516  1.0655
 5280SOL    HW227300   2.957   4.420   7.968 -1.3060  1.1088  2.7696
 5281SOL     OW27301   4.078   1.306   9.050 -0.5302 -0.6979  0.2918
 5281SOL    HW127302   4.146   1.350   9.101  0.2085  0.0789 -1.3797
 5281SOL    HW227303   4.075   1.361   8.972  0.1839 -1.7365 -0.4621
 5282SOL     OW27304   1.912   1.336   8.245 -0.1355  0.1325 -0.8077
 5282SOL    HW127305   1.851   1.342   8.172 -1.9332 -2.9092  0.4471
 5282SOL    HW227306   1.963   1.415   8.227  1.4519 -0.1792  2.2711
 5283SOL     OW27307   1.383   2.350   6.450 -0.4355  0.3093  0.3775
 5283SOL    HW127308   1.427   2.273   6.414 -0.2402  0.9526 -0.7516
 5283SOL    HW227309   1.398   2.415   6.381  0.2422  0.9870  1.1719
 5284SOL     OW27310   4.537   3.463   2.845  0.8197 -0.1286 -0.6821
 5284SOL    HW127311   4.615   3.413   2.866  0.1139  0.0729  2.4899
 5284SOL    HW227312   4.476   3.390   2.857  0.9915  0.0698  1.4722
 5285SOL     OW27313   1.965   1.363  16.489 -0.5888 -0.2560  0.0714
 5285SOL    HW127314   1.939   1.307  16.416  1.1326 -0.3864 -0.4441
 5285SOL    HW227315   1.891   1.373  16.549 -2.5545  0.8067 -2.5300
 5286SOL     OW27316   2.561   1.332  14.995 -0.7847  0.3253  0.4336
 5286SOL    HW127317   2.505   1.254  15.003  0.9715 -0.7996  1.7399
 5286SOL    HW227318   2.644   1.296  15.026 -0.8687  1.6345  2.2000
 5287SOL     OW27319   0.469   3.528   8.249  0.3158  0.3238 -0.2682
 5287SOL    HW127320   0.465   3.441   8.288 -1.0816 -0.4053 -2.0483
 5287SOL    HW227321   0.564   3.537   8.238  0.8450 -2.3801  2.0810
 5288SOL     OW27322   3.507   0.808   3.273 -0.2292  0.2988  0.1213
 5288SOL    HW127323   3.536   0.728   3.315  0.0213 -0.0595 -0.7407
 5288SOL    HW227324   3.420   0.805   3.313 -0.6323  0.3283 -0.7504
 5289SOL     OW27325   3.728   4.203   1.343  0.2017 -0.9044  0.2709
 5289SOL    HW127326   3.761   4.146   1.273  0.6487 -0.0792 -0.1902
 5289SOL    HW227327   3.736   4.287   1.298 -2.6353 -0.6536  0.2236
 5290SOL     OW27328   0.808   0.381  12.534  0.4685  0.5322 -0.1544
 5290SOL    HW127329   0.864   0.326  12.589  0.5550 -1.8172 -2.5893
 5290SOL    HW227330   0.780   0.443  12.601  1.5502  0.8549  0.0021
 5291SOL     OW27331   0.699   3.774  13.200  0.2186 -0.5183 -0.1603
 5291SOL    HW127332   0.691   3.840  13.131 -0.2179  1.6337  1.9520
 5291SOL    HW227333   0.616   3.726  13.199 -1.1141  1.8212 -1.3441
 5292SOL     OW27334   3.497   1.938   5.504 -0.4558  0.1013  0.4591
 5292SOL    HW127335   3.490   1.891   5.421  1.0611  1.0601 -0.2097
 5292SOL    HW227336   3.580   1.910   5.541  0.4107  2.4950  0.3668
 5293SOL     OW27337   4.213   2.257  13.925 -0.0525 -0.3578 -0.0215
 5293SOL    HW127338   4.265   2.319  13.975 -1.6548  2.0137 -1.2601
 5293SOL    HW227339   4.282   2.222  13.868  0.1765  0.1164 -0.0275
 5294SOL     OW27340   0.801   0.613   4.720  0.1203  1.2465  0.3308
 5294SOL    HW127341   0.785   0.528   4.760  2.9514  1.2954  1.5815
 5294SOL    HW227342   0.750   0.601   4.640  0.5363 -2.2268  0.5899
 5295SOL     OW27343   2.582   4.186   5.483  0.0232  0.3050  0.6133
 5295SOL    HW127344   2.560   4.249   5.552  1.5536 -0.5017  1.8354
 5295SOL    HW227345   2.639   4.129   5.535 -1.4913 -1.4935  0.3076
 5296SOL     OW27346   0.399   4.564  10.326 -0.7613 -0.4675 -0.0816
 5296SOL    HW127347   0.390   4.657  10.342  2.2868  0.2879 -2.6714
 5296SOL    HW227348   0.321   4.520  10.360 -1.2190  0.4441  0.0436
 5297SOL     OW27349   1.369   4.213   5.216 -0.1027 -0.1806 -0.1085
 5297SOL    HW127350   1.393   4.146   5.280 -0.6788  1.2026  1.5541
 5297SOL    HW227351   1.455   4.230   5.176 -1.0977  1.2851 -1.6207
 5298SOL     OW27352   0.251   2.687  11.478  0.3498 -0.3952  0.3119
 5298SOL    HW127353   0.316   2.617  11.473 -2.7315 -3.3142  0.6741
 5298SOL    HW227354   0.225   2.680  11.570 -0.6428  0.5702  0.1021
 5299SOL     OW27355   0.468   2.268  16.008  0.0698 -0.8994 -0.3560
 5299SOL    HW127356   0.461   2.209  16.083 -3.5679  0.8582  0.6776
 5299SOL    HW227357   0.409   2.338  16.034 -0.4462 -1.5849  0.3281
 5300SOL     OW27358   2.440   0.875   2.832  0.2932  0.2737 -0.0568
 5300SOL    HW127359   2.387   0.898   2.756 -0.3625 -1.4689 -0.1094
 5300SOL    HW227360   2.381   0.809   2.869  0.2648  0.4554  0.2249
 5301SOL     OW27361   3.638   3.243   7.631  0.5271  0.1804  0.1167
 5301SOL    HW127362   3.702   3.292   7.581  1.7610 -1.5317  0.0020
 5301SOL    HW227363   3.688   3.205   7.703  0.2446 -0.6949 -0.1390
 5302SOL     OW27364   1.205   4.637  17.404  0.5273  0.0892 -0.4068
 5302SOL    HW127365   1.151   4.683  17.340  0.7166  1.1355  0.1758
 5302SOL    HW227366   1.151   4.567  17.439 -0.4890  1.0897  0.0178
 5303SOL     OW27367   3.874   1.220   8.064  0.0555  0.0777  0.2165
 5303SOL    HW127368   3.910   1.279   7.997 -2.8529  1.5741 -0.0053
 5303SOL    HW227369   3.957   1.214   8.112 -1.0809  0.1580  2.1695
 5304SOL     OW27370   2.546   3.327  10.509  0.0011 -0.1418  0.6522
 5304SOL    HW127371   2.514   3.374  10.586 -1.1272 -0.1147  0.1791
 5304SOL    HW227372   2.624   3.375  10.483  1.6686 -2.3358  1.6360
 5305SOL     OW27373   1.544   3.715   0.014 -0.2678  0.3706 -0.4046
 5305SOL    HW127374   1.557   3.626  17.682  1.2858  0.8111 -1.0445
 5305SOL    HW227375   1.468   3.740  17.661 -1.3636  0.2737  1.1379
 5306SOL     OW27376   1.781   2.172   3.524 -0.3398 -0.7040 -0.1010
 5306SOL    HW127377   1.804   2.080   3.517 -2.9647 -1.4015  0.1952
 5306SOL    HW227378   1.783   2.181   3.619  0.4051  1.2933 -0.3125
 5307SOL     OW27379   2.906   2.635   4.643  0.6442 -0.0302  0.2230
 5307SOL    HW127380   2.983   2.627   4.587  1.2868 -1.1049  1.2584
 5307SOL    HW227381   2.875   2.722   4.621 -1.1207 -1.0677 -1.4166
 5308SOL     OW27382   0.375   4.517   3.856  0.2515  0.3346  0.2301
 5308SOL    HW127383   0.326   4.496   3.777 -1.0044 -1.9746  1.6155
 5308SOL    HW227384   0.428   4.592   3.829  0.4709 -0.4503 -1.5101
 5309SOL     OW27385   2.742   0.523   5.145 -0.0978 -0.3649  0.4841
 5309SOL    HW127386   2.821   0.571   5.124 -2.0757  2.0699 -1.3080
 5309SOL    HW227387   2.687   0.550   5.072  0.3892  1.2167  0.7062
 5310SOL     OW27388   3.614   3.347   4.825 -0.3158 -0.1294  0.4034
 5310SOL    HW127389   3.556   3.271   4.821  0.3191 -0.6088  0.3130
 5310SOL    HW227390   3.687   3.317   4.880 -0.4849  1.9455  1.7473
 5311SOL     OW27391   3.993   2.970   4.660  0.5393  0.2699 -0.0651
 5311SOL    HW127392   3.992   3.030   4.586 -1.1090 -2.4090 -2.2477
 5311SOL    HW227393   4.019   3.029   4.730 -1.1862  0.9057  0.0551
 5312SOL     OW27394   2.752   2.991  11.979  0.4101 -0.0279  0.4428
 5312SOL    HW127395   2.832   2.993  12.031  0.8717 -0.0687 -0.2724
 5312SOL    HW227396   2.791   2.974  11.894  0.0098 -1.4919  0.5610
 5313SOL     OW27397   1.277   2.978   2.823  0.0890 -0.9123 -0.1297
 5313SOL    HW127398   1.324   2.909   2.870  0.6375 -1.4073 -1.3730
 5313SOL    HW227399   1.228   2.935   2.753  0.1176  0.7652 -1.1891
 5314SOL     OW27400   3.047   1.944   3.229  0.0799 -0.2458 -0.4731
 5314SOL    HW127401   3.001   2.010   3.176 -0.0323  1.1479  1.3532
 5314SOL    HW227402   2.989   1.880   3.188 -0.5480  1.2217 -1.9122
 5315SOL     OW27403   4.109   3.895   2.074 -0.5319 -0.7610 -0.0204
 5315SOL    HW127404   4.048   3.963   2.105  0.4521  2.7344 -5.7391
 5315SOL    HW227405   4.163   3.937   2.007  0.8632 -1.3455  0.7379
 5316SOL     OW27406   1.907   4.567   0.096 -0.4099 -0.0001  0.5612
 5316SOL    HW127407   1.910   4.472   0.107 -1.1192 -0.1880 -0.8639
 5316SOL    HW227408   1.909   4.597   0.187  0.1492  1.4311  0.0827
 5317SOL     OW27409   1.989   3.431   8.124 -0.1286 -0.1200  0.2765
 5317SOL    HW127410   1.974   3.457   8.215 -4.1463  4.5643 -1.7299
 5317SOL    HW227411   1.904   3.400   8.093 -0.2176  1.5695 -1.1158
 5318SOL     OW27412   2.677   3.487   5.705 -0.1615 -0.3203 -0.3602
 5318SOL    HW127413   2.717   3.466   5.620 -1.7369 -2.7823 -0.4987
 5318SOL    HW227414   2.593   3.524   5.677  0.8623  0.9331 -1.7705
 5319SOL     OW27415   0.799   3.805   8.064  0.3103 -0.1935 -0.0583
 5319SOL    HW127416   0.802   3.896   8.036  1.3964  0.4552  2.2688
 5319SOL    HW227417   0.846   3.799   8.147  2.0039 -1.0582 -1.0775
 5320SOL     OW27418   2.331   1.310   3.314  0.3005  0.3832  0.2064
 5320SOL    HW127419   2.248   1.264   3.322  0.2446  0.0548 -2.2149
 5320SOL    HW227420   2.308   1.391   3.269 -2.3317  0.9813  2.6751
 5321SOL     OW27421   2.848   1.506   3.374  0.0075  0.0588  0.0753
 5321SOL    HW127422   2.754   1.490   3.359  0.3698 -1.1944 -0.8240
 5321SOL    HW227423   2.838   1.594   3.410 -1.9094 -0.0644 -0.1191
 5322SOL     OW27424   3.927   1.266   2.287  0.1191  0.7573  0.1927
 5322SOL    HW127425   3.910   1.184   2.333  0.5207  0.9823  0.7354
 5322SOL    HW227426   3.849   1.316   2.312 -0.6357  0.2591 -1.1715
 5323SOL     OW27427   0.935   1.435   9.556 -0.1533 -0.2063  0.4562
 5323SOL    HW127428   0.947   1.443   9.651  0.8632 -0.3980  0.3463
 5323SOL    HW227429   1.022   1.432   9.515 -0.8652  3.7871 -1.3930
 5324SOL     OW27430   4.723   3.308  15.382  0.2758 -0.3096 -0.1080
 5324SOL    HW127431   0.011   3.394  15.423 -1.1407  0.0985 -0.5645
 5324SOL    HW227432   0.066   3.252  15.421 -1.5856 -0.5301  2.7652
 5325SOL     OW27433   1.797   2.460   1.787 -0.0381  0.2204 -0.3396
 5325SOL    HW127434   1.858   2.461   1.713  3.7796  2.7163  2.7950
 5325SOL    HW227435   1.825   2.533   1.843 -0.0953 -0.9440  1.2254
 5326SOL     OW27436   1.921   2.410   9.522 -0.2604 -0.1377 -0.6315
 5326SOL    HW127437   1.860   2.413   9.448 -0.0700  0.2775 -0.7702
 5326SOL    HW227438   1.910   2.490   9.573 -2.1601 -1.2012  0.6264
 5327SOL     OW27439   3.087   1.526   6.228  0.0600  0.5071 -0.0826
 5327SOL    HW127440   3.137   1.450   6.257  2.6766  2.2216 -0.1574
 5327SOL    HW227441   3.148   1.592   6.259  0.9997  0.4711 -1.8391
 5328SOL     OW27442   3.952   3.138   3.190 -0.3965 -0.6725  0.3341
 5328SOL    HW127443   4.040   3.128   3.225 -0.0814 -0.7553 -0.4856
 5328SOL    HW227444   3.945   3.233   3.179 -0.7035 -0.7985 -0.6022
 5329SOL     OW27445   0.477   1.793  13.435  0.3405 -0.0080 -0.7973
 5329SOL    HW127446   0.534   1.818  13.362 -0.5224 -1.3563 -1.9323
 5329SOL    HW227447   0.438   1.716  13.392 -1.8929 -0.0748  1.3981
 5330SOL     OW27448   1.168   4.313  11.534 -0.6776  0.5512 -0.0545
 5330SOL    HW127449   1.093   4.330  11.476  1.0492 -0.6519 -2.6514
 5330SOL    HW227450   1.229   4.269  11.475  0.5542  2.3957 -0.1333
 5331SOL     OW27451   4.714   3.590   0.974 -0.3300 -0.7144  0.1015
 5331SOL    HW127452   4.699   3.558   1.063 -2.9452  3.6710  1.2434
 5331SOL    HW227453   0.009   3.678   1.006 -2.5978  0.5316 -1.9205
 5332SOL     OW27454   1.709   1.753   8.195 -0.0080 -0.1401  0.3589
 5332SOL    HW127455   1.650   1.746   8.121  0.6184 -1.8438  0.0233
 5332SOL    HW227456   1.654   1.731   8.271  0.8463 -0.2824  0.9314
 5333SOL     OW27457   1.327   0.493   4.079 -0.5592 -0.5352 -0.7019
 5333SOL    HW127458   1.247   0.446   4.103 -0.1166 -0.9321 -0.0098
 5333SOL    HW227459   1.393   0.424   4.072 -0.5995 -0.5518 -0.9107
 5334SOL     OW27460   1.157   0.745  16.401  0.3056  0.3865  0.2705
 5334SOL    HW127461   1.171   0.839  16.414  0.6125  0.4457 -0.5130
 5334SOL    HW227462   1.064   0.725  16.411  0.0157  0.9154 -1.3972
 5335SOL     OW27463   1.062   0.301  14.727 -0.1494  0.1710 -0.0913
 5335SOL    HW127464   0.975   0.293  14.766  0.1587 -2.7027  0.0497
 5335SOL    HW227465   1.114   0.254  14.792 -0.9245  0.3806  0.6866
 5336SOL     OW27466   1.137   0.335   3.393  0.7572 -0.1507  0.4935
 5336SOL    HW127467   1.105   0.416   3.432 -1.1564  0.3814 -2.2541
 5336SOL    HW227468   1.100   0.341   3.305 -0.2527 -0.5157  0.8988
 5337SOL     OW27469   3.364   4.525   5.811  0.1512 -0.4371  0.1374
 5337SOL    HW127470   3.305   4.595   5.839 -0.0989 -0.3106 -0.6914
 5337SOL    HW227471   3.388   4.549   5.721  0.8317  0.9477  0.7026
 5338SOL     OW27472   1.608   3.912   8.066  0.4974 -0.1979  0.5020
 5338SOL    HW127473   1.606   3.838   8.127  2.6777  0.1543  1.0096
 5338SOL    HW227474   1.671   3.970   8.111 -0.8087 -0.1228  2.2449
 5339SOL     OW27475   2.004   0.611   1.233  0.3988 -0.2927 -0.4101
 5339SOL    HW127476   1.967   0.614   1.145 -0.8137  1.1081  0.1303
 5339SOL    HW227477   2.087   0.655   1.213  0.5350 -0.4967 -0.2897
 5340SOL     OW27478   4.009   0.888   6.717 -0.4777  0.2845 -0.1648
 5340SOL    HW127479   4.076   0.842   6.768 -0.9424  1.1292  1.2098
 5340SOL    HW227480   3.948   0.817   6.696 -1.0360  0.6258  0.2997
 5341SOL     OW27481   1.078   0.584   8.122  0.0639 -0.8026  0.2552
 5341SOL    HW127482   1.039   0.652   8.177  0.1720 -0.2689 -0.3288
 5341SOL    HW227483   1.169   0.583   8.152  0.7639  0.6687 -1.7902
 5342SOL     OW27484   2.907   0.666   7.044 -0.1005 -0.0823  0.4339
 5342SOL    HW127485   2.979   0.729   7.042 -0.2755  0.0825 -1.4021
 5342SOL    HW227486   2.872   0.682   7.131 -0.7634 -0.2794  0.2010
 5343SOL     OW27487   2.367   4.290   7.351 -0.1144  0.0637  0.2450
 5343SOL    HW127488   2.273   4.295   7.367  0.1036  1.3107  1.1531
 5343SOL    HW227489   2.383   4.373   7.305  0.7515  0.7485  1.7747
 5344SOL     OW27490   3.507   2.210   5.596  0.3461  0.3687 -0.1637
 5344SOL    HW127491   3.481   2.261   5.519 -2.1166  0.4162  0.7296
 5344SOL    HW227492   3.506   2.120   5.561 -0.0293  0.1071  0.5337
 5345SOL     OW27493   2.703   1.937   8.281 -0.1482  0.5104  0.0857
 5345SOL    HW127494   2.758   1.861   8.300  0.6355  0.9722 -0.3316
 5345SOL    HW227495   2.758   2.011   8.308 -1.5203  1.4216  0.4355
 5346SOL     OW27496   3.528   4.471  12.180  0.0630  0.2277 -0.3758
 5346SOL    HW127497   3.484   4.389  12.156  0.7325 -0.3244  0.2560
 5346SOL    HW227498   3.478   4.497  12.258  3.0733 -1.3468  2.1006
 5347SOL     OW27499   1.410   1.519   6.523  0.4632  0.0786 -0.0369
 5347SOL    HW127500   1.334   1.549   6.574  0.3324 -0.6063  0.1715
 5347SOL    HW227501   1.430   1.434   6.563  2.0245  0.3243 -0.3063
 5348SOL     OW27502   3.235   1.671   2.246  0.1477 -0.1009  0.4366
 5348SOL    HW127503   3.171   1.625   2.192  1.3817 -1.9791  0.5703
 5348SOL    HW227504   3.196   1.671   2.334  0.0506 -1.4832  0.3879
 5349SOL     OW27505   3.580   2.694   4.537 -0.4251  0.5149  0.3622
 5349SOL    HW127506   3.540   2.709   4.451  0.2412  0.2724  0.0096
 5349SOL    HW227507   3.612   2.608   4.511 -0.8699  0.9782 -1.7341
 5350SOL     OW27508   4.265   0.349  11.695 -0.2007 -0.3272 -0.3034
 5350SOL    HW127509   4.211   0.281  11.737 -0.2602 -0.0356  0.0939
 5350SOL    HW227510   4.352   0.309  11.697  0.9421  2.0859 -1.8159
 5351SOL     OW27511   2.458   4.577   3.603 -0.4227 -0.3480  0.2029
 5351SOL    HW127512   2.420   4.536   3.525 -0.6347 -0.2038  0.2314
 5351SOL    HW227513   2.385   4.632   3.631 -0.3020  0.1680 -0.5077
 5352SOL     OW27514   0.007   4.563   1.133  0.1658  0.2962  0.0594
 5352SOL    HW127515   0.047   4.595   1.214  1.9930  0.1244 -0.7551
 5352SOL    HW227516   4.653   4.524   1.170  0.7294 -1.4494 -0.5878
 5353SOL     OW27517   2.332   3.280  11.037 -0.1529  0.2219  0.1810
 5353SOL    HW127518   2.303   3.252  10.950 -0.7263 -0.0058  0.4473
 5353SOL    HW227519   2.423   3.249  11.035 -0.4580 -0.7187  1.1158
 5354SOL     OW27520   3.997   0.769   4.198 -0.2067 -0.2062  0.4448
 5354SOL    HW127521   4.064   0.790   4.133  0.3848  0.1432  1.1745
 5354SOL    HW227522   3.983   0.675   4.185  0.8674 -0.1291 -1.2557
 5355SOL     OW27523   1.088   0.824   8.286  0.5768  0.0549 -0.0741
 5355SOL    HW127524   1.038   0.815   8.367 -0.7814  2.8418 -0.5819
 5355SOL    HW227525   1.178   0.806   8.313 -0.5387 -2.1346  2.1759
 5356SOL     OW27526   4.531   3.329   6.212 -0.6016  0.6273 -0.3674
 5356SOL    HW127527   4.518   3.421   6.189 -1.9401 -0.0929 -2.6092
 5356SOL    HW227528   4.444   3.304   6.243 -0.5004 -0.3756 -0.8844
 5357SOL     OW27529   2.458   0.288   4.392 -0.0766  0.4035  0.8420
 5357SOL    HW127530   2.551   0.267   4.404  0.3213  0.2898 -2.4961
 5357SOL    HW227531   2.455   0.304   4.298 -1.7359  0.7510  0.9591
 5358SOL     OW27532   3.737   0.614   9.962  0.3032  0.1723  0.4510
 5358SOL    HW127533   3.677   0.568   9.902  0.3818 -0.8912  1.1758
 5358SOL    HW227534   3.810   0.553   9.972  1.1831  0.8909 -1.6793
 5359SOL     OW27535   3.698   4.542   4.093  0.8371 -0.0512 -0.3300
 5359SOL    HW127536   3.787   4.523   4.062 -0.2594 -1.3579 -2.6952
 5359SOL    HW227537   3.709   4.533   4.187  0.0135 -3.6592 -0.5867
 5360SOL     OW27538   0.941   1.414   8.122  0.5123 -0.3288 -0.2728
 5360SOL    HW127539   0.863   1.451   8.079 -0.1690 -0.4856  0.8540
 5360SOL    HW227540   0.911   1.398   8.211 -1.5725 -2.4833 -1.3635
 5361SOL     OW27541   0.011   0.269   5.513 -0.0928 -0.3015 -0.6619
 5361SOL    HW127542   0.026   0.292   5.422  0.8249 -0.6871 -0.6138
 5361SOL    HW227543   0.085   0.209   5.523 -0.4698 -0.8172 -0.9878
 5362SOL     OW27544   1.736   1.381  15.274  0.4769  0.0288 -0.0128
 5362SOL    HW127545   1.777   1.296  15.261 -0.1536 -0.3658  0.5755
 5362SOL    HW227546   1.653   1.358  15.232 -0.7046  2.2042  1.1151
 5363SOL     OW27547   1.134   2.361   8.247  0.7077 -0.0807 -0.4874
 5363SOL    HW127548   1.051   2.338   8.289  0.0515 -1.2388 -2.3858
 5363SOL    HW227549   1.209   2.329   8.296  0.9746  1.8728  0.3564
 5364SOL     OW27550   3.518   4.524   6.033  0.6006 -0.2715 -0.2358
 5364SOL    HW127551   3.471   4.522   5.950  1.2029  0.7391 -0.6026
 5364SOL    HW227552   3.589   4.465   6.009  0.4197 -2.6512  5.0308
 5365SOL     OW27553   2.542   4.432   2.938  0.5255  0.2371 -0.0888
 5365SOL    HW127554   2.604   4.365   2.967 -1.1260 -0.7416  1.1831
 5365SOL    HW227555   2.486   4.370   2.891 -1.1796  0.7013  1.3404
 5366SOL     OW27556   0.824   2.335   4.125  0.1304 -0.1269  0.7552
 5366SOL    HW127557   0.748   2.315   4.071  1.4589  1.5322 -1.6802
 5366SOL    HW227558   0.871   2.252   4.115  0.2924 -0.1534  1.6701
 5367SOL     OW27559   2.272   4.264  12.396 -0.4962 -0.2945 -0.2237
 5367SOL    HW127560   2.225   4.219  12.325 -1.4384  1.2704 -0.5882
 5367SOL    HW227561   2.206   4.258  12.466 -1.2547  0.3646 -0.8763
 5368SOL     OW27562   4.140   0.705   1.470  0.8598 -0.1364 -0.9147
 5368SOL    HW127563   4.224   0.663   1.451  0.0278 -0.9989 -2.6841
 5368SOL    HW227564   4.133   0.763   1.395 -3.4028 -0.4935 -0.7981
 5369SOL     OW27565   1.815   0.367  15.136 -0.5207  0.1016  0.1824
 5369SOL    HW127566   1.791   0.275  15.137 -1.2850  0.2762 -2.0365
 5369SOL    HW227567   1.745   0.405  15.083 -0.7467 -0.9606 -0.2668
 5370SOL     OW27568   2.525   3.111   3.409  0.0339 -0.1321  0.1387
 5370SOL    HW127569   2.540   3.123   3.503 -0.4922 -0.0551  0.2124
 5370SOL    HW227570   2.610   3.078   3.381 -0.0534 -1.8721  1.9292
 5371SOL     OW27571   3.349   0.175   6.138  0.5881 -0.3915 -0.6291
 5371SOL    HW127572   3.419   0.110   6.134  1.7663  0.7640  1.3234
 5371SOL    HW227573   3.371   0.232   6.064  4.0656 -0.1143  0.6466
 5372SOL     OW27574   1.761   2.320   7.229 -0.2474  0.0115  0.5241
 5372SOL    HW127575   1.725   2.408   7.243  2.2920  0.9971  0.8533
 5372SOL    HW227576   1.781   2.306   7.322 -0.5605  1.2085  0.7727
 5373SOL     OW27577   0.326   2.568   9.211  0.0024  0.3918 -0.5249
 5373SOL    HW127578   0.290   2.486   9.244  0.8271 -0.5716 -2.0461
 5373SOL    HW227579   0.316   2.617   9.293 -0.7656 -1.2835  0.3730
 5374SOL     OW27580   0.089   3.103   6.702  0.4065 -0.0930  0.5335
 5374SOL    HW127581   0.035   3.133   6.629  1.8676  0.9773 -0.1185
 5374SOL    HW227582   0.043   3.139   6.777 -1.4585  0.7361 -1.0073
 5375SOL     OW27583   2.049   4.046   3.549 -0.0430  0.1613 -0.1038
 5375SOL    HW127584   2.074   3.957   3.576  0.0217 -0.3098 -1.7380
 5375SOL    HW227585   2.023   4.081   3.635  1.1008  1.9358 -0.4977
 5376SOL     OW27586   0.326   2.941   5.399  0.2342 -0.6187 -0.1227
 5376SOL    HW127587   0.249   2.938   5.455  0.4198 -0.9207  0.1150
 5376SOL    HW227588   0.291   3.003   5.334 -0.5455  1.5957  2.4209
 5377SOL     OW27589   4.627   3.987   4.674  0.1002 -0.2836  0.2351
 5377SOL    HW127590   4.686   4.015   4.744  1.5606 -4.1134  0.5321
 5377SOL    HW227591   4.587   4.071   4.651 -1.9460 -0.8266  1.9082
 5378SOL     OW27592   1.619   3.917   0.454  0.2375 -0.0900 -0.7120
 5378SOL    HW127593   1.700   3.903   0.405 -0.6442 -1.3281 -1.8178
 5378SOL    HW227594   1.552   3.869   0.405  1.4414 -1.8301 -0.6279
 5379SOL     OW27595   0.336   1.009   2.430  0.1086  0.2322  0.6525
 5379SOL    HW127596   0.251   1.047   2.455 -0.6478  0.0218 -1.5759
 5379SOL    HW227597   0.298   0.924   2.406 -0.3513  1.1301 -1.7742
 5380SOL     OW27598   3.911   3.761   8.183 -0.4164 -0.2702  0.1948
 5380SOL    HW127599   3.901   3.802   8.269 -0.7653  0.5923 -0.2635
 5380SOL    HW227600   3.821   3.774   8.152 -0.4740 -0.4007  0.3075
 5381SOL     OW27601   3.925   3.954   5.275 -0.3420  0.3401  0.0246
 5381SOL    HW127602   3.968   3.953   5.189  1.4214  2.5078  0.8837
 5381SOL    HW227603   3.850   4.006   5.246 -1.5707 -1.1904  0.4740
 5382SOL     OW27604   2.998   1.584   2.779 -0.4979 -0.2392 -0.1360
 5382SOL    HW127605   2.939   1.519   2.816 -0.7960 -0.5547 -1.1739
 5382SOL    HW227606   2.945   1.663   2.773 -1.1896 -0.6930  0.0370
 5383SOL     OW27607   3.930   0.870   3.899  0.1596 -0.2622 -0.3419
 5383SOL    HW127608   3.899   0.931   3.831 -2.5207  0.4555  1.5001
 5383SOL    HW227609   3.875   0.890   3.975 -0.0888  0.1937 -0.6385
 5384SOL     OW27610   3.642   2.085   8.390  0.2997 -0.0896 -0.2232
 5384SOL    HW127611   3.716   2.031   8.418  1.8470  2.5551  0.8589
 5384SOL    HW227612   3.691   2.165   8.374 -0.5935  0.4736 -0.1452
 5385SOL     OW27613   1.704   2.108   5.291 -0.1029  0.3755  0.0445
 5385SOL    HW127614   1.629   2.105   5.232  1.5422 -0.8364 -1.9610
 5385SOL    HW227615   1.666   2.153   5.366 -2.6174 -0.8600 -0.5024
 5386SOL     OW27616   3.098   2.896   6.809 -0.2037 -0.6238 -0.4909
 5386SOL    HW127617   3.107   2.868   6.901  0.1714  2.0477  0.2812
 5386SOL    HW227618   3.021   2.845   6.784  0.0895 -1.4203  0.2233
 5387SOL     OW27619   2.119   0.982  11.759 -0.2550  0.2807  0.2657
 5387SOL    HW127620   2.207   0.980  11.797 -0.5768  2.5151  1.1666
 5387SOL    HW227621   2.062   1.016  11.828 -0.4690  1.2670 -0.3831
 5388SOL     OW27622   2.254   1.176   8.541  0.1438  0.3372  0.1520
 5388SOL    HW127623   2.196   1.110   8.580  0.8374 -0.1267  0.4040
 5388SOL    HW227624   2.283   1.213   8.624 -1.8882 -1.2289  1.5672
 5389SOL     OW27625   1.197   2.710  16.183 -0.3197 -0.3257 -0.5486
 5389SOL    HW127626   1.112   2.723  16.143  0.0768 -0.6647 -1.4837
 5389SOL    HW227627   1.201   2.615  16.172  3.7933 -0.2323 -0.1706
 5390SOL     OW27628   1.760   1.269   5.871  1.0671  0.0231 -0.5080
 5390SOL    HW127629   1.691   1.314   5.919 -0.0978 -1.0771 -1.1657
 5390SOL    HW227630   1.839   1.300   5.917 -0.6425  2.0156  1.1088
 5391SOL     OW27631   0.563   2.138   8.441 -0.4704  0.7009 -0.3380
 5391SOL    HW127632   0.533   2.117   8.353 -0.0621  1.0927 -0.5732
 5391SOL    HW227633   0.624   2.065   8.448 -1.0528  0.3112  0.7440
 5392SOL     OW27634   4.591   1.694   4.580 -0.1962 -0.4289  0.1847
 5392SOL    HW127635   4.675   1.685   4.625  0.9534  1.7713 -1.5309
 5392SOL    HW227636   4.546   1.648   4.651  0.3807  1.0240  1.5243
 5393SOL     OW27637   1.111   2.363  14.091 -0.2568  0.2236  0.2834
 5393SOL    HW127638   1.076   2.320  14.169 -0.0584  0.7343  0.6591
 5393SOL    HW227639   1.049   2.329  14.027 -1.1567 -0.7541  1.6678
 5394SOL     OW27640   0.719   1.531   9.447  0.0551  0.1385  0.1174
 5394SOL    HW127641   0.813   1.511   9.448 -0.0515 -0.2912  1.2252
 5394SOL    HW227642   0.695   1.528   9.354  0.1514 -0.2835  0.1061
 5395SOL     OW27643   4.505   2.413  15.761  0.4268  0.2731 -0.0059
 5395SOL    HW127644   4.435   2.370  15.809 -0.0185  2.1155  0.9671
 5395SOL    HW227645   4.452   2.481  15.720 -1.5748 -1.5198 -0.3746
 5396SOL     OW27646   2.522   3.159  13.557  0.0855  0.3411  0.0758
 5396SOL    HW127647   2.602   3.130  13.601  1.4571  3.1699 -0.5625
 5396SOL    HW227648   2.463   3.170  13.631  0.2991 -0.9701  0.4466
 5397SOL     OW27649   4.089   3.169   4.810  0.0295  0.0425  0.2862
 5397SOL    HW127650   4.166   3.124   4.846  0.9610  1.6696  0.3259
 5397SOL    HW227651   4.055   3.208   4.891  0.8788  0.2389  0.5440
 5398SOL     OW27652   1.081   2.844  11.278  0.1771 -0.3154  0.2729
 5398SOL    HW127653   1.166   2.861  11.236  0.3803  0.3545  0.9613
 5398SOL    HW227654   1.020   2.838  11.205 -0.2673 -0.7779  0.6885
 5399SOL     OW27655   1.063   2.780   8.656  0.0379  0.4537  0.1585
 5399SOL    HW127656   1.054   2.749   8.567  2.0980  0.1164  0.0554
 5399SOL    HW227657   1.003   2.723   8.704 -0.6530 -0.5492 -1.9026
 5400SOL     OW27658   3.204   3.134   6.881  0.9111 -0.1703 -0.4442
 5400SOL    HW127659   3.277   3.123   6.821  0.2944  0.7104 -1.3556
 5400SOL    HW227660   3.164   3.052   6.854  1.5743 -0.1271 -1.5051
 5401SOL     OW27661   4.701   1.611   6.856  0.3491  0.0311  0.3399
 5401SOL    HW127662   0.009   1.522   6.868  2.0021  0.5806 -0.0145
 5401SOL    HW227663   0.061   1.657   6.855  1.4452 -1.9399  1.5682
 5402SOL     OW27664   2.079   3.874  13.782  0.1540  0.1893 -0.2330
 5402SOL    HW127665   2.049   3.902  13.695  0.2478  1.5464  0.1731
 5402SOL    HW227666   2.033   3.938  13.837 -1.2305 -0.3231 -0.7972
 5403SOL     OW27667   1.828   3.805   7.192  0.6120 -0.1594  0.5143
 5403SOL    HW127668   1.896   3.820   7.127 -0.9733 -2.1628 -1.6367
 5403SOL    HW227669   1.835   3.709   7.197  2.3281  0.0269  1.5970
 5404SOL     OW27670   2.665   1.031   5.302 -0.4932 -0.2125  0.4649
 5404SOL    HW127671   2.651   1.072   5.387 -2.5955  1.1084 -0.5283
 5404SOL    HW227672   2.680   0.941   5.333  0.2618  0.0974  1.0059
 5405SOL     OW27673   0.298   4.252   8.641 -0.1300  0.2201  0.3086
 5405SOL    HW127674   0.384   4.289   8.618 -0.2872 -1.2563 -2.6436
 5405SOL    HW227675   0.304   4.159   8.622  0.8166 -0.1832  2.6391
 5406SOL     OW27676   1.745   3.806   3.945 -0.8192 -0.4549  0.3235
 5406SOL    HW127677   1.833   3.834   3.920 -1.3033  0.9332  0.2297
 5406SOL    HW227678   1.698   3.776   3.867  1.0997 -0.0892 -0.9888
 5407SOL     OW27679   0.092   2.525   2.016 -0.2191  0.7761 -0.0858
 5407SOL    HW127680   0.152   2.458   1.982 -1.1574  0.3768 -0.9378
 5407SOL    HW227681   0.122   2.596   1.960  1.7881 -1.1392 -1.4296
 5408SOL     OW27682   3.274   0.086   5.356 -0.4636 -0.5855 -0.2847
 5408SOL    HW127683   3.298   0.164   5.405 -3.2148  0.2066 -0.2048
 5408SOL    HW227684   3.181   0.107   5.346 -0.4402 -1.1185 -1.7027
 5409SOL     OW27685   3.338   4.274   1.353  0.4957 -0.3009 -0.3217
 5409SOL    HW127686   3.272   4.283   1.421 -1.2489 -2.7457 -1.6859
 5409SOL    HW227687   3.390   4.346   1.388  0.4155 -0.8115  0.8658
 5410SOL     OW27688   1.307   1.729  13.704  0.0293  0.4474  0.2612
 5410SOL    HW127689   1.233   1.680  13.741 -1.0863  1.6221 -0.4473
 5410SOL    HW227690   1.361   1.652  13.686 -1.4015 -0.7364  0.9499
 5411SOL     OW27691   1.351   2.405  16.459 -0.3803 -0.1204 -0.3841
 5411SOL    HW127692   1.329   2.418  16.552 -0.8178 -0.2211 -0.4701
 5411SOL    HW227693   1.422   2.469  16.458  1.6441 -2.3153  1.5661
 5412SOL     OW27694   2.808   0.598  10.291 -0.2735  0.9006  0.1383
 5412SOL    HW127695   2.799   0.633  10.380 -0.8753  0.6964  0.1607
 5412SOL    HW227696   2.717   0.616  10.267 -0.4355  0.6284  0.5356
 5413SOL     OW27697   4.396   0.137   5.715 -0.6467  0.1039  0.1545
 5413SOL    HW127698   4.489   0.114   5.726 -0.3054  1.2183 -0.4241
 5413SOL    HW227699   4.353   0.052   5.707  1.2484 -1.0604  2.1121
 5414SOL     OW27700   0.026   0.861   6.790  0.2453  0.1545 -0.4039
 5414SOL    HW127701   0.045   0.773   6.821  1.6038 -0.3618 -2.7206
 5414SOL    HW227702   4.661   0.839   6.766  0.2239 -0.0879 -0.1025
 5415SOL     OW27703   2.004   2.162  15.188 -0.1611 -0.0611  0.3264
 5415SOL    HW127704   2.058   2.188  15.113 -0.3089 -2.2728 -0.5644
 5415SOL    HW227705   1.967   2.077  15.163 -2.3499  0.8324  0.5497
 5416SOL     OW27706   1.689   0.180   8.258  0.2440  0.3328  0.3367
 5416SOL    HW127707   1.777   0.216   8.272  0.1563  0.5758  0.2526
 5416SOL    HW227708   1.718   0.139   8.176 -2.3237 -0.5001 -0.1628
 5417SOL     OW27709   2.718   3.859  11.664 -0.2815  0.0293 -0.0880
 5417SOL    HW127710   2.809   3.850  11.693  0.6707 -2.2395 -3.7502
 5417SOL    HW227711   2.722   3.872  11.569  1.1201 -0.5232 -0.1147
 5418SOL     OW27712   4.456   0.832  15.660 -0.0086 -0.1009  0.1090
 5418SOL    HW127713   4.551   0.833  15.670 -0.1611 -0.3041  1.6648
 5418SOL    HW227714   4.448   0.927  15.670  1.9435  0.0430  0.2869
 5419SOL     OW27715   1.697   2.842   9.749  0.0598 -0.1187  0.5089
 5419SOL    HW127716   1.609   2.824   9.716  0.9204  0.3091 -1.9806
 5419SOL    HW227717   1.672   2.920   9.800  0.2015 -0.5171  1.1811
 5420SOL     OW27718   2.850   0.170  17.352  0.1152  0.3574  0.0811
 5420SOL    HW127719   2.937   0.209  17.350 -0.2794  1.1772 -0.9515
 5420SOL    HW227720   2.855   0.094  17.411 -0.9749 -0.2365 -0.5891
 5421SOL     OW27721   3.106   0.532   5.689 -0.2332 -0.3585 -0.0559
 5421SOL    HW127722   3.154   0.612   5.707 -0.5972  0.0578 -0.9025
 5421SOL    HW227723   3.159   0.468   5.737 -0.4445 -1.1942 -0.9194
 5422SOL     OW27724   1.861   3.143  11.717 -0.0140 -0.0363 -0.3771
 5422SOL    HW127725   1.793   3.202  11.749  0.4557  0.4244 -0.2169
 5422SOL    HW227726   1.941   3.190  11.741 -0.9134  1.1389  0.3406
 5423SOL     OW27727   3.368   3.060   5.409 -0.2121 -0.1651 -0.1632
 5423SOL    HW127728   3.452   3.078   5.453  0.1681 -2.8877  0.2544
 5423SOL    HW227729   3.397   3.025   5.325 -1.0403 -1.0817 -0.0643
 5424SOL     OW27730   1.112   2.856  15.867  0.1031  0.0371  0.0509
 5424SOL    HW127731   1.076   2.892  15.786 -0.2854 -2.9772 -1.0917
 5424SOL    HW227732   1.201   2.842  15.836 -0.4080 -0.4321 -1.2151
 5425SOL     OW27733   2.008   4.231  11.372  0.0359  0.4854  0.2808
 5425SOL    HW127734   2.068   4.226  11.446  0.3817  1.4247  0.0614
 5425SOL    HW227735   1.930   4.245  11.426 -0.6822  1.4990 -0.9937
 5426SOL     OW27736   0.357   0.702   6.641 -0.4308  1.0870 -0.0110
 5426SOL    HW127737   0.324   0.693   6.551 -0.3535  0.9693 -0.0281
 5426SOL    HW227738   0.323   0.622   6.681 -0.5970  1.1888  0.0514
 5427SOL     OW27739   4.298   3.884   4.558 -0.3128 -0.1254 -0.1135
 5427SOL    HW127740   4.213   3.868   4.600 -1.0277  0.0549 -1.4740
 5427SOL    HW227741   4.332   3.970   4.584 -2.2932  0.3747  0.8369
 5428SOL     OW27742   3.758   1.912   4.755  0.6465 -0.1239 -0.4219
 5428SOL    HW127743   3.738   1.971   4.683 -0.6071  0.7648  0.6545
 5428SOL    HW227744   3.712   1.960   4.824  0.4091 -0.0921 -0.6024
 5429SOL     OW27745   4.386   0.377   5.201 -0.2345 -0.2139 -0.1979
 5429SOL    HW127746   4.460   0.341   5.153  0.3879  0.7903  0.0112
 5429SOL    HW227747   4.386   0.334   5.287 -3.5556 -1.1221 -0.6692
 5430SOL     OW27748   0.670   0.688   2.355 -0.4571 -0.4996  0.2380
 5430SOL    HW127749   0.709   0.760   2.304  2.0801 -1.0481  1.3989
 5430SOL    HW227750   0.614   0.742   2.411 -0.0735  1.8241 -1.6084
 5431SOL     OW27751   2.005   2.874   5.138  0.0646  0.4746 -0.6529
 5431SOL    HW127752   2.049   2.925   5.070  1.8301  0.6801  0.6463
 5431SOL    HW227753   2.039   2.909   5.220 -1.3936 -0.7806  0.5084
 5432SOL     OW27754   1.542   3.699   8.392 -0.0111 -0.3491  0.3092
 5432SOL    HW127755   1.519   3.750   8.470 -2.0584 -1.9188  0.7083
 5432SOL    HW227756   1.603   3.635   8.430 -0.3080 -2.8548 -3.4769
 5433SOL     OW27757   1.968   0.773   8.268 -0.0265 -0.0234  0.0628
 5433SOL    HW127758   2.025   0.720   8.324  0.0495 -2.1187 -1.9698
 5433SOL    HW227759   2.003   0.861   8.276  1.1976 -0.9764  4.8549
 5434SOL     OW27760   3.457   2.960   6.042  0.6790 -0.3278 -0.7908
 5434SOL    HW127761   3.530   3.014   6.011  0.8286  0.2541  0.5482
 5434SOL    HW227762   3.470   2.975   6.136  0.5958  0.1910 -0.8620
 5435SOL     OW27763   2.760   1.102  12.496 -0.5757 -0.3630 -0.1742
 5435SOL    HW127764   2.796   1.121  12.583  1.5177 -0.2603 -1.0602
 5435SOL    HW227765   2.685   1.049  12.521  0.6503 -1.9996  0.0404
 5436SOL     OW27766   0.440   2.737   4.427 -0.1826 -0.7437  0.7108
 5436SOL    HW127767   0.383   2.812   4.442  0.0441 -0.0328 -1.9144
 5436SOL    HW227768   0.523   2.784   4.420 -0.7819  0.3373  0.8917
 5437SOL     OW27769   3.255   3.860   2.714 -0.3880 -0.0243  0.2616
 5437SOL    HW127770   3.282   3.829   2.628  1.1368  0.0414  0.7190
 5437SOL    HW227771   3.230   3.778   2.756 -1.5838  0.0714 -0.2482
 5438SOL     OW27772   1.818   3.195   6.367 -0.0509 -0.3101 -0.3850
 5438SOL    HW127773   1.775   3.119   6.408 -0.4030  0.5898  0.9172
 5438SOL    HW227774   1.748   3.258   6.386  2.4855  2.4112 -0.2012
 5439SOL     OW27775   3.701   2.553  14.698 -0.3220 -0.5100  0.0045
 5439SOL    HW127776   3.770   2.497  14.735  0.5749  1.1435  0.8227
 5439SOL    HW227777   3.665   2.603  14.771 -0.6700 -0.7103 -0.0315
 5440SOL     OW27778   2.954   3.626   0.892 -0.2240  0.2901 -0.3749
 5440SOL    HW127779   3.002   3.545   0.909 -1.1016 -0.1880 -0.1887
 5440SOL    HW227780   2.870   3.586   0.871  0.2009  0.1784 -1.8962
 5441SOL     OW27781   1.708   3.551   3.203  0.0939  0.6101 -0.0005
 5441SOL    HW127782   1.701   3.545   3.107 -1.2959  0.6981  0.0943
 5441SOL    HW227783   1.776   3.619   3.202  1.6623 -0.9494  0.4362
 5442SOL     OW27784   2.022   4.066  13.394  0.0389 -0.1204 -0.1765
 5442SOL    HW127785   1.968   4.142  13.377  1.0465  0.7935  0.6979
 5442SOL    HW227786   2.075   4.102  13.465 -1.0817  0.2195  0.4910
 5443SOL     OW27787   2.968   3.247   0.255 -0.5255  0.2158  0.4255
 5443SOL    HW127788   2.951   3.337   0.228 -0.2887 -0.1813 -1.0000
 5443SOL    HW227789   3.020   3.212   0.183  1.6612  0.9031  1.6815
 5444SOL     OW27790   1.673   1.970   3.055 -0.9312 -0.1865  0.4796
 5444SOL    HW127791   1.711   1.966   2.967 -3.2078  0.7929 -0.5432
 5444SOL    HW227792   1.609   1.899   3.046 -3.2897  1.8163  1.6584
 5445SOL     OW27793   3.903   3.959   2.563  0.0883  0.4365  0.2449
 5445SOL    HW127794   3.855   3.888   2.520 -1.6450  1.9471 -0.3222
 5445SOL    HW227795   3.960   3.915   2.626  0.6039 -3.0721 -2.6775
 5446SOL     OW27796   3.551   1.405   7.132 -0.0714 -0.3705  0.0543
 5446SOL    HW127797   3.525   1.315   7.149  4.1076 -1.5528  0.0950
 5446SOL    HW227798   3.471   1.457   7.144  0.6097  0.8168 -0.5065
 5447SOL     OW27799   1.982   3.328  15.116  0.3841  0.2391  0.1326
 5447SOL    HW127800   1.974   3.303  15.207 -0.0227 -1.4798 -0.3855
 5447SOL    HW227801   1.942   3.250  15.078 -1.8242  1.0283  0.8804
 5448SOL     OW27802   1.840   4.449   8.405 -0.3503 -0.6162 -0.1104
 5448SOL    HW127803   1.916   4.480   8.356  0.0582 -1.4741 -0.0137
 5448SOL    HW227804   1.883   4.398   8.474 -0.1840  0.4725  0.5939
 5449SOL     OW27805   2.047   2.580   0.183  0.3806 -0.1074  0.0705
 5449SOL    HW127806   2.084   2.495   0.160  4.3900  1.9173 -0.8600
 5449SOL    HW227807   2.087   2.592   0.269 -0.5558  0.8645  0.3675
 5450SOL     OW27808   3.086   3.253   2.042  0.3101 -0.2327 -0.3664
 5450SOL    HW127809   3.038   3.170   2.037 -0.9345  0.5629 -1.4575
 5450SOL    HW227810   3.048   3.291   2.121  2.2505  0.2946  0.3112
 5451SOL     OW27811   2.478   2.536  11.049 -1.0387 -0.1273 -0.1646
 5451SOL    HW127812   2.522   2.452  11.063 -2.2804 -1.2090 -2.8067
 5451SOL    HW227813   2.545   2.589  11.006 -0.0384  0.1285  1.6913
 5452SOL     OW27814   3.074   3.512   6.594  0.2545  0.0872 -0.3094
 5452SOL    HW127815   2.996   3.525   6.648 -0.0540 -0.8476 -0.5325
 5452SOL    HW227816   3.088   3.592   6.543  1.0364 -0.2311 -0.5984
 5453SOL     OW27817   4.705   4.574   8.248  0.0692 -0.0323 -0.3969
 5453SOL    HW127818   4.671   4.536   8.167  0.0364 -0.4074 -0.2018
 5453SOL    HW227819   0.068   4.584   8.209  0.5069  1.7464  1.0298
 5454SOL     OW27820   1.400   4.319   0.222  0.5169 -0.1204 -0.5771
 5454SOL    HW127821   1.313   4.314   0.261  0.0991  1.0432 -1.3517
 5454SOL    HW227822   1.383   4.249   0.159  2.1493 -0.5198 -0.5598
 5455SOL     OW27823   4.307   4.315  13.557 -0.6381 -0.0545 -0.6236
 5455SOL    HW127824   4.269   4.243  13.508 -1.8857  0.2364 -0.0949
 5455SOL    HW227825   4.242   4.381  13.534  0.0033  0.6852 -0.3301
 5456SOL     OW27826   4.188   1.031   4.738  0.9216  0.4154 -0.2667
 5456SOL    HW127827   4.259   1.038   4.674  0.6004 -0.4889 -0.7346
 5456SOL    HW227828   4.118   1.089   4.707 -1.3752 -0.7294  2.8743
 5457SOL     OW27829   2.155   3.793   3.617 -0.2011  0.9170 -0.3555
 5457SOL    HW127830   2.221   3.730   3.644 -2.3982 -1.0396  0.4659
 5457SOL    HW227831   2.080   3.737   3.596  0.1400  0.6985 -1.0150
 5458SOL     OW27832   0.897   0.332   1.263  0.2213 -0.1522  0.2882
 5458SOL    HW127833   0.889   0.302   1.173  0.6978 -0.5280  0.3700
 5458SOL    HW227834   0.871   0.250   1.306 -0.9282 -0.1945 -0.5052
 5459SOL     OW27835   1.617   1.610  16.342  0.0251  0.4130 -0.4048
 5459SOL    HW127836   1.605   1.656  16.425 -1.2762 -2.0768  0.8025
 5459SOL    HW227837   1.710   1.630  16.333  0.2240 -0.3239 -0.0371
 5460SOL     OW27838   2.548   1.858   5.031 -0.3969 -0.5284  0.0270
 5460SOL    HW127839   2.453   1.858   5.015 -0.4255  1.1149  0.1423
 5460SOL    HW227840   2.551   1.950   5.057  2.6975 -0.6185 -0.0673
 5461SOL     OW27841   1.395   0.831   0.564 -0.3604 -0.3912  0.0056
 5461SOL    HW127842   1.406   0.923   0.587  0.8331 -0.7541  0.8998
 5461SOL    HW227843   1.363   0.779   0.638  0.9010 -0.0326  0.8011
 5462SOL     OW27844   2.745   0.310   0.532  0.4681  0.2894  0.4025
 5462SOL    HW127845   2.779   0.269   0.611  0.7486  0.1463  0.2067
 5462SOL    HW227846   2.820   0.303   0.473  1.1642 -0.6311  1.4027
 5463SOL     OW27847   2.135   3.838   8.245  0.2843 -0.5647 -0.4675
 5463SOL    HW127848   2.179   3.870   8.166  1.7053  0.2527  0.6583
 5463SOL    HW227849   2.103   3.923   8.273  3.7819  0.8280 -0.6799
 5464SOL     OW27850   0.047   3.420  12.602 -0.4448 -0.1234 -0.6150
 5464SOL    HW127851   4.714   3.344  12.593 -0.1015 -0.6138  1.4111
 5464SOL    HW227852   0.126   3.366  12.599 -0.4656 -0.2347  1.1345
 5465SOL     OW27853   3.543   2.778   2.014 -0.6037  0.4964 -0.2362
 5465SOL    HW127854   3.635   2.793   1.993 -0.1038  1.2161  2.4739
 5465SOL    HW227855   3.520   2.862   2.055 -1.3975  0.8469 -1.3957
 5466SOL     OW27856   2.418   1.942  11.204  0.1317  0.0969  0.4349
 5466SOL    HW127857   2.404   2.005  11.275 -1.9619 -0.1163  0.1891
 5466SOL    HW227858   2.378   1.996  11.136 -1.7061  0.6700  1.9761
 5467SOL     OW27859   2.653   2.066   7.952  0.0461 -0.5120  0.1994
 5467SOL    HW127860   2.642   2.159   7.931  2.0417  0.2205  2.4088
 5467SOL    HW227861   2.627   2.025   7.869 -1.0676  1.9791 -0.6839
 5468SOL     OW27862   3.676   1.909   1.004  0.1454  0.2506  0.0934
 5468SOL    HW127863   3.745   1.859   1.048 -0.1332  0.9497  1.3322
 5468SOL    HW227864   3.731   1.957   0.943  0.9267 -0.7907 -0.0195
 5469SOL     OW27865   1.797   0.670   8.780 -0.1478  0.8480  0.8275
 5469SOL    HW127866   1.875   0.705   8.737 -0.3775  0.3554  0.0174
 5469SOL    HW227867   1.833   0.583   8.800  2.1278  1.4595 -0.6333
 5470SOL     OW27868   0.387   2.376   8.230  0.1567 -0.1708  0.5112
 5470SOL    HW127869   0.423   2.297   8.191 -1.4640 -0.9832  0.6716
 5470SOL    HW227870   0.302   2.345   8.260 -0.5093  0.9942 -0.1590
 5471SOL     OW27871   4.234   1.818   5.241 -0.3873  0.0914 -0.1971
 5471SOL    HW127872   4.175   1.892   5.230 -0.8685 -0.5752 -2.0803
 5471SOL    HW227873   4.301   1.867   5.289  0.9018 -0.7966 -1.0764
 5472SOL     OW27874   3.270   3.279   3.313  0.4928  0.3378 -0.4764
 5472SOL    HW127875   3.350   3.321   3.345  1.4965 -1.5119 -0.5213
 5472SOL    HW227876   3.309   3.199   3.278  1.0981 -0.5232  2.1761
 5473SOL     OW27877   2.021   1.381   5.017 -0.1899  0.4407  0.0539
 5473SOL    HW127878   1.973   1.326   5.079 -0.5736  0.0505 -0.5863
 5473SOL    HW227879   2.009   1.323   4.941 -2.5845  0.9327  0.0599
 5474SOL     OW27880   0.819   0.656   8.707  0.6525 -1.3569 -0.3600
 5474SOL    HW127881   0.868   0.638   8.787 -1.2428 -1.9404  0.6763
 5474SOL    HW227882   0.774   0.574   8.687 -1.2230 -0.2299 -0.7838
 5475SOL     OW27883   4.461   1.042  17.309 -0.7649  0.1370  0.3813
 5475SOL    HW127884   4.456   0.981  17.382  1.2891  0.4137  0.7524
 5475SOL    HW227885   4.383   1.090  17.336  0.1489  1.7269  0.1592
 5476SOL     OW27886   4.586   0.671   2.134 -0.5079 -0.3452  0.5076
 5476SOL    HW127887   4.536   0.604   2.088 -0.0908  1.0214 -1.9388
 5476SOL    HW227888   4.674   0.662   2.097 -0.6827 -2.8397  0.6948
 5477SOL     OW27889   2.909   3.501   2.218  0.1443  0.1884 -0.6655
 5477SOL    HW127890   2.899   3.407   2.209  1.8282  0.0859 -1.3974
 5477SOL    HW227891   2.858   3.507   2.299 -1.5184 -2.3675 -1.5452
 5478SOL     OW27892   1.428   3.863  16.058 -0.6592 -0.9960 -0.5804
 5478SOL    HW127893   1.396   3.903  16.139  1.7631 -1.4847  0.6056
 5478SOL    HW227894   1.369   3.788  16.050 -0.1674 -1.0513 -3.6349
 5479SOL     OW27895   2.130   3.367   1.427 -0.2841 -0.2266 -0.2828
 5479SOL    HW127896   2.126   3.459   1.402 -1.0372 -0.2494 -0.2533
 5479SOL    HW227897   2.040   3.339   1.410 -0.8816  0.5833  1.5249
 5480SOL     OW27898   1.309   0.212   4.665  0.3747  0.4146 -0.3732
 5480SOL    HW127899   1.290   0.265   4.587 -1.0844  1.5093  0.7201
 5480SOL    HW227900   1.223   0.209   4.707 -0.1476  0.7664 -1.3993
 5481SOL     OW27901   3.664   4.544   4.942  0.2440  0.1194  0.0816
 5481SOL    HW127902   3.651   4.631   4.904 -0.5049 -0.2036 -0.3856
 5481SOL    HW227903   3.732   4.569   5.005  0.5526 -0.2566 -0.1040
 5482SOL     OW27904   0.097   1.804  16.997  0.1462  0.1854  0.1980
 5482SOL    HW127905   0.127   1.759  16.918  0.5647  0.9359 -0.0634
 5482SOL    HW227906   0.180   1.806  17.045  0.1396  0.0251  0.2180
 5483SOL     OW27907   2.635   1.052  17.047 -0.2627  0.2439 -0.2660
 5483SOL    HW127908   2.594   0.969  17.070  0.8078 -0.1085  0.3421
 5483SOL    HW227909   2.607   1.103  17.123 -1.0245 -0.2128 -0.2443
 5484SOL     OW27910   2.584   1.951   7.275 -0.3559  0.0094  0.2250
 5484SOL    HW127911   2.556   1.865   7.307 -1.0642  0.2452  0.2343
 5484SOL    HW227912   2.620   1.992   7.353  1.3042 -1.6086  0.3404
 5485SOL     OW27913   3.417   3.143   4.914  0.3608  0.1842 -0.0356
 5485SOL    HW127914   3.486   3.119   4.976 -1.3298 -0.7875  1.4852
 5485SOL    HW227915   3.380   3.058   4.892  0.1808  0.2693 -0.0642
 5486SOL     OW27916   3.909   1.071   8.968  0.0335 -0.5163 -0.2391
 5486SOL    HW127917   3.953   1.132   9.027  0.0601 -0.5096 -0.2656
 5486SOL    HW227918   3.942   0.990   9.008  0.5310  0.0136  0.4326
 5487SOL     OW27919   4.106   1.462   6.455 -0.4742  0.9966 -0.6171
 5487SOL    HW127920   4.026   1.431   6.498 -0.4993  2.3661  0.3237
 5487SOL    HW227921   4.073   1.464   6.366 -1.1758 -0.5029 -0.4044
 5488SOL     OW27922   2.216   1.193  15.545  0.2494  0.2201  0.2505
 5488SOL    HW127923   2.204   1.179  15.639  3.2940 -0.1617  0.6097
 5488SOL    HW227924   2.311   1.207  15.544 -0.0031  1.8557 -1.2376
 5489SOL     OW27925   3.791   2.807  10.612 -0.0325 -0.3725  0.0556
 5489SOL    HW127926   3.843   2.781  10.688  0.7478  0.3270 -0.2540
 5489SOL    HW227927   3.736   2.877  10.648 -0.5733  0.6387 -2.7897
 5490SOL     OW27928   2.361   3.368  14.546  0.8256 -0.1103 -0.2121
 5490SOL    HW127929   2.420   3.442  14.532 -1.3247  1.4145 -1.2097
 5490SOL    HW227930   2.421   3.294  14.548  0.3956 -0.4753 -0.8701
 5491SOL     OW27931   0.328   1.626  15.594 -0.4040 -0.0103 -0.6467
 5491SOL    HW127932   0.293   1.572  15.523  3.4943 -1.3139 -1.5718
 5491SOL    HW227933   0.238   1.651  15.614 -0.5116 -1.2082  0.3722
 5492SOL     OW27934   2.988   1.262   3.330 -0.1235  0.1576  0.3024
 5492SOL    HW127935   2.995   1.219   3.415  2.2467  1.6024  0.8430
 5492SOL    HW227936   2.925   1.331   3.354  1.0363  0.7233  1.6734
 5493SOL     OW27937   0.473   4.495  15.431  0.6066 -0.2495 -0.4646
 5493SOL    HW127938   0.426   4.538  15.360 -0.0844  2.0702  1.3830
 5493SOL    HW227939   0.463   4.403  15.408 -1.0596  0.4195 -2.4292
 5494SOL     OW27940   1.879   1.196  16.300  0.0887 -0.1817 -0.5992
 5494SOL    HW127941   1.946   1.136  16.269  0.6825 -0.5786  1.4030
 5494SOL    HW227942   1.900   1.276  16.252 -0.5595 -0.4850 -1.3914
 5495SOL     OW27943   3.325   3.281  16.129  0.1394 -0.3375 -0.3136
 5495SOL    HW127944   3.290   3.352  16.182  2.3346  0.9226 -0.5666
 5495SOL    HW227945   3.284   3.206  16.172  0.1211  0.0203  0.2893
 5496SOL     OW27946   4.483   2.754   8.106 -0.4214 -0.2226 -0.2122
 5496SOL    HW127947   4.578   2.754   8.120 -0.5167  0.7064  0.4384
 5496SOL    HW227948   4.470   2.728   8.015  2.1765  1.5414 -1.0903
 5497SOL     OW27949   0.666   3.105   7.723  0.1807 -0.0999  0.7514
 5497SOL    HW127950   0.650   3.183   7.776  0.5922  0.6988 -0.3191
 5497SOL    HW227951   0.629   3.046   7.789  0.8087 -0.7106  0.5585
 5498SOL     OW27952   0.893   2.601   2.645 -0.4168  0.1841 -0.3891
 5498SOL    HW127953   0.818   2.581   2.702  0.9414  0.0178  1.3467
 5498SOL    HW227954   0.872   2.549   2.567 -0.0497  0.1372 -0.4569
 5499SOL     OW27955   3.202   2.171   0.550  0.1643  0.4213  0.0122
 5499SOL    HW127956   3.160   2.246   0.591 -1.7292 -0.4214 -0.4131
 5499SOL    HW227957   3.226   2.220   0.471 -1.3672 -0.7713 -1.2002
 5500SOL     OW27958   2.992   4.551  12.916 -0.0974  0.0917  0.5730
 5500SOL    HW127959   3.031   4.471  12.879  0.0094 -0.3353  1.6237
 5500SOL    HW227960   3.073   4.603  12.918 -1.1035  1.6994 -0.7160
 5501SOL     OW27961   1.790   3.980   3.498 -0.5827  0.2844 -0.8431
 5501SOL    HW127962   1.756   4.021   3.577  0.5912 -1.4168  0.5561
 5501SOL    HW227963   1.883   3.979   3.520 -0.4765  1.5138 -1.2697
 5502SOL     OW27964   0.995   0.503  17.304  0.2746  0.1024 -0.0437
 5502SOL    HW127965   1.006   0.409  17.291  0.6047  0.1045  0.2522
 5502SOL    HW227966   1.044   0.535  17.228 -0.1107  1.3913  0.2601
 5503SOL     OW27967   0.102   0.218  10.337 -0.0933 -0.3605  0.1645
 5503SOL    HW127968   0.077   0.301  10.295 -1.7822 -1.2991 -0.6653
 5503SOL    HW227969   0.044   0.212  10.413 -0.7616 -2.2430 -0.4998
 5504SOL     OW27970   0.016   0.916  12.666  0.6622  0.3719  0.1094
 5504SOL    HW127971   0.058   0.875  12.742  4.0130 -2.1293 -3.1037
 5504SOL    HW227972   4.693   0.990  12.705  1.3725  0.0665  1.5731
 5505SOL     OW27973   4.595   0.839   3.768 -0.6707 -0.4219  0.0131
 5505SOL    HW127974   4.690   0.846   3.781 -0.4796  0.7077 -2.0209
 5505SOL    HW227975   4.575   0.930   3.793 -0.4886  0.3069 -2.4484
 5506SOL     OW27976   2.615   3.033  13.974 -0.9334  0.2308 -0.3831
 5506SOL    HW127977   2.707   3.061  13.968 -0.4027 -1.0070  2.0371
 5506SOL    HW227978   2.612   3.031  14.070 -4.0187 -1.7431 -0.5186
 5507SOL     OW27979   2.978   3.493  17.621 -0.1120 -0.1602 -0.3836
 5507SOL    HW127980   2.906   3.528  17.674  1.2958  0.0645  1.3797
 5507SOL    HW227981   3.049   3.515  17.681  0.0079  1.6253 -1.1798
 5508SOL     OW27982   2.377   3.318  10.270  0.0407  0.1894 -0.4561
 5508SOL    HW127983   2.435   3.313  10.346  0.4867  4.0489 -0.5562
 5508SOL    HW227984   2.303   3.262  10.293 -0.2300  0.5905 -0.3591
 5509SOL     OW27985   0.144   0.829   3.856 -0.1857 -0.1285  0.2295
 5509SOL    HW127986   0.165   0.922   3.852 -0.5260 -0.0731 -0.3575
 5509SOL    HW227987   0.230   0.790   3.841  0.0886  0.2659  0.8073
 5510SOL     OW27988   3.225   4.519   3.550 -0.2469 -0.2408  0.2376
 5510SOL    HW127989   3.257   4.572   3.623 -1.6064  3.8541 -2.1363
 5510SOL    HW227990   3.308   4.511   3.503 -0.3139 -1.9867  0.4137
 5511SOL     OW27991   0.992   2.399   4.827 -0.5434  0.6347  0.3885
 5511SOL    HW127992   0.988   2.322   4.770  1.1552  1.1667 -0.4578
 5511SOL    HW227993   1.060   2.452   4.786 -1.2565  2.4957  1.6039
 5512SOL     OW27994   0.830   1.281   8.334  0.3155 -0.3295 -0.2598
 5512SOL    HW127995   0.760   1.315   8.389  1.2877  0.4027  0.5360
 5512SOL    HW227996   0.903   1.283   8.397  2.5930  0.4020 -2.8998
 5513SOL     OW27997   3.535   0.297  14.140  0.3295  0.6565  0.6105
 5513SOL    HW127998   3.500   0.364  14.199 -2.1991  0.0956 -0.2269
 5513SOL    HW227999   3.483   0.221  14.168 -0.9771  1.3142 -0.0070
 5514SOL     OW28000   4.284   3.550   2.252 -0.0823  0.1749  0.3115
 5514SOL    HW128001   4.238   3.492   2.312  1.3752 -0.5468  0.7053
 5514SOL    HW228002   4.258   3.636   2.286 -1.4989  0.2112 -0.8253
 5515SOL     OW28003   1.033   4.111   1.618  0.2678 -0.5309  0.0571
 5515SOL    HW128004   1.094   4.151   1.556  0.0701 -0.9527 -0.4044
 5515SOL    HW228005   0.956   4.168   1.618  0.8268  0.2260 -0.0727
 5516SOL     OW28006   0.345   1.002   4.923 -0.2344 -0.0203  0.0083
 5516SOL    HW128007   0.293   1.051   4.987 -0.8418  1.2080 -1.4434
 5516SOL    HW228008   0.369   0.929   4.980 -0.8968 -1.1761 -1.1888
 5517SOL     OW28009   3.311   1.864  10.970 -0.2516  0.1138 -0.0140
 5517SOL    HW128010   3.253   1.924  10.923 -0.0237  0.9848  0.8454
 5517SOL    HW228011   3.336   1.805  10.899 -0.6459  1.4118 -1.2280
 5518SOL     OW28012   4.710   3.230   6.016  0.0017 -0.1801 -0.0375
 5518SOL    HW128013   4.648   3.281   6.068  2.3423 -1.0431  3.5764
 5518SOL    HW228014   4.670   3.147   6.040 -1.3152  0.5997  0.4325
 5519SOL     OW28015   1.341   1.642   6.158  0.0033 -0.0974  0.1441
 5519SOL    HW128016   1.401   1.615   6.228 -0.3479 -3.3508 -0.8117
 5519SOL    HW228017   1.379   1.642   6.071 -2.5338  2.4146 -0.9697
 5520SOL     OW28018   1.561   0.899  14.370  0.8974  0.0521 -0.2684
 5520SOL    HW128019   1.583   0.915  14.279  0.7843 -0.4942 -0.3955
 5520SOL    HW228020   1.634   0.938  14.418  0.9478  0.7411 -0.9113
 5521SOL     OW28021   1.043   4.709   2.100 -0.0043 -0.3340 -0.1251
 5521SOL    HW128022   1.004   0.032   2.173  1.1883  0.7582 -0.1891
 5521SOL    HW228023   1.055   4.621   2.137 -0.4353 -0.3984 -0.1474
 5522SOL     OW28024   1.743   0.061   1.426  0.7569  0.5555  0.3528
 5522SOL    HW128025   1.797   4.708   1.446  0.5498 -0.0848 -1.6011
 5522SOL    HW228026   1.814   0.125   1.432  0.0633  1.4481 -1.3073
 5523SOL     OW28027   4.339   1.044   5.883  0.1557 -0.2133  0.1747
 5523SOL    HW128028   4.382   1.087   5.809  0.8708 -0.9465  0.1581
 5523SOL    HW228029   4.250   1.033   5.850  0.2276 -1.9567  0.5494
 5524SOL     OW28030   0.544   0.327  13.922 -0.2184  0.4665  0.2157
 5524SOL    HW128031   0.466   0.380  13.941 -1.7017 -0.9559 -1.8516
 5524SOL    HW228032   0.534   0.268  13.996  0.6167 -0.5804 -0.5147
 5525SOL     OW28033   4.099   0.617   6.198  0.5180 -0.4027 -0.2529
 5525SOL    HW128034   4.165   0.667   6.150  1.7519 -1.7824  0.0068
 5525SOL    HW228035   4.061   0.686   6.253 -0.9024  0.8606 -2.8293
 5526SOL     OW28036   4.238   2.513  14.654 -0.0417  0.0110  0.2371
 5526SOL    HW128037   4.215   2.561  14.734 -1.8498  0.9163 -0.8149
 5526SOL    HW228038   4.177   2.440  14.655 -0.4198  0.3152 -0.3026
 5527SOL     OW28039   3.676   1.861   6.514 -0.3648  0.8168 -0.3812
 5527SOL    HW128040   3.741   1.931   6.508  0.8621 -0.3386 -0.6335
 5527SOL    HW228041   3.739   1.790   6.512 -0.1165  1.0595 -1.5431
 5528SOL     OW28042   3.152   2.791  14.845  0.0724  0.9088 -0.3023
 5528SOL    HW128043   3.184   2.780  14.934  1.9294  1.3516 -0.9249
 5528SOL    HW228044   3.222   2.740  14.803  1.4666  1.8565  0.8963
 5529SOL     OW28045   4.592   0.214  10.529 -0.0644 -0.6599  0.0615
 5529SOL    HW128046   4.497   0.222  10.537 -0.1887 -2.9950  1.0375
 5529SOL    HW228047   4.598   0.178  10.617  1.7531 -0.2073  0.1300
 5530SOL     OW28048   3.889   2.930   8.524 -0.0195  0.2352  0.1413
 5530SOL    HW128049   3.794   2.923   8.522 -0.0131  0.6981 -1.3693
 5530SOL    HW228050   3.895   2.933   8.620  3.0892  1.7602 -0.0945
 5531SOL     OW28051   0.211   4.115   1.575 -0.0775  0.3494  0.4382
 5531SOL    HW128052   0.248   4.111   1.663 -0.4876  2.1205  0.6944
 5531SOL    HW228053   0.280   4.065   1.531  0.0050  0.3391  0.5805
 5532SOL     OW28054   4.481   0.657   4.153 -0.1707  0.3055 -0.3124
 5532SOL    HW128055   4.504   0.633   4.242 -0.7727  3.0485  0.5892
 5532SOL    HW228056   4.431   0.737   4.170 -0.9737 -0.6924  1.9087
 5533SOL     OW28057   4.134   4.607  12.847 -0.0432  0.0643  0.2270
 5533SOL    HW128058   4.175   4.573  12.927 -3.1420 -3.1073  0.4705
 5533SOL    HW228059   4.123   4.700  12.869 -1.1797  0.3966 -1.7587
 5534SOL     OW28060   3.178   4.084  14.300 -0.4289 -0.0743  0.6053
 5534SOL    HW128061   3.174   4.176  14.277 -0.0407 -0.4187 -0.8418
 5534SOL    HW228062   3.153   4.047  14.215 -0.2237  0.9125  0.1172
 5535SOL     OW28063   0.131   0.720   5.499  0.4936  0.5978  0.0906
 5535SOL    HW128064   0.061   0.725   5.564  2.2199  1.5876  1.8566
 5535SOL    HW228065   0.168   0.808   5.504 -2.8112  1.8122  3.4630
 5536SOL     OW28066   2.303   0.524   5.179  0.4599  0.4358  0.1301
 5536SOL    HW128067   2.294   0.517   5.084  1.7304  1.9836 -0.1008
 5536SOL    HW228068   2.216   0.551   5.208 -0.0938  1.5876 -2.5954
 5537SOL     OW28069   4.405   0.267   4.356  0.0083  0.3351  0.2897
 5537SOL    HW128070   4.396   0.355   4.320 -0.0774  0.3771  0.4136
 5537SOL    HW228071   4.464   0.286   4.430 -1.3730  0.8393  1.2681
 5538SOL     OW28072   0.693   3.378   1.860 -0.6550  0.0173  0.4702
 5538SOL    HW128073   0.723   3.469   1.870  0.7556 -0.1872 -1.7560
 5538SOL    HW228074   0.775   3.330   1.852  1.3729  3.1705  2.1354
 5539SOL     OW28075   1.220   0.734   1.453 -0.3951  0.8860  0.2625
 5539SOL    HW128076   1.169   0.670   1.502 -2.1435  1.3197 -1.0368
 5539SOL    HW228077   1.285   0.761   1.519 -1.2460  0.6904  1.1756
 5540SOL     OW28078   2.375   0.965   0.327 -0.3421 -0.0335 -0.8153
 5540SOL    HW128079   2.428   0.917   0.263 -0.3131 -1.9255  0.6182
 5540SOL    HW228080   2.412   0.930   0.409  0.2102 -1.8855 -1.8454
 5541SOL     OW28081   3.021   0.090   8.841 -0.2072  0.3176  0.0655
 5541SOL    HW128082   3.023   0.141   8.922 -1.9689 -1.7023  1.3687
 5541SOL    HW228083   3.081   0.142   8.787 -1.2340  1.2075 -0.2108
 5542SOL     OW28084   2.998   3.016   3.184 -0.0626 -0.1145  0.5164
 5542SOL    HW128085   2.982   3.067   3.105  0.7599 -0.3276  0.2084
 5542SOL    HW228086   3.056   2.945   3.154 -2.6883 -3.3197  2.9818
 5543SOL     OW28087   4.612   1.684  16.531 -0.0924  0.2704  0.7038
 5543SOL    HW128088   4.617   1.607  16.475 -0.0442 -0.1500  1.2947
 5543SOL    HW228089   4.646   1.650  16.613 -0.8973 -1.3064  0.3827
 5544SOL     OW28090   3.733   4.306   4.550  0.2343 -0.5431  0.2564
 5544SOL    HW128091   3.794   4.233   4.539 -0.0289 -0.4807 -1.4788
 5544SOL    HW228092   3.775   4.360   4.617  0.9021 -2.2477  1.2016
 5545SOL     OW28093   3.217   2.547  17.614  0.0189  0.2442  0.2051
 5545SOL    HW128094   3.203   2.624  17.559 -1.0454 -0.3577 -0.3616
 5545SOL    HW228095   3.258   2.484  17.556 -0.3292 -0.7255  1.0063
 5546SOL     OW28096   3.685   3.935  16.907 -0.0090 -0.4722 -0.4566
 5546SOL    HW128097   3.767   3.886  16.898 -0.0478 -0.4922 -0.6856
 5546SOL    HW228098   3.702   4.012  16.853  1.2699  1.6872  3.0292
 5547SOL     OW28099   2.877   1.899   9.283  0.3327  0.1821 -0.0723
 5547SOL    HW128100   2.861   1.943   9.200 -0.7347 -0.5276 -0.2367
 5547SOL    HW228101   2.970   1.903   9.302 -0.1200  0.7901  2.1351
 5548SOL     OW28102   2.509   1.956   2.515 -0.3049  0.3677 -0.1227
 5548SOL    HW128103   2.550   1.984   2.432  1.8960 -1.4359  0.3417
 5548SOL    HW228104   2.493   2.036   2.565  1.1148  0.8573 -0.4424
 5549SOL     OW28105   2.083   3.276  11.795 -0.2594  0.9705 -0.3739
 5549SOL    HW128106   2.148   3.256  11.862 -0.3438  1.3972 -0.1645
 5549SOL    HW228107   2.103   3.365  11.765  0.0122  0.9916 -0.1269
 5550SOL     OW28108   2.097   4.717   6.219 -0.4628  0.0183  0.0656
 5550SOL    HW128109   2.192   4.704   6.225 -0.1220  0.7984 -3.4608
 5550SOL    HW228110   2.069   4.625   6.214  1.0077 -0.4546  0.3768
 5551SOL     OW28111   0.290   3.746   5.454 -0.2129  0.1119  0.0845
 5551SOL    HW128112   0.326   3.674   5.402 -0.4866 -0.3969  0.5941
 5551SOL    HW228113   0.311   3.733   5.546  1.3616 -1.5570 -0.5146
 5552SOL     OW28114   1.833   0.451  15.941 -0.3735  0.1317 -0.5095
 5552SOL    HW128115   1.812   0.382  15.877 -2.9786  0.7532 -0.3260
 5552SOL    HW228116   1.770   0.426  16.008 -0.2129 -2.7528 -1.4063
 5553SOL     OW28117   0.298   0.202  16.766 -0.3688  0.1656 -0.2877
 5553SOL    HW128118   0.383   0.246  16.773  0.2485 -0.8293 -1.6666
 5553SOL    HW228119   0.270   0.227  16.678 -1.7139  1.5226  0.5330
 5554SOL     OW28120   0.690   3.744   3.835  0.1562  0.3053 -0.4620
 5554SOL    HW128121   0.604   3.770   3.870  0.5849  0.2399  0.6559
 5554SOL    HW228122   0.694   3.801   3.758  1.0238  1.1838  0.2331
 5555SOL     OW28123   4.282   1.491  16.730 -0.0577  0.0474  0.0857
 5555SOL    HW128124   4.293   1.439  16.650 -2.5813  0.9194 -0.8340
 5555SOL    HW228125   4.358   1.549  16.736 -0.1623 -0.0319  2.0358
 5556SOL     OW28126   1.790   4.695  17.581 -0.3661  0.5038 -0.4246
 5556SOL    HW128127   1.845   4.663  17.653  1.3238 -0.1840 -2.0103
 5556SOL    HW228128   1.704   4.711  17.619 -0.5566 -2.0360  0.2084
 5557SOL     OW28129   2.956   4.217  14.740 -0.0359 -0.3554 -0.1689
 5557SOL    HW128130   2.882   4.166  14.774 -0.9889  1.2047  0.1013
 5557SOL    HW228131   3.018   4.146  14.723  1.3622  0.3600  2.1477
 5558SOL     OW28132   1.750   4.692   5.306  0.2397  0.0181  0.0754
 5558SOL    HW128133   1.806   4.711   5.381  1.9540 -1.1265 -0.9238
 5558SOL    HW228134   1.817   4.691   5.238  0.7046 -1.7715  0.5734
 5559SOL     OW28135   2.570   1.198   1.013  0.2312  0.2528 -0.1132
 5559SOL    HW128136   2.578   1.219   0.920 -3.4703  1.4703 -0.1754
 5559SOL    HW228137   2.596   1.106   1.013  1.1413  0.5196 -2.1868
 5560SOL     OW28138   2.284   3.120   8.938 -0.4569  0.3012  0.6240
 5560SOL    HW128139   2.271   3.026   8.925  1.8929 -0.3672  3.0305
 5560SOL    HW228140   2.279   3.150   8.848 -2.1211 -0.6304  0.4071
 5561SOL     OW28141   4.232   3.240   3.658  0.0356  0.1407  0.4322
 5561SOL    HW128142   4.244   3.249   3.753  2.0902 -0.0323  0.1837
 5561SOL    HW228143   4.279   3.321   3.640 -0.9957  0.9127  1.1566
 5562SOL     OW28144   2.626   2.693  16.328 -0.2182 -0.2725 -0.6520
 5562SOL    HW128145   2.609   2.784  16.304  0.4154  0.0697  0.1774
 5562SOL    HW228146   2.718   2.693  16.355 -0.6830  1.0330  0.9540
 5563SOL     OW28147   1.197   2.135  14.972 -0.1299 -0.0298 -0.3700
 5563SOL    HW128148   1.282   2.097  14.995 -0.9105 -1.3700  0.3005
 5563SOL    HW228149   1.218   2.227  14.987 -1.0982 -0.0580  1.1670
 5564SOL     OW28150   2.820   3.518   5.150 -0.6448 -0.2324  0.0356
 5564SOL    HW128151   2.909   3.554   5.152 -1.0690  0.8682 -1.9607
 5564SOL    HW228152   2.790   3.560   5.070  3.7346 -0.3778 -1.6892
 5565SOL     OW28153   3.211   4.315   3.269  0.0984  0.2070  0.3908
 5565SOL    HW128154   3.179   4.403   3.250 -0.2682  0.0394  0.2277
 5565SOL    HW228155   3.129   4.265   3.263  0.5051 -0.4378  0.1988
 5566SOL     OW28156   0.705   3.912   3.591  0.4346 -0.0670  0.0078
 5566SOL    HW128157   0.681   4.004   3.575 -0.1188  0.4379  3.7195
 5566SOL    HW228158   0.783   3.917   3.536 -0.3041  1.3001 -0.9217
 5567SOL     OW28159   1.396   4.268  17.087  0.7986 -0.1218  0.1390
 5567SOL    HW128160   1.347   4.312  17.018  1.1890 -1.1884 -0.8167
 5567SOL    HW228161   1.364   4.322  17.159 -0.5857 -0.7248 -0.0094
 5568SOL     OW28162   0.770   2.575   9.203 -0.7356 -0.1366  0.2458
 5568SOL    HW128163   0.737   2.510   9.141 -0.5046  0.0478 -0.0656
 5568SOL    HW228164   0.744   2.663   9.178  0.5361  0.7267  1.9811
 5569SOL     OW28165   1.230   1.800   7.903 -0.2825 -0.6338  0.4272
 5569SOL    HW128166   1.252   1.775   7.993 -0.8454 -1.9961  0.2001
 5569SOL    HW228167   1.175   1.877   7.914  0.0283 -0.3377 -0.1089
 5570SOL     OW28168   0.016   2.638  12.238  0.1815 -0.4267 -0.2224
 5570SOL    HW128169   0.103   2.598  12.241 -0.0696 -1.0857 -1.6483
 5570SOL    HW228170   0.002   2.674  12.325  0.4492  0.0101 -0.3619
 5571SOL     OW28171   0.503   4.564   6.872 -0.3411 -0.2015 -0.1086
 5571SOL    HW128172   0.470   4.591   6.958 -1.7318 -2.3856  0.0316
 5571SOL    HW228173   0.484   4.643   6.821  1.5486 -0.9347 -1.9814
 5572SOL     OW28174   1.641   3.395   5.451  0.6405  0.0658 -0.0849
 5572SOL    HW128175   1.651   3.488   5.433  0.3018 -0.6373 -3.8069
 5572SOL    HW228176   1.609   3.366   5.366  0.1226  1.7489 -0.4583
 5573SOL     OW28177   1.310   0.644   6.788 -0.1157 -0.9008 -0.3723
 5573SOL    HW128178   1.311   0.571   6.726  1.9763 -1.1466 -0.0663
 5573SOL    HW228179   1.233   0.611   6.834 -0.9529  3.1797  1.1072
 5574SOL     OW28180   0.410   3.863   9.880 -0.0408 -0.2375  0.2575
 5574SOL    HW128181   0.358   3.876   9.801  2.8240 -0.9131 -1.7454
 5574SOL    HW228182   0.416   3.768   9.890  2.2493  0.0770  1.8917
 5575SOL     OW28183   1.292   3.851   2.944 -0.5042  0.3318  0.1396
 5575SOL    HW128184   1.332   3.777   2.899  1.5085 -0.1896  2.7785
 5575SOL    HW228185   1.373   3.899   2.959  0.7095 -1.8106  0.3695
 5576SOL     OW28186   0.878   2.984   1.919 -0.1959 -0.5663 -0.0562
 5576SOL    HW128187   0.961   2.937   1.911 -0.6184 -1.2565 -0.3234
 5576SOL    HW228188   0.866   2.967   2.012 -0.4861  0.2473  0.0554
 5577SOL     OW28189   1.861   4.687   1.126  0.1439  0.2179  0.1149
 5577SOL    HW128190   1.804   4.612   1.140 -1.1898  1.3341  0.6396
 5577SOL    HW228191   1.796   0.031   1.115  0.2543  0.4128  0.6733
 5578SOL     OW28192   4.713   2.382  17.377 -0.2584  0.3981 -0.3655
 5578SOL    HW128193   4.718   2.439  17.454 -2.6389  1.2115 -0.8063
 5578SOL    HW228194   4.688   2.297  17.412  0.0030  0.5933  0.2922
 5579SOL     OW28195   4.272   1.209   6.114 -0.1693  0.3801 -0.4949
 5579SOL    HW128196   4.182   1.189   6.090 -0.4019  2.1685 -1.1663
 5579SOL    HW228197   4.326   1.171   6.045  0.0366 -2.6507  1.3437
 5580SOL     OW28198   3.556   4.532   0.950 -0.1466 -0.1777 -0.5960
 5580SOL    HW128199   3.572   4.626   0.956  2.6964 -0.6891  0.2064
 5580SOL    HW228200   3.492   4.520   1.020  0.6256 -1.2519 -0.0669
 5581SOL     OW28201   0.836   3.611   4.888  0.1252 -1.1227  0.0353
 5581SOL    HW128202   0.885   3.529   4.898  0.7066 -0.8081 -0.2077
 5581SOL    HW228203   0.884   3.666   4.949 -0.5767 -0.7497  0.2461
 5582SOL     OW28204   0.713   2.553   5.353  0.0133  0.7702  0.1421
 5582SOL    HW128205   0.729   2.562   5.447  2.7236 -1.2799 -0.1218
 5582SOL    HW228206   0.700   2.459   5.351  0.4677  0.6697  1.6299
 5583SOL     OW28207   3.020   0.856   5.643  0.6029  0.1919  0.2998
 5583SOL    HW128208   3.097   0.805   5.670  0.3050 -0.1247  0.5553
 5583SOL    HW228209   2.965   0.787   5.604 -0.3909 -0.2388  2.5047
 5584SOL     OW28210   4.447   3.475   1.695 -0.1254 -0.2918 -0.3310
 5584SOL    HW128211   4.410   3.563   1.690  0.5313  0.0619  1.0736
 5584SOL    HW228212   4.408   3.450   1.779  0.6006 -1.7571 -0.4270
 5585SOL     OW28213   3.788   2.797   1.912  0.6194 -0.3997 -0.3652
 5585SOL    HW128214   3.874   2.759   1.929  0.3707  0.9359  3.8246
 5585SOL    HW228215   3.755   2.726   1.857 -0.8927  0.5831 -0.7319
 5586SOL     OW28216   4.100   2.119   9.131  0.0192  0.0332 -0.4042
 5586SOL    HW128217   4.066   2.130   9.043  1.3559 -0.3631 -0.9778
 5586SOL    HW228218   4.122   2.205   9.167 -0.8443  0.1604 -0.1908
 5587SOL     OW28219   2.107   0.980   5.408  0.1024  0.3700  0.3025
 5587SOL    HW128220   2.199   0.982   5.434  0.4598 -2.2102 -0.7242
 5587SOL    HW228221   2.097   1.041   5.335 -2.7595  0.8350  1.0557
 5588SOL     OW28222   0.533   3.717   9.488 -0.0306  0.1823  0.0488
 5588SOL    HW128223   0.447   3.689   9.456  1.2062 -0.4234 -2.7520
 5588SOL    HW228224   0.581   3.637   9.508  0.6176  0.2417 -1.2486
 5589SOL     OW28225   1.838   0.475   0.956 -0.2526  0.4299 -0.5129
 5589SOL    HW128226   1.806   0.494   0.868 -1.3185  2.8166  0.3712
 5589SOL    HW228227   1.860   0.567   0.973 -0.8419  0.7338 -1.4032
 5590SOL     OW28228   3.696   1.999   8.040  0.0137  0.1785  0.4756
 5590SOL    HW128229   3.657   1.997   7.952  0.0896 -0.5146  0.4512
 5590SOL    HW228230   3.625   1.972   8.099  0.5525 -1.9803  0.1334
 5591SOL     OW28231   0.923   4.387   8.209 -0.2639  0.2870  0.0076
 5591SOL    HW128232   1.006   4.407   8.252  0.1304 -0.6948 -0.3008
 5591SOL    HW228233   0.892   4.309   8.255  0.1900  0.1946  0.1622
 5592SOL     OW28234   2.109   3.852   4.201  0.2792  0.3289  0.0079
 5592SOL    HW128235   2.035   3.907   4.225  0.2284 -0.1478  0.9341
 5592SOL    HW228236   2.177   3.899   4.250  0.2349  0.4332 -0.0298
 5593SOL     OW28237   3.756   4.171   6.099  0.5662  0.0038  0.4578
 5593SOL    HW128238   3.708   4.136   6.174  2.9593 -0.1718  1.8953
 5593SOL    HW228239   3.840   4.130   6.120  1.0547 -0.0989 -1.6268
 5594SOL     OW28240   4.265   0.260  10.167  0.3919 -0.3040  0.5250
 5594SOL    HW128241   4.349   0.217  10.183  0.7882 -0.0844 -0.8829
 5594SOL    HW228242   4.252   0.290  10.257  0.8067 -0.9320  0.7921
 5595SOL     OW28243   2.728   2.444  10.678 -0.7229 -0.9488  0.4190
 5595SOL    HW128244   2.750   2.388  10.603  0.7026 -3.2646  2.5616
 5595SOL    HW228245   2.768   2.525  10.647  0.0529 -1.1269  0.9783
 5596SOL     OW28246   2.071   4.255   7.858  0.4709  0.5588 -0.0151
 5596SOL    HW128247   2.032   4.193   7.919  2.2295  0.6258  1.1929
 5596SOL    HW228248   2.027   4.331   7.897 -0.0829 -0.2061  0.8474
 5597SOL     OW28249   1.544   3.904   2.089 -0.0087  0.0325  0.1963
 5597SOL    HW128250   1.548   3.940   2.178  0.1584 -0.9756  0.5966
 5597SOL    HW228251   1.601   3.968   2.048 -0.2097  0.0821 -0.0073
 5598SOL     OW28252   0.333   1.240   6.476  0.0919  0.6699  0.1833
 5598SOL    HW128253   0.275   1.287   6.416  0.2023 -0.1317 -0.5516
 5598SOL    HW228254   0.377   1.316   6.512  1.6864  0.7980 -2.1158
 5599SOL     OW28255   2.991   0.097   5.292 -0.0877 -0.3004  0.4091
 5599SOL    HW128256   2.995   0.152   5.370  0.2063  1.2751 -0.7023
 5599SOL    HW228257   2.904   0.117   5.259 -0.1692  1.4200  1.7080
 5600SOL     OW28258   1.419   1.599  12.060  0.0600  0.3366 -0.2106
 5600SOL    HW128259   1.399   1.527  12.000 -0.4246 -0.7679  1.2523
 5600SOL    HW228260   1.484   1.549  12.109  1.5825  2.3564 -0.1609
 5601SOL     OW28261   3.061   2.603   7.313  0.7304  0.4268 -0.3543
 5601SOL    HW128262   3.067   2.512   7.284 -1.7343  0.5747 -1.3577
 5601SOL    HW228263   3.146   2.617   7.353  1.6870  0.4355 -2.3703
 5602SOL     OW28264   1.967   3.631   2.216 -0.3951 -0.2656  0.4569
 5602SOL    HW128265   1.996   3.582   2.139  0.8716 -1.0894  1.4638
 5602SOL    HW228266   2.051   3.665   2.249 -0.9275  1.0878  0.4347
 5603SOL     OW28267   2.374   2.165   1.815  0.2892  0.2967  0.3071
 5603SOL    HW128268   2.389   2.194   1.725  1.6819 -0.0745  0.4069
 5603SOL    HW228269   2.290   2.208   1.826  0.2348 -0.0053  1.0630
 5604SOL     OW28270   3.804   0.771   3.559 -0.1555  0.1230 -0.0033
 5604SOL    HW128271   3.816   0.779   3.465 -1.3337 -4.7397 -0.5611
 5604SOL    HW228272   3.848   0.686   3.572 -1.8400 -0.6402  0.6588
 5605SOL     OW28273   2.364   2.452   7.390  0.2273 -0.6392  0.8780
 5605SOL    HW128274   2.394   2.372   7.347 -0.3959  0.4680 -1.6495
 5605SOL    HW228275   2.274   2.432   7.365  0.3727 -0.1227 -0.0930
 5606SOL     OW28276   0.858   3.825  16.604  0.1584  0.2831  0.1396
 5606SOL    HW128277   0.875   3.732  16.593 -2.1380 -0.1956  0.6333
 5606SOL    HW228278   0.859   3.837  16.699  1.2026 -2.2615  0.4275
 5607SOL     OW28279   3.680   3.769   2.724  0.3244  0.4908 -0.2095
 5607SOL    HW128280   3.768   3.735   2.706 -0.0736 -0.5454 -0.1992
 5607SOL    HW228281   3.666   3.815   2.642  1.9484  2.3196  0.5515
 5608SOL     OW28282   0.350   1.598   2.793  0.3666  0.0364 -0.8036
 5608SOL    HW128283   0.391   1.679   2.823 -0.6299  0.3896 -0.3786
 5608SOL    HW228284   0.416   1.549   2.745 -0.8333 -0.6380 -1.7437
 5609SOL     OW28285   2.779   1.107   7.878  0.7042 -0.1283 -0.2112
 5609SOL    HW128286   2.858   1.142   7.918  1.8200  0.2023 -2.6784
 5609SOL    HW228287   2.718   1.092   7.950  1.3116  0.8927  0.5208
 5610SOL     OW28288   0.420   3.465   7.196  0.6887  0.2792 -0.2641
 5610SOL    HW128289   0.509   3.436   7.172  0.3996 -0.7369 -0.1149
 5610SOL    HW228290   0.383   3.377   7.198 -0.5082  0.7862 -0.2708
 5611SOL     OW28291   3.577   1.144   8.444 -0.6593 -0.4389 -0.1249
 5611SOL    HW128292   3.533   1.197   8.378 -0.4495  0.1769  0.2270
 5611SOL    HW228293   3.627   1.077   8.397 -2.7931 -2.0158 -0.1350
 5612SOL     OW28294   0.199   0.063   3.208 -0.0918  0.1793 -0.0185
 5612SOL    HW128295   0.157   0.124   3.148 -0.6017  0.9232  1.0901
 5612SOL    HW228296   0.136   0.068   3.280  0.2905  0.4749  0.2987
 5613SOL     OW28297   4.049   2.607   7.881  0.2710 -0.2920 -0.6456
 5613SOL    HW128298   4.053   2.702   7.889 -0.9738 -0.3725  0.9806
 5613SOL    HW228299   4.050   2.573   7.970  0.7988  1.4892  0.0304
 5614SOL     OW28300   3.503   2.813   6.853 -0.0793  0.5677 -0.3368
 5614SOL    HW128301   3.519   2.892   6.905 -0.9435  0.1517  0.5658
 5614SOL    HW228302   3.458   2.748   6.907  0.8448  0.2141  0.0004
 5615SOL     OW28303   2.660   3.109  12.959 -0.3287 -0.2823  0.3157
 5615SOL    HW128304   2.626   3.190  12.996 -0.6407  0.7627 -2.2634
 5615SOL    HW228305   2.606   3.098  12.881  2.4688 -0.2545 -1.6077
 5616SOL     OW28306   3.978   4.494   2.739  0.4261  0.2417 -0.0300
 5616SOL    HW128307   3.982   4.541   2.656 -1.2357 -1.3646 -1.0068
 5616SOL    HW228308   4.062   4.514   2.780 -0.3607  2.9174  0.3189
 5617SOL     OW28309   2.961   2.610   6.259  0.3971 -0.0624 -0.0688
 5617SOL    HW128310   2.995   2.542   6.201 -0.9028  1.5073 -2.6441
 5617SOL    HW228311   2.870   2.581   6.271  0.6863 -0.1796  1.8425
 5618SOL     OW28312   2.406   4.566   7.193  0.0197 -0.8492  0.8206
 5618SOL    HW128313   2.400   4.661   7.201 -2.8850 -0.6829 -3.4865
 5618SOL    HW228314   2.390   4.554   7.099 -1.8559 -0.8903  1.1453
 5619SOL     OW28315   1.781   1.601  16.897 -0.1187  0.3483 -0.4199
 5619SOL    HW128316   1.736   1.518  16.913  1.8141 -0.7235 -0.4497
 5619SOL    HW228317   1.859   1.595  16.953 -0.3595  0.8804 -0.0333
 5620SOL     OW28318   1.237   3.912  15.800  0.4232 -0.3522 -0.5182
 5620SOL    HW128319   1.241   3.993  15.751 -0.5837 -0.2128 -0.3733
 5620SOL    HW228320   1.304   3.852  15.769  3.9209  2.8098  0.9955
 5621SOL     OW28321   1.041   0.405   2.250  0.1025 -0.2547 -0.1536
 5621SOL    HW128322   1.009   0.492   2.227 -0.6549 -0.3097  0.6891
 5621SOL    HW228323   1.126   0.409   2.208  0.2046  2.2090  0.3146
 5622SOL     OW28324   4.203   0.753   5.271  0.5877  0.0673 -0.1611
 5622SOL    HW128325   4.284   0.752   5.322  0.5529  0.5486 -0.0994
 5622SOL    HW228326   4.239   0.738   5.184 -1.9419  0.7693 -1.3191
 5623SOL     OW28327   1.126   2.871   1.866 -0.0859  0.6528  0.1610
 5623SOL    HW128328   1.170   2.792   1.835 -0.0668  1.1150 -0.9690
 5623SOL    HW228329   1.200   2.913   1.911 -0.3715  1.3722 -0.0361
 5624SOL     OW28330   2.170   3.003   5.361 -0.2711 -0.7783  0.4348
 5624SOL    HW128331   2.113   3.003   5.438 -0.2239  1.3055  0.4763
 5624SOL    HW228332   2.186   3.097   5.350 -0.7453 -0.5218  1.9784
 5625SOL     OW28333   4.295   1.000   0.889  0.2544  0.1195 -0.2297
 5625SOL    HW128334   4.282   1.052   0.968  0.0666 -0.7744  0.3276
 5625SOL    HW228335   4.257   0.919   0.922  0.5913 -0.3375 -0.9576
 5626SOL     OW28336   1.455   3.757  15.684 -0.2023 -0.1249  0.0777
 5626SOL    HW128337   1.432   3.731  15.595  3.5996 -0.9660 -0.6752
 5626SOL    HW228338   1.449   3.673  15.730  4.7878 -0.4274  0.2167
 5627SOL     OW28339   0.750   4.337   6.517  0.2047  0.2090  0.5710
 5627SOL    HW128340   0.678   4.397   6.497  0.0455  0.1537  0.9817
 5627SOL    HW228341   0.730   4.308   6.606 -2.0493  0.0426 -0.0011
 5628SOL     OW28342   4.494   0.276  15.141 -0.0773  0.0419  0.6609
 5628SOL    HW128343   4.429   0.325  15.091  2.1529  2.0985 -0.2332
 5628SOL    HW228344   4.478   0.305  15.231  0.6212 -1.3169  1.2256
 5629SOL     OW28345   3.891   4.662  16.185  0.2337 -0.2279 -0.4143
 5629SOL    HW128346   3.944   4.586  16.210  0.2856 -0.1063 -0.1536
 5629SOL    HW228347   3.864   4.683  16.275  1.4899  1.3699 -0.4214
 5630SOL     OW28348   3.339   0.113   4.890 -0.1445  0.5061  0.4115
 5630SOL    HW128349   3.280   0.112   4.965 -1.5380 -2.9072 -0.7595
 5630SOL    HW228350   3.384   0.033   4.916  1.4347  0.5921 -2.0110
 5631SOL     OW28351   0.277   0.181   5.081  0.3981  0.5459  0.3159
 5631SOL    HW128352   0.367   0.166   5.109  0.2088 -1.1954 -0.0049
 5631SOL    HW228353   0.240   0.093   5.078  1.4529  0.1195 -0.2709
 5632SOL     OW28354   0.452   2.820   8.335 -0.1530 -0.0650 -0.3004
 5632SOL    HW128355   0.397   2.751   8.373  0.1120  0.9921  1.9414
 5632SOL    HW228356   0.457   2.785   8.246  0.3173  1.0734 -0.7253
 5633SOL     OW28357   3.467   0.673   3.031 -0.3436  0.3106  0.4097
 5633SOL    HW128358   3.393   0.671   2.970  0.8781  1.4783 -1.1170
 5633SOL    HW228359   3.438   0.726   3.106  0.6485  1.4864 -0.0269
 5634SOL     OW28360   1.697   1.998  12.405 -0.8424 -0.4404 -0.0348
 5634SOL    HW128361   1.638   2.073  12.407  2.1410  1.9164  1.6258
 5634SOL    HW228362   1.637   1.924  12.396 -3.5538  1.7004  0.5279
 5635SOL     OW28363   4.311   0.786   2.360 -0.4361  0.0279 -0.3057
 5635SOL    HW128364   4.407   0.778   2.362 -0.2482  2.1682 -0.3982
 5635SOL    HW228365   4.298   0.708   2.307  2.3152 -0.5241 -0.1874
 5636SOL     OW28366   2.095   2.432   2.499 -0.4093  0.4428 -0.1302
 5636SOL    HW128367   2.023   2.382   2.539 -0.5764 -0.5724 -1.7054
 5636SOL    HW228368   2.115   2.377   2.423 -1.2359 -0.2077  0.1224
 5637SOL     OW28369   2.649   0.071   7.418 -0.3626  0.8604 -0.3948
 5637SOL    HW128370   2.591   0.146   7.424  1.7048  2.2995  1.5591
 5637SOL    HW228371   2.718   0.091   7.481 -1.3834 -2.0068  1.6180
 5638SOL     OW28372   2.892   0.622   3.529 -0.1648  0.6265 -0.3163
 5638SOL    HW128373   2.942   0.691   3.573 -1.3983 -1.0439  3.7435
 5638SOL    HW228374   2.950   0.546   3.536  0.0212  0.8107  0.1200
 5639SOL     OW28375   4.070   3.444   7.034  0.5743 -0.0575  0.1028
 5639SOL    HW128376   4.151   3.393   7.026  0.9623  0.8291 -1.7476
 5639SOL    HW228377   4.091   3.512   7.097 -0.0829 -0.7511  1.0661
 5640SOL     OW28378   3.695   0.508   7.225 -0.0212  0.0467  0.1812
 5640SOL    HW128379   3.680   0.596   7.191 -1.4239  0.0010  0.6791
 5640SOL    HW228380   3.655   0.518   7.312  0.0085 -1.6082  0.3830
 5641SOL     OW28381   2.340   2.365  17.623 -0.2949  0.2147 -0.0624
 5641SOL    HW128382   2.395   2.393  17.550  1.8770 -2.6157  0.4921
 5641SOL    HW228383   2.248   2.372  17.597 -0.0043  0.2389 -1.0920
 5642SOL     OW28384   2.414   3.090   7.391  0.3756 -0.1354  0.0566
 5642SOL    HW128385   2.440   3.076   7.300 -0.0573  0.0625 -0.1009
 5642SOL    HW228386   2.447   3.178   7.412  0.4075  0.3102 -1.8262
 5643SOL     OW28387   0.418   4.451   2.406  0.2435  0.0703  0.5110
 5643SOL    HW128388   0.382   4.502   2.479  0.2946  0.2033  0.4422
 5643SOL    HW228389   0.491   4.507   2.380 -1.2585  1.6191 -0.4117
 5644SOL     OW28390   1.224   1.330   8.687  0.1107  0.6110  0.2984
 5644SOL    HW128391   1.302   1.325   8.742  1.3903 -0.8307 -1.6706
 5644SOL    HW228392   1.206   1.424   8.697  1.3384  0.9190 -0.3800
 5645SOL     OW28393   4.523   1.112   1.738  0.7544 -1.0539 -0.6818
 5645SOL    HW128394   4.514   1.036   1.794  1.5781 -0.4004  0.3456
 5645SOL    HW228395   4.452   1.105   1.675 -0.8812  1.0328  0.9273
 5646SOL     OW28396   4.359   2.221   8.412  0.1258  0.1215 -0.4389
 5646SOL    HW128397   4.307   2.266   8.479  0.0844  1.3985 -1.3295
 5646SOL    HW228398   4.329   2.130   8.419  1.2074 -0.3401 -1.7169
 5647SOL     OW28399   4.497   0.773   7.016  0.9391 -0.2408 -0.3863
 5647SOL    HW128400   4.554   0.833   7.064  1.3310  0.8042 -2.1273
 5647SOL    HW228401   4.441   0.831   6.964  1.3166 -0.4431 -1.0208
 5648SOL     OW28402   3.449   3.640   3.553 -0.0798 -0.4376 -0.6406
 5648SOL    HW128403   3.534   3.598   3.568 -0.1932 -0.3833  0.1348
 5648SOL    HW228404   3.424   3.657   3.644 -3.6454  1.0388 -1.9048
 5649SOL     OW28405   2.951   1.553   8.711 -0.1343  0.4392  0.2551
 5649SOL    HW128406   2.907   1.629   8.749 -2.8890 -0.3619 -1.2883
 5649SOL    HW228407   3.033   1.599   8.696  1.2789 -1.5584  1.9091
 5650SOL     OW28408   1.393   2.784   5.389  0.0774  0.4743  0.1184
 5650SOL    HW128409   1.471   2.825   5.352  0.8904 -2.2745 -1.1756
 5650SOL    HW228410   1.358   2.728   5.319 -1.8535 -1.5842  2.7203
 5651SOL     OW28411   1.392   3.065  16.796  0.0275 -0.0338 -0.0023
 5651SOL    HW128412   1.319   3.061  16.858 -0.9531 -2.3153 -1.2913
 5651SOL    HW228413   1.351   3.011  16.728  0.0938 -0.5733  0.3886
 5652SOL     OW28414   3.394   3.869   8.936 -0.1695  0.9992 -0.0020
 5652SOL    HW128415   3.486   3.882   8.960 -0.0152  1.3245 -0.7777
 5652SOL    HW228416   3.343   3.883   9.016 -0.2239 -1.3383  0.3656
 5653SOL     OW28417   1.042   0.271  12.639  0.4988  0.0104  0.6062
 5653SOL    HW128418   1.063   0.263  12.546 -1.2906 -2.8271  0.4636
 5653SOL    HW228419   1.123   0.239  12.680  0.9380  1.8382  1.1997
 5654SOL     OW28420   3.494   4.297  11.127 -0.6403  0.5789 -0.1963
 5654SOL    HW128421   3.520   4.379  11.086  0.2461  1.8429  2.8996
 5654SOL    HW228422   3.402   4.295  11.103 -0.4076  0.9943 -1.0971
 5655SOL     OW28423   0.877   2.320  10.607 -0.0645 -0.2263  0.2121
 5655SOL    HW128424   0.898   2.229  10.628 -1.2081 -0.3728  0.7293
 5655SOL    HW228425   0.781   2.318  10.609 -0.0643  1.8585  3.5145
 5656SOL     OW28426   2.955   2.573  14.843 -0.4869 -0.1920 -0.1301
 5656SOL    HW128427   2.977   2.562  14.751 -1.5895 -1.9707 -0.1643
 5656SOL    HW228428   2.938   2.666  14.860  2.6518  0.2927  0.3968
 5657SOL     OW28429   3.475   0.750   5.856 -0.2854  0.1470 -0.3933
 5657SOL    HW128430   3.556   0.798   5.873 -0.9541  1.4394 -0.8761
 5657SOL    HW228431   3.419   0.794   5.920 -1.5902 -1.4700 -0.4064
 5658SOL     OW28432   1.746   1.814   4.748 -0.3041  0.3569  0.7218
 5658SOL    HW128433   1.709   1.843   4.832  0.8209  1.2534  0.9146
 5658SOL    HW228434   1.801   1.748   4.791  2.2844  2.0724  0.0726
 5659SOL     OW28435   3.749   1.674   6.090  0.0301 -0.9811 -0.4358
 5659SOL    HW128436   3.800   1.743   6.049  0.2183  0.7738  2.7163
 5659SOL    HW228437   3.718   1.722   6.167  1.9733 -0.4538  0.0161
 5660SOL     OW28438   3.237   2.859  13.316 -0.2079 -0.5360  0.5809
 5660SOL    HW128439   3.199   2.908  13.243  1.0306 -1.3222 -0.5886
 5660SOL    HW228440   3.256   2.932  13.376  1.7328 -0.1523 -0.5141
 5661SOL     OW28441   4.185   1.337   6.864  0.4059  0.4687 -0.2796
 5661SOL    HW128442   4.265   1.296   6.832  0.6671  0.5002  0.3358
 5661SOL    HW228443   4.180   1.298   6.951 -0.5878  1.6441  0.1808
 5662SOL     OW28444   2.990   4.396   4.642  0.1185 -0.1323 -0.3529
 5662SOL    HW128445   3.063   4.412   4.582  0.1973  0.9979  0.0320
 5662SOL    HW228446   3.023   4.399   4.732 -0.9729  0.4235  0.0381
 5663SOL     OW28447   4.719   1.669   1.024  0.5769  0.2488  0.1300
 5663SOL    HW128448   0.029   1.663   0.935  0.2798  0.1997  0.0208
 5663SOL    HW228449   4.630   1.693   0.998  0.7571  1.6105  0.7369
 5664SOL     OW28450   4.382   3.129   5.875  0.6503 -0.4712 -0.3952
 5664SOL    HW128451   4.432   3.161   5.799  0.6572 -2.1621 -1.0965
 5664SOL    HW228452   4.449   3.091   5.932  1.2300  1.9641  0.5252
 5665SOL     OW28453   1.232   2.627  17.011  0.1335  1.3543 -0.1279
 5665SOL    HW128454   1.162   2.579  16.967 -0.5079  2.8335 -0.7506
 5665SOL    HW228455   1.281   2.554  17.047  0.3995  1.8825  0.5910
 5666SOL     OW28456   3.779   2.685   5.033  0.1393  0.4287 -0.1678
 5666SOL    HW128457   3.772   2.713   5.124 -0.8586 -0.6353  0.0808
 5666SOL    HW228458   3.690   2.655   5.016  0.8010 -1.4927 -0.2888
 5667SOL     OW28459   3.502   1.903   8.207  0.0886 -0.3914  0.4755
 5667SOL    HW128460   3.447   1.869   8.277 -0.5263  0.3058  0.3214
 5667SOL    HW228461   3.551   1.967   8.257 -0.4409 -0.6355  1.2946
 5668SOL     OW28462   4.184   2.329   6.836 -0.1938 -0.4459  0.6120
 5668SOL    HW128463   4.231   2.246   6.833 -2.2599 -1.6487  1.0852
 5668SOL    HW228464   4.107   2.305   6.888 -0.5969 -0.4826  0.0064
 5669SOL     OW28465   2.528   0.434   7.702  0.7036  0.1822 -0.4512
 5669SOL    HW128466   2.558   0.463   7.788 -0.5598 -0.2481  0.1257
 5669SOL    HW228467   2.434   0.445   7.697  0.3423 -3.1692 -1.3261
 5670SOL     OW28468   2.008   3.389  13.514 -0.3189 -0.8002  0.0865
 5670SOL    HW128469   2.003   3.405  13.420  1.4211  1.0230  0.3072
 5670SOL    HW228470   1.995   3.294  13.523 -0.7412 -0.6030  1.5412
 5671SOL     OW28471   4.282   1.351   2.871  0.1709  0.4822  0.3810
 5671SOL    HW128472   4.220   1.294   2.827  1.8832 -1.3182  0.2821
 5671SOL    HW228473   4.288   1.426   2.812 -0.2288 -0.0606 -0.3309
 5672SOL     OW28474   0.480   4.542   7.890 -0.1163 -0.2089  0.0982
 5672SOL    HW128475   0.470   4.533   7.795  1.1855  2.0005 -0.2675
 5672SOL    HW228476   0.441   4.626   7.912 -0.2246  0.6739 -3.3809
 5673SOL     OW28477   1.394   3.202  15.752 -0.9369 -0.8362 -0.1062
 5673SOL    HW128478   1.394   3.166  15.841  0.3412  0.6193  0.4795
 5673SOL    HW228479   1.452   3.147  15.699  0.2563  0.0070  0.3219
 5674SOL     OW28480   0.938   3.814   5.029  0.2513  0.1651 -0.0369
 5674SOL    HW128481   0.930   3.840   5.120 -1.7048 -0.0917 -0.1191
 5674SOL    HW228482   0.917   3.892   4.978  2.1410  0.8014  0.1807
 5675SOL     OW28483   1.503   4.635   6.637  0.0687 -0.4083  0.5312
 5675SOL    HW128484   1.535   4.586   6.714 -1.4043 -1.2829  0.5988
 5675SOL    HW228485   1.584   4.680   6.616  0.8505 -1.4796  1.2636
 5676SOL     OW28486   2.057   0.452   8.296  0.6400 -0.6561  0.0252
 5676SOL    HW128487   2.130   0.475   8.354  0.2194 -0.4617  0.4763
 5676SOL    HW228488   2.097   0.456   8.209 -0.8916  0.0755 -0.6476
 5677SOL     OW28489   2.281   2.628   3.445  0.0360  0.0070  0.0220
 5677SOL    HW128490   2.234   2.545   3.450  1.3448 -0.6773  0.8586
 5677SOL    HW228491   2.326   2.647   3.527 -0.3350 -2.3714  0.7705
 5678SOL     OW28492   4.406   4.693   4.976 -0.3321 -0.0491  0.0736
 5678SOL    HW128493   4.486   4.670   5.023 -2.0081 -2.5309  1.6921
 5678SOL    HW228494   4.361   4.609   4.979 -0.8625  0.2124 -0.6408
 5679SOL     OW28495   1.756   0.447   3.554 -0.4167  0.3050 -0.1638
 5679SOL    HW128496   1.706   0.442   3.473  0.7148 -0.6838 -0.7896
 5679SOL    HW228497   1.838   0.483   3.519 -1.0033  0.3255 -1.5106
 5680SOL     OW28498   1.262   0.152   3.893  0.2995 -0.1388  0.2031
 5680SOL    HW128499   1.352   0.119   3.896 -0.2778 -1.3601  3.3840
 5680SOL    HW228500   1.256   0.185   3.803  2.1714  0.0060  0.1237
 5681SOL     OW28501   3.323   0.357   1.411  1.0699  0.1863  0.5520
 5681SOL    HW128502   3.272   0.279   1.435  1.0517  0.6570  2.0335
 5681SOL    HW228503   3.406   0.321   1.443  1.6216 -0.2808 -1.3864
 5682SOL     OW28504   4.083   3.768  14.292 -0.1809  0.2746 -0.3585
 5682SOL    HW128505   4.002   3.791  14.247  1.7463  3.1745 -2.3169
 5682SOL    HW228506   4.138   3.767  14.214  0.0066 -0.8950 -0.2215
 5683SOL     OW28507   3.770   3.093   5.351  0.3119 -0.7303  0.2369
 5683SOL    HW128508   3.747   3.182   5.325  0.7741 -0.8880 -0.7063
 5683SOL    HW228509   3.745   3.089   5.443 -2.9132 -2.1174 -0.6902
 5684SOL     OW28510   4.042   2.994   5.755  0.5215  0.3569  0.3842
 5684SOL    HW128511   4.070   3.051   5.827  0.9132 -1.1710  1.4461
 5684SOL    HW228512   4.060   3.056   5.684  0.8751 -0.8011 -0.5225
 5685SOL     OW28513   1.241   0.884   4.583  0.2332 -0.3532  0.3216
 5685SOL    HW128514   1.201   0.942   4.519  2.7176  1.5968  0.5337
 5685SOL    HW228515   1.166   0.847   4.632 -0.3581  1.6266  0.8888
 5686SOL     OW28516   1.427   0.723  14.521  0.1542  0.0704  0.1791
 5686SOL    HW128517   1.486   0.786  14.479  1.3342  0.8292  3.0363
 5686SOL    HW228518   1.448   0.646  14.467  0.6179  1.2079 -1.2849
 5687SOL     OW28519   2.486   1.404  13.465  0.0604  0.0173 -0.1731
 5687SOL    HW128520   2.507   1.495  13.446  1.8077 -0.3483  0.0640
 5687SOL    HW228521   2.542   1.376  13.537 -2.0031 -1.5835  0.8101
 5688SOL     OW28522   2.427   1.923   4.603 -0.3247 -0.3476 -0.4433
 5688SOL    HW128523   2.485   1.868   4.657 -0.6946 -1.4649 -1.1956
 5688SOL    HW228524   2.448   2.002   4.653  2.4030 -1.2505 -0.1146
 5689SOL     OW28525   3.555   1.576  15.238 -0.0296  0.0076  0.3543
 5689SOL    HW128526   3.508   1.496  15.261  0.3910  0.8578  4.1046
 5689SOL    HW228527   3.647   1.552  15.251  0.1846 -0.5888 -2.1745
 5690SOL     OW28528   4.342   4.151   5.749 -0.0950  0.1065 -0.0311
 5690SOL    HW128529   4.385   4.213   5.808  2.8267 -1.9910  0.0795
 5690SOL    HW228530   4.270   4.132   5.808  1.7308  1.2115  2.5673
 5691SOL     OW28531   4.001   1.311  10.724  0.2559  0.0578 -0.0349
 5691SOL    HW128532   4.052   1.239  10.762 -0.9918 -1.2921 -0.8964
 5691SOL    HW228533   4.046   1.330  10.642  1.5477 -2.4910  0.0722
 5692SOL     OW28534   4.120   2.101  16.661 -0.1993  0.6111 -0.7235
 5692SOL    HW128535   4.064   2.155  16.605 -1.9190 -0.4330  0.0023
 5692SOL    HW228536   4.204   2.139  16.635 -0.5210  1.6961 -0.1910
 5693SOL     OW28537   1.652   0.504   8.188  0.1860 -0.2057  0.6056
 5693SOL    HW128538   1.674   0.548   8.270 -0.6320  0.6344  0.3733
 5693SOL    HW228539   1.612   0.425   8.224 -0.8351 -1.8761 -4.1159
 5694SOL     OW28540   2.778   1.347   4.417  0.2917  0.0393  0.3600
 5694SOL    HW128541   2.797   1.313   4.504  0.1303 -0.1143  0.3346
 5694SOL    HW228542   2.692   1.307   4.419 -0.1506  0.9128 -0.9433
 5695SOL     OW28543   4.509   4.233   1.067  0.6355 -0.4252  0.5850
 5695SOL    HW128544   4.494   4.289   0.990 -0.8545 -2.9383 -0.9709
 5695SOL    HW228545   4.457   4.158   1.038  1.0305  0.3113 -2.0347
 5696SOL     OW28546   2.628   0.346   3.869  0.0823 -0.5326  0.0503
 5696SOL    HW128547   2.720   0.337   3.843  0.1322  0.7769 -0.2413
 5696SOL    HW228548   2.637   0.379   3.958  1.4676  0.8534 -0.5828
 5697SOL     OW28549   3.044   2.689  13.695 -0.2851  0.3217  0.4454
 5697SOL    HW128550   3.076   2.697  13.605  0.0653  0.4512  0.5826
 5697SOL    HW228551   3.014   2.599  13.697 -0.8754  0.5021 -0.1186
 5698SOL     OW28552   2.269   0.550   4.909 -0.3632 -0.4908  0.0538
 5698SOL    HW128553   2.262   0.645   4.921 -1.0648 -0.2734 -1.9471
 5698SOL    HW228554   2.177   0.525   4.901 -0.1594 -0.5306 -2.2802
 5699SOL     OW28555   1.304   2.623  12.616  0.5408  0.7271 -0.8287
 5699SOL    HW128556   1.285   2.587  12.703 -2.1174 -1.2995 -2.2421
 5699SOL    HW228557   1.218   2.663  12.605  0.1949  0.5902  1.3052
 5700SOL     OW28558   4.697   2.521  16.707  0.4628  0.8509 -0.1883
 5700SOL    HW128559   4.714   2.587  16.775  0.2218  0.0036  0.6958
 5700SOL    HW228560   4.649   2.457  16.759 -0.1052  0.8564 -0.7033
 5701SOL     OW28561   4.167   3.767   3.644 -0.1925 -0.0474 -0.0275
 5701SOL    HW128562   4.150   3.770   3.550  1.0252  2.2304 -0.1838
 5701SOL    HW228563   4.260   3.775   3.623 -0.6447 -0.5305 -2.2320
 5702SOL     OW28564   4.541   0.368   4.603 -0.0405 -0.9101 -0.0607
 5702SOL    HW128565   4.514   0.434   4.667  2.2387 -0.8527  0.8240
 5702SOL    HW228566   4.616   0.330   4.649 -0.2775 -2.6024 -1.0667
 5703SOL     OW28567   1.939   4.545  13.063  1.2169  0.0027  0.4334
 5703SOL    HW128568   1.886   4.557  13.142  0.5440 -3.2753  0.4867
 5703SOL    HW228569   2.018   4.589  13.094  1.5068  1.5599 -2.5352
 5704SOL     OW28570   4.194   0.310   5.641  0.1824 -0.0543  0.1368
 5704SOL    HW128571   4.209   0.255   5.564 -0.7446  0.0182 -0.0935
 5704SOL    HW228572   4.276   0.303   5.690  1.4359  1.7640 -1.7028
 5705SOL     OW28573   2.353   0.438   8.014  0.2862  0.2181  0.4900
 5705SOL    HW128574   2.325   0.450   7.923 -1.1029 -3.7131  0.3662
 5705SOL    HW228575   2.375   0.345   8.007  1.2289  0.3951  1.0406
 5706SOL     OW28576   0.736   0.954   4.169 -0.9277 -0.4389 -0.7815
 5706SOL    HW128577   0.739   0.977   4.262 -1.0679  0.3756 -0.9745
 5706SOL    HW228578   0.710   0.863   4.177  4.3952 -1.8351  0.2366
 5707SOL     OW28579   3.367   0.077  14.249  0.3217  0.5087 -0.8448
 5707SOL    HW128580   3.439   0.016  14.235  0.8324  0.5196  1.6529
 5707SOL    HW228581   3.378   0.090  14.344  0.2433  0.5593 -0.8430
 5708SOL     OW28582   1.778   4.077  16.750  0.0479  0.2436 -0.1471
 5708SOL    HW128583   1.860   4.028  16.751 -0.1323 -0.0546  0.0099
 5708SOL    HW228584   1.750   4.085  16.841  1.6373 -0.0435  0.3630
 5709SOL     OW28585   1.477   1.415   4.490  0.0833 -0.0328 -0.1540
 5709SOL    HW128586   1.545   1.376   4.544 -0.4065  1.0238  1.2286
 5709SOL    HW228587   1.465   1.349   4.421 -0.0430  1.0814 -1.1958
 5710SOL     OW28588   3.420   0.192   5.853 -0.9883 -0.1445  0.4643
 5710SOL    HW128589   3.463   0.265   5.808  0.0012  0.6391  2.6510
 5710SOL    HW228590   3.469   0.114   5.829 -0.7647  0.1327  0.0177
 5711SOL     OW28591   0.493   2.888   5.885 -0.1901  0.0445 -0.0517
 5711SOL    HW128592   0.529   2.898   5.796 -0.2570 -0.6661 -0.1643
 5711SOL    HW228593   0.421   2.825   5.877 -0.2062  0.0305  0.2052
 5712SOL     OW28594   0.939   2.297  13.632 -0.1741 -0.1635  0.7104
 5712SOL    HW128595   0.887   2.224  13.597 -0.3249  0.9692 -1.4472
 5712SOL    HW228596   0.978   2.347  13.560  0.5056 -2.4020 -0.4904
 5713SOL     OW28597   3.036   0.203   4.620  0.1067  0.4449 -0.1331
 5713SOL    HW128598   3.036   0.181   4.713 -1.4381 -1.1911 -0.5101
 5713SOL    HW228599   3.086   0.131   4.580 -1.8439 -1.7139  1.2658
 5714SOL     OW28600   0.130   0.741   3.323  0.0903 -0.3205  0.2055
 5714SOL    HW128601   0.059   0.736   3.387  1.0873  1.4921  1.4327
 5714SOL    HW228602   0.207   0.741   3.379 -0.2071  1.4431  0.6230
 5715SOL     OW28603   0.265   4.223   4.839  0.2314 -0.8319 -0.3692
 5715SOL    HW128604   0.320   4.166   4.893  0.8005 -0.3501 -0.4334
 5715SOL    HW228605   0.177   4.188   4.852  0.4809 -1.6515 -0.8739
 5716SOL     OW28606   1.423   1.559   7.049 -0.4638  0.1772  0.9886
 5716SOL    HW128607   1.460   1.473   7.030 -0.4223  1.0819 -3.0451
 5716SOL    HW228608   1.329   1.542   7.043 -0.4521  0.0381  1.2094
 5717SOL     OW28609   0.045   2.326   6.604 -0.6028 -0.2314 -0.5393
 5717SOL    HW128610   0.094   2.353   6.681 -2.2993 -1.2692  0.8963
 5717SOL    HW228611   0.106   2.364   6.540 -1.3847 -1.3167 -1.9428
 5718SOL     OW28612   2.231   3.119   8.231  0.7539  0.3288 -0.8189
 5718SOL    HW128613   2.242   3.153   8.320  2.5803  0.2872 -1.0254
 5718SOL    HW228614   2.240   3.191   8.169  0.4348  0.5254 -0.6324
 5719SOL     OW28615   0.127   4.211   2.400  0.0625  0.1995 -0.2596
 5719SOL    HW128616   0.196   4.273   2.377 -0.7686  1.5245  0.8065
 5719SOL    HW228617   0.177   4.138   2.437  2.2981  0.2355 -3.2354
 5720SOL     OW28618   2.809   4.478   5.516 -0.1349 -0.0111  0.0692
 5720SOL    HW128619   2.796   4.569   5.541 -0.6646 -0.1078  0.1272
 5720SOL    HW228620   2.727   4.459   5.472  1.4961 -3.4054 -1.5378
 5721SOL     OW28621   2.500   0.442  12.244 -0.2880 -0.3339 -0.2565
 5721SOL    HW128622   2.475   0.532  12.265 -2.5008 -0.7838 -0.9295
 5721SOL    HW228623   2.504   0.447  12.149 -1.2050  3.2098 -0.1219
 5722SOL     OW28624   1.598   0.481   7.390 -0.1566 -0.5112  0.4547
 5722SOL    HW128625   1.645   0.474   7.474 -0.6790  0.5047  0.8315
 5722SOL    HW228626   1.513   0.449   7.422 -0.2722  0.6216  1.2790
 5723SOL     OW28627   0.716   1.009  12.590  0.1897 -0.0373 -0.3394
 5723SOL    HW128628   0.738   1.049  12.674 -0.0889 -4.0199  1.6250
 5723SOL    HW228629   0.684   1.082  12.538 -1.2548  0.0081  0.6103
 5724SOL     OW28630   0.969   3.375   4.786  0.1318  0.5294 -0.0972
 5724SOL    HW128631   1.031   3.306   4.763  0.2585  0.7417 -0.3902
 5724SOL    HW228632   0.880   3.341   4.775  1.2039 -2.8678  1.9632
 5725SOL     OW28633   3.496   4.241   4.050 -0.0262  0.1768  0.3911
 5725SOL    HW128634   3.521   4.263   3.960  0.4485 -0.2521  0.4236
 5725SOL    HW228635   3.579   4.229   4.095 -0.5191  1.1298  1.5409
 5726SOL     OW28636   2.734   1.600   8.500 -0.8115 -0.4988 -0.2496
 5726SOL    HW128637   2.675   1.641   8.564  0.7907  1.5684 -0.1224
 5726SOL    HW228638   2.792   1.670   8.468 -1.8675  1.1685  1.4657
 5727SOL     OW28639   2.671   2.707  15.191  0.5371 -0.1272 -0.3991
 5727SOL    HW128640   2.628   2.790  15.169 -3.5052 -2.0366  0.3130
 5727SOL    HW228641   2.629   2.694  15.276 -0.1583  1.6725 -0.4531
 5728SOL     OW28642   2.339   4.516   3.129 -0.1026 -0.3041 -0.3376
 5728SOL    HW128643   2.276   4.454   3.093 -0.5116  0.2829 -0.6241
 5728SOL    HW228644   2.413   4.489   3.073 -1.2200  0.8246 -2.3518
 5729SOL     OW28645   1.297   3.641   1.129 -0.0546 -0.0125  0.1473
 5729SOL    HW128646   1.315   3.564   1.075  1.1856 -0.5621  1.3651
 5729SOL    HW228647   1.278   3.603   1.214 -0.6072 -1.7731 -0.7663
 5730SOL     OW28648   1.619   3.924   2.615 -0.0565  0.8112 -0.3732
 5730SOL    HW128649   1.543   3.972   2.583 -0.7896 -0.8507 -1.0838
 5730SOL    HW228650   1.596   3.839   2.578  1.5453  1.0366 -1.8643
 5731SOL     OW28651   3.159   1.749   4.061 -0.1757 -0.3206 -0.3242
 5731SOL    HW128652   3.093   1.814   4.085 -0.9973 -1.1808 -0.2920
 5731SOL    HW228653   3.116   1.684   4.006  1.7028 -1.6135 -0.2730
 5732SOL     OW28654   3.686   2.051   5.204  0.1283  0.3625  0.1882
 5732SOL    HW128655   3.686   2.142   5.234  0.3913  0.3772  0.1435
 5732SOL    HW228656   3.591   2.038   5.198  0.4818 -1.8630 -0.4345
 5733SOL     OW28657   3.046   3.352   6.941 -0.0709 -0.2310  0.0756
 5733SOL    HW128658   3.116   3.366   7.004  0.3354  2.4493 -0.9720
 5733SOL    HW228659   3.089   3.292   6.879 -1.7970  0.7911 -2.1219
 5734SOL     OW28660   0.529   1.708   4.926 -0.2363  0.1974 -0.0916
 5734SOL    HW128661   0.525   1.757   4.844  0.0925  0.0005 -0.2244
 5734SOL    HW228662   0.589   1.768   4.972 -0.3828 -2.1452  3.1694
 5735SOL     OW28663   0.386   3.285   6.166 -0.3916 -0.0865  0.5383
 5735SOL    HW128664   0.318   3.228   6.201  0.7083 -1.9711 -0.3582
 5735SOL    HW228665   0.450   3.216   6.146  1.3346  1.2552  1.4341
 5736SOL     OW28666   2.048   2.134  11.112  0.2840  0.2103  0.0669
 5736SOL    HW128667   2.021   2.221  11.140 -1.8433  0.1372 -1.7286
 5736SOL    HW228668   1.962   2.093  11.114  1.4230 -2.2341 -0.3070
 5737SOL     OW28669   1.120   3.630  14.486  0.5317 -0.0945  0.1484
 5737SOL    HW128670   1.159   3.592  14.407 -2.3111 -1.3026 -0.6516
 5737SOL    HW228671   1.184   3.601  14.552 -0.1209 -2.1682 -0.1456
 5738SOL     OW28672   2.753   0.631   3.152 -0.0015 -0.5315  0.3537
 5738SOL    HW128673   2.690   0.583   3.099  1.0512  0.3790 -1.7492
 5738SOL    HW228674   2.768   0.711   3.102  0.8290 -1.4061 -0.8002
 5739SOL     OW28675   3.663   3.411  11.536  0.1769  0.1238 -0.2676
 5739SOL    HW128676   3.653   3.460  11.454 -0.9936 -1.0465 -0.8220
 5739SOL    HW228677   3.620   3.330  11.507 -1.1269 -0.2502  2.7707
 5740SOL     OW28678   0.912   4.301  11.408 -0.4768 -0.4755 -0.2954
 5740SOL    HW128679   0.868   4.308  11.323  1.4051 -3.6500 -1.5264
 5740SOL    HW228680   0.904   4.393  11.434  1.0330 -0.3713 -0.1950
 5741SOL     OW28681   2.929   1.371   7.857  0.4775  0.0750  1.0004
 5741SOL    HW128682   2.894   1.438   7.915 -0.7211  0.6895 -0.4181
 5741SOL    HW228683   2.857   1.326   7.811  0.7832 -0.7185  1.2934
 5742SOL     OW28684   3.006   2.376  13.091 -0.2815  0.1157 -0.3916
 5742SOL    HW128685   2.969   2.345  13.174 -1.6202  0.1549 -0.9820
 5742SOL    HW228686   3.053   2.454  13.121 -0.5415 -0.0764  0.5249
 5743SOL     OW28687   3.562   1.209  16.787 -0.6661  0.3162 -0.5470
 5743SOL    HW128688   3.631   1.273  16.770  0.9616 -0.5196  3.1431
 5743SOL    HW228689   3.601   1.158  16.857  2.5024  3.2630 -0.1551
 5744SOL     OW28690   1.197   3.889   0.264 -0.1197 -0.2230 -0.0013
 5744SOL    HW128691   1.121   3.945   0.276 -0.5573 -0.6588 -0.7202
 5744SOL    HW228692   1.258   3.957   0.293  0.9772 -0.3947 -1.8892
 5745SOL     OW28693   1.022   3.584   5.368  0.1055 -0.0642  0.2649
 5745SOL    HW128694   0.930   3.565   5.351 -0.2759  1.6307  0.3699
 5745SOL    HW228695   1.014   3.655   5.432 -0.6203  1.8100 -1.8926
 5746SOL     OW28696   4.453   0.037   7.667 -0.2791 -0.3223  0.1340
 5746SOL    HW128697   4.404   0.040   7.749  1.2367  2.2115  0.9324
 5746SOL    HW228698   4.537   0.001   7.696  0.3640 -0.3948 -1.8353
 5747SOL     OW28699   3.754   3.201  12.678 -0.6106  0.0097  0.1591
 5747SOL    HW128700   3.676   3.249  12.649  0.7324  0.6492 -2.4282
 5747SOL    HW228701   3.731   3.191  12.770 -2.3370  1.9945 -0.0522
 5748SOL     OW28702   1.164   3.250   8.183  0.1937 -0.1871 -0.6073
 5748SOL    HW128703   1.207   3.205   8.256 -0.8350 -2.3098 -1.3291
 5748SOL    HW228704   1.226   3.209   8.122  0.2797 -1.1454  0.1328
 5749SOL     OW28705   3.018   3.732   0.653 -0.5631 -0.4108 -0.3299
 5749SOL    HW128706   3.020   3.685   0.737  0.8017  0.4529  0.1195
 5749SOL    HW228707   3.040   3.663   0.591 -1.7397 -0.3650 -0.7985
 5750SOL     OW28708   2.109   2.107   4.654 -0.0242 -0.2495 -0.5639
 5750SOL    HW128709   2.018   2.108   4.683 -0.5088 -0.4898 -2.0795
 5750SOL    HW228710   2.159   2.073   4.728  0.4233  0.4165 -0.5636
 5751SOL     OW28711   1.770   1.381   7.336 -0.0059 -0.8208  0.4436
 5751SOL    HW128712   1.754   1.333   7.418 -0.7063 -0.5630  0.4532
 5751SOL    HW228713   1.843   1.325   7.309  0.7743  0.2152  0.4074
 5752SOL     OW28714   3.935   1.871   8.111 -0.0139  0.1468 -0.1945
 5752SOL    HW128715   3.859   1.926   8.092 -1.7010 -2.2780 -0.5549
 5752SOL    HW228716   3.955   1.838   8.023 -0.2290 -0.9439  0.1656
 5753SOL     OW28717   1.552   3.490   1.421  0.1472  0.3103 -0.2978
 5753SOL    HW128718   1.615   3.420   1.434 -0.8404 -0.3831  0.7759
 5753SOL    HW228719   1.505   3.447   1.350  0.1236  0.4414 -0.3615
 5754SOL     OW28720   0.602   3.620  11.303 -0.0027  0.2042  0.3172
 5754SOL    HW128721   0.671   3.566  11.264  0.2956  0.2761  0.7473
 5754SOL    HW228722   0.561   3.660  11.226 -0.1068 -0.3632  0.0795
 5755SOL     OW28723   2.806   4.711  16.664  0.3991 -0.2022  0.5772
 5755SOL    HW128724   2.889   0.029  16.642  0.6465 -0.1751  1.6089
 5755SOL    HW228725   2.738   0.043  16.626  1.0490 -0.6383 -1.2480
 5756SOL     OW28726   1.629   1.527  12.509 -1.0074 -0.2977 -0.3024
 5756SOL    HW128727   1.714   1.486  12.526 -0.8396 -0.1449 -0.7811
 5756SOL    HW228728   1.645   1.608  12.557  0.5032 -1.5422  1.2864
 5757SOL     OW28729   1.813   0.703  16.531  0.2422  0.1281 -0.8792
 5757SOL    HW128730   1.874   0.685  16.459  0.7557  0.9547 -0.6467
 5757SOL    HW228731   1.873   0.727  16.602 -0.9787  3.3104 -0.9393
 5758SOL     OW28732   4.528   3.436   1.405 -0.5244 -0.1789  0.6983
 5758SOL    HW128733   4.485   3.491   1.471 -0.4692  0.2377  0.3798
 5758SOL    HW228734   4.457   3.372   1.392  0.5942 -1.4734  0.9655
 5759SOL     OW28735   0.540   3.183   2.673  0.0535 -0.9506 -0.2985
 5759SOL    HW128736   0.532   3.087   2.679  0.0090 -1.0018 -1.1047
 5759SOL    HW228737   0.463   3.203   2.726  0.6026 -3.6184  1.4790
 5760SOL     OW28738   2.430   0.089   5.673  0.2321  0.2062  0.1602
 5760SOL    HW128739   2.490   0.077   5.599 -0.4117  0.9978 -0.4928
 5760SOL    HW228740   2.345   0.117   5.638  0.3250 -0.2848 -0.4547
 5761SOL     OW28741   0.829   2.922   3.108  0.0353  0.2524  0.1986
 5761SOL    HW128742   0.890   2.989   3.140  0.6786 -0.1428 -0.2021
 5761SOL    HW228743   0.894   2.879   3.051 -0.7493 -0.3296 -0.2558
 5762SOL     OW28744   0.913   4.175   7.692  0.2364  0.4369 -0.1925
 5762SOL    HW128745   0.909   4.199   7.599  0.7613 -0.6190 -0.4861
 5762SOL    HW228746   0.878   4.251   7.738  1.9953 -0.5033  2.6953
 5763SOL     OW28747   0.037   1.236   6.634  0.5589 -0.1437 -0.1965
 5763SOL    HW128748   0.073   1.224   6.547 -1.0337  1.9286 -1.1375
 5763SOL    HW228749   0.100   1.297   6.674 -1.0341  1.3524  0.0497
 5764SOL     OW28750   2.210   4.168  10.684 -0.3823  0.3110 -0.6902
 5764SOL    HW128751   2.184   4.252  10.722 -1.3474  0.2012 -1.0891
 5764SOL    HW228752   2.244   4.132  10.766 -0.7452  2.8367  0.5815
 5765SOL     OW28753   2.922   0.186  12.652 -0.0779  0.0763  0.6588
 5765SOL    HW128754   2.947   0.183  12.745  1.6859 -0.5928  0.1674
 5765SOL    HW228755   2.939   0.276  12.624  2.0707 -0.9638 -1.3775
 5766SOL     OW28756   1.339   2.740   0.187  0.2066 -0.4496  0.3054
 5766SOL    HW128757   1.411   2.678   0.181 -0.7537 -1.6440  1.0761
 5766SOL    HW228758   1.362   2.798   0.260  2.0127 -1.9275  0.9005
 5767SOL     OW28759   3.757   3.419   9.338 -0.2563 -0.2885  0.0453
 5767SOL    HW128760   3.819   3.477   9.292 -1.2027  1.0741  0.4983
 5767SOL    HW228761   3.694   3.489   9.357 -1.8263 -1.3135 -1.3656
 5768SOL     OW28762   3.193   0.438  16.633  0.1006 -0.3815 -0.0364
 5768SOL    HW128763   3.112   0.413  16.678 -0.7301  2.6158  0.1809
 5768SOL    HW228764   3.159   0.461  16.547 -0.0370  3.6233  1.0732
 5769SOL     OW28765   1.055   3.413   7.745 -0.2997  0.3289 -0.2393
 5769SOL    HW128766   1.130   3.465   7.772 -0.5097 -0.0066  0.9946
 5769SOL    HW228767   1.089   3.357   7.675  1.5055  0.0885  0.8429
 5770SOL     OW28768   0.367   1.679   8.691 -0.8496 -0.3434  0.0696
 5770SOL    HW128769   0.274   1.660   8.679 -0.6586  0.8589 -3.3105
 5770SOL    HW228770   0.365   1.714   8.780 -0.3258 -0.0598 -0.0310
 5771SOL     OW28771   4.071   2.855   3.420  1.1690 -0.0465 -0.5414
 5771SOL    HW128772   4.108   2.848   3.508  0.7759 -2.9740 -0.5956
 5771SOL    HW228773   3.986   2.895   3.441  1.7291  1.6888 -1.5822
 5772SOL     OW28774   0.994   0.711   1.949 -0.0883 -0.1513 -0.4919
 5772SOL    HW128775   0.972   0.690   2.040  0.3692  2.7703  0.2988
 5772SOL    HW228776   0.987   0.628   1.902 -1.8590 -0.0101 -0.4405
 5773SOL     OW28777   2.335   0.918   6.160 -0.1499  0.1733 -0.2403
 5773SOL    HW128778   2.377   0.838   6.128 -1.8313 -0.7853 -0.0300
 5773SOL    HW228779   2.256   0.877   6.195  0.3513 -1.7472 -1.3555
 5774SOL     OW28780   4.129   0.861   1.700 -0.1240 -0.1597 -0.4107
 5774SOL    HW128781   4.081   0.931   1.656  0.1167  0.0237 -0.3822
 5774SOL    HW228782   4.139   0.797   1.630  0.4813 -0.5325  0.0191
 5775SOL     OW28783   0.839   1.167   7.726  0.1996 -0.1484 -0.0317
 5775SOL    HW128784   0.747   1.181   7.703 -0.4381  0.4922  2.8685
 5775SOL    HW228785   0.872   1.164   7.637  1.3741  0.6554  0.3800
 5776SOL     OW28786   0.168   3.106   4.469  0.0415 -0.0824  0.0565
 5776SOL    HW128787   0.157   3.019   4.507  1.2333 -0.2456  0.0470
 5776SOL    HW228788   0.080   3.129   4.440  0.1256 -0.4056 -0.4523
 5777SOL     OW28789   1.658   3.738   3.686 -0.1361  0.3037  0.3702
 5777SOL    HW128790   1.582   3.795   3.681  0.5769  1.2245  0.0782
 5777SOL    HW228791   1.620   3.659   3.647 -0.1235  0.0258  0.9264
 5778SOL     OW28792   2.314   0.915   9.865 -0.3371 -0.4918 -0.2991
 5778SOL    HW128793   2.264   0.996   9.874  1.0109  0.3253 -0.1803
 5778SOL    HW228794   2.337   0.925   9.773  0.9486  1.1422  0.1939
 5779SOL     OW28795   4.697   4.375   4.561  0.0160 -0.1066  0.8329
 5779SOL    HW128796   0.015   4.458   4.585  1.1612 -0.8289  1.2728
 5779SOL    HW228797   0.044   4.322   4.526 -0.8458 -0.8339  0.1728
 5780SOL     OW28798   4.587   4.148  11.242 -0.3455  0.0685  0.1689
 5780SOL    HW128799   4.621   4.238  11.241  0.8294 -0.3850 -1.2660
 5780SOL    HW228800   4.499   4.163  11.276 -0.5660  0.7887 -0.7335
 5781SOL     OW28801   1.946   2.306  13.856  0.5069  0.6444  0.1963
 5781SOL    HW128802   1.887   2.308  13.931  0.1281  0.0070 -0.0907
 5781SOL    HW228803   1.887   2.280  13.785  1.4362  1.2256 -0.7933
 5782SOL     OW28804   3.717   2.611   1.702  0.4563 -0.5034 -0.0484
 5782SOL    HW128805   3.749   2.527   1.667  1.2233 -0.4224  0.4839
 5782SOL    HW228806   3.743   2.675   1.636  0.9080  0.2223  0.8373
 5783SOL     OW28807   3.371   1.646   6.314  0.2487 -0.0772 -0.3653
 5783SOL    HW128808   3.318   1.699   6.375 -0.9466 -1.1967 -0.4456
 5783SOL    HW228809   3.424   1.712   6.268 -1.9175  1.4614 -0.6628
 5784SOL     OW28810   0.777   3.669   8.440  0.0254 -0.5074 -0.4247
 5784SOL    HW128811   0.760   3.607   8.369 -0.0468 -0.3501 -0.5459
 5784SOL    HW228812   0.832   3.615   8.497  1.7694  0.4193 -1.2705
 5785SOL     OW28813   0.858   2.202  17.402  0.1262  0.1876 -0.3864
 5785SOL    HW128814   0.950   2.228  17.392  0.9721 -2.3189  0.8089
 5785SOL    HW228815   0.806   2.272  17.361  1.2735  0.7972 -0.8000
 5786SOL     OW28816   1.046   3.945  15.997 -0.1927  0.5875 -0.2414
 5786SOL    HW128817   1.108   3.906  15.936 -1.0102  0.2837 -0.8874
 5786SOL    HW228818   0.968   3.968  15.946 -1.7366 -0.1597  1.7967
 5787SOL     OW28819   3.269   4.332   8.313 -0.0917  0.6813  0.4031
 5787SOL    HW128820   3.189   4.376   8.343 -0.4514  1.5304 -1.7978
 5787SOL    HW228821   3.295   4.286   8.393 -0.4227  0.4218  0.3628
 5788SOL     OW28822   3.336   1.136  10.151 -0.2937  0.2582 -0.0079
 5788SOL    HW128823   3.349   1.216  10.100  0.9012  1.3645  2.0212
 5788SOL    HW228824   3.255   1.155  10.200  0.1641  1.0521  0.4331
 5789SOL     OW28825   3.260   1.608   9.311 -0.4786 -0.3234  0.5431
 5789SOL    HW128826   3.198   1.652   9.370  0.3746  1.8690 -0.2089
 5789SOL    HW228827   3.264   1.674   9.242  1.1002  1.2603  2.1419
 5790SOL     OW28828   3.283   3.934   0.402 -0.3460  0.2953  0.2530
 5790SOL    HW128829   3.201   3.884   0.406  0.2796 -0.6512  1.3816
 5790SOL    HW228830   3.264   4.009   0.458 -1.9814  1.2467 -1.5901
 5791SOL     OW28831   0.607   0.337   3.463  0.0801 -0.1462 -0.1143
 5791SOL    HW128832   0.609   0.391   3.384  1.5681  0.3072  0.2412
 5791SOL    HW228833   0.668   0.266   3.439 -0.6394 -0.5602 -0.7351
 5792SOL     OW28834   2.726   3.406  15.944 -0.0432  0.9550 -0.9483
 5792SOL    HW128835   2.810   3.429  15.986 -0.3127  2.3558 -1.1591
 5792SOL    HW228836   2.742   3.430  15.853 -3.8352 -2.1986 -2.4089
 5793SOL     OW28837   4.129   3.780   3.002  0.1435  0.4796 -0.3931
 5793SOL    HW128838   4.088   3.865   2.983  0.5620  1.1034  1.4506
 5793SOL    HW228839   4.208   3.806   3.051 -1.0438  2.6060  0.4383
 5794SOL     OW28840   4.256   0.758  15.162 -0.5821  0.7235  0.0199
 5794SOL    HW128841   4.333   0.701  15.164  0.7887  2.6602  2.2351
 5794SOL    HW228842   4.211   0.726  15.240 -2.3763  1.4566 -0.7186
 5795SOL     OW28843   3.465   3.943   3.484  0.2615  0.1682  0.0542
 5795SOL    HW128844   3.516   3.979   3.411  0.2223 -0.1051 -0.1066
 5795SOL    HW228845   3.444   3.854   3.457 -3.0315  0.9968 -0.0160
 5796SOL     OW28846   1.648   3.194   8.605  0.1805 -0.4783 -0.2808
 5796SOL    HW128847   1.729   3.194   8.554  0.9804  2.2714  0.9979
 5796SOL    HW228848   1.655   3.281   8.645  0.2733 -0.5013 -0.2463
 5797SOL     OW28849   3.653   4.458   8.101  0.3061 -0.2082 -0.1614
 5797SOL    HW128850   3.665   4.368   8.133 -0.9004 -0.3908 -0.2310
 5797SOL    HW228851   3.743   4.484   8.080  0.3214  0.5873  0.8934
 5798SOL     OW28852   1.213   2.671   2.443 -0.0553  0.1026  0.0305
 5798SOL    HW128853   1.153   2.672   2.368 -0.5715 -1.5907  0.4218
 5798SOL    HW228854   1.266   2.741   2.404 -0.4409  0.9946  1.1009
 5799SOL     OW28855   4.432   2.101   2.920 -0.1306 -0.6596 -0.1032
 5799SOL    HW128856   4.525   2.101   2.895  0.1654  0.1759  0.9668
 5799SOL    HW228857   4.393   2.053   2.848  1.4231 -1.9843 -0.0782
 5800SOL     OW28858   3.930   4.051   3.539  0.3363 -0.1908 -0.7289
 5800SOL    HW128859   3.961   3.970   3.499  2.8016  0.2913  0.2160
 5800SOL    HW228860   3.848   4.075   3.497 -1.2786 -1.4555  1.7100
 5801SOL     OW28861   3.884   3.543   8.999  0.1892 -0.0630 -0.2657
 5801SOL    HW128862   3.942   3.597   8.946 -0.1801 -1.4230 -2.0685
 5801SOL    HW228863   3.913   3.565   9.088  0.9257  1.0065 -0.7716
 5802SOL     OW28864   1.245   1.007   1.126 -0.6420 -0.3474  0.5167
 5802SOL    HW128865   1.268   1.080   1.183  0.4343 -0.3622  0.1037
 5802SOL    HW228866   1.311   0.947   1.162 -0.3253  0.8117  1.8528
 5803SOL     OW28867   2.975   1.162   7.300 -0.0824 -0.5303 -0.1536
 5803SOL    HW128868   3.057   1.161   7.348 -1.0066  0.1201  1.4509
 5803SOL    HW228869   2.939   1.074   7.312  1.1703 -0.8572  1.1294
 5804SOL     OW28870   4.237   0.018   3.454 -0.0149 -0.2200  0.4061
 5804SOL    HW128871   4.142   0.014   3.452  0.0350 -2.0120  1.2769
 5804SOL    HW228872   4.257   0.071   3.531 -0.5878  0.6476 -0.0427
 5805SOL     OW28873   3.429   2.439   0.474  0.3953  0.1899  0.1612
 5805SOL    HW128874   3.373   2.504   0.516 -1.7913 -1.2533 -0.4957
 5805SOL    HW228875   3.371   2.414   0.402 -0.9023 -0.1163  1.3022
 5806SOL     OW28876   2.239   2.697   7.082 -0.0317  0.3237  0.6841
 5806SOL    HW128877   2.298   2.712   7.155  0.4655 -2.4363  0.8621
 5806SOL    HW228878   2.163   2.681   7.138  1.1239 -1.8214  1.6101
 5807SOL     OW28879   1.447   1.283   6.650  0.1653 -0.1394  0.9379
 5807SOL    HW128880   1.532   1.239   6.641 -0.1217 -0.4219 -0.4126
 5807SOL    HW228881   1.394   1.207   6.676 -2.0240  1.3020  0.6418
 5808SOL     OW28882   0.656   0.163  17.449  0.5869  0.4739  0.3115
 5808SOL    HW128883   0.590   0.220  17.488  0.6125  0.9329 -0.3151
 5808SOL    HW228884   0.621   0.164  17.360  2.1810  0.6884 -0.3167
 5809SOL     OW28885   0.195   1.908   6.465 -0.3943 -0.0122  0.2136
 5809SOL    HW128886   0.115   1.949   6.498  0.7106  0.7622  1.9234
 5809SOL    HW228887   0.264   1.951   6.516 -0.7891  1.9810 -0.9264
 5810SOL     OW28888   3.864   3.189   7.089  0.1697 -0.2948 -0.0785
 5810SOL    HW128889   3.951   3.166   7.058 -1.3512 -0.0373 -4.4566
 5810SOL    HW228890   3.813   3.128   7.035 -1.0790 -1.7730  2.7690
 5811SOL     OW28891   0.879   2.979   8.053 -0.0984  0.0973  0.2413
 5811SOL    HW128892   0.934   3.055   8.075  0.8059 -0.0328 -1.5285
 5811SOL    HW228893   0.802   3.024   8.019  0.6814  0.0776 -1.6092
 5812SOL     OW28894   0.039   4.324  12.199  0.1592 -0.4879  0.1665
 5812SOL    HW128895   0.021   4.347  12.108 -0.1293  0.8083  0.5503
 5812SOL    HW228896   4.684   4.274  12.218  2.0395 -3.8891 -1.0234
 5813SOL     OW28897   4.435   3.303   8.894  0.3277  0.0365 -0.3050
 5813SOL    HW128898   4.469   3.321   8.982 -1.0238 -0.4886  0.3338
 5813SOL    HW228899   4.517   3.284   8.848  0.4468 -1.2720  0.4251
 5814SOL     OW28900   4.309   3.207   0.885  0.6055  0.4866 -0.0122
 5814SOL    HW128901   4.327   3.300   0.899  0.3215  0.3813  1.0096
 5814SOL    HW228902   4.383   3.187   0.827  1.6270 -0.9072  1.7811
 5815SOL     OW28903   4.341   2.924  15.382 -0.1433 -0.0155 -0.6736
 5815SOL    HW128904   4.388   2.967  15.453  0.4588  0.7112 -1.5136
 5815SOL    HW228905   4.404   2.872  15.332 -1.1400 -0.5268 -1.3912
 5816SOL     OW28906   2.495   3.791   3.712  0.0660  0.8060 -0.1408
 5816SOL    HW128907   2.411   3.836   3.700 -1.5101 -1.6194  1.5878
 5816SOL    HW228908   2.523   3.793   3.803  2.0269 -0.0702 -0.7198
 5817SOL     OW28909   2.342   3.950   4.627 -0.7096 -0.3353 -0.6113
 5817SOL    HW128910   2.248   3.964   4.613 -0.4600  0.4401 -1.5412
 5817SOL    HW228911   2.369   3.912   4.543  0.9047 -0.6035  0.0430
 5818SOL     OW28912   0.564   1.015   5.308 -0.4487  0.2779 -0.1343
 5818SOL    HW128913   0.603   1.063   5.235  0.2428 -1.7468 -1.0950
 5818SOL    HW228914   0.647   0.982   5.342 -0.3816 -0.4685 -1.0120
 5819SOL     OW28915   1.598   3.246  16.887 -0.3530 -0.0056 -0.0480
 5819SOL    HW128916   1.542   3.320  16.910  0.3185 -0.1112  1.9274
 5819SOL    HW228917   1.534   3.183  16.852 -0.1303  0.0587 -0.5727
 5820SOL     OW28918   3.112   0.405  11.715 -0.2395 -0.4069 -0.7666
 5820SOL    HW128919   3.191   0.457  11.709 -1.9728  2.4808  1.4579
 5820SOL    HW228920   3.140   0.338  11.778 -0.4675  1.1975  1.0574
 5821SOL     OW28921   2.186   3.371   9.240 -0.3910 -0.0920 -0.3065
 5821SOL    HW128922   2.241   3.369   9.319  0.5536 -0.3919 -0.9755
 5821SOL    HW228923   2.107   3.386   9.292  0.6646 -0.7693  1.5185
 5822SOL     OW28924   3.014   3.608  15.779 -0.3080  0.4741  0.0778
 5822SOL    HW128925   2.978   3.679  15.831 -0.0364 -0.4019  1.4507
 5822SOL    HW228926   3.089   3.647  15.734 -0.5869  0.7565 -0.1406
 5823SOL     OW28927   2.304   0.139   5.957 -0.3211  0.3400 -0.4957
 5823SOL    HW128928   2.377   0.084   5.987 -1.2997 -1.5810 -1.6378
 5823SOL    HW228929   2.333   0.198   5.889  0.3529 -2.2996 -2.4971
 5824SOL     OW28930   1.973   1.491  11.022  0.2582  0.2764 -0.8079
 5824SOL    HW128931   2.051   1.533  11.057 -0.2271  0.0022  0.6298
 5824SOL    HW228932   2.003   1.400  11.027  1.1225  0.6048  0.0400
 5825SOL     OW28933   0.550   0.640  13.471 -0.2969 -0.0995  0.9384
 5825SOL    HW128934   0.574   0.732  13.460 -1.3043  0.0930  0.4437
 5825SOL    HW228935   0.480   0.644  13.536 -2.2322 -2.6855 -1.0175
 5826SOL     OW28936   1.643   2.384  14.455 -0.7276 -0.1018  0.1860
 5826SOL    HW128937   1.559   2.405  14.495 -1.0043 -1.4165  0.2989
 5826SOL    HW228938   1.651   2.463  14.402 -0.5580 -0.6166 -0.5672
 5827SOL     OW28939   4.515   0.490   6.302  0.6133 -0.5868 -0.0769
 5827SOL    HW128940   4.529   0.465   6.211  0.5627  0.6197 -0.4146
 5827SOL    HW228941   4.422   0.478   6.317  0.2465  0.3688 -1.5679
 5828SOL     OW28942   4.719   4.076   4.379 -0.3642 -0.1109  0.0109
 5828SOL    HW128943   4.715   4.039   4.291 -0.3484 -0.4809  0.1678
 5828SOL    HW228944   4.660   4.022   4.430  2.1601 -1.7520  1.1708
 5829SOL     OW28945   0.977   3.631   4.233  0.0551 -0.7087  0.0200
 5829SOL    HW128946   0.973   3.702   4.168  1.8679 -0.8163 -0.2299
 5829SOL    HW228947   0.907   3.581   4.193  0.3220 -0.0982 -1.2106
 5830SOL     OW28948   0.413   1.583  11.712  0.4454  0.2265 -0.7004
 5830SOL    HW128949   0.347   1.652  11.717  0.2254 -0.0569  0.2436
 5830SOL    HW228950   0.355   1.510  11.691  1.0160  0.0058 -1.5150
 5831SOL     OW28951   0.211   3.930   4.653 -0.9407  1.1308  0.3377
 5831SOL    HW128952   0.280   3.922   4.588 -1.8412 -3.2574 -0.0737
 5831SOL    HW228953   0.137   3.906   4.597 -0.5129  1.8085 -0.5166
 5832SOL     OW28954   1.137   2.192   5.144 -0.0194 -0.0034 -0.5925
 5832SOL    HW128955   1.077   2.198   5.219 -0.2180  0.2940 -0.7749
 5832SOL    HW228956   1.100   2.117   5.096  0.0279  0.2949 -1.0974
 5833SOL     OW28957   4.632   0.654  10.741  0.0064  0.5643 -0.1686
 5833SOL    HW128958   4.582   0.720  10.788 -0.7067 -0.8779  1.0988
 5833SOL    HW228959   4.717   0.646  10.784 -0.3723 -0.9032  0.3305
 5834SOL     OW28960   2.392   2.132   3.617 -0.1656  0.4296 -0.4590
 5834SOL    HW128961   2.412   2.191   3.690  0.5624 -1.0713  0.5664
 5834SOL    HW228962   2.299   2.115   3.632 -0.3149  0.2818 -1.5539
 5835SOL     OW28963   1.730   4.529   6.322  0.7385 -0.5236  0.2436
 5835SOL    HW128964   1.737   4.513   6.228 -0.6005 -1.1270  0.2411
 5835SOL    HW228965   1.696   4.442   6.343 -2.2225  0.4402 -0.5583
 5836SOL     OW28966   2.180   2.178  13.959  0.0812  0.2356 -0.1144
 5836SOL    HW128967   2.134   2.238  13.900  1.7913 -0.0718 -1.7722
 5836SOL    HW228968   2.105   2.140  14.004 -1.6210  2.6997 -0.9157
 5837SOL     OW28969   1.925   3.342  16.895  0.3593 -0.4656 -0.4868
 5837SOL    HW128970   1.941   3.396  16.818  1.2340  1.1161  0.7979
 5837SOL    HW228971   1.966   3.260  16.869 -2.3488 -1.6157 -1.0431
 5838SOL     OW28972   3.507   4.191  16.628  0.3860 -0.5884 -0.2421
 5838SOL    HW128973   3.464   4.161  16.708  0.4578  0.5412  0.2182
 5838SOL    HW228974   3.470   4.138  16.558 -2.0602 -0.8790  1.2667
 5839SOL     OW28975   0.264   2.218  12.087 -0.8702  0.7418  0.1310
 5839SOL    HW128976   0.191   2.178  12.134 -1.6303  0.2088 -1.4977
 5839SOL    HW228977   0.338   2.196  12.143 -0.8458  1.1822  0.2677
 5840SOL     OW28978   2.652   2.457  12.598 -0.1096 -0.2676  0.2400
 5840SOL    HW128979   2.564   2.479  12.630 -0.6359 -0.9811 -0.7208
 5840SOL    HW228980   2.705   2.523  12.643 -1.1673  0.9899 -0.3720
 5841SOL     OW28981   2.480   1.705   3.031  0.1273  0.5875  0.0292
 5841SOL    HW128982   2.488   1.659   2.947 -1.1671  0.7752 -0.1880
 5841SOL    HW228983   2.571   1.732   3.043  0.9289 -0.5750 -3.3721
 5842SOL     OW28984   2.198   2.904  14.752  0.3311  0.1076 -0.1360
 5842SOL    HW128985   2.185   2.942  14.665 -0.9972  0.4177  0.1970
 5842SOL    HW228986   2.124   2.843  14.750  1.7950 -1.6972  0.3503
 5843SOL     OW28987   1.173   4.315   2.483  0.1311 -0.2077  0.2175
 5843SOL    HW128988   1.206   4.283   2.399 -0.3215 -1.2278  0.4395
 5843SOL    HW228989   1.259   4.330   2.522  0.0978  0.7209 -0.0617
 5844SOL     OW28990   1.693   4.052   7.308  0.1136  0.5677  0.6782
 5844SOL    HW128991   1.682   3.999   7.387 -0.7167 -2.4419 -1.4631
 5844SOL    HW228992   1.784   4.039   7.280  0.2229  0.1887  1.2100
 5845SOL     OW28993   1.319   1.217  13.781  0.1874 -0.1303  0.1385
 5845SOL    HW128994   1.243   1.182  13.827 -0.3475  2.1105  0.9752
 5845SOL    HW228995   1.323   1.162  13.703 -2.2004  1.0268 -0.7934
 5846SOL     OW28996   3.180   3.212   7.363 -0.4857 -0.0028  0.3194
 5846SOL    HW128997   3.136   3.138   7.404 -1.2483  1.1965  1.6367
 5846SOL    HW228998   3.266   3.207   7.405 -0.0392  0.8895 -0.4894
 5847SOL     OW28999   3.680   2.932  15.867 -0.4346  0.0545 -0.0952
 5847SOL    HW129000   3.749   2.998  15.874  1.1656 -1.4107 -2.0935
 5847SOL    HW229001   3.624   2.971  15.934 -0.3447  0.5365 -0.2956
 5848SOL     OW29002   3.446   2.984  10.578  0.4333  0.2972  0.5121
 5848SOL    HW129003   3.480   2.981  10.488  0.9314  0.6432  0.6898
 5848SOL    HW229004   3.520   2.998  10.637 -0.8073  0.7300  1.9538
 5849SOL     OW29005   1.537   3.395   7.646  0.0947 -0.1497  0.1930
 5849SOL    HW129006   1.504   3.348   7.722 -1.5594  0.8029  0.0611
 5849SOL    HW229007   1.504   3.484   7.663 -2.7375 -1.0526 -0.6399
 5850SOL     OW29008   3.150   0.469   2.649 -0.3582  0.1047 -0.7164
 5850SOL    HW129009   3.180   0.442   2.736 -0.2207 -2.0682 -1.4602
 5850SOL    HW229010   3.068   0.510   2.679  2.2399  3.0832  2.3967
 5851SOL     OW29011   2.709   3.771   8.971 -0.2367 -0.4755  0.1123
 5851SOL    HW129012   2.677   3.741   8.886 -1.4392 -1.3046  0.8693
 5851SOL    HW229013   2.683   3.863   8.980  0.8918 -0.2665  1.3016
 5852SOL     OW29014   1.172   1.472   9.427  0.0944 -0.3734  0.3025
 5852SOL    HW129015   1.248   1.428   9.464 -0.5295 -2.2049 -0.6222
 5852SOL    HW229016   1.224   1.542   9.388 -1.5964  0.8416  0.2222
 5853SOL     OW29017   4.056   3.401  12.066  0.8104  0.4708  0.4190
 5853SOL    HW129018   3.999   3.471  12.098 -2.3395 -1.2055 -1.4842
 5853SOL    HW229019   4.132   3.419  12.121  2.7817 -0.3931 -2.0658
 5854SOL     OW29020   3.452   0.232   8.335 -0.3556  0.3475  0.0743
 5854SOL    HW129021   3.380   0.288   8.366 -0.8655  0.4931 -1.3576
 5854SOL    HW229022   3.505   0.221   8.414 -0.3225 -2.7566 -0.3741
 5855SOL     OW29023   3.762   3.217   6.403 -0.1319 -0.2792  0.9076
 5855SOL    HW129024   3.740   3.296   6.452  2.7765  1.2747 -0.3444
 5855SOL    HW229025   3.720   3.150   6.458 -0.4486 -0.2746  0.6711
 5856SOL     OW29026   4.294   2.260  16.842 -0.3262  0.2245 -0.3061
 5856SOL    HW129027   4.241   2.181  16.834 -1.6401  1.0284  0.4298
 5856SOL    HW229028   4.265   2.288  16.929 -1.2314  0.4717 -0.6870
 5857SOL     OW29029   2.726   0.031   9.413  0.1012 -0.2622  0.3574
 5857SOL    HW129030   2.793   4.693   9.443 -1.5421 -1.3135  1.8096
 5857SOL    HW229031   2.660   0.021   9.481 -0.4107 -2.5817 -0.4814
 5858SOL     OW29032   4.187   1.890  13.084 -0.1996 -0.3519 -0.0627
 5858SOL    HW129033   4.104   1.895  13.037 -0.4497  0.8195  0.5112
 5858SOL    HW229034   4.164   1.890  13.177  0.2017  0.4336  0.0340
 5859SOL     OW29035   1.878   4.122  15.068  0.1619  0.3034 -0.5424
 5859SOL    HW129036   1.870   4.034  15.030  0.4135  1.4465 -3.2740
 5859SOL    HW229037   1.931   4.102  15.144 -0.8337  1.3317  0.4190
 5860SOL     OW29038   1.228   3.815   5.043 -0.4875  0.4908  0.1699
 5860SOL    HW129039   1.312   3.797   5.084 -0.1807 -0.9340 -1.0777
 5860SOL    HW229040   1.200   3.724   5.032  2.2017 -0.1971 -0.8820
 5861SOL     OW29041   2.132   2.019   8.154 -0.2161  0.5596  0.1269
 5861SOL    HW129042   2.095   1.934   8.178  2.1196 -0.3935  0.3743
 5861SOL    HW229043   2.050   2.063   8.132 -0.9758 -1.9558 -2.0914
 5862SOL     OW29044   0.407   4.018   8.929 -0.0642  0.0714  0.1639
 5862SOL    HW129045   0.417   4.079   9.002 -0.4135  0.2407  0.0687
 5862SOL    HW229046   0.467   3.951   8.962  1.9188  2.0425  0.6175
 5863SOL     OW29047   4.309   1.701  10.292  0.4117 -0.1325 -0.5243
 5863SOL    HW129048   4.225   1.656  10.295  1.7728 -2.3408  3.0861
 5863SOL    HW229049   4.365   1.642  10.341  0.8581  0.7580  0.0484
 5864SOL     OW29050   2.860   4.011  10.697  0.2674  0.0663  0.0995
 5864SOL    HW129051   2.902   4.028  10.612 -2.8942 -0.0039 -1.4931
 5864SOL    HW229052   2.932   3.974  10.748  1.5965  1.5947 -0.6886
 5865SOL     OW29053   0.542   4.622   9.825 -0.1722 -0.2131  0.1201
 5865SOL    HW129054   0.452   4.653   9.836  0.1373  1.7231 -3.0277
 5865SOL    HW229055   0.522   4.531   9.848  1.5578 -0.1552  1.8968
 5866SOL     OW29056   3.653   2.852   1.478  0.1686 -0.4134 -1.3006
 5866SOL    HW129057   3.730   2.909   1.478 -1.3113  1.6350  3.1061
 5866SOL    HW229058   3.586   2.909   1.439  0.9271 -1.0843 -3.5979
 5867SOL     OW29059   3.838   1.794  15.054  0.5056 -0.1316 -0.3782
 5867SOL    HW129060   3.888   1.758  15.128 -0.8455  1.7330  1.4153
 5867SOL    HW229061   3.887   1.875  15.040 -3.2748  2.6902  2.8990
 5868SOL     OW29062   3.318   3.597   8.900 -0.1450 -0.7679 -0.4838
 5868SOL    HW129063   3.345   3.595   8.809 -0.8032  0.3683 -0.7135
 5868SOL    HW229064   3.319   3.691   8.921  0.3269 -0.6845 -0.8871
 5869SOL     OW29065   1.845   1.565   9.981  0.4742  0.5660 -0.5101
 5869SOL    HW129066   1.852   1.603  10.069  1.1048  1.6601 -1.0351
 5869SOL    HW229067   1.928   1.587   9.939  1.1719  0.2422  0.6863
 5870SOL     OW29068   1.249   0.437   2.094 -0.3205 -0.4187 -0.3210
 5870SOL    HW129069   1.340   0.411   2.078 -0.5305  0.0386 -2.3596
 5870SOL    HW229070   1.222   0.440   2.002 -1.6808  0.9803  0.1297
 5871SOL     OW29071   3.941   3.426  10.920 -0.0148  0.2389  0.1428
 5871SOL    HW129072   3.931   3.331  10.912 -0.2417  0.1476  1.4807
 5871SOL    HW229073   4.030   3.431  10.955 -0.0445  0.4268  0.1920
 5872SOL     OW29074   2.535   0.857   1.240 -0.0973  0.1410  0.0818
 5872SOL    HW129075   2.629   0.873   1.226 -0.4240  0.6156 -1.5597
 5872SOL    HW229076   2.534   0.789   1.307  0.8149  0.0544  0.0147
 5873SOL     OW29077   0.998   3.380   0.558  0.0660 -0.0242  0.0437
 5873SOL    HW129078   0.983   3.353   0.468  1.1827  0.4935 -0.2951
 5873SOL    HW229079   0.906   3.398   0.577 -0.3342  0.0626 -1.9825
 5874SOL     OW29080   1.151   0.400   2.503  0.3492  0.1128  0.0508
 5874SOL    HW129081   1.116   0.398   2.414 -1.0506 -1.4349  0.6408
 5874SOL    HW229082   1.242   0.374   2.485 -0.0005 -1.7184  0.9487
 5875SOL     OW29083   2.010   2.230   7.112  0.2779  0.6230  0.0571
 5875SOL    HW129084   1.920   2.262   7.117  0.8694  2.1501  1.0507
 5875SOL    HW229085   2.012   2.201   7.020  0.4629 -0.3395  0.3679
 5876SOL     OW29086   4.344   0.314   9.422  0.6628  0.3939  0.5485
 5876SOL    HW129087   4.403   0.381   9.387  1.0897  0.7098  1.8456
 5876SOL    HW229088   4.383   0.234   9.387 -1.8060  0.1459 -1.6636
 5877SOL     OW29089   2.975   4.013   5.296  0.1273 -0.5004  0.4888
 5877SOL    HW129090   3.012   4.100   5.307 -1.2221 -0.3377  3.6306
 5877SOL    HW229091   3.049   3.965   5.332  0.1712  1.2632  2.7423
 5878SOL     OW29092   2.034   1.476   3.235  0.5294  0.7514  0.6278
 5878SOL    HW129093   2.071   1.548   3.285 -1.9533  1.1791  1.8615
 5878SOL    HW229094   1.944   1.478   3.268  0.0270  0.9711 -0.7670
 5879SOL     OW29095   0.117   4.433   3.246  0.0688 -0.2476 -0.2214
 5879SOL    HW129096   0.030   4.431   3.286 -0.2448  0.2653 -0.8558
 5879SOL    HW229097   0.134   4.339   3.241 -0.7657 -0.3903 -0.3874
 5880SOL     OW29098   4.160   4.357   7.750  0.1761  0.1080  0.5011
 5880SOL    HW129099   4.078   4.401   7.729  0.2260 -0.0598 -0.0488
 5880SOL    HW229100   4.214   4.388   7.676 -0.9784  1.0582  0.0603
 5881SOL     OW29101   3.520   4.408   0.170 -0.2277 -0.0921  0.5484
 5881SOL    HW129102   3.425   4.416   0.156 -0.5155 -2.0830  1.3735
 5881SOL    HW229103   3.557   4.405   0.082 -0.8884 -0.7519  0.2896
 5882SOL     OW29104   3.299   2.291  12.585 -0.8289 -0.1546  0.5018
 5882SOL    HW129105   3.205   2.285  12.602 -1.1410  1.9209 -0.4526
 5882SOL    HW229106   3.339   2.231  12.648  2.6107  1.0251 -0.5656
 5883SOL     OW29107   0.138   2.404   8.314 -0.2492 -0.0225 -0.1033
 5883SOL    HW129108   0.134   2.475   8.249  0.3509  0.0805 -0.0263
 5883SOL    HW229109   0.095   2.450   8.387 -2.0022 -3.4140  0.9683
 5884SOL     OW29110   3.234   0.477   8.896  0.3156  1.2879 -0.2267
 5884SOL    HW129111   3.325   0.503   8.906  0.3666  0.6931  0.8273
 5884SOL    HW229112   3.203   0.475   8.987  2.4896 -0.6604  0.4662
 5885SOL     OW29113   0.925   1.467   9.833 -0.1675 -0.2245 -0.4041
 5885SOL    HW129114   0.930   1.384   9.880 -1.0785 -0.7916 -1.3140
 5885SOL    HW229115   0.934   1.539   9.895 -2.2491 -1.0403  0.8441
 5886SOL     OW29116   0.645   4.479   1.551 -0.6531 -0.0975  0.5623
 5886SOL    HW129117   0.594   4.437   1.620 -1.8599 -0.9736 -0.8710
 5886SOL    HW229118   0.617   4.569   1.566  1.4193  0.4795  1.0810
 5887SOL     OW29119   1.343   3.585   1.833  0.1411 -0.4669 -0.0143
 5887SOL    HW129120   1.255   3.593   1.796 -0.2103  0.0850  0.9471
 5887SOL    HW229121   1.397   3.607   1.757 -0.1136  0.0172 -0.0504
 5888SOL     OW29122   1.888   0.748   4.861 -0.2518 -0.2066 -0.3514
 5888SOL    HW129123   1.942   0.679   4.898 -0.1712  0.0715  0.0503
 5888SOL    HW229124   1.804   0.718   4.896 -0.6749 -0.1315 -1.3270
 5889SOL     OW29125   0.984   4.083  14.271  0.0287  0.1003 -0.2457
 5889SOL    HW129126   0.908   4.105  14.217 -1.6618 -0.6590  1.8557
 5889SOL    HW229127   1.026   4.025  14.207  0.1404  1.0872 -1.0725
 5890SOL     OW29128   0.545   4.703   3.783  0.7363 -0.3211 -0.2337
 5890SOL    HW129129   0.584   0.039   3.846 -0.4019  1.2092 -1.0057
 5890SOL    HW229130   0.618   4.682   3.725  0.7514 -0.1742 -0.2680
 5891SOL     OW29131   4.047   4.689   7.929  0.1602  0.2379 -0.2101
 5891SOL    HW129132   4.012   4.621   7.987  0.0913 -0.4007 -1.0002
 5891SOL    HW229133   4.110   4.634   7.882  1.0429 -0.1491  1.4263
 5892SOL     OW29134   0.644   2.751   1.252  0.1233  0.5258  0.3801
 5892SOL    HW129135   0.695   2.822   1.213 -0.3961 -0.0372 -1.3054
 5892SOL    HW229136   0.587   2.806   1.307  0.9968 -1.5357  3.3603
 5893SOL     OW29137   0.937   3.222  10.780  0.0363  0.5405  0.5830
 5893SOL    HW129138   0.944   3.148  10.720 -1.4767 -0.5178  1.6974
 5893SOL    HW229139   0.842   3.222  10.789  0.2712  0.9881  3.1451
 5894SOL     OW29140   1.246   0.311   5.600  0.1287 -0.3876  0.3475
 5894SOL    HW129141   1.274   0.342   5.513  3.1451  2.9358  2.4745
 5894SOL    HW229142   1.281   0.222   5.601 -0.0498 -0.4289  2.7284
 5895SOL     OW29143   0.006   0.768   5.108 -0.3744 -0.5306 -0.3068
 5895SOL    HW129144   0.029   0.690   5.158  0.0931  0.0763  0.4337
 5895SOL    HW229145   4.673   0.826   5.158  0.7053 -0.9243  1.3613
 5896SOL     OW29146   4.325   1.993  17.491  0.2357  0.4742 -0.0917
 5896SOL    HW129147   4.329   1.906  17.452 -2.3299  0.8373 -1.1898
 5896SOL    HW229148   4.282   1.989  17.576 -0.5905 -0.6884 -0.5809
 5897SOL     OW29149   3.589   3.541   7.676  0.1094 -0.1453 -0.3005
 5897SOL    HW129150   3.562   3.550   7.767 -0.1735  1.0423 -0.4988
 5897SOL    HW229151   3.569   3.454   7.642  0.0981  0.1615 -1.0908
 5898SOL     OW29152   4.544   3.229  13.249 -0.0026  0.2215 -0.2078
 5898SOL    HW129153   4.482   3.235  13.176 -1.9299  0.0959  1.4124
 5898SOL    HW229154   4.628   3.249  13.208  0.4746  1.0480  1.1757
 5899SOL     OW29155   2.892   4.244   6.529 -0.1760  0.0806  0.2555
 5899SOL    HW129156   2.804   4.254   6.492  0.0217  0.0067 -0.2355
 5899SOL    HW229157   2.951   4.244   6.454  2.5137  0.9992  2.3658
 5900SOL     OW29158   4.198   0.952   8.139 -0.1568 -0.0197 -0.6260
 5900SOL    HW129159   4.123   0.946   8.197 -0.2855 -0.6225 -0.8575
 5900SOL    HW229160   4.162   0.990   8.059  0.4746  0.4555 -0.6839
 5901SOL     OW29161   3.474   3.684   8.692 -0.5666  0.0467  0.0413
 5901SOL    HW129162   3.457   3.592   8.670 -2.2038  0.2743  0.3789
 5901SOL    HW229163   3.570   3.684   8.689 -0.5600 -1.5027  0.1506
 5902SOL     OW29164   3.544   3.368   3.363  0.3757 -0.1789 -0.3808
 5902SOL    HW129165   3.572   3.460   3.361  2.0368 -0.6510  1.3311
 5902SOL    HW229166   3.591   3.339   3.284  3.1557 -1.1925  1.6476
 5903SOL     OW29167   0.622   4.619  15.607  0.3049  0.1928  0.1843
 5903SOL    HW129168   0.569   4.571  15.670  0.0531 -0.8844 -0.8540
 5903SOL    HW229169   0.597   4.566  15.532  1.0155  1.7862 -1.1765
 5904SOL     OW29170   1.083   2.340   2.810 -0.2541 -0.0727 -0.3802
 5904SOL    HW129171   1.044   2.367   2.727  2.5434  2.9396 -0.6898
 5904SOL    HW229172   1.095   2.247   2.792 -1.4899 -0.5555  1.3193
 5905SOL     OW29173   0.663   3.327   6.792 -0.4734 -0.1114  0.3703
 5905SOL    HW129174   0.665   3.420   6.818 -1.5803 -0.1687  0.6387
 5905SOL    HW229175   0.741   3.294   6.837  0.5932  0.7792 -0.8402
 5906SOL     OW29176   2.609   2.038   2.837 -0.2729  0.0555  0.0149
 5906SOL    HW129177   2.580   2.062   2.749  1.0914 -1.1099 -0.7588
 5906SOL    HW229178   2.589   1.946   2.852 -0.0704 -0.2815 -1.7588
 5907SOL     OW29179   1.285   2.856   1.478  0.2082 -0.1428 -0.2189
 5907SOL    HW129180   1.194   2.884   1.466  0.8120  2.1295  0.4248
 5907SOL    HW229181   1.269   2.762   1.480  1.1954 -0.3057  0.2815
 5908SOL     OW29182   2.274   2.118  11.381 -0.2728  0.2506 -0.6931
 5908SOL    HW129183   2.289   2.115  11.476 -2.9977 -1.9501 -0.3132
 5908SOL    HW229184   2.179   2.126  11.381 -0.2559  0.5434  0.2471
 5909SOL     OW29185   1.052   1.978   8.205  0.0852 -0.1430  0.7996
 5909SOL    HW129186   1.092   1.997   8.120  0.8136 -1.1891  0.9117
 5909SOL    HW229187   0.960   1.969   8.180 -0.4858 -0.4358  2.9991
 5910SOL     OW29188   4.480   2.683   7.844  0.0810  0.2048  0.1588
 5910SOL    HW129189   4.436   2.690   7.759  3.7871  0.4713 -1.7433
 5910SOL    HW229190   4.571   2.699   7.818  0.5450 -1.9844  0.4112
 5911SOL     OW29191   3.647   0.524   3.114 -0.0879 -0.0820  0.1728
 5911SOL    HW129192   3.660   0.456   3.048  2.8330  0.2274  0.4533
 5911SOL    HW229193   3.582   0.581   3.071  0.4607 -0.8442 -1.6808
 5912SOL     OW29194   3.156   1.978  13.289 -0.3989 -0.0087  0.2333
 5912SOL    HW129195   3.142   2.034  13.366 -0.5651 -0.4311  0.5111
 5912SOL    HW229196   3.109   1.898  13.314 -2.4033  1.5480  1.5123
 5913SOL     OW29197   4.444   2.164   7.945  0.1974  0.4720  0.4439
 5913SOL    HW129198   4.429   2.258   7.938 -3.5713 -0.1403  0.3389
 5913SOL    HW229199   4.447   2.149   8.040  0.4220 -0.9285  0.2145
 5914SOL     OW29200   3.110   2.724   4.459 -0.5769 -0.3538  0.1370
 5914SOL    HW129201   3.063   2.808   4.464  2.2733  1.2273  0.3451
 5914SOL    HW229202   3.076   2.690   4.377 -1.7651  2.5924 -0.5757
 5915SOL     OW29203   4.507   1.242   8.132  0.2765  0.4009 -0.3408
 5915SOL    HW129204   4.462   1.184   8.193  1.9059 -1.4233 -0.8560
 5915SOL    HW229205   4.596   1.255   8.165  0.5183 -2.1298 -0.0114
 5916SOL     OW29206   4.032   3.840   4.670 -0.2949  0.5213 -0.0078
 5916SOL    HW129207   3.951   3.794   4.694  2.4075 -2.2827  3.8160
 5916SOL    HW229208   4.004   3.927   4.697  0.1713  0.6402  0.0956
 5917SOL     OW29209   2.831   1.228   8.995 -0.0739  0.1607 -0.0759
 5917SOL    HW129210   2.874   1.305   9.034  0.8469 -0.6894  0.5740
 5917SOL    HW229211   2.857   1.152   9.047 -0.5355 -0.7903 -1.2412
 5918SOL     OW29212   2.188   1.772   6.320  0.2850 -0.5652 -0.4027
 5918SOL    HW129213   2.180   1.841   6.386 -0.1084 -1.6680  0.7160
 5918SOL    HW229214   2.191   1.704   6.388 -2.2210 -0.6318 -0.3661
 5919SOL     OW29215   1.868   0.477  14.453 -0.3548 -0.3176 -0.5665
 5919SOL    HW129216   1.809   0.509  14.521 -1.6339 -0.4977 -1.5965
 5919SOL    HW229217   1.879   0.546  14.388 -1.3536 -0.3184 -0.7365
 5920SOL     OW29218   1.134   0.881   5.077  0.0754 -0.1335  0.7893
 5920SOL    HW129219   1.121   0.914   4.988  0.5450  1.2263  1.2252
 5920SOL    HW229220   1.046   0.854   5.102  0.0756 -0.7624  0.1091
 5921SOL     OW29221   2.453   1.302   7.490  0.0993 -0.0311  0.0058
 5921SOL    HW129222   2.513   1.293   7.416 -2.2137 -2.6532 -1.5288
 5921SOL    HW229223   2.503   1.273   7.566 -0.0380 -0.6638 -0.1471
 5922SOL     OW29224   1.199   2.999  11.654  0.0790  0.2646  0.7081
 5922SOL    HW129225   1.235   3.085  11.631 -0.1917  0.7957  2.2515
 5922SOL    HW229226   1.125   3.025  11.709 -0.9066  2.3037 -1.6071
 5923SOL     OW29227   0.741   0.127   3.295 -0.0038 -0.4515 -1.0331
 5923SOL    HW129228   0.771   0.043   3.328 -2.1485 -0.7168  0.2252
 5923SOL    HW229229   0.815   0.150   3.239  0.7933 -0.2796  0.1147
 5924SOL     OW29230   1.894   2.170   8.161 -0.2975 -0.4762 -0.1042
 5924SOL    HW129231   1.910   2.225   8.238 -1.1405 -1.6647  0.9146
 5924SOL    HW229232   1.806   2.134   8.171 -0.6577  0.9740  1.9820
 5925SOL     OW29233   0.999   3.467   3.761  0.1862  0.1028 -0.2733
 5925SOL    HW129234   0.949   3.542   3.728 -1.3319 -1.7002 -2.1169
 5925SOL    HW229235   0.972   3.400   3.697 -2.1885  2.6332 -1.9052
 5926SOL     OW29236   2.017   2.594  11.673  0.1051  0.0126 -0.4813
 5926SOL    HW129237   1.948   2.628  11.729 -1.5765 -1.8189 -1.4342
 5926SOL    HW229238   2.088   2.656  11.690  0.2855 -0.9627  2.3857
 5927SOL     OW29239   0.976   0.274   4.756  0.2155 -0.5521 -0.0718
 5927SOL    HW129240   0.901   0.288   4.698 -0.4776 -2.1535  0.4594
 5927SOL    HW229241   1.008   0.364   4.768 -1.5534  0.2063 -1.0263
 5928SOL     OW29242   3.646   3.693   7.144  0.0214  0.5020  0.2590
 5928SOL    HW129243   3.619   3.604   7.123  0.3338  0.7830 -1.3406
 5928SOL    HW229244   3.741   3.683   7.150 -0.0630 -0.8949 -0.7052
 5929SOL     OW29245   1.227   4.055   8.251 -0.3788  0.4731 -0.9454
 5929SOL    HW129246   1.281   4.065   8.329  1.2964  2.6734 -2.3718
 5929SOL    HW229247   1.243   3.962   8.237 -0.0420 -0.0734  3.1609
 5930SOL     OW29248   3.329   4.484  16.148  0.1804  0.0616  0.0393
 5930SOL    HW129249   3.318   4.565  16.099  0.1966  0.5883  0.9003
 5930SOL    HW229250   3.331   4.521  16.236  1.0587 -0.1431  0.0998
 5931SOL     OW29251   3.200   1.490   8.118 -0.1535  0.8389 -0.5523
 5931SOL    HW129252   3.197   1.585   8.114  2.3033  1.1051  3.6375
 5931SOL    HW229253   3.294   1.482   8.099 -0.4545 -3.3015 -0.3009
 5932SOL     OW29254   4.333   1.173  13.975 -0.0901  0.5871 -0.1594
 5932SOL    HW129255   4.347   1.267  13.965 -2.1482  0.9788  0.6482
 5932SOL    HW229256   4.284   1.154  13.895 -0.5800 -0.4386  0.3775
 5933SOL     OW29257   1.514   1.489  17.505  0.8451  0.2628  0.1162
 5933SOL    HW129258   1.500   1.514  17.414  1.2259  1.7995  0.4859
 5933SOL    HW229259   1.425   1.490  17.539  0.2746  0.0844 -1.3881
 5934SOL     OW29260   1.439   1.853   7.013  0.6613  0.1387  0.6729
 5934SOL    HW129261   1.364   1.858   6.953  0.7452 -4.2336  0.2236
 5934SOL    HW229262   1.470   1.763   7.002 -1.4607 -0.5881  0.6488
 5935SOL     OW29263   0.449   3.575   4.447 -0.2900 -0.5472 -0.0476
 5935SOL    HW129264   0.391   3.650   4.455 -1.1693 -1.1176 -1.0981
 5935SOL    HW229265   0.506   3.591   4.522  1.1720 -0.2007 -1.2175
 5936SOL     OW29266   4.341   0.915  10.339 -0.5923 -0.1643 -0.2929
 5936SOL    HW129267   4.313   0.828  10.367  1.9763 -0.0237  2.7138
 5936SOL    HW229268   4.362   0.954  10.424  0.6112  1.5384 -1.3760
 5937SOL     OW29269   0.874   0.955  11.721 -0.3505  0.1821  0.1144
 5937SOL    HW129270   0.798   1.005  11.693  0.1233  0.9856  0.2742
 5937SOL    HW229271   0.929   0.943  11.644  0.0077 -0.8218  0.5203
 5938SOL     OW29272   4.305   1.454   8.153  0.3998  0.5391 -0.0525
 5938SOL    HW129273   4.272   1.495   8.073 -1.3805 -0.1235  0.3505
 5938SOL    HW229274   4.384   1.409   8.123  1.6804  2.4365  0.4100
 5939SOL     OW29275   0.555   2.224  12.236  0.2714 -0.2157 -0.3001
 5939SOL    HW129276   0.524   2.285  12.303  0.6101 -1.6370  1.1364
 5939SOL    HW229277   0.600   2.284  12.176 -0.9727 -0.5101 -1.5215
 5940SOL     OW29278   2.529   2.018   9.141  0.4260  0.1245  0.2837
 5940SOL    HW129279   2.464   2.062   9.195 -1.0356 -1.7096  0.0410
 5940SOL    HW229280   2.513   2.069   9.062 -0.2540  0.7489  0.8221
 5941SOL     OW29281   1.844   1.942   6.083  0.5214 -0.0330 -0.3132
 5941SOL    HW129282   1.929   1.900   6.065  1.5992  1.6370  0.8414
 5941SOL    HW229283   1.786   1.875   6.117  0.6929  0.0114  0.0698
 5942SOL     OW29284   3.446   1.318   8.269  0.1410 -0.0646 -0.8609
 5942SOL    HW129285   3.499   1.392   8.299  0.9990 -0.3391 -1.7061
 5942SOL    HW229286   3.474   1.307   8.178 -2.0302 -2.2262 -1.2630
 5943SOL     OW29287   1.132   3.686  10.509 -0.1148 -0.1262 -0.4274
 5943SOL    HW129288   1.064   3.710  10.573  2.0311  1.3526  1.2911
 5943SOL    HW229289   1.197   3.661  10.575 -1.5742  1.2433  1.5405
 5944SOL     OW29290   2.790   4.668  11.553 -0.2225  0.1939 -0.8371
 5944SOL    HW129291   2.809   0.037  11.551  0.5811  0.0492  0.8646
 5944SOL    HW229292   2.794   4.646  11.646 -0.6840 -0.0297 -0.8679
 5945SOL     OW29293   4.110   2.842  10.067  0.3972  0.3853 -0.0692
 5945SOL    HW129294   4.161   2.887   9.999 -0.9961  1.4475 -0.4162
 5945SOL    HW229295   4.095   2.911  10.131 -0.3474  0.8547 -0.7485
 5946SOL     OW29296   3.775   0.355   8.832 -0.8891 -0.0033  0.3046
 5946SOL    HW129297   3.827   0.326   8.907 -0.7926 -1.8524 -0.4933
 5946SOL    HW229298   3.841   0.330   8.768 -1.0165  2.7207 -0.9168
 5947SOL     OW29299   0.138   3.867   5.762 -0.1668  0.0239 -0.0590
 5947SOL    HW129300   0.075   3.830   5.700  0.1825  0.9546 -0.9471
 5947SOL    HW229301   0.217   3.838   5.716  0.6407  0.5090  1.0236
 5948SOL     OW29302   4.509   2.369   8.237  0.0153 -0.3594  0.8423
 5948SOL    HW129303   4.501   2.443   8.296  0.7659  1.3776 -1.2139
 5948SOL    HW229304   4.461   2.301   8.284 -0.1342  0.3248  1.6652
 5949SOL     OW29305   0.078   4.090   8.305 -0.3580 -0.5546 -0.0190
 5949SOL    HW129306   0.160   4.136   8.325 -0.2004 -0.4102 -0.9741
 5949SOL    HW229307   0.066   4.101   8.211  0.0410 -0.1727 -0.0253
 5950SOL     OW29308   3.065   2.151   7.473  0.0970 -0.2828 -0.1393
 5950SOL    HW129309   3.128   2.100   7.423  0.5268  1.9788 -1.8941
 5950SOL    HW229310   3.022   2.089   7.532 -0.2210  0.2841  0.2267
 5951SOL     OW29311   3.720   0.070   5.586  0.3459 -0.0592 -0.3091
 5951SOL    HW129312   3.681   0.052   5.500 -4.4348 -0.6185  1.9854
 5951SOL    HW229313   3.789   0.136   5.579  1.9912 -1.5077  2.7008
 5952SOL     OW29314   1.455   2.121   1.938  0.0121 -0.2124  0.2804
 5952SOL    HW129315   1.490   2.088   1.856 -1.5734 -0.7087 -0.2001
 5952SOL    HW229316   1.486   2.211   1.949  0.3085  0.0933 -3.3167
 5953SOL     OW29317   3.535   3.036  17.182 -0.6777 -0.5270 -0.0611
 5953SOL    HW129318   3.495   3.096  17.245  2.2810  0.2552  1.0972
 5953SOL    HW229319   3.610   3.088  17.154  0.5209 -1.7633  0.7973
 5954SOL     OW29320   1.745   4.003   6.490  0.1670  0.0266  0.3913
 5954SOL    HW129321   1.785   4.032   6.408 -1.5513  1.3998  0.0529
 5954SOL    HW229322   1.817   3.982   6.550 -0.1632 -0.8383  0.4905
 5955SOL     OW29323   1.862   1.900   5.639  0.1016 -0.6777 -0.1592
 5955SOL    HW129324   1.903   1.942   5.563  3.1087 -3.0871  0.1605
 5955SOL    HW229325   1.877   1.964   5.709 -1.8068 -0.7067  0.2889
 5956SOL     OW29326   1.860   3.096  15.041 -0.2880  0.4785 -0.0577
 5956SOL    HW129327   1.839   3.066  14.952  0.6734  0.7042 -0.3566
 5956SOL    HW229328   1.795   3.047  15.093  2.1540 -3.4944 -0.7292
 5957SOL     OW29329   3.459   1.811   5.271 -0.6237  0.1615  0.6991
 5957SOL    HW129330   3.542   1.770   5.248 -0.7349  0.4492 -0.2038
 5957SOL    HW229331   3.403   1.802   5.194  0.1254 -1.9172  0.3955
 5958SOL     OW29332   3.750   2.171   4.607  0.3692  0.0279 -0.2311
 5958SOL    HW129333   3.702   2.152   4.526  0.1018  0.2047 -0.1127
 5958SOL    HW229334   3.805   2.245   4.579  0.3605  0.5804  1.2265
 5959SOL     OW29335   2.371   2.859   8.850 -0.1107 -0.5103 -0.9109
 5959SOL    HW129336   2.410   2.811   8.924 -0.6409  0.8113  0.2258
 5959SOL    HW229337   2.447   2.864   8.792  0.3278 -0.7098 -0.3596
 5960SOL     OW29338   1.091   0.623   3.262  0.0140 -0.0441  0.1924
 5960SOL    HW129339   1.084   0.534   3.227  0.1039  0.0699 -0.1173
 5960SOL    HW229340   1.054   0.673   3.189  2.1430  0.0885 -0.7847
 5961SOL     OW29341   3.257   2.777   5.039  0.5470  0.1144 -0.0164
 5961SOL    HW129342   3.184   2.765   5.099 -2.0125  1.5368 -2.8866
 5961SOL    HW229343   3.219   2.761   4.953  1.5096 -2.1500 -0.0107
 5962SOL     OW29344   4.163   3.894   5.614  0.3567  0.2762  0.3831
 5962SOL    HW129345   4.177   3.895   5.709  0.5209  0.3432  0.3581
 5962SOL    HW229346   4.252   3.890   5.580 -0.6178 -1.2411 -1.9735
 5963SOL     OW29347   4.418   0.204   7.453 -0.0400 -0.6817  0.4066
 5963SOL    HW129348   4.435   0.151   7.531 -0.6565 -0.7072  0.5218
 5963SOL    HW229349   4.391   0.280   7.505 -2.5786 -0.3163 -1.4674
 5964SOL     OW29350   2.391   3.306  11.669  1.1276 -0.1620 -0.1883
 5964SOL    HW129351   2.388   3.391  11.625  1.7317 -1.2140 -2.2654
 5964SOL    HW229352   2.327   3.261  11.614 -0.7904  1.2119  0.9279
 5965SOL     OW29353   0.708   0.067   2.010  0.4180  0.1552  0.4582
 5965SOL    HW129354   0.634   0.127   2.003  0.7293  0.4488 -0.2727
 5965SOL    HW229355   0.761   0.131   2.059  1.8576  1.3213 -2.6579
 5966SOL     OW29356   2.778   2.737   9.264  0.1570  0.2599 -0.3832
 5966SOL    HW129357   2.864   2.702   9.287  0.3534  1.1384  0.2379
 5966SOL    HW229358   2.790   2.817   9.211  2.3279 -0.0803 -0.3805
 5967SOL     OW29359   0.308   2.322   8.905  0.4601  0.2628  0.4125
 5967SOL    HW129360   0.346   2.277   8.829  0.7925  0.4265  0.4819
 5967SOL    HW229361   0.276   2.250   8.960 -1.2416  1.2662  0.7139
 5968SOL     OW29362   3.400   1.166   6.544 -0.2319  0.6591  0.3070
 5968SOL    HW129363   3.419   1.257   6.518 -3.8408  0.7656 -2.0233
 5968SOL    HW229364   3.401   1.114   6.464 -0.1909 -1.0359  1.4255
 5969SOL     OW29365   0.820   3.312   3.583 -0.2265 -0.1606 -0.1196
 5969SOL    HW129366   0.780   3.263   3.511 -0.9982  1.7492 -0.9897
 5969SOL    HW229367   0.763   3.381   3.614  1.9763  1.5151  0.2313
 5970SOL     OW29368   1.877   1.814   7.545 -0.9183  0.0508 -0.1844
 5970SOL    HW129369   1.858   1.815   7.451  0.9322 -1.0164 -0.5587
 5970SOL    HW229370   1.844   1.725   7.561 -0.4303  0.2734  2.0472
 5971SOL     OW29371   0.780   2.413   6.021  0.4762  0.6540  0.0354
 5971SOL    HW129372   0.695   2.436   6.060  0.2319 -0.1474 -0.0227
 5971SOL    HW229373   0.746   2.357   5.951  0.4412  0.9132 -0.1527
 5972SOL     OW29374   1.860   0.980   5.552  0.0114 -0.1045 -0.2154
 5972SOL    HW129375   1.907   0.972   5.469 -0.8684 -2.6233 -0.4724
 5972SOL    HW229376   1.833   1.072   5.557 -0.8959 -0.4736  1.7818
 5973SOL     OW29377   2.037   0.814   5.957 -0.5963 -0.1522  0.2203
 5973SOL    HW129378   2.070   0.751   6.021 -0.0170  0.8764  0.9476
 5973SOL    HW229379   2.121   0.857   5.938 -0.4884 -1.4266 -2.0742
 5974SOL     OW29380   3.072   0.826  16.188 -0.4016 -0.4134 -0.6552
 5974SOL    HW129381   3.034   0.902  16.231  1.7461  0.2776  0.0095
 5974SOL    HW229382   3.085   0.765  16.261  0.4013 -0.9600 -1.2493
 5975SOL     OW29383   1.652   3.212   4.892  0.6280  0.2528 -0.1492
 5975SOL    HW129384   1.619   3.124   4.872  1.2261 -0.0885  0.3543
 5975SOL    HW229385   1.684   3.192   4.980 -1.1429  0.3518  0.5151
 5976SOL     OW29386   2.466   1.427  10.412  0.4891 -0.3789  0.9007
 5976SOL    HW129387   2.400   1.486  10.449 -0.2182 -1.3972  1.2666
 5976SOL    HW229388   2.513   1.488  10.355 -0.0645  0.5197  1.4056
 5977SOL     OW29389   0.369   0.678   3.806 -0.0427 -0.3999 -0.1835
 5977SOL    HW129390   0.439   0.658   3.744  0.0764  3.2614 -1.2035
 5977SOL    HW229391   0.321   0.596   3.792 -0.4919  0.3641 -2.8924
 5978SOL     OW29392   4.536   4.396   0.819  0.8213  0.2250 -0.3682
 5978SOL    HW129393   4.574   4.417   0.733  1.5419  2.0941  0.4009
 5978SOL    HW229394   4.446   4.397   0.787 -0.1118  1.6281  2.3095
 5979SOL     OW29395   2.840   2.899  13.273  0.3355  0.1385 -0.6271
 5979SOL    HW129396   2.894   2.962  13.320  0.0491  2.0113 -2.8070
 5979SOL    HW229397   2.763   2.891  13.330  0.3861  1.6231 -0.3444
 5980SOL     OW29398   2.617   4.209   6.781  0.3862  0.0260  0.0456
 5980SOL    HW129399   2.587   4.130   6.825 -0.2882  0.7938  0.9772
 5980SOL    HW229400   2.690   4.176   6.729 -0.5280 -0.7484 -0.7561
 5981SOL     OW29401   4.602   3.736  14.743 -0.4201 -0.2761 -0.0375
 5981SOL    HW129402   4.563   3.792  14.675 -0.7389 -2.4667 -1.6387
 5981SOL    HW229403   4.581   3.796  14.815 -1.1865 -0.3459 -0.2026
 5982SOL     OW29404   0.731   0.234   4.473  0.0866  0.2021 -0.3005
 5982SOL    HW129405   0.719   0.170   4.403 -2.1092 -1.0409  1.2232
 5982SOL    HW229406   0.673   0.185   4.531 -0.9562  1.8598  0.0515
 5983SOL     OW29407   3.983   3.294  11.271 -0.1799  0.0704  0.3891
 5983SOL    HW129408   3.901   3.263  11.310 -0.7879  1.4480  0.2093
 5983SOL    HW229409   4.034   3.214  11.261 -1.4917 -0.7008 -0.2587
 5984SOL     OW29410   3.794   0.304   4.886  0.3528 -0.3834  0.6867
 5984SOL    HW129411   3.837   0.350   4.958  0.4207 -0.8937  0.9684
 5984SOL    HW229412   3.866   0.289   4.825 -0.7188 -0.8881 -0.4474
 5985SOL     OW29413   4.004   1.938   0.708 -0.2316 -0.6664  0.5875
 5985SOL    HW129414   4.092   1.946   0.745  0.4248  2.2973 -1.6503
 5985SOL    HW229415   3.954   2.013   0.741 -0.9527 -0.6027 -0.6826
 5986SOL     OW29416   2.519   3.607   3.065 -0.2627 -0.2814  0.4137
 5986SOL    HW129417   2.445   3.584   3.010 -1.0328  2.3682  0.3526
 5986SOL    HW229418   2.563   3.522   3.060 -1.0717 -0.6372 -0.6831
 5987SOL     OW29419   1.305   1.450  17.097 -0.4723 -0.0347 -0.3054
 5987SOL    HW129420   1.306   1.465  17.002 -1.3857 -2.0599 -0.6266
 5987SOL    HW229421   1.211   1.448  17.118  0.0275 -1.9841  1.6916
 5988SOL     OW29422   3.519   0.455   2.583  0.1125  0.1957 -0.0422
 5988SOL    HW129423   3.554   0.490   2.501  0.5790  2.5933  1.1869
 5988SOL    HW229424   3.587   0.495   2.637 -1.2584  3.9856 -1.1592
 5989SOL     OW29425   0.397   0.460  16.151  0.2999  0.1649  0.1440
 5989SOL    HW129426   0.403   0.551  16.179  0.4066  0.0639  0.4526
 5989SOL    HW229427   0.472   0.459  16.092 -0.3754 -2.5987 -0.7012
 5990SOL     OW29428   2.083   4.390   7.383 -0.3860 -0.5266  0.6134
 5990SOL    HW129429   2.030   4.469   7.393 -0.5321 -0.0256 -3.9855
 5990SOL    HW229430   2.045   4.337   7.453  1.3670 -2.7011 -0.0854
 5991SOL     OW29431   1.516   4.000  14.446 -0.9856  0.2731  0.1082
 5991SOL    HW129432   1.450   3.931  14.440 -2.1404  1.4229 -0.3485
 5991SOL    HW229433   1.462   4.078  14.450 -0.1750  0.8537 -0.2868
 5992SOL     OW29434   1.177   1.672   5.262  0.2756 -0.5017 -0.6619
 5992SOL    HW129435   1.201   1.588   5.301  0.5459  0.2108  0.7454
 5992SOL    HW229436   1.112   1.713   5.319  1.8257  1.0452  0.0128
 5993SOL     OW29437   2.728   4.046   7.121 -0.4565  0.9898 -0.1025
 5993SOL    HW129438   2.672   4.123   7.129  0.1059  1.3953 -0.1391
 5993SOL    HW229439   2.685   3.997   7.050  3.1742 -1.9415 -0.2711
 5994SOL     OW29440   1.466   3.035   8.022  0.4263  0.4303 -0.8141
 5994SOL    HW129441   1.426   2.948   8.013 -1.0382  1.4155 -3.7798
 5994SOL    HW229442   1.494   3.032   8.114  2.1713 -0.1237 -1.3555
 5995SOL     OW29443   0.331   2.752   2.293 -0.5196  0.2286 -0.2628
 5995SOL    HW129444   0.361   2.774   2.381 -1.2589 -0.0798  0.0635
 5995SOL    HW229445   0.325   2.657   2.302 -1.0997  0.3678  0.7135
 5996SOL     OW29446   3.160   4.300   5.186  0.3538 -0.1232 -0.3483
 5996SOL    HW129447   3.141   4.229   5.124 -0.4036  0.1453 -0.4253
 5996SOL    HW229448   3.078   4.349   5.178  0.3835 -0.1585 -0.8832
 5997SOL     OW29449   1.046   2.849   7.091  0.0363 -0.0919 -0.4466
 5997SOL    HW129450   0.953   2.865   7.074 -0.2427 -0.6132  0.5739
 5997SOL    HW229451   1.075   2.834   7.001 -0.4879  1.1482 -0.8191
 5998SOL     OW29452   1.575   2.059  10.665  0.3263 -0.3859  0.0650
 5998SOL    HW129453   1.595   1.988  10.604  2.8283  0.5947 -0.2649
 5998SOL    HW229454   1.546   2.132  10.612 -1.1029 -1.3664 -0.4866
 5999SOL     OW29455   1.374   0.550   3.201 -0.4040 -0.1472 -0.2657
 5999SOL    HW129456   1.324   0.561   3.282  0.8317 -0.2574  0.5093
 5999SOL    HW229457   1.309   0.529   3.134  0.3847  0.4357 -1.2125
 6000SOL     OW29458   1.976   0.471   9.497 -0.0334  0.1150  0.2222
 6000SOL    HW129459   2.056   0.429   9.528 -0.0911 -1.7563 -2.0588
 6000SOL    HW229460   1.949   0.430   9.414  2.1799  0.6505 -0.7549
 6001SOL     OW29461   4.590   1.279   6.269 -0.2344 -0.0498  0.4778
 6001SOL    HW129462   4.615   1.265   6.178 -0.2184 -1.1289  0.6441
 6001SOL    HW229463   4.495   1.290   6.264 -0.6553 -3.7408  0.4147
 6002SOL     OW29464   4.561   3.971  10.830  0.2775 -0.0075 -0.6518
 6002SOL    HW129465   4.609   3.888  10.832 -0.4000 -0.3264  2.6264
 6002SOL    HW229466   4.553   3.982  10.735 -2.0828  0.3544 -0.4211
 6003SOL     OW29467   3.655   1.624   2.627 -0.4042 -0.1581 -0.6277
 6003SOL    HW129468   3.563   1.642   2.645 -0.9973 -1.4139 -2.3774
 6003SOL    HW229469   3.657   1.668   2.542 -0.4974 -0.0127 -0.5544
 6004SOL     OW29470   2.878   2.744   3.075  0.3339 -0.1468 -0.1784
 6004SOL    HW129471   2.921   2.828   3.056  0.6134  0.1770  1.8985
 6004SOL    HW229472   2.876   2.741   3.171 -1.2453  0.4502 -0.2021
 6005SOL     OW29473   2.237   4.197   1.946  0.5845  0.7420  0.2480
 6005SOL    HW129474   2.279   4.273   1.987  0.0495  0.8703  0.5530
 6005SOL    HW229475   2.186   4.248   1.883  0.4716  1.5850  1.0168
 6006SOL     OW29476   3.418   0.632  12.958 -0.1150 -0.7226  0.5635
 6006SOL    HW129477   3.456   0.551  12.992  0.2798 -0.3578  1.0057
 6006SOL    HW229478   3.504   0.674  12.952 -0.7389  0.3154 -1.0234
 6007SOL     OW29479   0.151   0.624  15.467 -0.0376 -0.2868 -0.6639
 6007SOL    HW129480   0.122   0.536  15.492  1.0309 -0.4134  0.1290
 6007SOL    HW229481   0.243   0.634  15.493  1.0280 -1.6368 -3.8797
 6008SOL     OW29482   2.231   1.476   4.072  0.1889  0.6425  0.1585
 6008SOL    HW129483   2.288   1.486   3.996 -1.2006  0.6940 -0.8692
 6008SOL    HW229484   2.168   1.547   4.063 -3.8081 -2.6332  2.1677
 6009SOL     OW29485   4.481   4.293  11.882  0.1152  0.3387 -0.1276
 6009SOL    HW129486   4.465   4.356  11.812  0.5510 -1.4138 -1.7811
 6009SOL    HW229487   4.408   4.312  11.942  0.8568 -0.0436  0.8834
 6010SOL     OW29488   3.290   0.158   7.146 -0.3947 -0.0365 -1.1115
 6010SOL    HW129489   3.310   0.167   7.053  0.1996 -0.3920 -1.0170
 6010SOL    HW229490   3.208   0.109   7.144  0.1556 -1.0009 -0.0864
 6011SOL     OW29491   4.002   4.353   5.838  0.4186 -0.5045 -0.3605
 6011SOL    HW129492   3.956   4.436   5.845  1.8898  0.2961 -0.2879
 6011SOL    HW229493   3.952   4.310   5.768  1.5490 -0.8738 -0.9410
 6012SOL     OW29494   0.921   3.076   6.454  0.1014 -0.1100 -0.0738
 6012SOL    HW129495   1.012   3.103   6.470  1.0245 -2.2027 -1.6623
 6012SOL    HW229496   0.933   3.011   6.384  1.3424  0.0440 -0.0103
 6013SOL     OW29497   1.063   2.845  14.688 -0.2965  0.4441 -0.2670
 6013SOL    HW129498   1.002   2.841  14.614  2.0089  0.1907 -2.1240
 6013SOL    HW229499   1.046   2.764  14.737  1.0713 -0.8358 -1.9205
 6014SOL     OW29500   2.316   1.935   3.072 -0.2793  0.3797 -0.0520
 6014SOL    HW129501   2.380   1.866   3.056  1.2002  1.8629 -0.5900
 6014SOL    HW229502   2.244   1.904   3.017 -0.8502  1.4016  0.1145
 6015SOL     OW29503   4.544   3.012   9.126 -0.1552 -0.1264 -0.2770
 6015SOL    HW129504   4.470   3.039   9.180  0.5300  1.1169  0.0532
 6015SOL    HW229505   4.603   2.969   9.189 -2.0247 -0.0202  1.5316
 6016SOL     OW29506   1.296   2.399  10.223 -0.1394 -0.4097 -0.0740
 6016SOL    HW129507   1.383   2.398  10.183 -0.6673 -0.2362 -1.2284
 6016SOL    HW229508   1.296   2.478  10.278  0.2449  0.4598 -1.3173
 6017SOL     OW29509   2.349   3.390  13.478  0.3573 -0.6371  0.1262
 6017SOL    HW129510   2.264   3.368  13.440  1.6012  1.1361 -3.6846
 6017SOL    HW229511   2.319   3.396  13.569 -0.2308 -1.8523  0.0118
 6018SOL     OW29512   4.291   4.452  14.228 -0.2283  0.0844 -0.6490
 6018SOL    HW129513   4.240   4.407  14.160 -0.8436 -0.3094  0.0743
 6018SOL    HW229514   4.256   4.429  14.314  1.7050  1.2453  0.4393
 6019SOL     OW29515   3.113   2.842   9.040 -0.2128 -0.4593  0.1801
 6019SOL    HW129516   3.147   2.909   9.100  0.5727 -0.3268 -0.4121
 6019SOL    HW229517   3.154   2.870   8.958  2.6087 -2.0193  1.0757
 6020SOL     OW29518   0.331   2.947   4.787 -0.2822 -0.1337  0.3533
 6020SOL    HW129519   0.337   2.999   4.867  1.6336  0.3257 -0.0904
 6020SOL    HW229520   0.365   2.861   4.810  0.6230  0.2755  0.5744
 6021SOL     OW29521   2.436   3.485   7.694  0.0837 -0.2922 -0.1215
 6021SOL    HW129522   2.456   3.543   7.767 -0.0099 -0.3209 -0.0739
 6021SOL    HW229523   2.484   3.405   7.715 -1.1509 -0.9473  0.1652
 6022SOL     OW29524   3.951   2.620   1.409 -0.5811 -0.1816  0.3461
 6022SOL    HW129525   3.993   2.567   1.477 -0.6917  0.1461  0.6660
 6022SOL    HW229526   4.026   2.619   1.350  1.3878 -1.5223  2.8414
 6023SOL     OW29527   4.394   4.119   1.948 -0.4904 -0.6538  0.1377
 6023SOL    HW129528   4.332   4.131   1.876 -0.8545  0.3034  0.5979
 6023SOL    HW229529   4.404   4.207   1.986 -0.0555 -0.8557  0.4921
 6024SOL     OW29530   2.669   1.326  13.675  0.6400 -0.2563 -0.2333
 6024SOL    HW129531   2.701   1.390  13.738 -1.2678  1.3264 -0.8705
 6024SOL    HW229532   2.633   1.256  13.729 -0.1803  0.9053  0.7175
 6025SOL     OW29533   2.823   0.991   5.780 -0.1121 -0.0939 -0.0765
 6025SOL    HW129534   2.888   0.931   5.743  0.7434  0.2190  0.9274
 6025SOL    HW229535   2.824   0.970   5.873 -0.3712 -0.5732 -0.1839
 6026SOL     OW29536   1.621   0.159  17.313  0.4229  0.3626  0.2575
 6026SOL    HW129537   1.565   0.122  17.245  1.3364 -0.5619  0.0061
 6026SOL    HW229538   1.578   0.125  17.391 -0.6805  0.3852 -0.3391
 6027SOL     OW29539   0.082   3.588   3.730  0.6225 -0.2976  0.0305
 6027SOL    HW129540   0.170   3.555   3.745  0.0667 -1.2189  1.2886
 6027SOL    HW229541   0.059   3.536   3.653  0.8970  1.9378 -1.5452
 6028SOL     OW29542   3.678   0.674   3.791  0.9635  0.2884 -0.7461
 6028SOL    HW129543   3.737   0.742   3.825  0.3826  0.3803  0.0837
 6028SOL    HW229544   3.683   0.696   3.698 -1.0670 -4.0336 -1.8559
 6029SOL     OW29545   3.030   0.450   4.735  0.2493 -0.1886 -0.1094
 6029SOL    HW129546   3.053   0.385   4.668  1.0347  1.4681 -1.4265
 6029SOL    HW229547   2.998   0.526   4.687  0.6381  0.1293  0.1395
 6030SOL     OW29548   2.762   3.609   6.186  0.3702  0.3310  0.1009
 6030SOL    HW129549   2.740   3.556   6.109  0.3640 -0.1835  0.4593
 6030SOL    HW229550   2.695   3.600   6.254 -1.5498  2.1585 -1.5416
 6031SOL     OW29551   4.336   3.315  14.954 -1.1544 -0.2414  0.4093
 6031SOL    HW129552   4.410   3.300  14.895 -0.4758  1.1054  0.9247
 6031SOL    HW229553   4.266   3.267  14.911  0.6922 -2.2918 -0.3047
 6032SOL     OW29554   2.844   4.281   6.092 -0.4683 -0.2130 -0.2006
 6032SOL    HW129555   2.751   4.286   6.069 -1.0670  3.3500  2.9314
 6032SOL    HW229556   2.874   4.367   6.063 -1.1908  0.8153  2.0826
 6033SOL     OW29557   3.200   2.135   3.359 -0.5265  0.1973 -0.1718
 6033SOL    HW129558   3.202   2.077   3.283  2.1307  1.4249 -1.0374
 6033SOL    HW229559   3.120   2.113   3.406 -1.4919  0.9080 -1.4829
 6034SOL     OW29560   1.464   3.104   6.268 -0.0515  0.3475  0.9108
 6034SOL    HW129561   1.401   3.085   6.337  0.6767  1.6811  1.9294
 6034SOL    HW229562   1.413   3.169   6.219  0.2511 -1.3589 -1.6779
 6035SOL     OW29563   1.680   2.018  14.414  0.6642  0.0770  0.3435
 6035SOL    HW129564   1.719   1.930  14.419 -1.0053 -0.6223  1.1595
 6035SOL    HW229565   1.627   2.007  14.335 -0.6763  0.5403  1.1808
 6036SOL     OW29566   4.555   3.836   0.138 -0.8511  0.1396 -0.2553
 6036SOL    HW129567   4.621   3.900   0.165 -2.1089  0.7638  1.4095
 6036SOL    HW229568   4.526   3.812   0.226  2.2358  0.0460  0.7205
 6037SOL     OW29569   1.958   4.357   5.264 -0.1051 -0.0961 -0.0003
 6037SOL    HW129570   1.906   4.371   5.186 -0.7984 -2.4765  0.0691
 6037SOL    HW229571   1.954   4.446   5.299  0.7654 -0.0535  0.0102
 6038SOL     OW29572   3.086   1.151   5.127 -0.4991  0.0739  0.3421
 6038SOL    HW129573   3.153   1.207   5.165  0.5081 -0.1539 -1.1363
 6038SOL    HW229574   3.016   1.216   5.122  0.1471  0.6225 -1.3704
 6039SOL     OW29575   4.652   4.550   3.677  0.2981 -0.2460 -0.0011
 6039SOL    HW129576   4.602   4.553   3.595 -0.0350  1.9045  0.2681
 6039SOL    HW229577   4.686   4.639   3.684 -0.5511  0.1754 -1.1573
 6040SOL     OW29578   3.094   0.721   6.486  0.1292  0.0730  0.7112
 6040SOL    HW129579   3.140   0.774   6.552 -0.8025 -0.1954  1.5672
 6040SOL    HW229580   3.028   0.673   6.536  0.6233 -0.0316  1.2715
 6041SOL     OW29581   4.426   2.415   3.320  0.5271 -0.2970 -0.0329
 6041SOL    HW129582   4.489   2.485   3.336  1.5366 -1.6811  2.1744
 6041SOL    HW229583   4.364   2.459   3.262 -0.4986 -1.7111 -0.0378
 6042SOL     OW29584   2.963   3.770   6.341  0.2569  0.1288 -0.0674
 6042SOL    HW129585   2.920   3.705   6.286  1.3341 -1.8145  1.3593
 6042SOL    HW229586   2.922   3.856   6.332 -2.4832 -1.1141  0.5257
 6043SOL     OW29587   0.973   3.572  15.226 -0.4050 -0.3925  0.4326
 6043SOL    HW129588   1.007   3.625  15.154  1.0821  0.6090  1.8785
 6043SOL    HW229589   0.956   3.640  15.291 -0.5125 -2.0549  2.1246
 6044SOL     OW29590   0.735   1.213   0.393  0.0244 -0.0046 -0.0540
 6044SOL    HW129591   0.654   1.216   0.445  0.1214 -2.5885  0.2479
 6044SOL    HW229592   0.747   1.118   0.403  0.4023  0.0883  0.4165
 6045SOL     OW29593   2.549   0.391   0.828 -0.1842  0.1587  0.0123
 6045SOL    HW129594   2.556   0.354   0.916  0.8465  1.1842  0.3490
 6045SOL    HW229595   2.493   0.319   0.799 -1.1210  1.3965 -1.2712
 6046SOL     OW29596   4.501   2.435   6.259 -0.1857  0.1682 -0.3164
 6046SOL    HW129597   4.487   2.388   6.342 -1.0571 -0.1765 -0.6528
 6046SOL    HW229598   4.527   2.358   6.208 -0.5836 -0.8588  1.0233
 6047SOL     OW29599   3.264   4.173  13.293  0.0125 -0.0801  0.2597
 6047SOL    HW129600   3.218   4.255  13.275  1.0802  0.3773 -0.3620
 6047SOL    HW229601   3.334   4.213  13.344  0.0454 -1.8222  1.5719
 6048SOL     OW29602   2.907   1.427  12.420  0.4371  0.0625  0.0733
 6048SOL    HW129603   2.881   1.498  12.361  0.1543  0.3277  0.5183
 6048SOL    HW229604   2.839   1.432  12.487 -0.4402  0.6240 -0.8515
 6049SOL     OW29605   0.558   1.017   8.540 -0.0737 -0.4603  0.8295
 6049SOL    HW129606   0.523   1.057   8.620  0.3275  0.0832  0.7346
 6049SOL    HW229607   0.543   0.923   8.549 -1.4550 -0.2851  0.3906
 6050SOL     OW29608   1.629   2.144   2.228  0.1501 -0.2913 -0.1072
 6050SOL    HW129609   1.649   2.182   2.142 -3.7603 -0.1256 -0.9411
 6050SOL    HW229610   1.539   2.168   2.249  0.0370  0.9009 -1.9154
 6051SOL     OW29611   4.078   3.348   4.405 -0.2549  0.0255 -0.2174
 6051SOL    HW129612   4.074   3.258   4.372  1.0176 -0.0789 -0.1005
 6051SOL    HW229613   4.059   3.334   4.498 -1.2278 -4.0448 -1.0182
 6052SOL     OW29614   2.995   2.573   2.766 -0.0694 -0.2024 -0.3106
 6052SOL    HW129615   3.072   2.525   2.796 -0.3200  1.5127  3.1142
 6052SOL    HW229616   2.999   2.577   2.671  1.2953  0.1212 -0.2357
 6053SOL     OW29617   2.100   0.498   4.237 -0.1596 -0.0033 -0.2623
 6053SOL    HW129618   2.006   0.513   4.229 -0.5176 -2.0864 -0.1072
 6053SOL    HW229619   2.114   0.482   4.143  0.7761  0.2555 -0.1682
 6054SOL     OW29620   3.919   4.650  16.774 -0.4337  0.3730  0.9518
 6054SOL    HW129621   3.900   4.577  16.716  0.1664  1.1293 -0.2066
 6054SOL    HW229622   3.907   4.597  16.853 -0.6312  2.7239  2.4943
 6055SOL     OW29623   0.829   1.750   3.851  0.3965 -0.0622  0.5086
 6055SOL    HW129624   0.749   1.768   3.900 -1.2620 -1.2662 -1.7702
 6055SOL    HW229625   0.813   1.656   3.845  0.1184  0.0954 -1.1659
 6056SOL     OW29626   2.591   1.772   2.731  0.1690  0.7274 -0.0071
 6056SOL    HW129627   2.540   1.800   2.655  1.3210 -0.1826 -1.1087
 6056SOL    HW229628   2.676   1.794   2.694  0.1856 -2.2062 -1.6975
 6057SOL     OW29629   4.391   0.494   2.478 -0.8042 -0.1551  0.8345
 6057SOL    HW129630   4.457   0.554   2.515 -1.2839  1.5225 -0.9874
 6057SOL    HW229631   4.446   0.444   2.417 -0.7699  0.3477  0.4483
 6058SOL     OW29632   2.538   3.579   6.664  0.3524 -0.3507 -0.1989
 6058SOL    HW129633   2.484   3.500   6.672 -0.4914  0.0197 -2.0345
 6058SOL    HW229634   2.494   3.625   6.593  0.1120 -0.1158  0.1014
 6059SOL     OW29635   2.914   0.055   7.563  0.1110 -0.5639  0.0435
 6059SOL    HW129636   2.953   0.130   7.518 -0.0581 -0.4073  0.1572
 6059SOL    HW229637   2.992   0.028   7.611 -1.6057  0.7965  3.6404
 6060SOL     OW29638   2.787   1.171  17.347  0.4613  0.0570 -0.1334
 6060SOL    HW129639   2.752   1.229  17.279  0.5154  0.3110  0.0551
 6060SOL    HW229640   2.783   1.083  17.311 -0.5000 -0.3350  0.9212
 6061SOL     OW29641   2.482   3.182   4.917  0.1380 -0.0973  0.0971
 6061SOL    HW129642   2.417   3.239   4.874 -2.4379 -2.4750  0.8148
 6061SOL    HW229643   2.493   3.231   4.998  1.3190 -1.7548  0.9139
 6062SOL     OW29644   3.444   2.342  16.924  0.0519  0.0143  0.1374
 6062SOL    HW129645   3.476   2.432  16.925 -1.4160  0.5046  2.3909
 6062SOL    HW229646   3.519   2.285  16.940  1.9882  1.5706 -3.3968
 6063SOL     OW29647   3.185   4.150  11.272  0.0112 -0.5936 -0.3412
 6063SOL    HW129648   3.228   4.113  11.195  1.8886  1.1410 -0.1182
 6063SOL    HW229649   3.259   4.148  11.333 -0.6225  1.3924  0.4841
 6064SOL     OW29650   3.282   2.092  17.621 -0.0947  0.0622  0.4364
 6064SOL    HW129651   3.264   2.083   0.015 -1.3503 -1.1733  0.0764
 6064SOL    HW229652   3.367   2.136  17.618  0.4380 -1.0401 -0.5500
 6065SOL     OW29653   1.253   2.555   6.171 -0.4624 -0.5588 -0.0446
 6065SOL    HW129654   1.236   2.636   6.220 -1.4559 -0.9944  0.3395
 6065SOL    HW229655   1.164   2.523   6.161 -1.5780  2.1206  1.2533
 6066SOL     OW29656   3.213   3.145   5.939 -0.1293 -0.3382 -0.4928
 6066SOL    HW129657   3.121   3.158   5.919 -0.4977  0.0766  1.5286
 6066SOL    HW229658   3.203   3.074   6.003  3.9049 -1.3591 -0.9491
 6067SOL     OW29659   3.006   2.976  15.285 -0.3039 -0.0718 -0.3458
 6067SOL    HW129660   3.053   2.908  15.334 -1.4260  0.4838  1.5309
 6067SOL    HW229661   3.066   3.045  15.312 -0.7224  0.5781 -1.0635
 6068SOL     OW29662   1.118   1.924   5.045 -0.3441  0.9732  0.2429
 6068SOL    HW129663   1.054   1.855   5.058 -0.4750  0.6455 -2.2073
 6068SOL    HW229664   1.193   1.869   5.024 -0.4541  0.1507  2.0111
 6069SOL     OW29665   4.283   2.308   4.864 -0.4106 -0.0219  0.3147
 6069SOL    HW129666   4.196   2.341   4.841 -0.0002 -0.1254 -1.3417
 6069SOL    HW229667   4.316   2.287   4.777 -1.9468  1.0386 -0.5389
 6070SOL     OW29668   0.157   0.908  14.034 -0.1825  0.2639 -0.3271
 6070SOL    HW129669   0.077   0.959  14.024  0.6540  1.5409 -0.5802
 6070SOL    HW229670   0.131   0.845  14.102  0.4605 -0.8029 -1.0705
 6071SOL     OW29671   2.419   0.523   4.561  0.2122  0.0552 -0.7865
 6071SOL    HW129672   2.503   0.478   4.569  0.6882  0.9507 -0.7366
 6071SOL    HW229673   2.402   0.496   4.471 -0.5149 -1.5278 -0.1845
 6072SOL     OW29674   2.712   0.850   3.766 -0.3773 -0.3249 -0.2980
 6072SOL    HW129675   2.668   0.873   3.848 -0.1048  0.2933 -0.3255
 6072SOL    HW229676   2.721   0.755   3.761  0.4302 -0.2849  0.4057
 6073SOL     OW29677   0.422   1.633   5.849 -0.1631  0.5875 -0.4842
 6073SOL    HW129678   0.498   1.651   5.904 -1.2649 -2.5354  2.0429
 6073SOL    HW229679   0.442   1.548   5.810 -1.0611 -0.0827  0.5164
 6074SOL     OW29680   1.337   0.550   8.187  0.6299 -0.0618  0.4332
 6074SOL    HW129681   1.414   0.568   8.133  0.3468  0.2646  0.1364
 6074SOL    HW229682   1.340   0.456   8.205  1.7189 -0.1987 -0.4459
 6075SOL     OW29683   2.295   1.095  13.855  0.1585  0.3008 -0.4557
 6075SOL    HW129684   2.242   1.018  13.874  0.8006  0.1114  0.5340
 6075SOL    HW229685   2.233   1.132  13.792 -1.8690 -1.6290  0.4202
 6076SOL     OW29686   3.772   1.031   4.102  0.1433 -0.1034  0.2463
 6076SOL    HW129687   3.756   1.044   4.196 -0.2192 -1.6317  0.4006
 6076SOL    HW229688   3.690   0.986   4.085  1.9326 -2.2313 -2.7286
 6077SOL     OW29689   1.810   2.678   2.139  0.7954  0.3134  0.3816
 6077SOL    HW129690   1.848   2.698   2.054  0.6202  1.1177  0.4905
 6077SOL    HW229691   1.718   2.676   2.114  0.7373 -2.0511  0.7446
 6078SOL     OW29692   0.485   4.553   0.429  0.8285  0.3104  0.0844
 6078SOL    HW129693   0.506   4.460   0.430 -1.3330 -0.1494  0.6718
 6078SOL    HW229694   0.520   4.572   0.342  0.9904 -2.5124 -0.4469
 6079SOL     OW29695   3.138   3.516   5.919  0.1483  0.8395 -0.0585
 6079SOL    HW129696   3.069   3.456   5.948 -1.2183  0.6036 -3.8117
 6079SOL    HW229697   3.178   3.474   5.843 -0.4596  1.0569 -0.5012
 6080SOL     OW29698   1.553   0.398  15.067 -0.2234 -0.2308 -0.6586
 6080SOL    HW129699   1.504   0.363  14.992 -1.6836  0.9063 -0.2217
 6080SOL    HW229700   1.514   0.485  15.076 -0.5629 -0.5136  0.6038
 6081SOL     OW29701   2.120   0.026  13.123 -0.1240  0.3761  0.3367
 6081SOL    HW129702   2.214   0.032  13.140 -0.0299  0.2154 -0.1183
 6081SOL    HW229703   2.121   0.086  13.048 -0.9498  2.0524  1.6811
 6082SOL     OW29704   3.408   0.521   6.252  0.0378 -0.4190 -0.4682
 6082SOL    HW129705   3.377   0.433   6.228 -0.7115 -0.1823 -0.3789
 6082SOL    HW229706   3.434   0.553   6.166 -0.5918 -0.6287 -0.7353
 6083SOL     OW29707   1.282   2.854   3.388  0.7893  0.1313  0.0434
 6083SOL    HW129708   1.378   2.846   3.388  0.7279 -0.6041  1.0546
 6083SOL    HW229709   1.260   2.846   3.295  0.0564 -0.2789  0.2540
 6084SOL     OW29710   3.271   0.547   2.407  0.0886  0.1188  0.3093
 6084SOL    HW129711   3.188   0.525   2.366  1.1265  0.7790 -2.1536
 6084SOL    HW229712   3.261   0.511   2.495  1.9123  1.7560  1.1991
 6085SOL     OW29713   1.847   3.726  14.475  0.0107 -0.2278  0.3763
 6085SOL    HW129714   1.823   3.752  14.386  1.2767  1.4720  0.5413
 6085SOL    HW229715   1.839   3.814  14.511  1.0500 -0.5926  1.5140
 6086SOL     OW29716   2.663   2.486   9.239 -0.2236 -0.1314  0.1825
 6086SOL    HW129717   2.695   2.575   9.254 -0.6555  0.0069  0.2926
 6086SOL    HW229718   2.678   2.454   9.329 -0.3866  0.1476  0.3081
 6087SOL     OW29719   4.315   2.459   6.057  0.5748 -0.4101 -0.4699
 6087SOL    HW129720   4.257   2.533   6.043 -0.7129 -1.5774 -1.2761
 6087SOL    HW229721   4.378   2.496   6.120  0.1033  0.1073 -0.3070
 6088SOL     OW29722   3.004   2.194  16.312 -0.2187  0.6178  0.0628
 6088SOL    HW129723   2.975   2.285  16.315 -1.3433  0.2445  0.3196
 6088SOL    HW229724   2.931   2.147  16.271  1.2027 -2.2111  0.7564
 6089SOL     OW29725   3.547   2.346   4.785  0.8196  0.0994  0.1273
 6089SOL    HW129726   3.625   2.292   4.773 -0.2710 -1.6643  1.0288
 6089SOL    HW229727   3.483   2.316   4.721  0.1272  1.7972  0.0081
 6090SOL     OW29728   1.457   3.852   4.770  0.2226  0.4053 -0.3759
 6090SOL    HW129729   1.501   3.773   4.800 -1.3894  0.1484  1.2785
 6090SOL    HW229730   1.422   3.818   4.688 -3.4798 -0.6477  1.6491
 6091SOL     OW29731   1.418   3.846   3.387 -0.1854 -0.3218  0.2482
 6091SOL    HW129732   1.389   3.868   3.476  0.0686  0.8455  0.0409
 6091SOL    HW229733   1.355   3.899   3.339 -1.1932  0.6181  2.5796
 6092SOL     OW29734   2.987   0.135   6.472  0.0570 -0.0646  0.2067
 6092SOL    HW129735   2.970   0.204   6.536 -1.8502 -1.2966  1.0627
 6092SOL    HW229736   3.060   0.088   6.512  0.4530 -0.6991 -1.2516
 6093SOL     OW29737   4.263   2.000   4.723  0.3830  0.2325 -0.1314
 6093SOL    HW129738   4.191   1.981   4.783  1.1747  0.4241  0.8761
 6093SOL    HW229739   4.286   1.914   4.686 -2.0939 -0.6120  0.2726
 6094SOL     OW29740   0.106   2.323   5.847  0.0508  0.2118  0.0294
 6094SOL    HW129741   0.048   2.269   5.901 -0.2667  1.9425  1.4256
 6094SOL    HW229742   0.040   2.347   5.781  0.4834  0.2906 -0.3723
 6095SOL     OW29743   2.104   2.894   8.739 -0.3307 -0.7943 -0.4324
 6095SOL    HW129744   2.186   2.857   8.771  0.8489  2.8091  0.6952
 6095SOL    HW229745   2.065   2.820   8.692 -0.4786  1.0270 -3.1746
 6096SOL     OW29746   1.063   1.524   9.183 -0.1577 -0.4631  0.1324
 6096SOL    HW129747   1.106   1.505   9.266 -0.0781 -0.1564  0.1643
 6096SOL    HW229748   1.113   1.470   9.122  0.5616 -0.4533  0.7099
 6097SOL     OW29749   2.571   2.144  10.511 -0.1719 -0.1513  0.2130
 6097SOL    HW129750   2.660   2.174  10.493 -0.1222 -1.0778 -1.0527
 6097SOL    HW229751   2.546   2.227  10.551  1.8615  0.6549 -0.1888
 6098SOL     OW29752   1.837   3.963   4.325 -0.6635  0.0703 -0.1588
 6098SOL    HW129753   1.766   4.000   4.378 -0.4902 -1.3638  1.0724
 6098SOL    HW229754   1.780   3.898   4.283  1.0633 -1.1837 -0.5593
 6099SOL     OW29755   2.683   0.667   5.975  0.1889 -0.1807 -0.0220
 6099SOL    HW129756   2.728   0.644   5.893 -2.3004  0.1753 -1.5140
 6099SOL    HW229757   2.602   0.620   5.953  0.5981 -0.3542 -1.1562
 6100SOL     OW29758   2.917   3.144  15.995 -0.3153 -0.0702  0.6454
 6100SOL    HW129759   2.885   3.143  15.905 -1.0744  1.2596  0.8984
 6100SOL    HW229760   2.972   3.220  15.979 -0.4570  0.1017  0.9755
 6101SOL     OW29761   2.422   0.086  10.610 -0.5657  0.0954  0.1460
 6101SOL    HW129762   2.487   0.019  10.634  0.0673  1.2387  1.6577
 6101SOL    HW229763   2.343   0.036  10.630 -1.8815  2.5487  1.0355
 6102SOL     OW29764   3.443   2.966  17.556 -0.3731 -0.2904  0.1141
 6102SOL    HW129765   3.496   2.886  17.554  1.2294  0.6992  2.1345
 6102SOL    HW229766   3.375   2.944  17.493 -1.3241 -3.4139  2.2471
 6103SOL     OW29767   4.092   1.437   3.304  0.7053  0.1790  0.6734
 6103SOL    HW129768   4.149   1.396   3.368 -0.0770 -2.4193 -0.2771
 6103SOL    HW229769   4.148   1.412   3.230  0.5292  1.4448  0.1041
 6104SOL     OW29770   2.133   1.730   3.767 -0.0425 -0.0040 -0.3519
 6104SOL    HW129771   2.163   1.787   3.838 -1.6002  0.1099  0.2190
 6104SOL    HW229772   2.174   1.644   3.778 -0.2170  0.0728  0.8158
 6105SOL     OW29773   4.425   1.177   5.650  0.1477  0.2209 -0.1324
 6105SOL    HW129774   4.393   1.259   5.611  0.2846 -0.4678 -1.6997
 6105SOL    HW229775   4.439   1.118   5.576  0.0675  1.0704 -0.8149
 6106SOL     OW29776   3.289   2.571   6.518  0.4821  0.8752 -0.3006
 6106SOL    HW129777   3.294   2.659   6.556 -3.1068  0.9583  0.0310
 6106SOL    HW229778   3.340   2.521   6.582 -2.5340  1.4872  2.6095
 6107SOL     OW29779   3.263   4.274   6.806  0.0058 -0.1606  0.3875
 6107SOL    HW129780   3.330   4.343   6.807  1.0096 -1.1399  0.5114
 6107SOL    HW229781   3.219   4.287   6.890 -0.2335 -1.6785  0.4909
 6108SOL     OW29782   2.523   3.601  11.986  0.4399 -0.2554 -0.4153
 6108SOL    HW129783   2.552   3.671  11.927 -0.0308  1.8858  1.9283
 6108SOL    HW229784   2.599   3.543  11.987  0.2788 -0.4571  0.2418
 6109SOL     OW29785   1.491   3.541   8.736  0.8141  0.2880 -0.5967
 6109SOL    HW129786   1.568   3.582   8.774  0.5107  1.8554 -1.7102
 6109SOL    HW229787   1.425   3.610   8.750 -0.4191 -0.8258 -0.8559
 6110SOL     OW29788   2.994   1.575   4.626 -0.4527 -0.2208 -0.0102
 6110SOL    HW129789   2.942   1.583   4.546 -0.5831 -0.3401  0.0612
 6110SOL    HW229790   3.022   1.667   4.627  0.0469 -0.3690 -1.2566
 6111SOL     OW29791   1.547   3.230  17.455  0.2254 -0.0609  0.4241
 6111SOL    HW129792   1.607   3.192  17.391  0.6576  0.1438  0.7074
 6111SOL    HW229793   1.465   3.219  17.407  1.5258 -0.9005 -1.5732
 6112SOL     OW29794   3.504   2.120   7.098 -0.4821  0.1021  0.8892
 6112SOL    HW129795   3.463   2.077   7.023  0.5076 -1.2011  1.0887
 6112SOL    HW229796   3.581   2.152   7.052 -1.4436  0.8639 -0.2036
 6113SOL     OW29797   0.587   4.685   4.353  0.3592 -0.2739 -0.0593
 6113SOL    HW129798   0.540   4.719   4.429 -0.2292 -0.8701 -0.1589
 6113SOL    HW229799   0.533   4.609   4.329  0.4593 -0.9971  2.0526
 6114SOL     OW29800   0.530   2.347   4.259  0.3309  0.3149 -0.3178
 6114SOL    HW129801   0.571   2.348   4.346  1.3954  0.8321 -0.8260
 6114SOL    HW229802   0.550   2.256   4.236 -0.0393 -0.6011  2.9587
 6115SOL     OW29803   1.029   2.132   2.630  0.0571 -0.1034 -0.5252
 6115SOL    HW129804   1.001   2.065   2.568  1.3822 -1.0399 -0.1304
 6115SOL    HW229805   1.041   2.205   2.569 -2.3272 -1.0145 -2.0651
 6116SOL     OW29806   0.504   1.136   0.921  0.0536  0.1391 -0.3397
 6116SOL    HW129807   0.566   1.196   0.963 -0.2093  0.3221 -0.2124
 6116SOL    HW229808   0.465   1.200   0.860 -0.4406 -0.7936 -0.9989
 6117SOL     OW29809   1.941   3.004   4.884 -0.3576  0.1451 -0.3756
 6117SOL    HW129810   1.949   2.934   4.819 -0.2924  0.8704 -1.1389
 6117SOL    HW229811   2.030   3.038   4.873 -0.6205  0.4771 -1.4516
 6118SOL     OW29812   4.478   1.634   5.071  0.0833  0.2313 -0.1855
 6118SOL    HW129813   4.494   1.698   5.140  1.9606 -0.3127 -0.1176
 6118SOL    HW229814   4.388   1.651   5.042  0.2111 -0.9191 -1.2502
 6119SOL     OW29815   0.452   1.836   3.819  0.0944 -0.2546 -0.2490
 6119SOL    HW129816   0.363   1.850   3.787 -0.1400 -0.8330  0.1339
 6119SOL    HW229817   0.464   1.917   3.869  2.7454 -1.1348  0.5354
 6120SOL     OW29818   0.460   3.426  16.738  0.4766  0.2696 -0.1107
 6120SOL    HW129819   0.392   3.413  16.804  0.4455 -0.9545 -0.3888
 6120SOL    HW229820   0.432   3.507  16.696  1.2622 -0.0826 -1.3143
 6121SOL     OW29821   4.722   3.515   1.226 -0.3756 -0.1524 -0.0224
 6121SOL    HW129822   4.655   3.512   1.295  1.2217  2.4450  1.6392
 6121SOL    HW229823   0.073   3.516   1.285 -1.9112  1.1894  1.9387
 6122SOL     OW29824   2.705   1.648   3.581 -0.1195  0.4007  0.5855
 6122SOL    HW129825   2.628   1.703   3.575  1.0122  1.8663 -0.5926
 6122SOL    HW229826   2.717   1.658   3.675  2.2245 -0.3829  0.3819
 6123SOL     OW29827   2.975   0.020   4.834 -0.1501 -0.8245  0.7231
 6123SOL    HW129828   2.993   4.657   4.866  0.1852 -1.1123 -0.2503
 6123SOL    HW229829   3.030   0.070   4.895  0.0333  1.4897 -1.2980
 6124SOL     OW29830   0.037   1.705  14.748  0.7177 -0.3908  0.1487
 6124SOL    HW129831   0.106   1.764  14.779 -0.1083 -1.0612  3.3095
 6124SOL    HW229832   4.680   1.756  14.747 -0.7807 -2.8033 -1.8392
 6125SOL     OW29833   0.929   1.155   6.680  0.7270  0.4343  0.4399
 6125SOL    HW129834   0.900   1.244   6.702 -1.8240  0.5145 -3.3278
 6125SOL    HW229835   0.850   1.102   6.689  1.2687 -0.3868  0.3069
 6126SOL     OW29836   0.938   1.926   4.456 -0.3583 -0.3055 -0.3082
 6126SOL    HW129837   0.863   1.879   4.418 -0.3749  0.1298 -0.8161
 6126SOL    HW229838   1.007   1.874   4.412 -1.2778 -2.4459  0.7675
 6127SOL     OW29839   3.495   2.490  16.675 -0.1140 -0.2775  0.1883
 6127SOL    HW129840   3.432   2.430  16.713 -0.9412  0.3275 -0.2320
 6127SOL    HW229841   3.545   2.421  16.631  0.7443 -0.4020  1.3757
 6128SOL     OW29842   0.237   2.119   5.676  0.0226  0.4397 -0.4643
 6128SOL    HW129843   0.301   2.048   5.689  0.4408  0.9186  0.0780
 6128SOL    HW229844   0.186   2.127   5.757 -0.7139  0.5057 -0.9377
 6129SOL     OW29845   2.524   1.170   3.740  0.2868 -0.0479 -0.0654
 6129SOL    HW129846   2.492   1.243   3.687 -1.5937 -1.0450 -0.3255
 6129SOL    HW229847   2.574   1.223   3.802 -0.3181 -0.0031  0.3831
 6130SOL     OW29848   1.600   3.263   1.742  0.5711 -0.0517  0.1439
 6130SOL    HW129849   1.674   3.320   1.762  3.1179 -3.4936  0.4769
 6130SOL    HW229850   1.644   3.187   1.706 -1.4356 -0.2345 -1.9452
 6131SOL     OW29851   1.516   0.160   7.051  0.3308 -0.1095 -0.3433
 6131SOL    HW129852   1.434   0.146   7.098 -1.1769  3.6749 -1.9143
 6131SOL    HW229853   1.581   0.120   7.109  0.6090  0.1844 -0.4525
 6132SOL     OW29854   0.284   1.334  10.385 -0.5180 -0.1551 -0.2372
 6132SOL    HW129855   0.272   1.282  10.306 -1.3797 -0.9454  0.4163
 6132SOL    HW229856   0.265   1.274  10.456 -0.1585  0.5192  0.4304
 6133SOL     OW29857   2.408   1.326   1.185 -0.5810  0.4525  0.1464
 6133SOL    HW129858   2.470   1.270   1.138 -1.4113  0.7747 -1.3123
 6133SOL    HW229859   2.408   1.407   1.136 -1.0572  0.9662  1.0014
 6134SOL     OW29860   2.088   3.597   3.829 -0.4373 -0.6028  0.4806
 6134SOL    HW129861   2.096   3.687   3.860  1.5595 -0.8998  0.8056
 6134SOL    HW229862   2.080   3.550   3.912 -2.0068  0.1933  0.7845
 6135SOL     OW29863   0.569   2.484   2.171 -0.3986  1.6979  0.5882
 6135SOL    HW129864   0.475   2.479   2.187 -0.1798  1.4445  1.7828
 6135SOL    HW229865   0.572   2.456   2.079 -1.7657 -0.8917  1.3438
 6136SOL     OW29866   2.853   3.691   5.844  0.2282 -0.1803  0.3408
 6136SOL    HW129867   2.785   3.745   5.803  1.1506  1.0550  0.4638
 6136SOL    HW229868   2.825   3.602   5.823 -0.4895 -0.4218  2.3004
 6137SOL     OW29869   3.593   3.298   8.910 -0.3873 -0.5011 -0.3813
 6137SOL    HW129870   3.588   3.206   8.884 -2.3742  0.4096 -3.2548
 6137SOL    HW229871   3.631   3.281   8.996 -1.4572  3.1502  0.8151
 6138SOL     OW29872   0.098   4.129   8.027  0.2658 -0.0178 -0.3771
 6138SOL    HW129873   0.069   4.116   7.937  0.9160  1.3207 -0.7855
 6138SOL    HW229874   0.129   4.039   8.036 -3.4197 -0.9573  2.7544
 6139SOL     OW29875   4.282   0.725   6.454 -0.4946 -0.2292  0.3183
 6139SOL    HW129876   4.260   0.750   6.543 -0.3197 -1.3580  0.6812
 6139SOL    HW229877   4.252   0.634   6.450 -1.6986  0.2512 -2.2586
 6140SOL     OW29878   2.539   4.032   7.700 -0.3595  0.3526 -0.4186
 6140SOL    HW129879   2.579   4.083   7.629  2.6342 -0.1767  0.8661
 6140SOL    HW229880   2.563   4.097   7.766 -0.9270  1.7729 -1.6070
 6141SOL     OW29881   2.531   2.773   7.540  0.1215  0.1551  0.4982
 6141SOL    HW129882   2.552   2.815   7.456  0.1206  2.5850  1.7091
 6141SOL    HW229883   2.556   2.846   7.597 -2.6126  0.6489  1.0755
 6142SOL     OW29884   4.459   1.213  10.145 -0.2284 -0.0692  0.2920
 6142SOL    HW129885   4.538   1.232  10.196  0.3785  0.8304 -0.9940
 6142SOL    HW229886   4.482   1.229  10.053 -1.4413 -3.0226 -0.5237
 6143SOL     OW29887   4.036   2.584   7.594  0.0917 -0.3547  0.0531
 6143SOL    HW129888   3.969   2.651   7.608  1.1859  0.8595 -0.5549
 6143SOL    HW229889   4.047   2.562   7.687 -1.3146 -0.8618  0.1110
 6144SOL     OW29890   2.387   2.522   3.037 -0.2185  0.1866  0.1783
 6144SOL    HW129891   2.376   2.427   3.031  1.3210  0.0073  0.1858
 6144SOL    HW229892   2.393   2.558   2.949  0.9011 -0.5658 -0.0598
 6145SOL     OW29893   2.074   0.820   6.262 -0.1264  0.5525  0.4389
 6145SOL    HW129894   1.978   0.812   6.256 -0.1532  2.1099 -1.1290
 6145SOL    HW229895   2.091   0.788   6.351  1.7108 -0.5013 -0.3013
 6146SOL     OW29896   1.823   0.817   5.265  0.2847 -0.0401  0.7776
 6146SOL    HW129897   1.813   0.755   5.192 -0.4514  1.0295 -0.0276
 6146SOL    HW229898   1.896   0.868   5.232 -2.4358  2.4928 -1.3254
 6147SOL     OW29899   2.056   1.186   7.463 -0.0436  0.3055  0.3128
 6147SOL    HW129900   2.143   1.165   7.498  0.1233 -0.1487 -0.3828
 6147SOL    HW229901   2.046   1.121   7.394  1.2715 -0.2096  0.6031
 6148SOL     OW29902   0.558   4.402   8.149  0.0052  0.4561  0.1938
 6148SOL    HW129903   0.511   4.454   8.083  1.2338  2.4692  0.8934
 6148SOL    HW229904   0.642   4.445   8.163  0.2102  0.1078  0.0237
 6149SOL     OW29905   4.642   1.447   2.811 -0.0832  0.2460 -0.0190
 6149SOL    HW129906   4.649   1.517   2.876  1.7028 -0.7282  0.8328
 6149SOL    HW229907   4.598   1.489   2.737  1.0644 -0.5401 -1.1577
 6150SOL     OW29908   0.620   0.740  14.555 -0.6598 -0.2500 -0.3990
 6150SOL    HW129909   0.707   0.751  14.592 -1.7411  2.2690  1.4569
 6150SOL    HW229910   0.631   0.767  14.463  0.5700 -1.5104 -0.6188
 6151SOL     OW29911   0.734   3.860  14.443  0.3468 -0.0290 -0.3042
 6151SOL    HW129912   0.697   3.862  14.531  0.2392  0.6054 -0.3632
 6151SOL    HW229913   0.828   3.869  14.455  0.0450  1.3980  1.0061
 6152SOL     OW29914   4.662   4.669   2.674  0.2437  0.7921  0.5183
 6152SOL    HW129915   4.715   4.720   2.613 -0.1641  0.9749  0.3200
 6152SOL    HW229916   4.604   0.013   2.708 -0.7941 -0.4266  1.1863
 6153SOL     OW29917   3.106   0.186   1.520  0.7625 -0.2308 -0.7335
 6153SOL    HW129918   3.021   0.197   1.478  2.1339 -0.2631 -3.5260
 6153SOL    HW229919   3.076   0.153   1.604  1.5729  0.5815 -0.1194
 6154SOL     OW29920   1.143   3.710   3.929  0.9052  0.4430 -0.1408
 6154SOL    HW129921   1.115   3.750   3.847 -1.1315  1.3133  0.9938
 6154SOL    HW229922   1.064   3.739   3.974  0.2018 -0.4193 -0.8293
 6155SOL     OW29923   3.321   2.819   6.641 -0.5273 -0.0531 -0.8613
 6155SOL    HW129924   3.250   2.823   6.705  0.4419  1.1150  0.1406
 6155SOL    HW229925   3.399   2.837   6.695 -0.9158  2.1376 -1.0327
 6156SOL     OW29926   2.356   3.314  12.657  0.7511 -0.2116 -0.0440
 6156SOL    HW129927   2.320   3.292  12.743  2.1349  0.2422  0.6388
 6156SOL    HW229928   2.422   3.244  12.656  0.6811 -0.2742 -0.2957
 6157SOL     OW29929   3.593   4.698  10.555 -0.2918  0.3656  0.1314
 6157SOL    HW129930   3.671   0.022  10.582 -0.7293  0.4967  1.1984
 6157SOL    HW229931   3.567   4.656  10.637  2.1021 -0.1421  0.6361
 6158SOL     OW29932   0.168   0.408   1.091  0.2436 -0.1576  0.2676
 6158SOL    HW129933   0.116   0.330   1.111 -1.1428  0.8933  0.7669
 6158SOL    HW229934   0.121   0.478   1.136  0.5036 -0.5248  1.1071
 6159SOL     OW29935   2.639   4.439   7.345  0.9299 -0.4084  0.2185
 6159SOL    HW129936   2.734   4.456   7.342  0.7028  0.6170 -1.4750
 6159SOL    HW229937   2.605   4.524   7.370 -0.8757 -1.3262  0.8725
 6160SOL     OW29938   1.295   0.076   6.298 -0.0320 -0.1098 -0.4065
 6160SOL    HW129939   1.278   0.137   6.226 -2.0462  0.8184  0.8501
 6160SOL    HW229940   1.370   0.118   6.339 -1.2421  1.0733  0.6145
 6161SOL     OW29941   2.885   0.450  16.663  0.3741 -0.0119  0.1463
 6161SOL    HW129942   2.801   0.468  16.621 -0.2615  0.3262  1.5518
 6161SOL    HW229943   2.881   0.510  16.737  0.2412 -0.2795  0.3594
 6162SOL     OW29944   0.597   2.335   3.683 -0.4067  0.1322 -0.3939
 6162SOL    HW129945   0.608   2.321   3.777  0.1732  1.6601 -0.2279
 6162SOL    HW229946   0.533   2.406   3.674  1.1281  1.7040  0.9365
 6163SOL     OW29947   1.360   4.031   5.851 -0.0762  0.2913 -0.2765
 6163SOL    HW129948   1.298   4.089   5.897 -1.5363 -2.7730  1.6522
 6163SOL    HW229949   1.441   4.055   5.895 -1.4469 -0.8663  2.9320
 6164SOL     OW29950   1.853   4.435   7.963  0.6769 -0.5660  0.0990
 6164SOL    HW129951   1.835   4.379   8.039 -0.5907 -0.5445 -0.1804
 6164SOL    HW229952   1.767   4.469   7.938  1.1043  1.8285  1.8341
 6165SOL     OW29953   1.638   0.568   4.087  0.2389  0.0456 -0.0364
 6165SOL    HW129954   1.708   0.568   4.021 -0.2134 -2.0755 -0.5014
 6165SOL    HW229955   1.607   0.479   4.074  2.6766 -0.8451  0.3464
 6166SOL     OW29956   0.603   0.527  14.201 -0.3450 -0.7918 -0.2409
 6166SOL    HW129957   0.551   0.580  14.140  1.1617  1.0868  0.1089
 6166SOL    HW229958   0.532   0.476  14.240 -1.5107  2.1713  1.4943
 6167SOL     OW29959   2.774   2.941   5.772 -0.0312  0.1988 -0.5457
 6167SOL    HW129960   2.807   2.890   5.698 -1.0882  1.3243 -1.7967
 6167SOL    HW229961   2.840   3.009   5.772  0.9694 -0.7686 -1.5186
 6168SOL     OW29962   3.174   1.682   8.730  0.1036  0.6205  0.0585
 6168SOL    HW129963   3.254   1.655   8.775  0.6087  0.7300 -0.7575
 6168SOL    HW229964   3.129   1.735   8.795  0.3078 -0.7583  1.3164
 6169SOL     OW29965   2.605   4.511  16.697  0.6946 -0.0897  0.7491
 6169SOL    HW129966   2.672   4.579  16.691 -0.4764  0.7439 -2.8172
 6169SOL    HW229967   2.550   4.527  16.620  0.5375  2.6222  1.4260
 6170SOL     OW29968   1.560   0.230  14.366  0.4467 -0.5908  0.0798
 6170SOL    HW129969   1.534   0.138  14.369  0.0783 -0.5626 -2.2222
 6170SOL    HW229970   1.655   0.219  14.364  0.2759 -1.8705 -1.0061
 6171SOL     OW29971   2.808   0.319  15.870  0.2217 -0.2266 -0.3488
 6171SOL    HW129972   2.842   0.243  15.822  2.1365  0.6197 -0.3159
 6171SOL    HW229973   2.714   0.330  15.855  0.5217  2.4761 -0.2167
 6172SOL     OW29974   0.737   0.495   4.485 -0.0098 -0.0488 -0.3456
 6172SOL    HW129975   0.717   0.525   4.396  2.2935 -1.2445 -1.2863
 6172SOL    HW229976   0.731   0.400   4.483  0.9380 -0.1002 -1.4386
 6173SOL     OW29977   3.309   0.783   8.704 -0.2807 -0.0956 -0.0439
 6173SOL    HW129978   3.237   0.822   8.754  0.2357 -2.1827  2.2559
 6173SOL    HW229979   3.315   0.849   8.634 -1.1779 -1.0282 -0.9995
 6174SOL     OW29980   1.214   0.817   0.902  0.3715  0.3576  0.1638
 6174SOL    HW129981   1.178   0.850   0.819  0.1305 -0.6629 -0.1390
 6174SOL    HW229982   1.197   0.887   0.965  1.1076  1.9124 -1.3539
 6175SOL     OW29983   1.189   4.375   7.800  0.0381  0.1799 -0.6866
 6175SOL    HW129984   1.106   4.407   7.765 -0.3124 -0.2103 -0.2072
 6175SOL    HW229985   1.158   4.326   7.876  0.7844  0.3166 -0.2878
 6176SOL     OW29986   3.682   0.076   4.418 -0.4677  0.3904 -0.3457
 6176SOL    HW129987   3.619   0.086   4.347 -0.9144 -0.6952 -0.0906
 6176SOL    HW229988   3.698   4.706   4.418  0.8389  0.6280  1.5586
 6177SOL     OW29989   3.190   0.484   4.946 -0.3506  0.4680 -0.0570
 6177SOL    HW129990   3.266   0.532   4.913  1.4324 -1.8711  0.5931
 6177SOL    HW229991   3.141   0.464   4.867 -1.1228  0.0756  0.5159
 6178SOL     OW29992   1.244   3.738  11.835 -0.5223  0.1897 -0.2060
 6178SOL    HW129993   1.333   3.719  11.863 -0.9618  0.3668  1.3197
 6178SOL    HW229994   1.213   3.811  11.889  0.3404  0.8444 -0.6137
 6179SOL     OW29995   4.336   1.760   8.595 -0.3233 -0.8787  0.3758
 6179SOL    HW129996   4.242   1.775   8.595 -0.0958  0.5222 -0.4751
 6179SOL    HW229997   4.345   1.721   8.682  2.2871  0.5984  0.7587
 6180SOL     OW29998   2.493   1.219   1.661 -0.3429 -0.3582 -0.8884
 6180SOL    HW129999   2.571   1.225   1.717 -2.1966  1.6752  1.4793
 6180SOL    HW230000   2.464   1.132   1.688  1.7921 -1.1284 -1.0871
 6181SOL     OW30001   0.067   2.597   3.142  0.2160 -0.5133 -0.2958
 6181SOL    HW130002   0.096   2.673   3.092 -0.7104 -0.0425 -0.1149
 6181SOL    HW230003   0.137   2.534   3.158  0.4579 -0.3804 -0.8491
 6182SOL     OW30004   4.213   3.253   8.724 -0.1235  0.1370 -0.1174
 6182SOL    HW130005   4.158   3.330   8.714 -1.5091 -0.7825  0.5071
 6182SOL    HW230006   4.271   3.278   8.796 -0.1526 -1.8912  0.6108
 6183SOL     OW30007   1.556   1.676   8.432 -0.0918  0.9394  0.3689
 6183SOL    HW130008   1.583   1.646   8.519  1.0828  0.1646 -0.2711
 6183SOL    HW230009   1.481   1.619   8.415 -1.1618  2.1767  0.8847
 6184SOL     OW30010   1.349   4.584   1.859 -0.2532  0.5782  0.3826
 6184SOL    HW130011   1.263   4.542   1.847 -1.1486  2.7545 -0.8660
 6184SOL    HW230012   1.353   4.607   1.952  1.0122  0.0773  0.4524
 6185SOL     OW30013   3.826   3.300   5.028 -0.0087  0.1356 -0.1502
 6185SOL    HW130014   3.903   3.357   5.028 -0.8111  1.2389  1.3017
 6185SOL    HW230015   3.790   3.316   5.116  1.5837 -1.2299  0.7306
 6186SOL     OW30016   0.197   3.114   2.405  0.6736 -0.0755  0.1073
 6186SOL    HW130017   0.183   3.073   2.490  2.7082 -1.1299 -0.0562
 6186SOL    HW230018   0.196   3.040   2.344 -0.0412 -0.8965  1.1376
 6187SOL     OW30019   1.140   2.258  16.414  0.0983 -0.1674 -0.6436
 6187SOL    HW130020   1.113   2.280  16.325  1.2340 -0.2653 -1.0080
 6187SOL    HW230021   1.219   2.307  16.434  1.9740 -2.9978 -1.1268
 6188SOL     OW30022   2.589   2.853   3.016 -0.0887  0.3179 -0.2070
 6188SOL    HW130023   2.533   2.823   3.088  2.1046 -2.1360  0.4647
 6188SOL    HW230024   2.666   2.800   3.036 -0.2081  0.2083 -0.0331
 6189SOL     OW30025   0.630   0.089   2.675 -0.2449  0.7023 -0.4301
 6189SOL    HW130026   0.669   0.008   2.643 -0.5840  0.2912  0.2094
 6189SOL    HW230027   0.537   0.066   2.671  0.2804 -1.3592 -0.7933
 6190SOL     OW30028   2.761   3.480   0.105 -0.2469 -0.2761 -0.3062
 6190SOL    HW130029   2.776   3.493   0.198  3.4072 -1.4331 -0.7191
 6190SOL    HW230030   2.680   3.430   0.111  0.8298 -1.9920 -0.0830
 6191SOL     OW30031   3.633   4.224   8.246 -0.1269  0.2252 -0.8345
 6191SOL    HW130032   3.673   4.292   8.301 -3.6541  1.1796  0.5055
 6191SOL    HW230033   3.705   4.167   8.219 -1.6187 -2.7198  1.3247
 6192SOL     OW30034   4.182   3.479   9.041 -0.2969  0.2551 -0.1422
 6192SOL    HW130035   4.141   3.555   9.084 -1.5251 -0.5219  0.0514
 6192SOL    HW230036   4.249   3.513   8.982 -0.1899  2.2154  1.0993
 6193SOL     OW30037   1.456   2.370  11.191  0.0810 -0.4422  0.5639
 6193SOL    HW130038   1.399   2.373  11.268  1.7670  1.0469  1.7629
 6193SOL    HW230039   1.542   2.367  11.234  0.0174  0.0975  0.7308
 6194SOL     OW30040   3.394   4.450  11.386 -0.1654 -0.6710 -0.0987
 6194SOL    HW130041   3.402   4.479  11.295  0.8924 -1.6328 -0.3111
 6194SOL    HW230042   3.304   4.420  11.395 -0.5675 -0.0430 -1.9802
 6195SOL     OW30043   3.283   3.966  14.774 -0.4258  0.2552  0.0678
 6195SOL    HW130044   3.317   3.884  14.738 -2.1080 -0.2410 -0.3428
 6195SOL    HW230045   3.189   3.951  14.784 -0.7845  2.1482 -0.4579
 6196SOL     OW30046   1.316   3.405  16.008 -0.6848  0.3776 -0.0678
 6196SOL    HW130047   1.350   3.410  16.097 -0.0075 -1.1842 -0.2308
 6196SOL    HW230048   1.291   3.313  16.009 -0.9876  0.4655  0.1766
 6197SOL     OW30049   0.959   0.682  16.134 -0.1122  0.4038 -0.6660
 6197SOL    HW130050   1.007   0.761  16.107  0.3750 -0.3896 -2.1607
 6197SOL    HW230051   0.914   0.656  16.054 -0.9527  1.6832 -0.6100
 6198SOL     OW30052   2.331   1.546   3.178 -0.3546 -0.0261  0.4245
 6198SOL    HW130053   2.347   1.508   3.092  0.3070  0.4064  0.3474
 6198SOL    HW230054   2.366   1.633   3.157  1.9152 -0.5172  2.1586
 6199SOL     OW30055   3.299   4.537   0.538  0.0313 -0.0509  0.2411
 6199SOL    HW130056   3.269   4.511   0.625  1.2512  1.3015  1.0419
 6199SOL    HW230057   3.323   4.628   0.552 -1.0105 -0.1963  3.0050
 6200SOL     OW30058   4.662   0.142   4.198  0.2075  0.8202  0.2743
 6200SOL    HW130059   4.592   0.207   4.203  0.5879  1.3534 -1.5610
 6200SOL    HW230060   4.672   0.133   4.103  0.7628 -0.4892  0.4520
 6201SOL     OW30061   2.561   3.755   7.369  0.4715  0.2572 -0.0233
 6201SOL    HW130062   2.501   3.719   7.303  2.6421 -1.1003 -1.2713
 6201SOL    HW230063   2.509   3.769   7.448 -1.1957 -0.3979 -1.0055
 6202SOL     OW30064   0.554   4.519   6.454 -0.4995  0.3128  0.2566
 6202SOL    HW130065   0.519   4.587   6.512  1.4073  0.1724  1.5856
 6202SOL    HW230066   0.490   4.456   6.488 -0.3277  0.5085  0.9412
 6203SOL     OW30067   0.492   0.848   0.822 -0.5666  0.3196 -0.0625
 6203SOL    HW130068   0.426   0.793   0.864 -2.0253  2.3430  0.3079
 6203SOL    HW230069   0.510   0.921   0.882 -0.0851 -0.6499  0.9810
 6204SOL     OW30070   3.035   3.214   5.007 -0.1759  0.2082 -0.0422
 6204SOL    HW130071   3.068   3.193   5.094  3.0124 -1.4939 -1.6631
 6204SOL    HW230072   3.096   3.283   4.980 -0.3004  1.5813  3.2160
 6205SOL     OW30073   0.039   2.902   9.956  0.8009  0.1168  0.1237
 6205SOL    HW130074   0.075   2.924  10.041 -2.1573  0.6981  1.2389
 6205SOL    HW230075   0.025   2.989   9.918 -2.0832  0.0376  1.0064
 6206SOL     OW30076   0.635   3.867   0.452 -0.6025 -0.1310  0.6019
 6206SOL    HW130077   0.630   3.937   0.388 -1.7391  0.7127  1.6141
 6206SOL    HW230078   0.612   3.917   0.530  0.1626  1.4559 -0.1957
 6207SOL     OW30079   2.855   3.767   5.513 -0.4504 -0.4966 -0.1574
 6207SOL    HW130080   2.854   3.684   5.562  1.4990 -1.2558 -1.4256
 6207SOL    HW230081   2.769   3.767   5.472 -1.1075 -2.7287  1.2126
 6208SOL     OW30082   1.180   2.021   6.860 -0.2453 -0.0174  0.1758
 6208SOL    HW130083   1.143   2.010   6.772  0.1530  3.3018 -0.4183
 6208SOL    HW230084   1.274   2.024   6.842 -0.3385  0.9944 -0.1034
 6209SOL     OW30085   1.062   0.793   6.481  0.3908  0.0337  0.7913
 6209SOL    HW130086   0.990   0.746   6.523  1.0461 -0.9684  0.7947
 6209SOL    HW230087   1.090   0.722   6.424  0.7095 -1.4867  2.8292
 6210SOL     OW30088   1.846   2.493   6.158  0.0408  0.3601  0.1681
 6210SOL    HW130089   1.768   2.465   6.111  0.2085 -0.8364  0.5935
 6210SOL    HW230090   1.890   2.411   6.184 -0.8761 -0.6838 -1.5956
 6211SOL     OW30091   0.284   2.147   3.531 -0.2559  0.8609  0.0902
 6211SOL    HW130092   0.352   2.165   3.466  0.8087 -0.7879  0.7635
 6211SOL    HW230093   0.214   2.209   3.506 -0.6120 -0.2333 -1.6667
 6212SOL     OW30094   0.134   3.603   7.150  0.1178 -0.3106 -0.2552
 6212SOL    HW130095   0.093   3.539   7.209 -1.5089  1.4357  0.5207
 6212SOL    HW230096   0.097   3.566   7.070 -0.9293  0.4807 -0.1413
 6213SOL     OW30097   1.069   2.347   9.728  0.1876  0.3850 -0.0301
 6213SOL    HW130098   1.041   2.257   9.716  1.0048 -0.0768  1.5831
 6213SOL    HW230099   0.984   2.392   9.735  0.5762  1.1847 -0.4579
 6214SOL     OW30100   0.694   0.394   7.241  0.5411  0.4680  0.3359
 6214SOL    HW130101   0.700   0.414   7.334  3.1874  0.6609  0.1109
 6214SOL    HW230102   0.681   0.481   7.204 -1.8450  0.0798  0.2390
 6215SOL     OW30103   0.530   3.056   4.143 -0.3777 -0.4467  0.0032
 6215SOL    HW130104   0.605   3.115   4.137 -1.1706  0.6228  0.6841
 6215SOL    HW230105   0.528   3.053   4.238 -0.6225 -1.3510 -0.0321
 6216SOL     OW30106   2.766   3.858   6.628  0.0684  0.5962 -0.3475
 6216SOL    HW130107   2.777   3.763   6.621 -1.0514  0.3200  1.5022
 6216SOL    HW230108   2.834   3.883   6.690 -1.1196 -0.3147  1.3480
 6217SOL     OW30109   0.093   1.463   8.099  0.0405  0.3989 -0.3613
 6217SOL    HW130110   0.022   1.503   8.048  0.4494 -1.0194 -2.0345
 6217SOL    HW230111   0.138   1.543   8.127  1.7450 -0.7103  0.0427
 6218SOL     OW30112   1.736   2.864   1.563  0.1619 -0.0543  0.2200
 6218SOL    HW130113   1.787   2.936   1.526 -0.4684  0.3233  0.0802
 6218SOL    HW230114   1.762   2.783   1.518 -0.2133 -0.1778  0.2194
 6219SOL     OW30115   1.867   1.705   3.877  0.1831 -0.2140  0.0129
 6219SOL    HW130116   1.952   1.709   3.834  0.8806 -0.9375  1.2912
 6219SOL    HW230117   1.834   1.619   3.850 -1.1516 -0.2391  1.6538
 6220SOL     OW30118   0.196   3.109   6.282 -0.5839 -0.2402 -0.4734
 6220SOL    HW130119   0.110   3.085   6.316  0.3191 -1.7409  0.7179
 6220SOL    HW230120   0.199   3.055   6.203 -1.3296 -2.0847  0.7678
 6221SOL     OW30121   3.911   2.918   8.120 -0.0378 -0.2989 -0.4577
 6221SOL    HW130122   3.908   2.855   8.048 -0.6402 -1.8834  0.9668
 6221SOL    HW230123   3.926   2.855   8.190  1.3992 -0.0505 -0.5359
 6222SOL     OW30124   0.724   3.274   4.818  0.7492  0.3447  0.0513
 6222SOL    HW130125   0.775   3.193   4.817  0.8028  0.3738  0.4725
 6222SOL    HW230126   0.671   3.267   4.897  0.9054  1.0015  0.2193
 6223SOL     OW30127   3.382   1.421   2.506  0.6265 -0.1058 -0.1848
 6223SOL    HW130128   3.420   1.492   2.454 -0.9935 -0.0117 -1.2475
 6223SOL    HW230129   3.296   1.399   2.470  0.7992  0.1113 -0.7210
 6224SOL     OW30130   4.469   3.387   2.070 -0.1185 -0.4339  0.5848
 6224SOL    HW130131   4.428   3.427   2.147  0.8619 -2.7975  2.3658
 6224SOL    HW230132   4.548   3.441   2.067 -0.4391  0.1320  2.2103
 6225SOL     OW30133   3.718   0.771  15.991  0.5319 -0.1930 -0.0133
 6225SOL    HW130134   3.770   0.754  15.913 -1.6247 -2.5580 -0.9462
 6225SOL    HW230135   3.783   0.790  16.059 -1.7357  1.6619  1.6403
 6226SOL     OW30136   2.787   1.990   7.086 -0.4701 -0.4592 -0.5583
 6226SOL    HW130137   2.727   1.994   7.160 -0.2138 -0.1111 -0.3709
 6226SOL    HW230138   2.824   2.078   7.086  1.7621 -1.3802  0.3127
 6227SOL     OW30139   2.596   3.892   5.353 -0.2113 -0.2086 -0.0944
 6227SOL    HW130140   2.649   3.970   5.371 -0.0687  0.5366 -3.7933
 6227SOL    HW230141   2.505   3.914   5.337 -0.8080 -1.9723  0.9177
 6228SOL     OW30142   1.644   4.345   8.746  0.0122 -0.5001  0.1431
 6228SOL    HW130143   1.559   4.316   8.779  0.8173 -3.5442 -0.4872
 6228SOL    HW230144   1.651   4.430   8.790  2.5161 -0.5097 -0.2490
 6229SOL     OW30145   3.767   1.602   8.026 -0.0739 -0.4573  0.0520
 6229SOL    HW130146   3.687   1.603   8.078 -1.3608  0.6277 -1.9485
 6229SOL    HW230147   3.834   1.572   8.087  0.2719  0.9160  0.3405
 6230SOL     OW30148   3.383   3.669   3.841 -0.5067  0.1597 -0.2930
 6230SOL    HW130149   3.434   3.591   3.864  0.0387  0.4335 -0.5807
 6230SOL    HW230150   3.428   3.740   3.888 -0.1147 -0.5958  0.4745
 6231SOL     OW30151   0.368   2.957   7.135  0.6308 -0.6511  0.0100
 6231SOL    HW130152   0.274   2.943   7.149  0.4316 -0.5377 -1.2941
 6231SOL    HW230153   0.367   2.896   7.062  0.2966 -0.7276  0.0754
 6232SOL     OW30154   1.268   2.321   4.566  0.3689  0.2420  0.6020
 6232SOL    HW130155   1.194   2.320   4.506 -0.1392  0.0612  1.2332
 6232SOL    HW230156   1.257   2.414   4.587 -0.9163 -0.6132  3.8048
 6233SOL     OW30157   3.547   0.738   2.145 -0.8624  0.2651  0.0888
 6233SOL    HW130158   3.482   0.803   2.169 -1.1336  0.0359 -0.0253
 6233SOL    HW230159   3.619   0.800   2.139 -1.2255  0.4643 -2.3640
 6234SOL     OW30160   2.654   2.583   1.867 -0.3473 -0.0673 -0.2717
 6234SOL    HW130161   2.720   2.608   1.802  0.4821 -0.1758  0.5366
 6234SOL    HW230162   2.687   2.636   1.939 -0.2585  0.1587 -0.4777
 6235SOL     OW30163   3.579   0.276   8.592 -0.1984 -0.2508 -0.0889
 6235SOL    HW130164   3.606   0.218   8.663 -0.2098 -0.1817 -0.0287
 6235SOL    HW230165   3.546   0.346   8.648 -4.1524 -0.2121 -2.4497
 6236SOL     OW30166   0.876   3.503  11.839  0.0716  0.7799 -0.2113
 6236SOL    HW130167   0.825   3.569  11.791  1.3574  2.1637  0.3130
 6236SOL    HW230168   0.961   3.516  11.797  1.0573 -0.5700  1.3902
 6237SOL     OW30169   4.173   2.767   1.613 -0.1431 -0.0466  0.1017
 6237SOL    HW130170   4.181   2.765   1.708  0.4967 -0.2182  0.0422
 6237SOL    HW230171   4.156   2.673   1.610 -3.2241  0.5435 -0.5159
 6238SOL     OW30172   4.661   2.641  11.062 -0.4389  0.2080  0.3210
 6238SOL    HW130173   4.724   2.603  11.122  1.1685  0.6731 -1.0739
 6238SOL    HW230174   4.653   2.733  11.087 -2.6903 -0.5577  2.4426
 6239SOL     OW30175   3.758   1.054   3.425  0.3854  0.1465  0.3914
 6239SOL    HW130176   3.691   1.051   3.492  0.8669  1.3822  0.9305
 6239SOL    HW230177   3.803   0.970   3.436  1.1833  0.6924  1.3506
 6240SOL     OW30178   4.012   1.030   8.642  0.2909  0.4311  0.1970
 6240SOL    HW130179   3.965   1.102   8.685  2.1446  1.4828  0.4635
 6240SOL    HW230180   3.962   0.957   8.679  1.3131  0.0638  0.8430
 6241SOL     OW30181   3.262   3.890  17.080  0.2240  0.1923  0.3633
 6241SOL    HW130182   3.178   3.853  17.051 -0.0235  1.4198 -0.4916
 6241SOL    HW230183   3.227   3.979  17.090 -2.8317 -0.7227 -2.1541
 6242SOL     OW30184   3.535   0.300   5.114  0.6310 -0.5701 -0.2152
 6242SOL    HW130185   3.564   0.389   5.092  0.1007 -0.1627  0.7460
 6242SOL    HW230186   3.440   0.306   5.109  0.7196  1.1165  0.0455
 6243SOL     OW30187   2.377   2.982   6.116 -0.0199 -0.2090  0.2338
 6243SOL    HW130188   2.399   3.073   6.133 -0.6412  0.4552 -2.5549
 6243SOL    HW230189   2.432   2.963   6.040 -0.2663 -2.3330  0.5855
 6244SOL     OW30190   0.804   3.120   9.378 -0.3624  0.8925  0.0724
 6244SOL    HW130191   0.788   3.189   9.443 -1.7683  0.2729  0.3774
 6244SOL    HW230192   0.855   3.177   9.320 -1.8965  0.9675 -1.2043
 6245SOL     OW30193   2.894   2.357   3.352  0.0757  0.1254  0.4906
 6245SOL    HW130194   2.835   2.281   3.347  2.2582 -1.4792 -0.6749
 6245SOL    HW230195   2.869   2.405   3.273  2.0580 -0.9235 -0.7612
 6246SOL     OW30196   2.084   3.609  14.512  0.2746 -0.5415  0.3294
 6246SOL    HW130197   2.024   3.535  14.505 -0.3092 -0.2114  1.7424
 6246SOL    HW230198   2.018   3.679  14.513  1.8269  0.9325  0.2105
 6247SOL     OW30199   3.688   1.498  10.284 -0.3659 -0.0033 -0.2871
 6247SOL    HW130200   3.725   1.578  10.247  0.0931 -0.4510 -0.7929
 6247SOL    HW230201   3.707   1.432  10.217  1.6306 -0.3984  0.6932
 6248SOL     OW30202   2.367   2.720   7.308  0.7183 -0.4017  1.3071
 6248SOL    HW130203   2.372   2.630   7.339  3.0521 -1.6371 -2.5794
 6248SOL    HW230204   2.456   2.746   7.283  0.1247  1.5533  1.2161
 6249SOL     OW30205   0.660   4.206   7.259  0.2685  0.3091 -0.3849
 6249SOL    HW130206   0.595   4.275   7.249 -1.2501 -0.8857  1.1823
 6249SOL    HW230207   0.743   4.244   7.229 -1.0458  3.0250 -0.5771
 6250SOL     OW30208   1.023   1.329   6.054  0.6849 -0.3463 -0.1285
 6250SOL    HW130209   0.997   1.311   6.144  2.5564  0.4237  0.5637
 6250SOL    HW230210   1.096   1.270   6.033  1.5138 -0.1587  2.2220
 6251SOL     OW30211   2.934   3.778  14.529 -0.5667  0.1399 -0.3493
 6251SOL    HW130212   2.855   3.724  14.526  0.6638 -1.6284 -1.0392
 6251SOL    HW230213   2.947   3.784  14.434  1.1582 -2.1897 -0.2690
 6252SOL     OW30214   3.145   2.382  14.883  0.1272 -0.7251  0.2465
 6252SOL    HW130215   3.092   2.315  14.839  0.0095  0.0319 -0.7741
 6252SOL    HW230216   3.097   2.461  14.857  1.3958 -0.2048 -0.4903
 6253SOL     OW30217   2.097   0.768  14.209  0.3916 -0.0557 -0.2773
 6253SOL    HW130218   2.109   0.762  14.304  0.1314 -0.8329 -0.2968
 6253SOL    HW230219   2.108   0.677  14.182 -0.9109 -0.5012  0.6922
 6254SOL     OW30220   0.445   3.073   3.319  0.1637 -0.8063  1.1444
 6254SOL    HW130221   0.420   3.151   3.269 -0.0376 -2.1217 -0.8247
 6254SOL    HW230222   0.365   3.021   3.318 -0.1185 -0.3666 -0.5546
 6255SOL     OW30223   3.918   1.292   6.576  0.4954 -0.2876 -0.5242
 6255SOL    HW130224   3.912   1.292   6.671  0.2767 -0.7776 -0.5400
 6255SOL    HW230225   3.979   1.220   6.565  1.8899  1.0376 -1.4833
 6256SOL     OW30226   2.798   4.685  16.015 -0.4974 -0.2948 -0.3664
 6256SOL    HW130227   2.858   4.686  16.090 -1.7598 -2.2875  0.6524
 6256SOL    HW230228   2.862   4.678  15.945 -1.5393 -1.1478 -1.2244
 6257SOL     OW30229   2.155   2.045   5.929  0.3074 -0.0544  0.7078
 6257SOL    HW130230   2.088   2.070   5.865  0.0746 -1.4484  0.4009
 6257SOL    HW230231   2.226   2.022   5.869 -0.4532  2.1191 -1.0362
 6258SOL     OW30232   0.215   0.960   9.031  0.5356  0.3616 -0.5376
 6258SOL    HW130233   0.140   0.964   9.090  0.6782  0.3890 -0.3593
 6258SOL    HW230234   0.285   0.998   9.084 -0.1449  1.3466 -0.3566
 6259SOL     OW30235   4.433   1.872   5.585 -0.2484 -0.0496  0.2697
 6259SOL    HW130236   4.515   1.834   5.618  1.0416  0.9422 -1.7624
 6259SOL    HW230237   4.378   1.794   5.582 -1.9947  1.2413 -1.4829
 6260SOL     OW30238   2.845   3.510  10.678  0.3347 -0.3634 -0.2734
 6260SOL    HW130239   2.778   3.530  10.743  1.4203 -0.6822  0.9409
 6260SOL    HW230240   2.912   3.578  10.681 -1.4753  1.4852 -1.5074
 6261SOL     OW30241   4.498   1.551   4.796 -0.0707 -0.2023 -0.6732
 6261SOL    HW130242   4.444   1.602   4.857  1.6881 -1.1806  1.6842
 6261SOL    HW230243   4.518   1.469   4.840  1.2776  0.8614  0.6777
 6262SOL     OW30244   0.985   2.689   7.322  0.5931  0.1556 -0.4750
 6262SOL    HW130245   1.069   2.665   7.361 -0.9072  0.1477  2.7108
 6262SOL    HW230246   1.016   2.735   7.243 -0.0357  1.0534 -0.1937
 6263SOL     OW30247   1.023   3.630   1.106 -0.7003 -0.2648 -0.3599
 6263SOL    HW130248   1.118   3.638   1.105 -0.7063 -0.1602  0.2364
 6263SOL    HW230249   1.010   3.614   1.012  0.1363 -1.2273 -0.3099
 6264SOL     OW30250   1.673   2.911   6.175  0.5565 -0.0094  0.3873
 6264SOL    HW130251   1.612   2.982   6.196 -0.2200 -0.4616 -0.2990
 6264SOL    HW230252   1.741   2.908   6.242  1.1340 -0.2964 -0.2132
 6265SOL     OW30253   4.415   2.046   2.622  0.0826  0.2025  0.1912
 6265SOL    HW130254   4.479   2.038   2.551  0.2701  0.1718  0.3618
 6265SOL    HW230255   4.402   1.951   2.630  1.2504  0.0195 -0.0783
 6266SOL     OW30256   3.263   3.584   5.253 -0.0445  0.4539  0.5784
 6266SOL    HW130257   3.242   3.639   5.328 -1.2716  0.3905  0.2740
 6266SOL    HW230258   3.353   3.562   5.279 -0.8058 -2.2792  0.8929
 6267SOL     OW30259   3.724   4.148   4.192  0.3525 -0.1030  0.1161
 6267SOL    HW130260   3.795   4.205   4.223  0.5999 -1.1751  1.5135
 6267SOL    HW230261   3.777   4.089   4.139 -1.9448  0.3293 -2.6350
 6268SOL     OW30262   2.520   3.983   6.900 -0.3630 -0.1749  0.2686
 6268SOL    HW130263   2.475   3.955   6.979  1.5418  0.2881  1.5024
 6268SOL    HW230264   2.507   3.912   6.837  0.7415  0.7629 -1.0394
 6269SOL     OW30265   0.544   0.614  12.201  0.3170 -0.0078 -0.3583
 6269SOL    HW130266   0.494   0.579  12.275  1.0147 -1.2296 -0.4695
 6269SOL    HW230267   0.625   0.642  12.243 -1.0224  0.1786  2.1682
 6270SOL     OW30268   0.428   1.339  17.442  0.0951  0.1304 -0.2891
 6270SOL    HW130269   0.517   1.368  17.460  0.5526 -0.3879 -1.6743
 6270SOL    HW230270   0.380   1.405  17.491 -0.7831  0.0037 -0.9739
 6271SOL     OW30271   1.066   3.877  15.250 -0.4214  0.3724 -0.0857
 6271SOL    HW130272   1.132   3.823  15.294 -1.4773  0.3382  1.4325
 6271SOL    HW230273   0.994   3.882  15.313 -0.1000  2.9578  0.0760
 6272SOL     OW30274   3.332   0.462  12.575  0.1553  0.2262 -0.0890
 6272SOL    HW130275   3.425   0.475  12.589  0.2776  0.0797 -0.7658
 6272SOL    HW230276   3.295   0.449  12.662 -0.3869 -1.0974 -0.5197
 6273SOL     OW30277   0.223   4.617  12.033 -0.3686  0.0674  0.2104
 6273SOL    HW130278   0.274   4.543  12.066 -0.6673  0.3278  1.2347
 6273SOL    HW230279   0.280   4.692  12.048  0.1956 -0.1038 -1.0833
 6274SOL     OW30280   4.383   0.028  12.866 -0.3080 -0.2977  0.4417
 6274SOL    HW130281   4.423   0.112  12.887 -0.4174  0.3878 -2.0365
 6274SOL    HW230282   4.320   0.033  12.938 -1.5068 -0.8829 -0.5770
 6275SOL     OW30283   0.244   1.008   5.212  0.1389 -0.1773  0.0802
 6275SOL    HW130284   0.286   1.089   5.241  0.7327  0.0812 -1.5409
 6275SOL    HW230285   0.318   0.948   5.224 -1.0870 -2.0729 -1.9240
 6276SOL     OW30286   0.244   2.892   3.718  0.5923  0.2418 -0.3017
 6276SOL    HW130287   0.272   2.834   3.788 -1.6427 -2.9616 -2.0448
 6276SOL    HW230288   0.330   2.909   3.680  1.0049 -0.3012  0.4065
 6277SOL     OW30289   2.756   2.087   7.469 -0.1620  0.2623  0.1524
 6277SOL    HW130290   2.828   2.037   7.508 -0.2100  0.3117  0.3056
 6277SOL    HW230291   2.715   2.129   7.545 -0.7562 -0.0877  0.0273
 6278SOL     OW30292   2.183   0.335   4.444  0.3860  0.3414 -0.3936
 6278SOL    HW130293   2.150   0.399   4.380  0.7670  0.9820  0.0565
 6278SOL    HW230294   2.269   0.319   4.406  1.0398  0.1062  1.2133
 6279SOL     OW30295   0.097   4.335   6.292  0.1613  0.0496 -0.1506
 6279SOL    HW130296   0.103   4.325   6.197  1.3081 -2.1155  0.1552
 6279SOL    HW230297   0.140   4.420   6.299 -0.1187  0.2775 -1.1288
 6280SOL     OW30298   1.912   2.265   5.132  0.3809  0.0793  0.4126
 6280SOL    HW130299   1.842   2.235   5.190 -1.0942  1.3572 -0.7079
 6280SOL    HW230300   1.873   2.345   5.097  0.1513  0.3493  1.2835
 6281SOL     OW30301   3.262   4.168   9.708 -0.1043  0.1562  0.3098
 6281SOL    HW130302   3.335   4.157   9.769 -0.3265  0.5035  0.6411
 6281SOL    HW230303   3.251   4.079   9.675 -0.5207 -0.7951  2.9330
 6282SOL     OW30304   1.236   0.163  17.533 -0.0112 -0.0648 -0.1205
 6282SOL    HW130305   1.217   0.153  17.626 -0.0096  0.1130 -0.1016
 6282SOL    HW230306   1.208   0.082  17.490 -0.7451 -0.6249  1.4336
 6283SOL     OW30307   1.778   1.503   5.440  0.6913  0.1607  0.2454
 6283SOL    HW130308   1.853   1.492   5.381  1.3954  0.5441  1.0560
 6283SOL    HW230309   1.722   1.454   5.381 -0.0911  0.0554  1.0696
 6284SOL     OW30310   3.576   0.158  16.536  0.1892  0.5036  0.2716
 6284SOL    HW130311   3.662   0.129  16.507  0.4458  0.6184  0.9308
 6284SOL    HW230312   3.525   0.094  16.585 -1.2276  4.1598  3.6237
 6285SOL     OW30313   1.707   3.363  16.651  0.5310  0.2145  0.3789
 6285SOL    HW130314   1.791   3.326  16.625  0.7319  2.1204 -1.6761
 6285SOL    HW230315   1.697   3.320  16.736  0.2015  1.1103  0.7883
 6286SOL     OW30316   3.856   1.941   8.438  0.5373  0.3073  0.0809
 6286SOL    HW130317   3.897   1.921   8.353 -1.2944 -0.0264 -0.7201
 6286SOL    HW230318   3.924   1.984   8.489  1.9338  0.6988 -2.0735
 6287SOL     OW30319   1.161   2.549  11.192 -0.0436 -0.7109  0.1386
 6287SOL    HW130320   1.066   2.545  11.201 -0.0534  0.3317  0.4626
 6287SOL    HW230321   1.193   2.513  11.275  2.6898 -1.1819 -1.0955
 6288SOL     OW30322   0.365   3.680   9.168 -0.4786  0.0418  0.1771
 6288SOL    HW130323   0.361   3.776   9.172  2.2097  0.1628 -0.0253
 6288SOL    HW230324   0.350   3.661   9.261 -0.1936  3.2780  0.8811
 6289SOL     OW30325   1.716   1.014  16.160 -0.0317 -0.0168  0.4050
 6289SOL    HW130326   1.692   1.028  16.069  1.2578  0.9687  0.2219
 6289SOL    HW230327   1.779   0.943  16.145  0.5884  0.3956  1.0309
 6290SOL     OW30328   3.826   1.172   7.248 -0.0516  0.2705  0.0363
 6290SOL    HW130329   3.902   1.226   7.229 -0.5342  1.3826  1.2431
 6290SOL    HW230330   3.754   1.226   7.284 -2.7599 -1.2739 -3.0779
 6291SOL     OW30331   4.704   1.494   2.439  0.4463  0.0037 -0.3336
 6291SOL    HW130332   0.045   1.530   2.499  0.1179 -2.0365  1.2333
 6291SOL    HW230333   4.622   1.491   2.487  0.4633  4.0503 -0.0379
 6292SOL     OW30334   0.616   0.378   7.742  0.3875  0.5300 -0.1178
 6292SOL    HW130335   0.653   0.312   7.801  1.5032 -0.4253 -1.8856
 6292SOL    HW230336   0.584   0.448   7.799  1.1862 -0.1901  1.2157
 6293SOL     OW30337   2.269   3.628  16.306  0.3677 -0.3320  0.3375
 6293SOL    HW130338   2.238   3.565  16.241 -2.3412 -0.5149  1.8486
 6293SOL    HW230339   2.262   3.580  16.388  0.5261  0.9264  1.0695
 6294SOL     OW30340   3.834   4.443  16.950  0.0168 -0.1575 -0.5891
 6294SOL    HW130341   3.836   4.358  16.906  2.8138 -0.4160  0.0508
 6294SOL    HW230342   3.808   4.414  17.037 -2.5540  0.4694 -1.1329
 6295SOL     OW30343   3.406   1.021  16.123 -0.2660  0.2179  0.0218
 6295SOL    HW130344   3.313   0.998  16.115  0.2231 -1.3107 -1.2233
 6295SOL    HW230345   3.409   1.098  16.066  1.6655 -0.7547 -1.1853
 6296SOL     OW30346   4.697   2.191   4.406  0.1262  0.5758 -0.0956
 6296SOL    HW130347   4.680   2.131   4.479  0.4819  0.7069  0.0970
 6296SOL    HW230348   4.624   2.186   4.345  0.8461 -0.4008 -0.8804
 6297SOL     OW30349   4.429   4.294   4.926  0.2324  1.1066 -0.6150
 6297SOL    HW130350   4.381   4.352   4.866  2.7245  1.3947 -2.3404
 6297SOL    HW230351   4.384   4.303   5.010 -0.4281  0.5493 -0.9098
 6298SOL     OW30352   0.447   4.578   6.216  0.1908  0.0701 -0.1783
 6298SOL    HW130353   0.504   4.543   6.284  0.3862  1.0105  0.1344
 6298SOL    HW230354   0.366   4.577   6.266 -0.4196 -1.6775 -1.1783
 6299SOL     OW30355   4.364   0.445   7.582  0.1685  0.4484 -0.3232
 6299SOL    HW130356   4.278   0.473   7.613  0.1471  0.3445 -0.2917
 6299SOL    HW230357   4.411   0.422   7.662  1.1158  0.5311 -0.8480
 6300SOL     OW30358   0.337   0.060   8.318  0.4956  0.2900 -0.0413
 6300SOL    HW130359   0.295   4.699   8.330  0.8401 -0.2536 -2.7820
 6300SOL    HW230360   0.302   0.107   8.394  1.3600  0.6941  0.1012
 6301SOL     OW30361   3.106   3.028  13.129 -0.4803 -0.0170  0.1017
 6301SOL    HW130362   3.183   3.079  13.103 -1.5628  2.3667  1.5218
 6301SOL    HW230363   3.104   2.973  13.051 -2.0946  0.6991 -0.3741
 6302SOL     OW30364   4.293   4.598   6.091  0.0030  0.3260  0.0228
 6302SOL    HW130365   4.219   4.587   6.032 -1.4361  0.8656  1.7201
 6302SOL    HW230366   4.322   4.688   6.075 -1.8746  0.7256 -1.1235
 6303SOL     OW30367   1.626   3.848   6.039 -0.3358 -0.0645  0.1068
 6303SOL    HW130368   1.562   3.817   6.103  0.0755 -0.1346  0.4842
 6303SOL    HW230369   1.706   3.800   6.063 -0.0352  0.7117  0.6495
 6304SOL     OW30370   3.643   0.774  12.992  0.0918 -0.2024  0.2459
 6304SOL    HW130371   3.695   0.760  13.072  0.5828 -0.8364 -0.1862
 6304SOL    HW230372   3.652   0.868  12.973  0.2465 -0.2596  0.0420
 6305SOL     OW30373   0.952   1.826   7.635 -0.2520  0.3691  0.6606
 6305SOL    HW130374   0.870   1.838   7.587 -0.4035  0.1590  0.8671
 6305SOL    HW230375   0.947   1.731   7.639  0.4094  0.3573  1.1643
 6306SOL     OW30376   0.484   4.442   3.355  0.1903  0.1111  0.5786
 6306SOL    HW130377   0.417   4.501   3.390  0.4132 -0.1148  1.3890
 6306SOL    HW230378   0.446   4.421   3.270  1.3449 -1.0228  0.3417
 6307SOL     OW30379   1.950   3.348   2.093  0.6087  0.1425 -0.8822
 6307SOL    HW130380   1.877   3.350   2.155  1.0619 -0.4131 -0.3411
 6307SOL    HW230381   1.980   3.259   2.108 -0.8165 -0.0846  0.5238
 6308SOL     OW30382   3.057   3.629   3.259  0.3796 -0.2107  0.0620
 6308SOL    HW130383   3.151   3.647   3.259  0.5915 -1.1538  4.0464
 6308SOL    HW230384   3.043   3.598   3.349  1.3928 -1.3518 -0.1925
 6309SOL     OW30385   3.625   4.600  16.306 -0.8995  0.1562 -0.3488
 6309SOL    HW130386   3.639   4.683  16.260  0.4787 -0.5342 -1.1710
 6309SOL    HW230387   3.586   4.616  16.392 -1.3724 -1.8558 -0.1895
 6310SOL     OW30388   4.280   0.838   7.822 -0.2673 -0.3311  0.1369
 6310SOL    HW130389   4.255   0.931   7.825  3.0752  0.5283  1.4967
 6310SOL    HW230390   4.201   0.800   7.783  1.7614 -2.4724 -1.8512
 6311SOL     OW30391   4.653   0.610  15.858 -0.1370  0.3792  0.1846
 6311SOL    HW130392   4.657   0.626  15.764 -1.6727 -0.5636 -0.0482
 6311SOL    HW230393   4.603   0.684  15.892  0.6997  2.1256 -2.3911
 6312SOL     OW30394   4.303   2.808   7.369  0.2151 -0.0535 -0.2173
 6312SOL    HW130395   4.310   2.746   7.297  3.2762  1.7546 -1.5140
 6312SOL    HW230396   4.232   2.867   7.345  0.6982 -0.3454 -2.3901
 6313SOL     OW30397   2.823   3.208   5.530 -0.2730  0.2268  0.0360
 6313SOL    HW130398   2.809   3.300   5.505 -0.6699 -0.0865 -0.9199
 6313SOL    HW230399   2.835   3.168   5.443 -1.7769  0.3966 -0.2490
 6314SOL     OW30400   2.163   3.494   2.004  0.0849  0.4858 -0.1631
 6314SOL    HW130401   2.226   3.468   1.937  2.7913  1.1350  2.1445
 6314SOL    HW230402   2.119   3.412   2.026 -0.8240  0.6017 -1.5331
 6315SOL     OW30403   4.602   1.408   3.846 -0.1043 -0.3570 -0.6842
 6315SOL    HW130404   4.516   1.384   3.882  0.2396 -2.0635 -1.0207
 6315SOL    HW230405   4.613   1.493   3.890  0.1038  0.7534 -2.8899
 6316SOL     OW30406   0.588   0.606   6.877  0.0485 -0.0902  0.0286
 6316SOL    HW130407   0.574   0.677   6.814 -0.5508  1.5411  1.9870
 6316SOL    HW230408   0.578   0.658   6.957 -4.8714 -0.1538 -0.5418
 6317SOL     OW30409   0.900   0.527  12.945  0.1412  0.3902 -0.5274
 6317SOL    HW130410   0.926   0.513  13.036  0.3545  3.5246 -0.1216
 6317SOL    HW230411   0.886   0.437  12.915  1.6813  0.0203 -0.1802
 6318SOL     OW30412   1.735   4.601   3.539 -0.3896  1.0337 -0.5323
 6318SOL    HW130413   1.707   4.612   3.448 -3.2262 -0.0368  0.2323
 6318SOL    HW230414   1.815   4.654   3.545  1.2655 -1.5930  1.0269
 6319SOL     OW30415   2.066   4.321   3.089 -0.1392  0.4845 -0.1336
 6319SOL    HW130416   1.996   4.308   3.154  0.4506 -1.3943  0.1143
 6319SOL    HW230417   2.114   4.240   3.105 -1.2779 -0.3086 -0.6805
 6320SOL     OW30418   3.841   0.917   4.372  0.0330  0.4919  0.1524
 6320SOL    HW130419   3.888   0.861   4.310 -0.7339 -0.0316  0.0440
 6320SOL    HW230420   3.761   0.868   4.391  1.5390 -1.9934  0.0933
 6321SOL     OW30421   2.603   0.996   5.598  0.3568 -0.4762 -0.5184
 6321SOL    HW130422   2.564   1.060   5.658  0.9525 -0.0396 -0.5932
 6321SOL    HW230423   2.685   0.986   5.647  1.0961  2.9621 -1.0245
 6322SOL     OW30424   0.614   1.993   6.363  0.0981  0.5600 -0.1108
 6322SOL    HW130425   0.607   2.055   6.436  3.4284 -0.5106  1.1004
 6322SOL    HW230426   0.705   1.998   6.334  0.5789  2.2035  1.6878
 6323SOL     OW30427   2.749   4.551   8.581 -0.0421  0.9319 -0.3825
 6323SOL    HW130428   2.842   4.573   8.580  0.2638 -0.2594  1.5507
 6323SOL    HW230429   2.740   4.616   8.651 -0.8925  0.7249 -0.3003
 6324SOL     OW30430   3.933   2.465   6.712 -0.4243 -0.3356  0.1100
 6324SOL    HW130431   3.859   2.403   6.716  0.2268 -1.2166 -1.6935
 6324SOL    HW230432   4.005   2.403   6.722 -0.4055 -0.0254  2.0258
 6325SOL     OW30433   2.575   2.208   8.506 -0.1182 -1.0901 -0.0588
 6325SOL    HW130434   2.658   2.187   8.547 -0.3908  1.6424  1.8778
 6325SOL    HW230435   2.593   2.190   8.413  0.5990 -1.1976  0.1065
 6326SOL     OW30436   1.897   0.639   5.467  0.1163 -0.3434  0.1189
 6326SOL    HW130437   1.888   0.645   5.562  1.2268  0.8566  0.1404
 6326SOL    HW230438   1.847   0.714   5.437 -0.2621 -1.3999 -1.9054
 6327SOL     OW30439   2.771   1.596  12.253 -0.0189  0.1964 -0.0378
 6327SOL    HW130440   2.681   1.574  12.276 -0.7374 -1.0112 -3.8531
 6327SOL    HW230441   2.752   1.654  12.180  0.4777  0.8389  0.3451
 6328SOL     OW30442   1.033   0.430   5.714 -0.5417  0.3641 -0.7722
 6328SOL    HW130443   1.097   0.396   5.652  0.7527  2.3872 -0.5671
 6328SOL    HW230444   1.019   0.349   5.762  2.0481 -1.0769 -2.4350
 6329SOL     OW30445   0.703   0.398   6.117  0.3578 -0.3125 -0.0814
 6329SOL    HW130446   0.628   0.341   6.100  1.1225 -1.1966 -0.5637
 6329SOL    HW230447   0.701   0.443   6.032  0.7935  0.3709  0.2682
 6330SOL     OW30448   2.639   4.226   7.542 -0.1542 -0.1875  0.2208
 6330SOL    HW130449   2.730   4.256   7.535 -0.6553  0.8464 -1.9991
 6330SOL    HW230450   2.601   4.271   7.466  2.3421  2.6186  0.6422
 6331SOL     OW30451   0.200   0.442  17.437 -0.4626  0.3636  0.0667
 6331SOL    HW130452   0.186   0.514  17.498 -1.9774  0.9660 -1.0116
 6331SOL    HW230453   0.115   0.399  17.445 -1.8963  2.8444 -1.9003
 6332SOL     OW30454   1.388   0.764   6.073 -0.2359  0.7184  0.3514
 6332SOL    HW130455   1.312   0.718   6.040 -1.6112  2.1390  1.5335
 6332SOL    HW230456   1.401   0.828   6.003 -0.1662  0.1793 -0.1284
 6333SOL     OW30457   1.633   1.090   6.534 -0.3028 -0.1654  0.2720
 6333SOL    HW130458   1.633   1.080   6.438 -0.0092 -0.5379  0.3087
 6333SOL    HW230459   1.683   1.022   6.580 -2.1269 -1.7356 -0.0808
 6334SOL     OW30460   4.714   1.810   8.661  0.0214 -0.1014 -0.3690
 6334SOL    HW130461   4.670   1.893   8.679  1.6873  0.8054 -0.3981
 6334SOL    HW230462   4.685   1.761   8.737  1.0242  1.0101  0.7467
 6335SOL     OW30463   3.855   2.896   6.405  0.6052 -0.3400  0.4002
 6335SOL    HW130464   3.817   2.941   6.480 -0.3097  0.9367 -0.8069
 6335SOL    HW230465   3.910   2.840   6.459 -0.3459 -1.3259  0.3292
 6336SOL     OW30466   2.790   0.087   8.663 -0.4162  0.0928  0.4482
 6336SOL    HW130467   2.861   0.098   8.726 -0.6346 -0.9289  0.8718
 6336SOL    HW230468   2.765   0.176   8.638  0.1560  0.0472 -0.2924
 6337SOL     OW30469   1.784   1.821   7.273  0.0995  0.1148  0.3020
 6337SOL    HW130470   1.719   1.765   7.231 -0.3844  0.2289  0.8892
 6337SOL    HW230471   1.859   1.792   7.221 -0.2348 -1.7434  0.8565
 6338SOL     OW30472   4.038   3.807   3.398 -0.1762 -0.7410 -0.1258
 6338SOL    HW130473   4.099   3.787   3.326  0.3023 -0.5497  0.2270
 6338SOL    HW230474   3.958   3.818   3.346  0.4310 -0.6228 -1.0492
 6339SOL     OW30475   1.883   1.919   2.379 -0.0301  0.6794  0.1340
 6339SOL    HW130476   1.861   1.891   2.290 -0.4635 -3.0157  1.3973
 6339SOL    HW230477   1.797   1.911   2.420 -0.6295  1.0838 -1.0402
 6340SOL     OW30478   4.429   3.655   3.344 -0.6773  0.3627 -0.6574
 6340SOL    HW130479   4.510   3.641   3.295 -0.5350 -2.5898  0.4116
 6340SOL    HW230480   4.371   3.694   3.280 -1.3687 -0.4817 -0.5422
 6341SOL     OW30481   3.648   3.038  10.750  0.3312  0.2407 -0.0184
 6341SOL    HW130482   3.597   2.986  10.812  0.6506  0.5612  0.5136
 6341SOL    HW230483   3.729   3.059  10.796  0.3362  0.4170 -0.1070
 6342SOL     OW30484   1.897   3.772   1.222  0.3803  0.1144 -0.2644
 6342SOL    HW130485   1.965   3.839   1.230 -1.3076  2.0126 -1.7652
 6342SOL    HW230486   1.947   3.693   1.199 -1.0926 -1.7521  2.9057
 6343SOL     OW30487   0.451   0.818   6.339  0.3197  0.1997  0.2536
 6343SOL    HW130488   0.435   0.877   6.413  0.9394  0.0265  0.5260
 6343SOL    HW230489   0.433   0.732   6.375  0.7055 -0.6760 -1.6696
 6344SOL     OW30490   0.272   1.640  11.436  0.8143  0.4514 -0.6053
 6344SOL    HW130491   0.192   1.598  11.403 -0.6683  3.4688 -0.8227
 6344SOL    HW230492   0.248   1.672  11.523 -0.3827  1.3391 -1.2501
 6345SOL     OW30493   1.984   3.456   3.028  0.2078  0.1655 -0.0013
 6345SOL    HW130494   1.929   3.504   2.966 -2.0083  0.9746  2.5569
 6345SOL    HW230495   2.015   3.527   3.085  0.8737  1.0118 -1.4275
 6346SOL     OW30496   0.999   2.447   6.183 -0.0558  0.0197  0.2869
 6346SOL    HW130497   0.954   2.464   6.266  1.6843 -0.1027  1.2499
 6346SOL    HW230498   0.922   2.439   6.126  1.2921  0.9254 -1.6754
 6347SOL     OW30499   0.180   0.789   7.406 -0.1735  0.3180  0.5219
 6347SOL    HW130500   0.088   0.815   7.402 -1.3556 -3.7600  1.2191
 6347SOL    HW230501   0.164   0.724   7.474  0.7302 -0.2907  0.1434
 6348SOL     OW30502   2.771   1.857   2.260 -0.0378 -0.2997  0.1089
 6348SOL    HW130503   2.853   1.899   2.233  0.1295  1.3016  3.0791
 6348SOL    HW230504   2.708   1.922   2.230 -1.1469 -1.8415 -0.8774
 6349SOL     OW30505   3.493   1.570   8.435  0.7761  0.1458  0.1317
 6349SOL    HW130506   3.583   1.541   8.421  0.9081  0.6258 -0.0047
 6349SOL    HW230507   3.491   1.549   8.528  0.4895 -1.3472 -0.2065
 6350SOL     OW30508   4.319   1.032   0.620 -0.1668 -0.0644 -0.8639
 6350SOL    HW130509   4.382   1.103   0.629 -0.4970 -0.0156  0.9647
 6350SOL    HW230510   4.313   1.020   0.714  0.4466 -0.7488 -0.9074
 6351SOL     OW30511   3.360   3.231   4.579 -0.1772  0.2244 -0.5492
 6351SOL    HW130512   3.366   3.176   4.658 -2.5699  1.0747  0.2423
 6351SOL    HW230513   3.280   3.283   4.593 -0.4391 -0.7233  1.5467
 6352SOL     OW30514   0.589   1.510   2.650 -0.2223  0.1528 -0.1899
 6352SOL    HW130515   0.579   1.547   2.562  1.6035 -0.1277 -0.5252
 6352SOL    HW230516   0.609   1.422   2.619 -1.6493  0.1466 -1.0851
 6353SOL     OW30517   4.600   2.226   3.391 -0.0687 -0.8185  0.0128
 6353SOL    HW130518   4.517   2.270   3.374  0.5953  0.0284 -1.0318
 6353SOL    HW230519   4.602   2.181   3.306  0.2715 -0.8699  0.0468
 6354SOL     OW30520   0.045   2.707  11.958 -0.3873 -0.2977  0.2313
 6354SOL    HW130521   4.692   2.750  11.921 -1.3276 -2.1273  0.0897
 6354SOL    HW230522   0.039   2.735  12.050  2.5703  0.5964  0.1415
 6355SOL     OW30523   0.073   0.243  15.101  0.4548  0.0207 -0.5329
 6355SOL    HW130524   0.084   0.152  15.071  1.6428  0.5049 -1.5636
 6355SOL    HW230525   4.702   0.248  15.108  0.5245  0.3994  0.1354
 6356SOL     OW30526   1.622   2.402   5.369  0.2729 -0.1172  0.2477
 6356SOL    HW130527   1.689   2.453   5.413 -0.8781  0.1847  1.6480
 6356SOL    HW230528   1.641   2.442   5.284 -1.6516  0.0949 -0.0878
 6357SOL     OW30529   3.486   0.248  11.679 -0.0849  0.2671  0.2205
 6357SOL    HW130530   3.433   0.234  11.600 -1.6356  0.7572  1.1688
 6357SOL    HW230531   3.463   0.171  11.732  0.6975 -1.0967 -1.4252
 6358SOL     OW30532   2.504   3.958   4.054  0.6698 -0.3002 -0.0579
 6358SOL    HW130533   2.571   4.011   4.010 -0.8596  0.0335 -1.9381
 6358SOL    HW230534   2.527   3.869   4.029 -0.6778 -0.5205 -0.5196
 6359SOL     OW30535   4.329   2.836   6.080 -0.2308  0.1459  0.1351
 6359SOL    HW130536   4.238   2.861   6.067 -0.5102 -1.2834 -0.7332
 6359SOL    HW230537   4.340   2.832   6.175  1.9345  0.7220 -0.0814
 6360SOL     OW30538   1.492   2.186   5.500 -0.3371  0.1327  0.1221
 6360SOL    HW130539   1.439   2.157   5.574  1.1378 -0.4536  0.9635
 6360SOL    HW230540   1.548   2.256   5.535 -1.7400  1.6607 -0.7334
 6361SOL     OW30541   2.509   2.958   4.745  0.1911  0.1201 -0.2251
 6361SOL    HW130542   2.498   3.029   4.807 -0.7798  0.2939 -0.6024
 6361SOL    HW230543   2.508   2.887   4.810  0.3946 -0.1387 -0.4999
 6362SOL     OW30544   4.332   3.025   7.706  0.1379  0.6192  0.4508
 6362SOL    HW130545   4.312   3.118   7.702  0.2772  0.6327  0.1090
 6362SOL    HW230546   4.350   3.009   7.799 -1.4666 -0.1392  0.6420
 6363SOL     OW30547   3.217   2.892   7.512  0.6115  0.1569 -0.4291
 6363SOL    HW130548   3.240   2.854   7.428  0.6097  1.0792 -0.8412
 6363SOL    HW230549   3.264   2.834   7.572  2.1007  2.4732  0.6672
 6364SOL     OW30550   4.456   2.487   2.728 -0.1893  0.4914 -0.5330
 6364SOL    HW130551   4.523   2.474   2.661 -0.5767 -0.1508 -0.7959
 6364SOL    HW230552   4.514   2.482   2.804 -0.2196 -0.0827 -0.5441
 6365SOL     OW30553   1.568   4.377  10.816 -0.6289  0.0727  0.5280
 6365SOL    HW130554   1.615   4.337  10.743 -1.0711 -1.0980  0.8853
 6365SOL    HW230555   1.492   4.319  10.824  0.6662 -2.0644 -2.2884
 6366SOL     OW30556   3.720   0.394  10.261  0.3974  0.1649 -0.0969
 6366SOL    HW130557   3.815   0.388  10.244  0.1624 -0.9430 -1.0438
 6366SOL    HW230558   3.717   0.487  10.282  0.9501 -0.3296  2.1985
 6367SOL     OW30559   4.349   4.417   7.540  0.1091 -0.2797  0.2009
 6367SOL    HW130560   4.421   4.464   7.498 -0.7777  2.6951  2.0535
 6367SOL    HW230561   4.378   4.326   7.531 -0.6388 -0.4608 -0.3454
 6368SOL     OW30562   2.212   2.636   5.633 -0.1593  0.4740 -0.4741
 6368SOL    HW130563   2.195   2.565   5.695 -1.4971 -0.5979 -2.0728
 6368SOL    HW230564   2.193   2.706   5.696  2.0741  2.2614 -1.7916
 6369SOL     OW30565   3.396   2.504   8.125 -0.6099  0.1323  0.0050
 6369SOL    HW130566   3.306   2.510   8.157  0.5283 -1.6152  3.5861
 6369SOL    HW230567   3.439   2.439   8.181  0.5824 -0.2867 -1.4045
 6370SOL     OW30568   2.543   0.715  10.185 -0.1947  0.5498  0.1183
 6370SOL    HW130569   2.514   0.784  10.245  0.6346  1.2954 -0.3469
 6370SOL    HW230570   2.459   0.675  10.159 -0.2932  2.1886 -2.0912
 6371SOL     OW30571   3.055   4.310   6.279 -0.0466 -0.2386  0.0857
 6371SOL    HW130572   3.003   4.285   6.202  2.2130  1.3729 -1.9924
 6371SOL    HW230573   3.119   4.358   6.225  0.7314 -1.3756 -0.0002
 6372SOL     OW30574   0.833   4.418   0.348 -0.4428  0.0204  0.3560
 6372SOL    HW130575   0.792   4.478   0.410 -0.0726 -1.5306  2.0856
 6372SOL    HW230576   0.892   4.370   0.405 -1.5628  0.6750  2.0659
 6373SOL     OW30577   3.506   2.048   3.265 -0.6801  0.7334 -0.0558
 6373SOL    HW130578   3.413   2.063   3.249 -0.5671 -0.2113 -1.5891
 6373SOL    HW230579   3.546   2.089   3.188 -0.3246 -2.3920 -1.5789
 6374SOL     OW30580   0.454   4.679   7.163 -0.0942  0.1607 -0.3070
 6374SOL    HW130581   0.545   4.700   7.185 -0.2530  2.5327 -1.8837
 6374SOL    HW230582   0.421   4.652   7.248  2.4389 -1.5625  0.1241
 6375SOL     OW30583   1.015   0.794   4.672  0.1094  0.5711  0.0247
 6375SOL    HW130584   1.016   0.751   4.586 -0.0123 -0.1394  0.3794
 6375SOL    HW230585   0.947   0.741   4.714 -1.0442  2.4472  0.4866
 6376SOL     OW30586   1.825   0.354   2.680  0.6522  0.0825 -0.1900
 6376SOL    HW130587   1.827   0.360   2.776  0.5807  0.5373 -0.2164
 6376SOL    HW230588   1.836   0.260   2.666  0.5583  0.1257 -0.5611
 6377SOL     OW30589   3.799   1.420  15.296  0.1283 -0.3030 -0.0152
 6377SOL    HW130590   3.769   1.330  15.287 -0.4863 -0.1896  0.8347
 6377SOL    HW230591   3.864   1.418  15.366 -0.4284  0.0409  0.5184
 6378SOL     OW30592   3.271   1.716   0.072  0.3801 -0.2015 -0.0328
 6378SOL    HW130593   3.250   1.768  17.694 -1.5203  0.5617  0.9965
 6378SOL    HW230594   3.244   1.771   0.145 -0.8313 -0.7260 -0.0960
 6379SOL     OW30595   1.188   0.397   9.753  0.4642  0.4833 -0.0517
 6379SOL    HW130596   1.236   0.454   9.693 -0.3621  0.7420 -0.4599
 6379SOL    HW230597   1.100   0.432   9.761 -0.7632 -2.8127  1.1726
 6380SOL     OW30598   4.397   1.775   2.592 -0.4260  0.6667  0.0976
 6380SOL    HW130599   4.449   1.725   2.529  1.0300  4.0372 -1.3488
 6380SOL    HW230600   4.344   1.702   2.625  0.6754 -1.0532 -1.9180
 6381SOL     OW30601   0.112   4.200   1.240  0.4539 -0.0387 -0.0904
 6381SOL    HW130602   0.073   4.237   1.161 -0.8565  1.8508  1.4398
 6381SOL    HW230603   0.183   4.257   1.269  1.2195 -0.9871 -0.1101
 6382SOL     OW30604   1.582   0.112   8.863 -0.1918  0.0326  0.2594
 6382SOL    HW130605   1.602   0.064   8.782 -0.5176  2.9654 -1.5386
 6382SOL    HW230606   1.570   0.204   8.840  1.8493  0.3101  0.3751
 6383SOL     OW30607   0.720   3.805  10.882  0.1809 -0.4302  0.4764
 6383SOL    HW130608   0.659   3.860  10.833  0.4351 -1.7430 -1.2798
 6383SOL    HW230609   0.649   3.763  10.932  0.4630 -1.4841 -0.0023
 6384SOL     OW30610   2.368   0.144   3.421 -0.2572 -0.0349 -0.1431
 6384SOL    HW130611   2.458   0.167   3.396  0.8847 -2.6794  1.5437
 6384SOL    HW230612   2.347   0.219   3.476  0.7472 -0.3576  0.6621
 6385SOL     OW30613   2.222   4.222   6.400 -0.0448  0.1320  0.6007
 6385SOL    HW130614   2.208   4.283   6.473  1.0868  0.0312  0.9073
 6385SOL    HW230615   2.146   4.238   6.344 -0.7660 -0.0046  1.5400
 6386SOL     OW30616   3.879   1.366   2.978 -0.3411  0.2572  0.5404
 6386SOL    HW130617   3.837   1.363   2.892 -1.0677 -1.2566  0.9609
 6386SOL    HW230618   3.964   1.398   2.949 -0.5746  2.0572  1.8280
 6387SOL     OW30619   4.568   4.259   7.813  0.1523  0.6218 -0.4234
 6387SOL    HW130620   4.528   4.288   7.731  0.5865  1.7180 -0.2411
 6387SOL    HW230621   4.660   4.249   7.790  0.2793  0.0554  0.3379
 6388SOL     OW30622   2.554   0.539  12.733  0.0509 -0.8019  0.3816
 6388SOL    HW130623   2.517   0.510  12.649 -0.0636 -0.1894  0.2265
 6388SOL    HW230624   2.572   0.453  12.771 -1.4774  0.1455  3.2403
 6389SOL     OW30625   4.411   2.502   4.984 -0.2078 -0.3502  0.8330
 6389SOL    HW130626   4.389   2.445   4.910 -0.6517 -0.4556  1.0429
 6389SOL    HW230627   4.419   2.444   5.060  3.5412  0.6314  1.1579
 6390SOL     OW30628   0.939   3.494   8.567  0.2516 -0.9292  0.0531
 6390SOL    HW130629   0.928   3.403   8.540  0.4249 -0.6448 -0.9744
 6390SOL    HW230630   0.964   3.469   8.656  0.4585  0.7157  0.4560
 6391SOL     OW30631   4.672   3.715   4.998 -0.0331 -0.4340 -0.4216
 6391SOL    HW130632   4.580   3.730   4.977  0.2712 -0.8546 -2.0613
 6391SOL    HW230633   4.660   3.660   5.075 -0.2281 -0.1555 -0.2507
 6392SOL     OW30634   3.728   3.678  15.479  0.4488 -0.3129  0.2809
 6392SOL    HW130635   3.751   3.741  15.411 -2.2151 -0.0136 -0.3106
 6392SOL    HW230636   3.702   3.600  15.432 -0.4997 -0.6123  1.3134
 6393SOL     OW30637   2.485   1.586   0.258  0.1910  0.3836  0.4478
 6393SOL    HW130638   2.577   1.561   0.267  0.1751 -0.1923 -1.0033
 6393SOL    HW230639   2.462   1.620   0.344  0.7855 -0.1715  0.8195
 6394SOL     OW30640   2.788   0.634  14.752 -0.2041  0.2503  0.0506
 6394SOL    HW130641   2.870   0.584  14.754 -1.0213 -1.1108  0.0593
 6394SOL    HW230642   2.822   0.719  14.725 -0.4607  0.6612  1.0194
 6395SOL     OW30643   3.035   3.897   3.745 -0.1378  0.5748 -0.6652
 6395SOL    HW130644   2.995   3.813   3.768 -1.4758  1.4558  0.2405
 6395SOL    HW230645   3.125   3.877   3.772 -0.5798 -0.5036  0.0311
 6396SOL     OW30646   1.848   1.416   4.185 -0.2658  0.3741  0.3181
 6396SOL    HW130647   1.924   1.414   4.243  0.1878 -1.8456 -0.3585
 6396SOL    HW230648   1.788   1.448   4.253  0.9715 -1.2096  2.1260
 6397SOL     OW30649   0.807   1.269  14.099 -0.4499 -0.1332 -0.2977
 6397SOL    HW130650   0.792   1.175  14.098 -0.6642 -0.0920 -1.1140
 6397SOL    HW230651   0.731   1.298  14.148 -1.0779 -0.1255 -1.2805
 6398SOL     OW30652   2.626   2.981   6.684  0.5135  0.5860 -0.2511
 6398SOL    HW130653   2.645   3.023   6.599 -0.3849  0.9445 -0.2793
 6398SOL    HW230654   2.634   3.049   6.751 -0.2036 -0.2354  0.6525
 6399SOL     OW30655   4.039   4.236   6.570  0.2242  0.1705  0.1686
 6399SOL    HW130656   4.014   4.315   6.522  1.4252  0.4186 -0.0505
 6399SOL    HW230657   3.980   4.243   6.645  1.4014  0.5909  1.0485
 6400SOL     OW30658   1.660   1.261  17.152 -0.6241 -0.1398  0.6294
 6400SOL    HW130659   1.618   1.198  17.212 -0.1476 -0.1035  1.0029
 6400SOL    HW230660   1.725   1.299  17.212 -0.3467  1.2423 -0.5499
 6401SOL     OW30661   4.639   2.937  15.032  0.1884  0.8408  0.6593
 6401SOL    HW130662   4.607   2.896  15.113  0.2012  0.6722  0.5768
 6401SOL    HW230663   4.558   2.962  14.987 -0.5007 -0.6738  1.0798
 6402SOL     OW30664   1.169   3.482  11.760  0.0321 -0.2199 -0.1509
 6402SOL    HW130665   1.191   3.569  11.794  0.0835  0.0263 -0.8135
 6402SOL    HW230666   1.210   3.491  11.674  1.9313 -0.8014  0.6868
 6403SOL     OW30667   4.059   1.795   6.236 -0.2655 -0.0746  0.3369
 6403SOL    HW130668   4.069   1.703   6.211  1.6865  0.7173 -1.8929
 6403SOL    HW230669   4.008   1.825   6.161  0.7439  0.6442 -0.0701
 6404SOL     OW30670   2.345   3.988   3.391  0.1938  1.0663 -0.3184
 6404SOL    HW130671   2.291   3.990   3.469 -0.0690 -0.3718 -0.4556
 6404SOL    HW230672   2.394   3.905   3.388 -0.7252  0.4225  3.4553
 6405SOL     OW30673   3.067   4.001   7.534  0.2320 -0.2166 -0.5384
 6405SOL    HW130674   3.048   4.094   7.547  2.8689  0.0412  1.5393
 6405SOL    HW230675   3.143   3.993   7.475 -1.7473  1.5559 -3.3154
 6406SOL     OW30676   1.729   1.594   4.374  0.1902  0.4189  0.3545
 6406SOL    HW130677   1.646   1.554   4.398 -0.7866  1.5639 -1.1663
 6406SOL    HW230678   1.734   1.679   4.417 -0.1541  0.3377  0.5533
 6407SOL     OW30679   1.340   2.808  14.654  0.1907  0.1693 -0.1263
 6407SOL    HW130680   1.253   2.847  14.664  0.8752  1.6528 -0.0536
 6407SOL    HW230681   1.327   2.719  14.620 -0.8746  0.5438 -0.6891
 6408SOL     OW30682   0.626   2.657  14.831  0.2881 -0.3216  0.4901
 6408SOL    HW130683   0.540   2.668  14.791 -1.1490 -1.3903  3.2581
 6408SOL    HW230684   0.608   2.659  14.925 -0.1927 -1.1156  0.4076
 6409SOL     OW30685   1.145   1.765   5.795 -0.2401  0.2314 -0.2546
 6409SOL    HW130686   1.118   1.695   5.854 -1.4380  1.1718  0.3162
 6409SOL    HW230687   1.099   1.741   5.715  0.8302 -2.0444 -0.1828
 6410SOL     OW30688   1.152   1.954   5.334  0.2237 -0.5347 -0.2098
 6410SOL    HW130689   1.173   1.957   5.241 -0.1103 -0.7892 -0.2944
 6410SOL    HW230690   1.233   1.924   5.376  0.0485 -1.0986 -0.2768
 6411SOL     OW30691   1.696   1.875  12.700 -0.2435 -0.1363 -0.1934
 6411SOL    HW130692   1.737   1.961  12.707  0.3670 -0.5047  0.7749
 6411SOL    HW230693   1.635   1.898  12.630 -1.8453  0.5664  1.4245
 6412SOL     OW30694   0.563   3.594   3.225 -0.2372  0.1017  0.2460
 6412SOL    HW130695   0.607   3.679   3.232  2.1542 -1.2707  1.7446
 6412SOL    HW230696   0.547   3.571   3.316 -0.1153 -2.3204 -0.3345
 6413SOL     OW30697   2.397   4.688   7.807  0.5712 -0.2606  0.2391
 6413SOL    HW130698   2.477   4.636   7.805 -1.8928 -3.9977 -2.0793
 6413SOL    HW230699   2.357   4.675   7.721 -0.9216  0.0895  0.8791
 6414SOL     OW30700   2.132   1.137   6.204 -0.7003  0.1732 -0.2395
 6414SOL    HW130701   2.218   1.177   6.200 -1.3880  1.9487  3.1381
 6414SOL    HW230702   2.155   1.045   6.189  1.1973  0.9584 -2.1400
 6415SOL     OW30703   1.935   3.222   6.739 -0.2796  0.0481 -0.2814
 6415SOL    HW130704   2.008   3.224   6.801  1.0588 -0.5101 -1.8387
 6415SOL    HW230705   1.871   3.182   6.799 -0.9386 -1.0632 -1.7163
 6416SOL     OW30706   3.964   2.233   6.938  0.4423 -0.0479 -0.3014
 6416SOL    HW130707   3.869   2.223   6.932  0.5771 -1.9162  0.8733
 6416SOL    HW230708   3.993   2.151   6.977  1.5030  0.5927  0.2419
 6417SOL     OW30709   2.230   0.650   7.550  0.3502  0.0366 -0.5535
 6417SOL    HW130710   2.172   0.701   7.607 -0.0493 -1.3909  0.3041
 6417SOL    HW230711   2.164   0.614   7.492 -0.1624  0.8989 -0.5025
 6418SOL     OW30712   0.695   0.415   7.501 -0.0600 -0.1604 -0.4431
 6418SOL    HW130713   0.703   0.417   7.596 -1.1502  0.6089 -0.3603
 6418SOL    HW230714   0.716   0.505   7.478 -0.0956 -0.1006 -0.2399
 6419SOL     OW30715   3.569   3.909  11.854  0.9562 -0.2935  0.1495
 6419SOL    HW130716   3.630   3.881  11.923 -0.5489  1.2436  2.1116
 6419SOL    HW230717   3.483   3.910  11.896  0.8344 -0.0511 -0.1042
 6420SOL     OW30718   3.103   3.212   8.264  0.1262  0.0026  0.4569
 6420SOL    HW130719   3.087   3.146   8.197 -3.1336  0.1144  1.1188
 6420SOL    HW230720   3.064   3.168   8.340  1.9181 -1.4761  0.5235
 6421SOL     OW30721   2.128   2.337  11.720 -0.4411  0.3602 -0.4764
 6421SOL    HW130722   2.169   2.277  11.657 -0.3582 -0.4926  0.3864
 6421SOL    HW230723   2.107   2.417  11.672  1.0365  0.3792 -1.1042
 6422SOL     OW30724   2.545   1.044   6.719  0.7657  0.2650 -0.2441
 6422SOL    HW130725   2.529   1.130   6.680 -2.3479  0.6481  1.8443
 6422SOL    HW230726   2.459   1.024   6.757  0.5097 -2.3957 -2.2341
 6423SOL     OW30727   3.849   4.694  15.431 -0.3719  0.2298  0.3189
 6423SOL    HW130728   3.773   4.640  15.453  0.4746 -1.0196  0.1713
 6423SOL    HW230729   3.916   4.690  15.498  1.1110 -0.2170 -1.1928
 6424SOL     OW30730   3.852   1.758  16.445  0.0601  0.1027  0.2265
 6424SOL    HW130731   3.946   1.752  16.425  0.1286 -1.3778  0.9961
 6424SOL    HW230732   3.828   1.666  16.434  0.1012 -0.0390  1.3681
 6425SOL     OW30733   0.567   0.102   8.145  0.0574  0.0815  0.0337
 6425SOL    HW130734   0.621   0.038   8.191 -2.5284 -1.0845  1.4472
 6425SOL    HW230735   0.492   0.108   8.204 -0.4262 -2.3030 -0.3253
 6426SOL     OW30736   4.590   1.330   1.915  0.5484  0.1054  0.4856
 6426SOL    HW130737   4.613   1.321   2.007  0.7802  1.8383  0.6106
 6426SOL    HW230738   4.502   1.294   1.904 -0.3985  2.4646  0.3570
 6427SOL     OW30739   3.673   0.051  15.681  0.1527  0.2962 -0.2535
 6427SOL    HW130740   3.632   4.717  15.617  1.0416  0.4217 -0.9339
 6427SOL    HW230741   3.730   4.719  15.733 -0.0152 -0.5243 -0.9522
 6428SOL     OW30742   3.080   2.007  10.927 -0.2061  0.2035 -0.5034
 6428SOL    HW130743   3.057   2.097  10.904 -0.7860  0.1839  0.0045
 6428SOL    HW230744   2.994   1.970  10.946  0.2278 -1.7491 -2.2906
 6429SOL     OW30745   3.406   0.332   2.257 -0.2051  0.1909 -0.6949
 6429SOL    HW130746   3.365   0.402   2.309  1.3178 -0.9346  2.0380
 6429SOL    HW230747   3.379   0.359   2.169 -0.8742  0.1439 -0.5075
 6430SOL     OW30748   4.681   4.211   3.987 -0.3806  0.0310  0.0470
 6430SOL    HW130749   4.675   4.299   3.949 -1.7169 -0.5384 -1.0861
 6430SOL    HW230750   4.681   4.145   3.917  0.2671 -0.5554  0.6014
 6431SOL     OW30751   4.594   2.430   3.698  0.0119 -0.4010  0.3777
 6431SOL    HW130752   4.628   2.427   3.788 -0.3778  0.0848  0.5366
 6431SOL    HW230753   4.505   2.402   3.718 -0.4188  0.6312 -0.1199
 6432SOL     OW30754   0.995   0.971   6.189  0.5908 -0.4759 -0.5064
 6432SOL    HW130755   1.071   1.023   6.215 -1.3646  2.4507 -0.6766
 6432SOL    HW230756   0.964   0.932   6.270  0.8004 -1.6353 -0.9875
 6433SOL     OW30757   1.848   0.695   7.113  0.4424  0.1657 -0.4780
 6433SOL    HW130758   1.835   0.751   7.190  0.2831 -1.8172  0.9219
 6433SOL    HW230759   1.942   0.684   7.101  0.3518 -0.8245 -0.3043
 6434SOL     OW30760   3.756   4.127  14.967  0.9222 -0.6854 -0.0862
 6434SOL    HW130761   3.792   4.134  15.056  0.6209  0.3444 -0.0418
 6434SOL    HW230762   3.820   4.080  14.914  1.8370 -2.2363  2.3952
 6435SOL     OW30763   2.980   4.160   2.973  0.1237  0.0538 -0.1936
 6435SOL    HW130764   3.013   4.169   3.062 -2.0026  2.4311  0.3628
 6435SOL    HW230765   3.052   4.111   2.935 -0.2765  1.4786 -2.7741
 6436SOL     OW30766   1.058   3.835  10.296 -0.7317  0.6418 -0.2316
 6436SOL    HW130767   0.964   3.849  10.287 -1.1982  0.0611  3.7114
 6436SOL    HW230768   1.064   3.807  10.387 -1.6573  1.3498  0.0442
 6437SOL     OW30769   3.724   3.505   6.497  0.2754  0.7347  0.4141
 6437SOL    HW130770   3.664   3.547   6.559 -0.2700 -1.5909  1.4891
 6437SOL    HW230771   3.789   3.471   6.558 -1.2408 -0.0402  1.6111
 6438SOL     OW30772   3.782   0.713  15.706 -0.1152  0.1829  0.7626
 6438SOL    HW130773   3.828   0.730  15.625 -1.6338  2.5665  0.4106
 6438SOL    HW230774   3.695   0.709  15.666  0.2437 -3.1039  0.2646
 6439SOL     OW30775   2.379   1.581   8.520  0.0582  0.1324 -0.6285
 6439SOL    HW130776   2.462   1.627   8.517 -1.0333  2.1980  0.6381
 6439SOL    HW230777   2.340   1.603   8.605  1.3020 -0.5092  0.0992
 6440SOL     OW30778   0.930   4.386   2.378 -0.3385 -0.6950 -0.2918
 6440SOL    HW130779   1.013   4.388   2.426 -1.0902 -0.9800  1.0212
 6440SOL    HW230780   0.870   4.336   2.434 -0.7604 -1.4744 -1.4515
 6441SOL     OW30781   1.623   2.527   4.765 -0.2849  0.2078  0.2181
 6441SOL    HW130782   1.711   2.502   4.738 -0.4758  1.1151 -1.2374
 6441SOL    HW230783   1.586   2.511   4.678  2.4825 -1.7119 -0.6079
 6442SOL     OW30784   4.127   0.534   7.686 -0.4800  0.2396 -0.3702
 6442SOL    HW130785   4.043   0.502   7.654 -1.7307  1.4585  1.7122
 6442SOL    HW230786   4.099   0.622   7.711  2.3977  0.4439  2.1732
 6443SOL     OW30787   3.761   2.345   9.375 -0.4586 -0.9402 -0.1230
 6443SOL    HW130788   3.829   2.379   9.317 -0.0064 -2.3655 -0.4263
 6443SOL    HW230789   3.792   2.257   9.395 -2.4631 -1.5257  0.4160
 6444SOL     OW30790   2.447   2.204   4.961 -0.1557  0.2008  0.4783
 6444SOL    HW130791   2.404   2.130   4.919 -0.6454 -0.0161  1.3634
 6444SOL    HW230792   2.462   2.173   5.050 -1.4918 -1.5195  0.0906
 6445SOL     OW30793   2.232   0.058  14.242  0.0055 -0.2635 -0.1313
 6445SOL    HW130794   2.326   0.039  14.243 -0.2759 -1.5940  1.2992
 6445SOL    HW230795   2.218   0.092  14.154 -4.0732  0.7862  0.9651
 6446SOL     OW30796   1.656   1.038  15.868 -0.6659 -0.1453 -0.5226
 6446SOL    HW130797   1.616   1.124  15.855 -0.2185 -0.0722 -1.4197
 6446SOL    HW230798   1.744   1.051  15.833 -0.5451  0.2897 -0.0461
 6447SOL     OW30799   4.266   4.055   8.143 -0.4859  0.0095  0.1817
 6447SOL    HW130800   4.217   3.984   8.103 -1.6484  0.9517 -0.0414
 6447SOL    HW230801   4.337   4.055   8.079 -0.1886 -0.3388  0.5094
 6448SOL     OW30802   4.125   4.425   3.069 -0.4547  0.3984  0.2036
 6448SOL    HW130803   4.132   4.472   2.987  4.2980  1.1639  1.0467
 6448SOL    HW230804   4.148   4.494   3.132  1.6471 -1.0362  0.9953
 6449SOL     OW30805   0.475   4.462  12.146 -0.4214 -0.2704  0.2637
 6449SOL    HW130806   0.416   4.422  12.211  0.6865 -2.2671  0.0426
 6449SOL    HW230807   0.554   4.429  12.189 -0.7480 -1.5941 -0.1516
 6450SOL     OW30808   2.403   1.016   0.717 -0.3550  0.0439  0.2852
 6450SOL    HW130809   2.395   0.988   0.808 -0.1445  1.6894  0.8055
 6450SOL    HW230810   2.341   0.951   0.682 -2.7207  0.2180  4.1898
 6451SOL     OW30811   2.683   4.418   9.633  0.2521 -0.3573  0.1174
 6451SOL    HW130812   2.763   4.453   9.594 -0.6341  1.5077 -0.0568
 6451SOL    HW230813   2.648   4.367   9.560  1.1127 -0.4779 -0.2098
 6452SOL     OW30814   0.112   3.323  14.458  0.1875 -0.1065 -0.1362
 6452SOL    HW130815   0.035   3.274  14.485 -0.4657  0.2303 -1.4134
 6452SOL    HW230816   0.088   3.339  14.367  0.8710  0.0606 -0.2916
 6453SOL     OW30817   4.302   3.922   4.175 -0.5539  0.5334  0.1819
 6453SOL    HW130818   4.234   3.865   4.139 -0.0937  0.6612 -0.8923
 6453SOL    HW230819   4.337   3.865   4.244  0.5954  2.7425  1.3896
 6454SOL     OW30820   2.282   2.546  10.853 -0.0890 -0.3093  0.1080
 6454SOL    HW130821   2.354   2.565  10.913  2.6639 -0.8224 -3.0042
 6454SOL    HW230822   2.270   2.633  10.815  1.0683 -0.5466 -0.8100
 6455SOL     OW30823   3.661   3.776  11.629 -0.2459  0.3565 -0.2925
 6455SOL    HW130824   3.607   3.826  11.691 -2.0699 -1.2303 -0.5889
 6455SOL    HW230825   3.675   3.838  11.558 -1.7439  1.3383  0.2753
 6456SOL     OW30826   2.587   3.348   3.064  0.2806  0.0667 -0.0613
 6456SOL    HW130827   2.518   3.282   3.077  0.2995  0.2020  0.7462
 6456SOL    HW230828   2.664   3.324   3.115  0.5577 -0.3357 -0.6707
 6457SOL     OW30829   2.136   4.491  14.208 -0.0990 -0.1732  0.2550
 6457SOL    HW130830   2.150   4.581  14.177  0.3005 -1.0964 -2.2518
 6457SOL    HW230831   2.053   4.501  14.255  0.0452  1.8644  0.0592
 6458SOL     OW30832   1.012   1.924   2.471  0.0809  0.2499  0.0271
 6458SOL    HW130833   1.034   1.834   2.491  1.4430  0.6323  0.2122
 6458SOL    HW230834   1.002   1.932   2.376  1.4086  1.6818 -0.0034
 6459SOL     OW30835   1.178   3.327   7.015 -0.0557 -0.5240  0.5925
 6459SOL    HW130836   1.175   3.422   7.028  2.0582 -0.1457 -1.7214
 6459SOL    HW230837   1.258   3.306   7.063 -0.4403 -0.4039  1.2778
 6460SOL     OW30838   0.850   1.471   3.263  0.1207 -0.0115 -0.1780
 6460SOL    HW130839   0.784   1.537   3.284  0.0327 -0.7454  1.8528
 6460SOL    HW230840   0.919   1.536   3.257 -1.9086  1.9471 -2.4493
 6461SOL     OW30841   3.978   2.678   4.658 -0.0825  0.7414 -0.2464
 6461SOL    HW130842   3.967   2.773   4.656  2.6003  1.0698 -0.2508
 6461SOL    HW230843   4.057   2.673   4.713  0.3531  0.4453 -0.8965
 6462SOL     OW30844   0.546   1.571   8.256 -0.4454  0.7936 -0.0052
 6462SOL    HW130845   0.608   1.642   8.240 -0.9046  1.7645  2.4232
 6462SOL    HW230846   0.532   1.540   8.167  0.3725 -0.7197  0.3839
 6463SOL     OW30847   0.084   0.588   1.276  0.0308  0.0550  0.0196
 6463SOL    HW130848   0.089   0.666   1.220  0.6175  0.3162  0.4419
 6463SOL    HW230849   0.089   0.627   1.363 -2.1638 -0.6635  0.4585
 6464SOL     OW30850   4.715   2.030  12.669 -0.0696  0.0454 -0.5416
 6464SOL    HW130851   4.724   2.111  12.618  1.6921  0.2789  0.1494
 6464SOL    HW230852   4.717   2.062  12.759 -1.4605 -0.9283 -0.1604
 6465SOL     OW30853   2.988   3.740  15.110  0.7624  0.6300  0.1966
 6465SOL    HW130854   2.981   3.654  15.069  1.5908  0.6652 -0.0074
 6465SOL    HW230855   2.921   3.795  15.071 -1.0673 -2.3875 -0.9018
 6466SOL     OW30856   3.159   1.925   8.326 -0.5023 -0.2178  0.1712
 6466SOL    HW130857   3.213   1.866   8.380 -1.8059 -0.2762  1.4110
 6466SOL    HW230858   3.172   2.007   8.373 -2.4633 -0.9552  2.0154
 6467SOL     OW30859   3.873   1.978   4.355  0.0631 -0.2194  0.6795
 6467SOL    HW130860   3.865   2.071   4.374 -0.8971 -0.3721  0.9874
 6467SOL    HW230861   3.969   1.970   4.359  0.1278  0.2013  0.0484
 6468SOL     OW30862   0.962   1.401  15.701 -0.3014 -0.5551 -0.3659
 6468SOL    HW130863   1.034   1.362  15.652  1.2512  0.4105  1.1684
 6468SOL    HW230864   0.888   1.352  15.665 -0.9296 -0.6824  1.0697
 6469SOL     OW30865   4.330   2.096   6.826  0.6504 -0.1187  0.0742
 6469SOL    HW130866   4.384   2.089   6.905  0.2007 -0.1942  0.3795
 6469SOL    HW230867   4.264   2.029   6.843 -0.7814  1.1219 -0.4681
 6470SOL     OW30868   3.441   0.144  11.961  0.2122  0.1126  0.0467
 6470SOL    HW130869   3.402   0.104  12.039  1.7849 -1.6558 -0.0581
 6470SOL    HW230870   3.393   0.226  11.969  0.9131  0.4969  0.3542
 6471SOL     OW30871   3.955   1.373  11.522  0.1761 -0.6318 -0.4823
 6471SOL    HW130872   3.912   1.449  11.561  0.7140 -0.9191  0.6780
 6471SOL    HW230873   4.035   1.411  11.487 -0.5709 -0.3584 -1.9002
 6472SOL     OW30874   3.657   1.534   1.458  0.0064 -0.7584  0.6947
 6472SOL    HW130875   3.639   1.466   1.393  2.4441  1.2967 -2.0917
 6472SOL    HW230876   3.600   1.514   1.532  1.1161 -0.4769  1.6311
 6473SOL     OW30877   4.705   1.019  11.761 -0.3388 -0.5439 -0.0838
 6473SOL    HW130878   4.689   1.113  11.745  0.1840 -0.3205  0.7151
 6473SOL    HW230879   4.707   0.991  11.669 -1.8375  0.8776 -0.5409
 6474SOL     OW30880   0.334   0.469   0.882  0.1099 -0.2095  0.0403
 6474SOL    HW130881   0.273   0.434   0.947  0.3035  0.0307  0.3526
 6474SOL    HW230882   0.420   0.443   0.914  0.0060 -1.2366 -0.5218
 6475SOL     OW30883   3.400   4.326   3.061  0.3018 -0.2011  0.3445
 6475SOL    HW130884   3.398   4.245   3.010 -1.4268 -1.5072  2.4837
 6475SOL    HW230885   3.330   4.310   3.125  1.1752 -0.3274  1.2608
 6476SOL     OW30886   2.018   0.966  15.155 -0.2375  0.4908  0.0332
 6476SOL    HW130887   2.064   0.941  15.235  0.0464  1.4552  0.1670
 6476SOL    HW230888   2.096   0.985  15.102  1.2026  0.1636  2.0549
 6477SOL     OW30889   1.452   3.676   1.606  0.4215 -0.5599  0.0525
 6477SOL    HW130890   1.478   3.615   1.538 -1.2118 -1.2333  0.0279
 6477SOL    HW230891   1.389   3.733   1.562 -1.0994 -1.5361  0.9697
 6478SOL     OW30892   0.628   0.948   3.591  0.7857  0.2084 -0.5505
 6478SOL    HW130893   0.642   0.917   3.681  2.4018  1.5894 -0.3296
 6478SOL    HW230894   0.536   0.974   3.597  0.4454 -0.8950 -0.8327
 6479SOL     OW30895   3.582   2.457   6.927  0.2427 -1.0456 -0.5492
 6479SOL    HW130896   3.548   2.448   7.016  1.0352  0.0625 -0.1260
 6479SOL    HW230897   3.678   2.463   6.934 -0.0787 -0.2636  3.4018
 6480SOL     OW30898   2.548   1.023   8.644 -0.0464  0.1537 -0.2010
 6480SOL    HW130899   2.533   1.117   8.630  2.2865  0.2943 -1.6686
 6480SOL    HW230900   2.591   1.025   8.730  2.6847 -3.4894 -1.4955
 6481SOL     OW30901   4.213   2.472   8.482  0.2921  0.3600  0.0367
 6481SOL    HW130902   4.172   2.558   8.474  0.9605  0.8076  1.5554
 6481SOL    HW230903   4.304   2.500   8.476 -0.4004  2.3895 -0.7681
 6482SOL     OW30904   1.040   0.656   2.963  0.2554 -0.6267 -0.2232
 6482SOL    HW130905   1.039   0.631   2.871  2.8234 -1.0695 -0.1515
 6482SOL    HW230906   1.107   0.596   2.995  1.1121  0.0690 -0.7003
 6483SOL     OW30907   4.124   1.100   7.554  0.0557  0.2522  0.4147
 6483SOL    HW130908   4.181   1.039   7.508  0.1780 -1.6924  3.1377
 6483SOL    HW230909   4.122   1.065   7.643 -0.4073  1.3016  0.8173
 6484SOL     OW30910   2.549   4.518   5.478  0.1733  0.0924  0.1401
 6484SOL    HW130911   2.457   4.544   5.479  0.3692  0.8396 -0.9207
 6484SOL    HW230912   2.566   4.476   5.562  0.5694 -0.7832 -0.3829
 6485SOL     OW30913   3.804   4.600   3.077  0.1458 -0.2806 -0.1262
 6485SOL    HW130914   3.794   4.542   3.002 -0.6730  1.8407 -1.6617
 6485SOL    HW230915   3.712   4.597   3.103  0.0902  0.8507 -0.1974
 6486SOL     OW30916   3.868   1.181   4.451  0.0937  0.3774 -0.0293
 6486SOL    HW130917   3.865   1.087   4.432  0.6324  0.4476 -0.4784
 6486SOL    HW230918   3.803   1.222   4.394  1.1455  1.8246 -0.1873
 6487SOL     OW30919   2.171   2.454   3.835 -0.1646 -0.2618  0.0001
 6487SOL    HW130920   2.087   2.448   3.791  0.4817 -4.2990 -0.6820
 6487SOL    HW230921   2.159   2.530   3.892 -0.7990 -0.0264 -0.4499
 6488SOL     OW30922   1.860   1.464   6.574  0.5325  0.3982 -0.2925
 6488SOL    HW130923   1.797   1.423   6.516 -1.1365  0.6762  1.3119
 6488SOL    HW230924   1.818   1.452   6.660 -1.1491 -0.5789 -1.2683
 6489SOL     OW30925   0.961   0.540   9.744  0.1412  0.1350 -0.3281
 6489SOL    HW130926   0.954   0.635   9.757  0.9265  0.0458  0.7660
 6489SOL    HW230927   0.963   0.537   9.648 -0.9041 -2.9941 -0.2467
 6490SOL     OW30928   2.785   3.854   8.441  0.6798  0.0932  0.0887
 6490SOL    HW130929   2.828   3.776   8.406 -1.1863 -0.7384 -0.3419
 6490SOL    HW230930   2.701   3.822   8.472 -0.0424  1.5409 -0.3626
 6491SOL     OW30931   1.108   4.361   8.457  0.2004 -0.1386  0.0970
 6491SOL    HW130932   1.190   4.329   8.419 -0.9827 -2.2168 -0.7192
 6491SOL    HW230933   1.083   4.293   8.519 -0.5957 -0.3908 -0.5032
 6492SOL     OW30934   0.900   0.596   0.333 -0.5183  0.4238 -0.2519
 6492SOL    HW130935   0.849   0.670   0.300  0.0681  1.1835  0.5687
 6492SOL    HW230936   0.837   0.532   0.366 -0.9563 -0.3061 -2.4918
 6493SOL     OW30937   1.186   2.691   3.619 -0.2119 -0.3026 -0.8609
 6493SOL    HW130938   1.239   2.766   3.593  0.5063  0.0159  1.5366
 6493SOL    HW230939   1.164   2.658   3.532  0.3543 -1.5266 -0.5521
 6494SOL     OW30940   4.663   0.020   2.339 -0.1304  0.0930  0.2259
 6494SOL    HW130941   4.588   0.017   2.280  0.4906  1.2791 -0.6320
 6494SOL    HW230942   0.008   4.721   2.278  0.5394  0.6500  0.7658
 6495SOL     OW30943   3.147   4.167   5.761  0.4764 -0.1292 -0.2443
 6495SOL    HW130944   3.058   4.133   5.763 -0.4700  2.2809 -1.3944
 6495SOL    HW230945   3.126   4.259   5.741  1.8044  0.7573  2.4658
 6496SOL     OW30946   3.499   2.473  13.819  0.2471  0.9521 -0.1056
 6496SOL    HW130947   3.572   2.413  13.804 -0.1375  0.2706  0.8220
 6496SOL    HW230948   3.491   2.471  13.914  0.7782  2.4268 -0.0151
 6497SOL     OW30949   1.350   4.345  13.941  0.2623 -0.3994  0.5619
 6497SOL    HW130950   1.272   4.400  13.933  0.4350 -0.2027  0.2022
 6497SOL    HW230951   1.417   4.403  13.906  1.7221 -1.9197  0.8360
 6498SOL     OW30952   3.180   1.861  17.572  0.1206  0.9685  0.0248
 6498SOL    HW130953   3.126   1.877  17.494  1.1901 -1.0370 -1.1510
 6498SOL    HW230954   3.223   1.945  17.586  0.4069  0.8132  0.0727
 6499SOL     OW30955   0.873   3.837   7.454  0.4572 -0.0646 -0.2987
 6499SOL    HW130956   0.780   3.826   7.431  0.1121  0.7352  0.6909
 6499SOL    HW230957   0.899   3.746   7.464 -0.0357  0.0632  2.3423
 6500SOL     OW30958   0.280   2.142  16.471 -0.4671  0.1052 -0.2421
 6500SOL    HW130959   0.206   2.199  16.452 -0.6937 -0.4257 -0.9114
 6500SOL    HW230960   0.243   2.083  16.537 -0.8120 -0.1713 -0.6898
 6501SOL     OW30961   2.287   3.618   4.136 -0.1810 -0.2045  0.7141
 6501SOL    HW130962   2.371   3.642   4.095  0.2885 -0.3467  1.5993
 6501SOL    HW230963   2.245   3.703   4.147  1.7021  1.2119 -2.6328
 6502SOL     OW30964   0.796   2.047  15.196 -0.4239  0.3316 -0.0779
 6502SOL    HW130965   0.705   2.049  15.168  0.1127  1.6943 -1.7702
 6502SOL    HW230966   0.826   2.131  15.161  2.0494 -0.1641  0.8529
 6503SOL     OW30967   3.570   1.837   6.242 -1.2074 -0.3097 -0.0657
 6503SOL    HW130968   3.555   1.927   6.211  0.9433  0.8369  2.1730
 6503SOL    HW230969   3.627   1.864   6.314 -1.4473  0.7670 -0.2669
 6504SOL     OW30970   4.640   2.066  12.083 -0.6163 -0.5785 -0.3081
 6504SOL    HW130971   4.685   2.070  11.999 -0.5759  1.6105 -0.2006
 6504SOL    HW230972   4.707   2.026  12.138  0.1176  0.5512 -0.3719
 6505SOL     OW30973   3.753   1.937   3.265 -0.1240  0.0435  0.4015
 6505SOL    HW130974   3.747   1.894   3.179  0.2301  1.3795 -0.2981
 6505SOL    HW230975   3.664   1.943   3.299  0.5690  0.4821  2.0988
 6506SOL     OW30976   1.602   1.916  12.055 -0.4068 -0.5610  0.2210
 6506SOL    HW130977   1.538   1.987  12.067  1.9823  2.2727 -3.8256
 6506SOL    HW230978   1.627   1.895  12.144 -1.2856 -0.1412  0.5746
 6507SOL     OW30979   0.082   3.079   4.875  0.5638  0.4804  0.2493
 6507SOL    HW130980   0.076   3.030   4.957 -0.2426  0.2501  0.0498
 6507SOL    HW230981   0.173   3.107   4.878  0.8117 -0.3045  0.2162
 6508SOL     OW30982   4.402   2.015   6.578 -0.7209 -0.8022  0.1277
 6508SOL    HW130983   4.314   1.985   6.554  0.9713 -2.9625 -3.5262
 6508SOL    HW230984   4.392   2.020   6.673  0.3722 -2.5894  0.3389
 6509SOL     OW30985   0.539   2.488   6.164 -0.4046 -0.3496  0.3521
 6509SOL    HW130986   0.456   2.488   6.116 -0.1749 -2.3568 -0.0536
 6509SOL    HW230987   0.519   2.432   6.240  1.3702  2.4292  2.8643
 6510SOL     OW30988   2.935   3.185  12.954 -0.7371 -0.0448 -0.1649
 6510SOL    HW130989   2.842   3.168  12.965 -0.8543 -1.2120 -2.8012
 6510SOL    HW230990   2.958   3.151  13.040  0.0821 -2.1738 -1.2404
 6511SOL     OW30991   2.916   0.588   5.484 -0.0654 -0.1423  0.3683
 6511SOL    HW130992   2.962   0.639   5.419 -2.7724  0.9805 -0.6601
 6511SOL    HW230993   2.979   0.529   5.525 -0.4890 -2.8660 -2.9160
 6512SOL     OW30994   1.220   0.944  14.368 -0.3299  0.1850  0.2211
 6512SOL    HW130995   1.199   1.021  14.315 -0.1962 -0.7938 -1.2607
 6512SOL    HW230996   1.315   0.938  14.356 -0.3465 -1.5250  0.9195
 6513SOL     OW30997   4.156   2.383   9.300 -0.2562 -0.3339 -0.2689
 6513SOL    HW130998   4.163   2.328   9.379 -0.4754 -1.7094 -1.2089
 6513SOL    HW230999   4.204   2.460   9.332  2.1096 -2.4222  1.2993
 6514SOL     OW31000   4.611   3.733   2.941 -0.0924  0.2321  0.5968
 6514SOL    HW131001   4.571   3.659   2.897  1.3740 -0.6027  0.6844
 6514SOL    HW231002   4.667   3.760   2.869  1.3628 -1.6193  1.0397
 6515SOL     OW31003   2.622   0.270  12.704 -0.0628  0.0635 -0.5851
 6515SOL    HW131004   2.692   0.208  12.721 -0.7701 -1.0917 -1.8358
 6515SOL    HW231005   2.635   0.294  12.612 -0.1623 -2.6659 -1.3198
 6516SOL     OW31006   3.269   2.448   3.789  0.7794  0.3445 -0.0722
 6516SOL    HW131007   3.276   2.528   3.737  1.1707  0.3956  0.0583
 6516SOL    HW231008   3.193   2.404   3.752  0.0282  0.9214  0.8043
 6517SOL     OW31009   0.624   0.801  12.420 -0.1833 -0.5932 -0.2769
 6517SOL    HW131010   0.664   0.854  12.489 -0.7268  2.2617 -2.1749
 6517SOL    HW231011   0.687   0.730  12.406 -1.5619 -1.4090 -2.2650
 6518SOL     OW31012   3.554   0.858   4.761  0.2408 -0.2465  0.4623
 6518SOL    HW131013   3.539   0.846   4.668 -3.4589 -1.3757  1.2063
 6518SOL    HW231014   3.625   0.796   4.780  2.0912  1.8386  0.3700
 6519SOL     OW31015   4.048   3.229   1.379  0.0096  0.5148 -0.0787
 6519SOL    HW131016   3.990   3.262   1.448 -0.7703 -1.9290  0.4163
 6519SOL    HW231017   3.984   3.240   1.309  1.1513 -0.2242 -1.2309
 6520SOL     OW31018   4.314   0.781   3.507 -0.7161  0.1184 -0.3162
 6520SOL    HW131019   4.295   0.705   3.452 -2.7311  0.3038  0.1199
 6520SOL    HW231020   4.345   0.840   3.439 -0.1359 -0.6136 -0.6854
 6521SOL     OW31021   1.759   1.269   5.586  0.5170  0.5571  0.0439
 6521SOL    HW131022   1.746   1.268   5.681  1.0172  0.1074  0.1086
 6521SOL    HW231023   1.774   1.362   5.569  2.0094  0.2698 -0.2565
 6522SOL     OW31024   4.304   2.512   9.657 -0.6984  0.5250 -0.6236
 6522SOL    HW131025   4.287   2.567   9.734 -2.9481  0.0352 -0.7853
 6522SOL    HW231026   4.397   2.534   9.645 -0.5939  0.6987  0.5632
 6523SOL     OW31027   0.395   4.699  11.185  0.7357  0.2357 -0.1171
 6523SOL    HW131028   0.459   0.013  11.125  2.0007 -0.1695  0.9620
 6523SOL    HW231029   0.326   4.678  11.122  0.7603 -1.2857  0.3689
 6524SOL     OW31030   3.283   3.172   7.907  0.0759  0.1726  0.5253
 6524SOL    HW131031   3.373   3.195   7.932  0.5994  0.3223 -1.4857
 6524SOL    HW231032   3.260   3.239   7.843  1.8722  1.4016  1.1384
 6525SOL     OW31033   2.468   3.065   8.474  0.6264  0.3368  0.4242
 6525SOL    HW131034   2.418   2.989   8.443 -1.8466  1.4962  1.5721
 6525SOL    HW231035   2.526   3.081   8.399  0.8342  1.9990  0.9459
 6526SOL     OW31036   2.831   2.999  15.521 -0.5637  0.0465 -0.2038
 6526SOL    HW131037   2.826   2.904  15.516 -0.4853  0.0620 -0.5548
 6526SOL    HW231038   2.890   3.020  15.449  0.6354  0.8337  1.0064
 6527SOL     OW31039   3.869   0.547  13.569  0.3776  0.0567 -0.1073
 6527SOL    HW131040   3.905   0.606  13.503 -0.7942  0.2705 -0.5511
 6527SOL    HW231041   3.912   0.469  13.534 -1.7024 -0.9203 -0.4617
 6528SOL     OW31042   2.070   4.696   7.243 -0.0870  0.4477  1.0073
 6528SOL    HW131043   2.030   0.056   7.268 -0.2976  0.5117  0.4599
 6528SOL    HW231044   2.146   4.700   7.300 -0.0550 -1.5339  1.0883
 6529SOL     OW31045   1.537   0.137   3.852 -0.0129  0.5828  0.1448
 6529SOL    HW131046   1.619   0.184   3.836  0.1319 -0.4778 -2.2600
 6529SOL    HW231047   1.528   0.113   3.760 -1.0316  1.3725  0.0390
 6530SOL     OW31048   1.081   3.197   2.305 -0.1516  0.1289  0.6042
 6530SOL    HW131049   1.169   3.167   2.284 -0.5896 -3.3778  3.7954
 6530SOL    HW231050   1.103   3.280   2.348 -0.8407  0.4586  0.3322
 6531SOL     OW31051   1.929   0.743   0.997  0.4064  0.4157  0.3480
 6531SOL    HW131052   1.887   0.823   1.029 -0.8256 -0.8419  1.9173
 6531SOL    HW231053   2.015   0.775   0.972  0.3623 -0.3976 -0.8148
 6532SOL     OW31054   3.612   3.040   6.556  0.5424  0.2298 -0.3617
 6532SOL    HW131055   3.667   3.004   6.627  0.3289  1.6242  0.5010
 6532SOL    HW231056   3.545   3.085   6.606  0.0855 -0.8501  0.0045
 6533SOL     OW31057   2.178   0.731  15.623 -0.0375  0.4969 -0.5913
 6533SOL    HW131058   2.165   0.690  15.709  1.4979  0.0755 -0.5719
 6533SOL    HW231059   2.115   0.699  15.558 -1.4902 -0.1324  1.1106
 6534SOL     OW31060   1.330   0.489   7.494 -0.3426 -0.0992  0.0288
 6534SOL    HW131061   1.279   0.570   7.492 -0.1923 -0.0953 -3.2074
 6534SOL    HW231062   1.313   0.468   7.586 -1.5017  2.2303  0.3472
 6535SOL     OW31063   0.673   4.597   5.165 -0.4457  0.4194 -0.7467
 6535SOL    HW131064   0.642   4.543   5.092  3.2447 -0.3622 -1.7199
 6535SOL    HW231065   0.748   4.548   5.199 -0.1597  0.6558 -1.0384
 6536SOL     OW31066   3.469   3.184  14.621 -0.0739  0.5730  0.3204
 6536SOL    HW131067   3.400   3.136  14.666 -0.8727 -0.4244 -1.9624
 6536SOL    HW231068   3.426   3.252  14.570  0.2849 -0.7112 -1.7039
 6537SOL     OW31069   0.418   4.025   1.447 -0.5800  0.5699 -0.5551
 6537SOL    HW131070   0.405   3.940   1.405  3.7029 -0.6209  0.4506
 6537SOL    HW231071   0.489   4.058   1.391  0.5473  0.6241  0.9233
 6538SOL     OW31072   3.160   2.190  17.397  0.1992 -0.1927 -0.0889
 6538SOL    HW131073   3.217   2.176  17.473 -1.3072 -0.1598  1.0535
 6538SOL    HW231074   3.190   2.111  17.352 -0.2651 -0.0248 -0.6974
 6539SOL     OW31075   1.603   4.125   5.956 -0.4167 -0.6100 -1.0113
 6539SOL    HW131076   1.672   4.128   5.890  0.2323  3.2514 -0.1619
 6539SOL    HW231077   1.601   4.032   5.977  0.0441 -0.7554 -1.5954
 6540SOL     OW31078   2.579   4.536   0.674 -0.3333 -0.6730  0.7161
 6540SOL    HW131079   2.484   4.540   0.661 -0.0518  0.0032 -1.2361
 6540SOL    HW231080   2.605   4.536   0.582 -0.8387  2.2733  0.5678
 6541SOL     OW31081   1.203   4.632   8.148  0.6306  0.4411 -1.0221
 6541SOL    HW131082   1.154   4.638   8.230 -0.0862  0.0629 -1.4215
 6541SOL    HW231083   1.263   4.563   8.176 -1.8233 -0.5553  1.7358
 6542SOL     OW31084   4.522   2.978   8.850 -0.1365 -0.1624  0.5373
 6542SOL    HW131085   4.539   3.000   8.942  1.6676  1.5599 -0.2030
 6542SOL    HW231086   4.427   2.975   8.852 -0.1992  0.6917 -1.7555
 6543SOL     OW31087   0.181   4.713   7.682  0.2227 -0.1589  0.0021
 6543SOL    HW131088   0.207   0.081   7.683  1.9417 -0.6476  0.5944
 6543SOL    HW231089   0.225   4.685   7.602  0.3815 -2.0919  0.7633
 6544SOL     OW31090   1.413   4.021  12.966 -0.2618  0.5240  0.2140
 6544SOL    HW131091   1.497   3.980  12.944  0.4965  1.1408  1.9765
 6544SOL    HW231092   1.433   4.087  13.033  1.6540  2.6788 -2.5142
 6545SOL     OW31093   2.344   4.015   7.312 -0.1682 -0.3649  0.0645
 6545SOL    HW131094   2.334   3.966   7.394 -1.2159  0.6593  0.5410
 6545SOL    HW231095   2.364   4.101   7.349 -0.2893  0.0145 -0.7695
 6546SOL     OW31096   3.838   1.900   2.899  0.1846 -0.2839  0.0516
 6546SOL    HW131097   3.866   1.990   2.878  1.4826 -0.6899  0.0744
 6546SOL    HW231098   3.824   1.863   2.812  2.1714 -0.3893 -0.2197
 6547SOL     OW31099   2.664   2.234   9.826 -0.5610  0.0994  0.1794
 6547SOL    HW131100   2.609   2.261   9.900 -0.2126 -2.2021  1.2962
 6547SOL    HW231101   2.644   2.307   9.768 -0.1463  1.7972  2.1759
 6548SOL     OW31102   2.308   3.651  15.818  0.1600 -0.2254 -0.9614
 6548SOL    HW131103   2.263   3.647  15.734 -0.6829 -1.8974 -0.4161
 6548SOL    HW231104   2.257   3.722  15.856  0.1055  0.0277 -1.5243
 6549SOL     OW31105   2.367   2.240   6.635 -0.0046  0.4277 -0.5427
 6549SOL    HW131106   2.282   2.235   6.592 -2.0797 -0.4010  3.7163
 6549SOL    HW231107   2.343   2.294   6.710  0.2167 -1.5812  0.9683
 6550SOL     OW31108   0.552   0.854   3.010  0.4699  0.6727 -0.6328
 6550SOL    HW131109   0.647   0.848   3.022  0.2616 -4.6445 -1.5879
 6550SOL    HW231110   0.535   0.793   3.082 -2.0321 -0.2151 -1.9889
 6551SOL     OW31111   2.385   4.694  13.977  0.5004 -0.0764 -0.1913
 6551SOL    HW131112   2.366   4.604  14.006  1.0287 -1.0891 -3.0160
 6551SOL    HW231113   2.479   4.700  13.997  0.6837 -1.6632 -0.5451
 6552SOL     OW31114   3.975   0.367   3.026  0.1926  0.0628  0.1614
 6552SOL    HW131115   4.047   0.313   2.991  0.2836 -1.3288  2.4997
 6552SOL    HW231116   3.901   0.338   2.973 -0.1683  0.1956  0.6008
 6553SOL     OW31117   3.766   4.432   8.454  0.3410  0.2790 -0.6446
 6553SOL    HW131118   3.685   4.482   8.450  0.4116  0.4843  0.5891
 6553SOL    HW231119   3.746   4.384   8.534  2.8406 -0.7772 -0.6710
 6554SOL     OW31120   3.660   0.314   3.763 -0.1300  0.2009  0.0732
 6554SOL    HW131121   3.590   0.257   3.733  0.6350  0.6820 -2.7051
 6554SOL    HW231122   3.617   0.373   3.825 -0.2985 -0.7151  0.8091
 6555SOL     OW31123   4.085   3.204   0.261 -0.3537 -0.1690  0.0304
 6555SOL    HW131124   4.043   3.122   0.237  0.8529 -1.2520  1.5708
 6555SOL    HW231125   4.147   3.170   0.326 -0.7276 -1.1800 -0.1397
 6556SOL     OW31126   4.109   0.699   8.867 -0.3410 -0.1575  0.3603
 6556SOL    HW131127   4.059   0.676   8.789 -0.7725 -2.2988  1.2879
 6556SOL    HW231128   4.157   0.617   8.881  0.3811  0.3356  0.7794
 6557SOL     OW31129   0.579   3.982   4.336 -0.3074  0.3047 -0.3847
 6557SOL    HW131130   0.592   3.959   4.428 -1.0878  0.5878 -0.2009
 6557SOL    HW231131   0.483   3.980   4.342 -0.2639 -0.6940  0.0470
 6558SOL     OW31132   0.157   3.606   5.196 -0.3533 -0.0707  0.1561
 6558SOL    HW131133   0.248   3.633   5.207 -0.1832 -0.2543 -0.8278
 6558SOL    HW231134   0.166   3.609   5.101 -0.4682 -0.1782  0.1417
 6559SOL     OW31135   3.758   0.125   3.160 -0.7300  0.1906  0.4550
 6559SOL    HW131136   3.777   0.040   3.121  1.4156  1.8307 -2.0755
 6559SOL    HW231137   3.793   0.187   3.096 -1.6498  0.3709  0.1309
 6560SOL     OW31138   2.171   3.442   6.802  0.3756 -0.0355 -0.8799
 6560SOL    HW131139   2.123   3.402   6.730 -0.6865 -0.1819 -0.0802
 6560SOL    HW231140   2.163   3.372   6.866 -1.3705  1.2871  0.3235
 6561SOL     OW31141   3.169   2.249  11.164  0.2643  0.5527  0.0486
 6561SOL    HW131142   3.215   2.333  11.167  0.2986  0.6032 -2.2487
 6561SOL    HW231143   3.111   2.264  11.090  0.1558 -1.1564 -0.2170
 6562SOL     OW31144   1.474   4.096   1.107 -0.0929  0.1334 -0.2515
 6562SOL    HW131145   1.549   4.141   1.146 -0.1266  1.6729 -1.9728
 6562SOL    HW231146   1.438   4.167   1.054 -1.1323 -0.2436 -0.0347
 6563SOL     OW31147   2.946   3.913   7.193 -0.2969  0.1791  0.0889
 6563SOL    HW131148   3.019   3.974   7.181 -1.4856  1.2496 -1.6351
 6563SOL    HW231149   2.870   3.966   7.172  0.4617  2.2574  2.6442
 6564SOL     OW31150   3.301   2.773   8.099 -0.7977  0.5329 -0.6216
 6564SOL    HW131151   3.369   2.832   8.068 -0.7290 -0.5936 -2.6400
 6564SOL    HW231152   3.364   2.701   8.103  1.2908  2.3712 -0.3980
 6565SOL     OW31153   1.746   2.484   3.770  0.4768  0.3956  0.1790
 6565SOL    HW131154   1.695   2.482   3.689  0.9164 -1.7196 -0.0340
 6565SOL    HW231155   1.712   2.413   3.824 -0.2463 -0.4638 -1.3823
 6566SOL     OW31156   2.610   3.849   3.173 -0.0858  0.4836  0.1437
 6566SOL    HW131157   2.660   3.825   3.251  0.6028  2.5585  0.3473
 6566SOL    HW231158   2.567   3.765   3.162  1.1427 -0.4316  2.1881
 6567SOL     OW31159   1.979   2.967  17.259 -0.5377 -0.2890  0.1102
 6567SOL    HW131160   2.045   2.966  17.329  2.1887 -0.9297 -2.4771
 6567SOL    HW231161   1.941   2.882  17.278  0.7636  0.0841  4.4645
 6568SOL     OW31162   4.504   0.880  10.130 -0.1270  0.2657  0.0504
 6568SOL    HW131163   4.420   0.900  10.171 -0.6239  1.2425 -1.4512
 6568SOL    HW231164   4.534   0.967  10.106  1.3670 -0.3705 -0.3656
 6569SOL     OW31165   1.202   2.013   6.185  0.0200  0.0992 -0.3936
 6569SOL    HW131166   1.258   1.955   6.134  0.2007  0.0690 -0.1587
 6569SOL    HW231167   1.167   2.073   6.119 -0.5133 -1.8751 -1.9017
 6570SOL     OW31168   4.188   2.588   3.568 -0.3014  0.2365 -0.1373
 6570SOL    HW131169   4.214   2.527   3.500  0.4208 -0.2293  0.5520
 6570SOL    HW231170   4.268   2.623   3.608 -1.4359  2.4333  0.2507
 6571SOL     OW31171   0.389   2.966  13.307  0.0624  0.0375  0.1175
 6571SOL    HW131172   0.392   2.914  13.226 -0.6410 -2.9363  1.9852
 6571SOL    HW231173   0.340   2.908  13.366 -1.9205  1.2199 -0.3774
 6572SOL     OW31174   4.280   1.571   9.727  0.3712  0.3124 -0.5381
 6572SOL    HW131175   4.375   1.567   9.719  0.5040  0.0369  1.2797
 6572SOL    HW231176   4.274   1.525   9.811 -1.8134  2.2862  0.3914
 6573SOL     OW31177   2.226   0.215   7.629 -0.3403 -0.5588  0.3425
 6573SOL    HW131178   2.156   0.161   7.665 -0.9464  0.6135  0.9433
 6573SOL    HW231179   2.240   0.173   7.544  0.5344  1.7044 -0.6488
 6574SOL     OW31180   1.230   2.602   2.030  0.3115 -0.3541  0.2977
 6574SOL    HW131181   1.201   2.607   1.939 -0.8882 -0.8206  0.6426
 6574SOL    HW231182   1.161   2.649   2.077 -0.5107  0.5102 -1.7918
 6575SOL     OW31183   1.205   0.809   3.421 -0.3003 -0.7733  0.1789
 6575SOL    HW131184   1.257   0.740   3.463  0.0097  0.0817  1.1814
 6575SOL    HW231185   1.144   0.746   3.383  0.3008 -0.2894 -1.6019
 6576SOL     OW31186   0.266   1.291   9.534 -0.1604 -0.6290 -0.5398
 6576SOL    HW131187   0.326   1.220   9.556 -0.8399 -0.6941  1.1023
 6576SOL    HW231188   0.328   1.359   9.559 -1.1666 -0.4780  1.5681
 6577SOL     OW31189   3.956   3.536   8.015 -0.3211  0.6686 -0.4773
 6577SOL    HW131190   3.912   3.556   7.933 -0.7314 -1.4578 -0.7771
 6577SOL    HW231191   3.935   3.617   8.062  1.0577  0.1188  1.0790
 6578SOL     OW31192   1.709   3.180   3.563  0.1484  1.0272  0.2653
 6578SOL    HW131193   1.799   3.149   3.550 -0.7326 -0.9924 -0.9705
 6578SOL    HW231194   1.683   3.186   3.471  0.6081 -0.7663  0.0167
 6579SOL     OW31195   3.175   0.247   2.442  0.4531 -0.3267  0.3063
 6579SOL    HW131196   3.104   0.309   2.458 -1.1674 -2.6060  1.8275
 6579SOL    HW231197   3.134   0.163   2.425  1.9458 -1.0688  0.3837
 6580SOL     OW31198   2.993   4.392   0.492 -0.2387 -0.0176  0.6832
 6580SOL    HW131199   3.067   4.377   0.432 -0.4073 -0.7733  0.6607
 6580SOL    HW231200   3.000   4.314   0.548  0.4248 -0.7363 -0.3857
 6581SOL     OW31201   1.484   1.630  10.557 -0.3585  0.2806  0.1083
 6581SOL    HW131202   1.498   1.627  10.651 -1.3336 -1.2773  0.2114
 6581SOL    HW231203   1.575   1.628  10.527  0.4476 -2.6533  2.7680
 6582SOL     OW31204   4.564   2.701   5.490  0.3282 -0.1690  0.5796
 6582SOL    HW131205   4.618   2.631   5.454  0.7262 -0.3409  1.5202
 6582SOL    HW231206   4.492   2.696   5.427 -0.4128  0.2526  1.3854
 6583SOL     OW31207   0.779   0.091   4.209 -0.2600 -0.0110 -0.1575
 6583SOL    HW131208   0.867   0.054   4.207 -0.1496  0.2845 -0.8133
 6583SOL    HW231209   0.725   0.018   4.238  0.0720  0.0198  0.5548
 6584SOL     OW31210   3.471   3.724   5.009 -0.3655  0.5725  0.2464
 6584SOL    HW131211   3.508   3.741   5.095  0.6599 -0.9124  0.1080
 6584SOL    HW231212   3.422   3.804   4.991 -1.7073 -0.3009  0.0195
 6585SOL     OW31213   2.241   3.244  17.103  0.4740  0.2141 -0.2786
 6585SOL    HW131214   2.273   3.331  17.124 -1.2256  0.1519  2.5062
 6585SOL    HW231215   2.321   3.193  17.119  0.0352  0.5188  2.7109
 6586SOL     OW31216   2.084   3.193   3.465 -0.3116 -0.0887  0.0260
 6586SOL    HW131217   2.122   3.274   3.498  0.7185 -1.5934  2.5336
 6586SOL    HW231218   2.153   3.134   3.495  2.2726  2.0924 -1.6150
 6587SOL     OW31219   2.091   0.989   3.997  0.4584  0.3337 -0.1844
 6587SOL    HW131220   2.134   1.071   3.970 -1.4293  1.4926  0.3583
 6587SOL    HW231221   2.013   1.029   4.036  1.0538  0.8292  0.5146
 6588SOL     OW31222   0.344   0.335   3.493 -0.0405 -0.3555  0.2355
 6588SOL    HW131223   0.334   0.247   3.529  0.4103 -0.3672  0.3325
 6588SOL    HW231224   0.438   0.333   3.475  0.0701 -4.5437  1.4290
 6589SOL     OW31225   3.150   1.763  14.348 -0.3907 -0.2146  0.2626
 6589SOL    HW131226   3.223   1.716  14.309 -0.8498 -0.3451 -0.4415
 6589SOL    HW231227   3.148   1.845  14.299 -0.8260 -0.0299  0.5851
 6590SOL     OW31228   0.349   1.511  14.360 -0.8172 -0.0124  0.5665
 6590SOL    HW131229   0.372   1.547  14.445  0.4064  2.2779 -0.7227
 6590SOL    HW231230   0.331   1.593  14.313  1.7474 -1.1233 -2.3106
 6591SOL     OW31231   1.634   4.018   6.906  0.0952 -0.3525  0.2579
 6591SOL    HW131232   1.564   3.995   6.967  2.4161 -4.2763  1.4426
 6591SOL    HW231233   1.692   4.083   6.945 -0.0694  0.2321 -0.4781
 6592SOL     OW31234   1.214   3.596  12.142  0.6472  0.2182 -0.0356
 6592SOL    HW131235   1.221   3.586  12.237  0.4078  2.3561  0.2000
 6592SOL    HW231236   1.283   3.661  12.132 -0.5127  1.2667 -1.3032
 6593SOL     OW31237   3.698   1.133   0.921 -0.3904 -0.5095 -0.7134
 6593SOL    HW131238   3.687   1.052   0.971  1.3427  0.0529  0.5263
 6593SOL    HW231239   3.786   1.165   0.940 -0.3196 -0.4013 -1.2211
 6594SOL     OW31240   4.513   4.176   2.253 -0.4605  0.4036 -0.6290
 6594SOL    HW131241   4.494   4.253   2.199 -1.7992  1.6840  1.6560
 6594SOL    HW231242   4.579   4.132   2.200  0.8612  1.7269 -0.0893
 6595SOL     OW31243   0.457   1.806  14.217  0.1859  0.2220 -0.1894
 6595SOL    HW131244   0.423   1.871  14.156 -2.9673 -1.0146  0.2869
 6595SOL    HW231245   0.405   1.826  14.295 -0.0212 -0.8249 -0.0622
 6596SOL     OW31246   1.457   4.142  17.455  0.2608  0.3347 -0.0521
 6596SOL    HW131247   1.511   4.209  17.413  1.0404 -0.4698 -0.3389
 6596SOL    HW231248   1.447   4.083  17.380  0.6564 -3.1114  2.6596
 6597SOL     OW31249   0.779   0.578  17.118  0.4781  0.3992 -0.0996
 6597SOL    HW131250   0.806   0.670  17.108  1.5839 -0.1081 -1.8278
 6597SOL    HW231251   0.814   0.546  17.201  1.2385  0.4553 -0.3925
 6598SOL     OW31252   0.802   0.348  14.792  0.2342  0.2608 -0.2647
 6598SOL    HW131253   0.795   0.344  14.888  0.4379 -0.1612 -0.2675
 6598SOL    HW231254   0.748   0.425  14.771  0.8836  0.7421 -0.1890
 6599SOL     OW31255   1.582   0.086  11.255 -0.8950  0.2851 -0.0197
 6599SOL    HW131256   1.586   4.716  11.241  1.6179 -0.0128  2.6075
 6599SOL    HW231257   1.609   0.118  11.169  2.7505  0.5900  1.2343
 6600SOL     OW31258   3.124   0.416   3.489  0.5728  0.0618  0.0791
 6600SOL    HW131259   3.178   0.493   3.503 -0.1334  0.4242  0.8215
 6600SOL    HW231260   3.153   0.372   3.570  0.3620  0.6665  0.4839
 6601SOL     OW31261   1.323   3.803   8.212 -0.3656 -0.1744  0.4089
 6601SOL    HW131262   1.408   3.794   8.256 -0.1803  1.7726  0.4609
 6601SOL    HW231263   1.290   3.713   8.220 -1.0512  0.0558  0.0979
 6602SOL     OW31264   1.244   0.799  16.148  0.0161 -0.0111  0.7027
 6602SOL    HW131265   1.336   0.787  16.170 -0.4725 -1.5009  1.9925
 6602SOL    HW231266   1.191   0.792  16.228 -0.5221  2.0102  0.5036
 6603SOL     OW31267   4.298   2.680   7.616 -0.2790 -0.3049  0.4384
 6603SOL    HW131268   4.297   2.729   7.534  1.1400  0.1391  0.6871
 6603SOL    HW231269   4.212   2.641   7.601  0.0391 -1.4203  1.4089
 6604SOL     OW31270   0.921   0.353   1.752  0.9188 -0.2693 -0.0969
 6604SOL    HW131271   0.934   0.297   1.828  1.0047  1.8511  1.4386
 6604SOL    HW231272   0.869   0.302   1.691 -0.7319  1.6613 -0.2964
 6605SOL     OW31273   0.148   4.546   2.778 -0.1039 -0.3058  0.0967
 6605SOL    HW131274   0.062   4.575   2.748 -0.8745 -0.8348  1.8434
 6605SOL    HW231275   0.150   4.562   2.872  2.2614  1.2921 -0.2145
 6606SOL     OW31276   1.846   0.621   8.042 -0.7784  0.3427 -0.4669
 6606SOL    HW131277   1.893   0.675   8.105  0.8365 -0.8965 -0.6133
 6606SOL    HW231278   1.797   0.568   8.105  3.4733 -1.8008  1.0440
 6607SOL     OW31279   0.514   1.372   3.605 -0.5962 -0.2532 -0.4012
 6607SOL    HW131280   0.535   1.336   3.691  1.9965 -2.4685 -1.9777
 6607SOL    HW231281   0.481   1.458   3.632 -1.2408 -0.5226 -0.3278
 6608SOL     OW31282   3.953   1.272   5.890  0.8003  0.5961 -0.4855
 6608SOL    HW131283   3.869   1.284   5.847  0.0509 -0.8342  0.6008
 6608SOL    HW231284   3.928   1.238   5.976 -2.0697 -1.0326 -1.9881
 6609SOL     OW31285   3.973   0.753   6.451 -0.0309 -0.1598 -0.4363
 6609SOL    HW131286   3.970   0.680   6.513  2.3037 -0.2364 -0.4327
 6609SOL    HW231287   3.905   0.731   6.387  0.7674  2.3688 -2.1264
 6610SOL     OW31288   2.333   4.023  14.177 -1.0304  0.6004 -0.2884
 6610SOL    HW131289   2.294   4.100  14.134 -0.5780 -1.0949 -3.7367
 6610SOL    HW231290   2.332   3.954  14.111  0.2571 -0.4888  0.8405
 6611SOL     OW31291   1.836   3.250   7.244  0.0103 -0.0323 -0.4908
 6611SOL    HW131292   1.800   3.174   7.290  0.6624  0.8263  1.4411
 6611SOL    HW231293   1.928   3.226   7.231  0.7431  2.1774  0.5430
 6612SOL     OW31294   4.234   4.163   1.259 -0.7747 -0.5024 -0.2198
 6612SOL    HW131295   4.206   4.136   1.171  2.1861 -2.6601 -0.5242
 6612SOL    HW231296   4.306   4.100   1.272  0.1514  0.6745  0.3245
 6613SOL     OW31297   2.628   4.065   2.078 -0.2201 -0.1349  0.0945
 6613SOL    HW131298   2.634   4.126   2.005 -0.6886  0.1930  0.3353
 6613SOL    HW231299   2.553   4.016   2.044  0.1131 -0.5248 -0.0804
 6614SOL     OW31300   1.670   3.517   5.133  0.2554 -0.1454 -0.2327
 6614SOL    HW131301   1.755   3.514   5.089  0.8320  1.4282  0.8017
 6614SOL    HW231302   1.656   3.423   5.146  1.2777 -0.2526  0.0844
 6615SOL     OW31303   1.557   0.555   0.153  1.1907  0.4982  0.0668
 6615SOL    HW131304   1.470   0.557   0.191  0.8544  1.1453 -0.7324
 6615SOL    HW231305   1.538   0.579   0.062 -2.7468  1.2179  1.0909
 6616SOL     OW31306   2.281   3.027   3.589  0.4634  0.0508 -0.4434
 6616SOL    HW131307   2.342   2.954   3.581 -1.6376 -1.9163  1.4660
 6616SOL    HW231308   2.204   2.974   3.612 -0.6830  2.7053  1.7935
 6617SOL     OW31309   2.347   0.185  13.771 -0.3058 -0.1426 -0.1638
 6617SOL    HW131310   2.270   0.222  13.728  0.4081  1.2284 -0.2693
 6617SOL    HW231311   2.305   0.111  13.815 -1.9968  0.6008 -0.4962
 6618SOL     OW31312   0.141   1.204   4.964  0.3476 -0.4879 -0.7594
 6618SOL    HW131313   0.131   1.173   4.874 -1.6380 -0.1500 -0.6433
 6618SOL    HW231314   0.057   1.247   4.976  1.1868  1.1901 -0.9651
 6619SOL     OW31315   2.163   2.355   1.409 -0.7813  0.2098  0.3159
 6619SOL    HW131316   2.204   2.400   1.335 -1.9594 -1.7487 -1.5333
 6619SOL    HW231317   2.230   2.297   1.446  0.5931  2.3727  1.2422
 6620SOL     OW31318   1.744   2.113   7.674  0.5084 -0.5271 -0.6072
 6620SOL    HW131319   1.827   2.142   7.711  0.2758  0.1739 -0.6363
 6620SOL    HW231320   1.772   2.087   7.586 -1.2121 -1.0832 -0.9841
 6621SOL     OW31321   2.925   0.105   6.221  0.4397 -0.3170 -0.1277
 6621SOL    HW131322   2.952   0.102   6.312 -1.9298 -1.4496  0.5265
 6621SOL    HW231323   2.896   0.196   6.223  2.3394  0.2880  0.2266
 6622SOL     OW31324   3.662   1.945  13.765  0.5556 -0.2663 -0.0449
 6622SOL    HW131325   3.711   1.926  13.685 -1.2316 -0.1931 -1.1682
 6622SOL    HW231326   3.574   1.970  13.736 -0.0443 -2.5839 -0.2512
 6623SOL     OW31327   0.915   4.250   5.746  0.5836  0.9815 -0.4285
 6623SOL    HW131328   0.933   4.215   5.833  1.1057 -1.4231 -1.4913
 6623SOL    HW231329   0.942   4.342   5.755  1.7451  0.4251  1.7312
 6624SOL     OW31330   3.221   1.562   7.736 -0.1184  0.1548 -0.0747
 6624SOL    HW131331   3.177   1.641   7.768  0.5891 -0.5770  2.6803
 6624SOL    HW231332   3.169   1.487   7.766 -0.1525 -0.0274 -0.5916
 6625SOL     OW31333   0.222   2.985   8.332  0.3482  1.1143 -0.0965
 6625SOL    HW131334   0.295   2.944   8.284  1.2775  3.4357 -0.6711
 6625SOL    HW231335   0.187   2.910   8.379 -1.0418  2.2772  0.6916
 6626SOL     OW31336   2.175   1.204  16.613  0.2220 -0.8930  0.3296
 6626SOL    HW131337   2.219   1.253  16.682 -2.3733  0.4984  0.9715
 6626SOL    HW231338   2.138   1.272  16.557  1.0696 -2.2441 -1.8852
 6627SOL     OW31339   3.993   4.490   5.201  0.1458  0.0745  0.0600
 6627SOL    HW131340   3.970   4.406   5.161  2.3113 -0.1322 -0.7742
 6627SOL    HW231341   3.983   4.456   5.290 -1.4089  1.4079  0.3866
 6628SOL     OW31342   2.434   4.598   0.362  1.0083  0.4200  0.6751
 6628SOL    HW131343   2.365   4.649   0.405 -1.5766 -1.7644 -0.8732
 6628SOL    HW231344   2.511   4.652   0.380  1.0358  0.0541  1.6726
 6629SOL     OW31345   2.536   2.932  11.094  0.2460  0.3923 -0.1450
 6629SOL    HW131346   2.577   2.851  11.067  1.0594  1.2609 -1.4961
 6629SOL    HW231347   2.453   2.905  11.132  0.8356  1.1402  1.6756
 6630SOL     OW31348   3.347   1.493  16.085  0.6149  0.3224  0.6784
 6630SOL    HW131349   3.261   1.482  16.126 -0.7005 -0.5314 -2.2627
 6630SOL    HW231350   3.407   1.533  16.148  0.8645 -1.4733  1.5814
 6631SOL     OW31351   0.818   1.974   8.056 -0.1582  0.2250 -0.0625
 6631SOL    HW131352   0.883   1.962   7.987  0.1723 -0.6057  0.3916
 6631SOL    HW231353   0.802   2.068   8.059  0.3122  0.3343 -1.1264
 6632SOL     OW31354   3.968   0.429   5.085  0.2949  0.0391  0.2991
 6632SOL    HW131355   4.041   0.486   5.060 -0.6962  1.2716  0.2380
 6632SOL    HW231356   4.009   0.354   5.128  0.6411  0.3345  0.4845
 6633SOL     OW31357   1.474   2.021   3.721 -0.7589  0.1505 -0.3037
 6633SOL    HW131358   1.472   1.966   3.799  1.9480 -0.9132 -0.9715
 6633SOL    HW231359   1.494   1.955   3.654 -2.1017  2.1304 -2.6700
 6634SOL     OW31360   1.199   2.329  13.736 -0.0294 -0.1817  0.2779
 6634SOL    HW131361   1.188   2.419  13.766  1.5721  0.4864 -1.1319
 6634SOL    HW231362   1.118   2.318  13.686  0.3921 -2.9693  0.2028
 6635SOL     OW31363   4.480   2.789  10.054 -0.0855 -1.0092 -0.3173
 6635SOL    HW131364   4.503   2.786  10.147 -2.3595 -1.0878  0.2315
 6635SOL    HW231365   4.565   2.827  10.031 -0.3461 -0.0108  0.3788
 6636SOL     OW31366   3.717   4.011  16.307 -0.1735 -0.5276 -0.3141
 6636SOL    HW131367   3.793   4.054  16.268 -0.7006 -0.1781 -0.9556
 6636SOL    HW231368   3.691   3.948  16.239 -0.3230  0.1299 -0.8662
 6637SOL     OW31369   0.773   0.734   2.660 -0.6170  0.0539 -0.3383
 6637SOL    HW131370   0.853   0.684   2.678 -1.7247 -1.8625 -0.7617
 6637SOL    HW231371   0.718   0.681   2.718 -0.0105 -0.3094 -0.0901
 6638SOL     OW31372   1.088   3.843  16.252  0.0209  0.0184  0.2793
 6638SOL    HW131373   1.083   3.864  16.159 -1.3977  1.3426  0.6509
 6638SOL    HW231374   1.182   3.848  16.270  0.1314 -0.2389 -0.2423
 6639SOL     OW31375   4.562   2.627   7.299 -0.1880  0.0202 -0.3519
 6639SOL    HW131376   4.548   2.620   7.393 -2.0684 -0.3489 -0.6577
 6639SOL    HW231377   4.604   2.541   7.299  2.0883  1.1529 -2.1443
 6640SOL     OW31378   0.156   4.141   9.877 -0.3218 -0.5313  0.4775
 6640SOL    HW131379   0.105   4.123   9.798 -1.2145  2.3196  0.3827
 6640SOL    HW231380   0.083   4.122   9.936  0.4560  0.3316  1.7342
 6641SOL     OW31381   2.730   2.060  13.568  0.5894  0.5847  0.2651
 6641SOL    HW131382   2.653   2.017  13.605  1.7596  0.4767  2.5876
 6641SOL    HW231383   2.794   1.997  13.602 -2.3872 -1.4353  2.1184
 6642SOL     OW31384   0.079   2.132  12.890  0.3138 -0.2239  0.3460
 6642SOL    HW131385   0.148   2.190  12.922 -1.1379  1.4231  0.4981
 6642SOL    HW231386   0.051   2.094  12.973  0.6810 -1.8971 -0.3027
 6643SOL     OW31387   0.347   1.256   5.316  0.2175 -0.4345  0.4588
 6643SOL    HW131388   0.311   1.337   5.353  1.8305  1.5757 -2.4385
 6643SOL    HW231389   0.416   1.226   5.376 -0.2036 -2.6640 -0.1662
 6644SOL     OW31390   0.586   0.452  17.266 -0.0114  0.5472 -0.3858
 6644SOL    HW131391   0.557   0.364  17.240  1.0976  0.2785 -0.7142
 6644SOL    HW231392   0.629   0.490  17.189  4.1921 -1.1803  1.0731
 6645SOL     OW31393   4.484   4.244   7.013 -0.1118 -0.1547 -0.6333
 6645SOL    HW131394   4.427   4.296   6.957 -1.1358 -1.9754 -1.2886
 6645SOL    HW231395   4.523   4.319   7.058  1.5640  0.0052 -2.3416
 6646SOL     OW31396   3.545   3.722  12.714 -0.1648  0.1211  0.6499
 6646SOL    HW131397   3.461   3.683  12.739  1.7767 -3.7896  1.0384
 6646SOL    HW231398   3.563   3.755  12.802  1.1070 -2.9587  1.5428
 6647SOL     OW31399   0.209   3.425   7.915 -0.7689  0.0607  0.1537
 6647SOL    HW131400   0.160   3.474   7.848  0.0920  0.2408 -0.3351
 6647SOL    HW231401   0.294   3.437   7.874  0.0444  0.3016  1.8950
 6648SOL     OW31402   1.738   3.127   5.357 -0.0611 -0.3767 -0.6987
 6648SOL    HW131403   1.684   3.206   5.350  0.2012 -0.0216  1.2791
 6648SOL    HW231404   1.739   3.112   5.262 -3.6573 -2.5769 -0.3970
 6649SOL     OW31405   2.264   0.064   4.266  0.2604  0.8995  0.0274
 6649SOL    HW131406   2.352   0.092   4.242  0.5692  0.3842  0.5543
 6649SOL    HW231407   2.279   0.022   4.351 -3.5666 -2.6103 -1.0117
 6650SOL     OW31408   2.380   0.321  17.161 -0.4944  0.0092  0.0915
 6650SOL    HW131409   2.451   0.260  17.175 -1.1642 -0.9194 -0.5684
 6650SOL    HW231410   2.332   0.295  17.240 -0.8007  3.6633  1.1326
 6651SOL     OW31411   4.123   2.782   6.445  0.6224 -0.7752 -0.4522
 6651SOL    HW131412   4.087   2.796   6.358  2.6725 -2.0632 -1.5195
 6651SOL    HW231413   4.165   2.697   6.435  0.4781 -1.0355  1.1523
 6652SOL     OW31414   2.205   0.838   0.637 -0.6214  0.6107 -0.5220
 6652SOL    HW131415   2.122   0.792   0.646  0.4893 -1.2524  0.2451
 6652SOL    HW231416   2.258   0.767   0.600 -0.4338  1.0852 -1.1619
 6653SOL     OW31417   2.062   3.483   4.076 -0.4278 -0.1898 -0.3292
 6653SOL    HW131418   2.150   3.501   4.108  0.7247 -2.1652 -2.3623
 6653SOL    HW231419   2.014   3.529   4.144 -0.3992  0.2619 -0.6157
 6654SOL     OW31420   1.171   0.684   0.133 -0.0639  0.5712 -0.1631
 6654SOL    HW131421   1.098   0.624   0.120  0.8530 -0.8944  1.4695
 6654SOL    HW231422   1.244   0.622   0.132 -2.5873 -2.3646 -0.9445
 6655SOL     OW31423   1.999   4.215   7.588 -0.1765  0.2113  0.5412
 6655SOL    HW131424   2.065   4.148   7.571 -0.5777  0.2708 -1.2505
 6655SOL    HW231425   2.016   4.237   7.679 -1.5604 -0.0958  0.8775
 6656SOL     OW31426   1.516   2.533   7.239  0.2006 -0.0464 -0.1146
 6656SOL    HW131427   1.464   2.454   7.222  0.9879 -0.5946  0.0202
 6656SOL    HW231428   1.558   2.532   7.153  0.0170  0.1722 -0.2091
 6657SOL     OW31429   4.227   3.213   9.135  0.5439  0.1364 -0.5638
 6657SOL    HW131430   4.205   3.299   9.098  1.7075  0.2456 -1.0013
 6657SOL    HW231431   4.321   3.230   9.140  1.0020 -2.6175 -0.1188
 6658SOL     OW31432   0.251   2.877   0.104 -0.1300 -0.0558  0.3387
 6658SOL    HW131433   0.256   2.931   0.183  0.7695  0.3651 -0.0046
 6658SOL    HW231434   0.341   2.843   0.100 -0.1376 -0.0062 -0.1868
 6659SOL     OW31435   0.090   2.694   8.289 -0.7242 -0.3585  0.3451
 6659SOL    HW131436   0.063   2.727   8.204  0.2398 -2.2455 -0.6831
 6659SOL    HW231437   0.008   2.716   8.333 -0.4259  1.3223  0.0677
 6660SOL     OW31438   2.918   0.929   8.101  0.1805 -0.1801 -0.5896
 6660SOL    HW131439   2.929   0.984   8.179  0.7340 -2.8388  1.2078
 6660SOL    HW231440   2.896   0.843   8.136 -0.7080  0.2736 -0.0356
 6661SOL     OW31441   3.761   2.774   1.010 -0.3959  0.1661 -0.3082
 6661SOL    HW131442   3.796   2.859   0.982  1.9667 -0.5702  0.3835
 6661SOL    HW231443   3.670   2.784   0.983 -1.0524  0.6057  2.0108
 6662SOL     OW31444   1.607   1.512   1.413 -0.1149 -0.0249 -0.0940
 6662SOL    HW131445   1.541   1.443   1.416  0.9056 -1.1681 -3.4274
 6662SOL    HW231446   1.557   1.588   1.385 -0.6439 -0.6284 -0.7732
 6663SOL     OW31447   4.521   4.427   1.242  0.2023 -0.0993  0.3379
 6663SOL    HW131448   4.531   4.413   1.336  1.4253  2.6664  0.5996
 6663SOL    HW231449   4.521   4.340   1.201 -1.6873  0.4101 -0.7220
 6664SOL     OW31450   0.039   1.412  14.802 -0.3270 -0.5811  0.0330
 6664SOL    HW131451   0.017   1.503  14.785 -0.6413 -0.6204  0.2423
 6664SOL    HW231452   0.068   1.387  14.714 -0.0223 -0.4404  0.0909
 6665SOL     OW31453   3.978   2.324   1.996  0.4739  0.0121  0.5488
 6665SOL    HW131454   3.961   2.241   1.952 -0.1878 -0.9739  2.6376
 6665SOL    HW231455   4.017   2.368   1.921 -0.8308  1.6816  0.8465
 6666SOL     OW31456   1.785   3.690   5.622  0.0736  0.2834 -0.7119
 6666SOL    HW131457   1.736   3.690   5.539 -0.5740 -0.3277 -0.3282
 6666SOL    HW231458   1.872   3.653   5.606 -0.8000 -2.7874  1.7300
 6667SOL     OW31459   0.894   0.766   3.917 -0.3030 -0.0308  0.7831
 6667SOL    HW131460   0.913   0.753   3.824 -2.4594 -1.2997  0.5234
 6667SOL    HW231461   0.862   0.679   3.942 -2.3110  0.5467  0.2482
 6668SOL     OW31462   0.007   2.143   0.306  0.1232  0.3323 -0.1251
 6668SOL    HW131463   4.717   2.049   0.294 -0.4576  0.3152  0.6931
 6668SOL    HW231464   0.058   2.133   0.386  0.9019  0.6868 -0.5762
 6669SOL     OW31465   4.381   4.714   8.743  0.3275  0.2741 -0.2948
 6669SOL    HW131466   4.454   0.025   8.793  0.7757 -2.2810  0.8548
 6669SOL    HW231467   4.346   4.657   8.811  0.4638  2.8310  1.9127
 6670SOL     OW31468   3.365   2.720   3.857 -0.4049 -0.0700 -0.2746
 6670SOL    HW131469   3.452   2.698   3.891 -1.2300 -0.7478  1.4290
 6670SOL    HW231470   3.312   2.680   3.926 -0.6982  2.0762  0.7598
 6671SOL     OW31471   1.643   3.943   7.561 -0.3681 -0.0856  0.3472
 6671SOL    HW131472   1.603   3.913   7.643 -1.0556  0.2393  0.1323
 6671SOL    HW231473   1.678   4.029   7.586 -0.6226  0.6085 -1.6951
 6672SOL     OW31474   0.232   4.209   3.763 -0.0961  0.2513 -0.1203
 6672SOL    HW131475   0.167   4.171   3.704 -1.1636  0.4186  0.9649
 6672SOL    HW231476   0.207   4.300   3.748  0.7942  0.4103 -0.6775
 6673SOL     OW31477   2.883   2.742   7.518 -0.3363 -0.2179 -0.1840
 6673SOL    HW131478   2.918   2.665   7.473  0.0558  1.2155 -2.3454
 6673SOL    HW231479   2.875   2.808   7.449  1.6729  0.5929  0.3417
 6674SOL     OW31480   3.073   0.859   7.095  0.0766  0.1084 -0.2052
 6674SOL    HW131481   3.110   0.838   7.180  0.4381  2.1193  0.1351
 6674SOL    HW231482   3.142   0.919   7.067 -0.0103  0.0023 -0.6584
 6675SOL     OW31483   1.054   2.803  17.129 -0.0698 -0.1450  0.5688
 6675SOL    HW131484   1.136   2.758  17.109 -0.8717 -0.8909 -1.0826
 6675SOL    HW231485   1.009   2.795  17.045  0.8527  1.6870 -0.1104
 6676SOL     OW31486   1.156   0.435  13.769  0.4334  0.1799 -0.4732
 6676SOL    HW131487   1.185   0.526  13.779 -2.2150  1.0958 -1.0827
 6676SOL    HW231488   1.202   0.391  13.840 -0.0796  0.9012  0.3055
 6677SOL     OW31489   3.952   0.335   8.337  0.0396  0.1854  0.5027
 6677SOL    HW131490   4.027   0.280   8.362  0.1607 -0.1460 -0.5975
 6677SOL    HW231491   3.909   0.276   8.276  2.2301 -0.1798 -0.6718
 6678SOL     OW31492   2.324   1.836  14.100  0.8571 -0.1515  0.4219
 6678SOL    HW131493   2.268   1.871  14.170  0.2872 -2.9208  1.3609
 6678SOL    HW231494   2.389   1.784  14.149  0.6708 -1.2286 -0.4719
 6679SOL     OW31495   2.604   0.106   6.131  0.2936 -0.1002  0.0838
 6679SOL    HW131496   2.632   0.162   6.204  1.0814  0.4062 -0.6093
 6679SOL    HW231497   2.547   0.041   6.171 -0.0456 -0.4806 -1.0180
 6680SOL     OW31498   3.892   1.295  12.418  0.5644  0.0813  0.2533
 6680SOL    HW131499   3.964   1.233  12.427 -0.4054 -1.2807 -1.3733
 6680SOL    HW231500   3.823   1.234  12.393  0.1226  0.2034  1.1902
 6681SOL     OW31501   2.584   1.377   6.936  0.4451 -0.8877  0.0732
 6681SOL    HW131502   2.585   1.417   7.023  1.3174 -0.2359 -0.2371
 6681SOL    HW231503   2.668   1.408   6.903 -0.2725 -0.4681 -1.3730
 6682SOL     OW31504   0.294   0.419   5.503 -0.1374  0.1654 -0.3873
 6682SOL    HW131505   0.209   0.440   5.542  0.3943  1.3998  0.1089
 6682SOL    HW231506   0.323   0.347   5.558 -0.2300  2.4031  2.5862
 6683SOL     OW31507   4.466   2.616   3.921 -0.4224  0.4472 -0.0138
 6683SOL    HW131508   4.537   2.554   3.937 -2.4332 -1.5176  1.1414
 6683SOL    HW231509   4.390   2.559   3.935 -2.4773  2.4899 -2.7161
 6684SOL     OW31510   3.598   2.919   3.707  0.3051 -0.0884  0.4030
 6684SOL    HW131511   3.613   2.825   3.721  0.8441 -0.0658 -0.0129
 6684SOL    HW231512   3.533   2.939   3.775 -1.6612  0.7489 -1.7497
 6685SOL     OW31513   2.729   2.472   3.130 -0.0345 -0.1530  0.3572
 6685SOL    HW131514   2.669   2.511   3.194 -0.1187  0.3508 -0.0300
 6685SOL    HW231515   2.673   2.406   3.088  2.7421 -1.3414 -1.4336
 6686SOL     OW31516   0.795   2.488  12.987  0.5799  0.2341  0.6443
 6686SOL    HW131517   0.857   2.429  13.030  1.9371 -1.1721 -3.2856
 6686SOL    HW231518   0.732   2.431  12.942  1.0356  0.8952 -0.8045
 6687SOL     OW31519   0.626   3.037   0.003  0.4898  0.0322  0.0919
 6687SOL    HW131520   0.691   2.981  17.659  1.2797  0.3285  0.8993
 6687SOL    HW231521   0.592   2.974   0.066 -0.1363  0.2042 -0.0722
 6688SOL     OW31522   2.135   0.704   7.108 -0.3440  0.6526 -0.6800
 6688SOL    HW131523   2.215   0.749   7.137  0.2492  0.3980 -1.8920
 6688SOL    HW231524   2.177   0.618   7.103  0.1876  0.8873 -0.2626
 6689SOL     OW31525   4.165   3.905   5.883 -0.0205  0.5288  0.1842
 6689SOL    HW131526   4.146   3.994   5.911  1.4339  0.6390  0.8223
 6689SOL    HW231527   4.248   3.900   5.930  0.3360 -0.2432 -0.5268
 6690SOL     OW31528   1.660   1.880   2.078 -0.2601  0.3640 -0.1068
 6690SOL    HW131529   1.624   1.968   2.085 -0.6959  0.2193 -0.5448
 6690SOL    HW231530   1.754   1.898   2.070  0.1671 -2.4153 -1.3116
 6691SOL     OW31531   4.262   2.818  16.219 -0.3097 -0.2032 -0.4511
 6691SOL    HW131532   4.244   2.839  16.127  0.1845 -0.4740 -0.6087
 6691SOL    HW231533   4.291   2.727  16.222 -0.0121 -0.0903  0.2158
 6692SOL     OW31534   3.991   0.344   6.804 -0.5871  0.1703 -0.6105
 6692SOL    HW131535   4.032   0.265   6.772  0.2120  1.1826 -2.0577
 6692SOL    HW231536   4.069   0.394   6.829 -2.1967  2.1736  0.4079
 6693SOL     OW31537   3.636   1.467   7.637 -0.0969  0.1668 -0.4795
 6693SOL    HW131538   3.665   1.415   7.563 -0.5256 -0.8480  0.0680
 6693SOL    HW231539   3.659   1.404   7.706  1.2904 -0.7517 -1.8021
 6694SOL     OW31540   3.646   4.569   6.558  0.1284 -0.5520  0.2956
 6694SOL    HW131541   3.616   4.656   6.531  0.5063 -1.0286 -1.6074
 6694SOL    HW231542   3.727   4.581   6.608 -0.2896 -2.2514  1.3872
 6695SOL     OW31543   1.294   0.216   5.330 -0.6616  0.4455 -0.3915
 6695SOL    HW131544   1.251   0.179   5.253  0.3624 -0.3933 -0.5625
 6695SOL    HW231545   1.372   0.162   5.342 -2.4492 -2.1916 -0.5522
 6696SOL     OW31546   2.582   3.533   7.008  0.2895 -0.3415  0.0799
 6696SOL    HW131547   2.663   3.528   6.958  0.4292 -0.4218  0.3115
 6696SOL    HW231548   2.569   3.627   7.016  1.9660 -0.1248  0.2912
 6697SOL     OW31549   3.077   0.618   0.957  0.3315 -0.4444 -0.3138
 6697SOL    HW131550   2.987   0.590   0.938  0.5609 -1.9059  0.7724
 6697SOL    HW231551   3.072   0.708   0.923 -0.5860 -0.1725  0.5497
 6698SOL     OW31552   1.961   4.304  14.581 -0.2099 -0.1932  0.3153
 6698SOL    HW131553   1.984   4.397  14.573 -1.8003 -0.1160 -3.0123
 6698SOL    HW231554   1.933   4.301  14.673 -0.7125  0.5694  0.1911
 6699SOL     OW31555   0.045   3.526   5.461 -0.2261 -0.1418  0.3414
 6699SOL    HW131556   0.104   3.477   5.519  0.2119  2.6983  2.2530
 6699SOL    HW231557   0.100   3.534   5.383  0.5576 -0.6074  0.8431
 6700SOL     OW31558   1.280   1.966  12.337  0.1168  0.0816 -0.0699
 6700SOL    HW131559   1.279   1.913  12.258 -0.2870  0.1059 -0.0806
 6700SOL    HW231560   1.309   2.050  12.303  1.5438  0.8710  3.0608
 6701SOL     OW31561   2.459   3.076   7.128 -0.0663  0.0471 -0.0110
 6701SOL    HW131562   2.521   3.047   7.060  1.3094  0.9808  0.8334
 6701SOL    HW231563   2.427   3.159   7.092 -1.8757 -0.5387  0.2658
 6702SOL     OW31564   1.201   1.817   3.795  0.0861  0.4792 -0.1753
 6702SOL    HW131565   1.142   1.815   3.871 -0.5597  2.6246 -0.6294
 6702SOL    HW231566   1.287   1.815   3.835 -1.0219  2.7956  2.2963
 6703SOL     OW31567   0.354   1.269   7.255 -0.1280  0.0239  0.3074
 6703SOL    HW131568   0.327   1.188   7.297  0.4945 -1.1729 -1.6019
 6703SOL    HW231569   0.292   1.333   7.291 -0.2779 -0.0356  0.1578
 6704SOL     OW31570   4.310   4.071   8.471 -0.5689 -0.2526  0.1675
 6704SOL    HW131571   4.237   4.108   8.520 -0.5246  0.0610 -0.0084
 6704SOL    HW231572   4.369   4.143   8.451 -1.4734  0.4627  0.0658
 6705SOL     OW31573   3.239   2.367   1.864 -0.6945  0.1858  0.2363
 6705SOL    HW131574   3.321   2.395   1.824 -1.4527 -0.3467 -1.7076
 6705SOL    HW231575   3.186   2.342   1.788 -0.4784 -0.4306  0.2854
 6706SOL     OW31576   3.511   3.878  16.611 -0.0679  0.4615  0.3080
 6706SOL    HW131577   3.523   3.789  16.579 -0.2947  0.3068  0.6555
 6706SOL    HW231578   3.603   3.901  16.628 -0.1249  1.1048 -0.2528
 6707SOL     OW31579   2.198   0.908  16.429  0.0988  0.7649 -0.1695
 6707SOL    HW131580   2.226   0.819  16.410 -0.5928  0.6792 -0.8082
 6707SOL    HW231581   2.202   0.903  16.524 -0.9970 -0.8782 -0.2137
 6708SOL     OW31582   1.811   2.671   1.376  0.1952  0.1650 -0.3075
 6708SOL    HW131583   1.893   2.657   1.329 -1.6471 -2.8872 -2.6116
 6708SOL    HW231584   1.761   2.719   1.309 -0.9545  1.3980  1.4085
 6709SOL     OW31585   3.346   4.204  14.896  0.1739 -0.3275 -0.0170
 6709SOL    HW131586   3.273   4.266  14.889  0.6251 -0.0996 -3.0186
 6709SOL    HW231587   3.302   4.123  14.867  0.0581 -0.4906  0.6224
 6710SOL     OW31588   0.747   1.340   6.213  0.1305 -0.2700  0.3352
 6710SOL    HW131589   0.812   1.399   6.252  0.8796 -0.8403 -0.0429
 6710SOL    HW231590   0.751   1.261   6.267  0.4079 -1.4243 -1.3853
 6711SOL     OW31591   1.495   4.174  11.410 -0.7495 -0.1019  0.6202
 6711SOL    HW131592   1.497   4.248  11.348  2.9308 -0.2051  0.6016
 6711SOL    HW231593   1.577   4.130  11.386 -1.0947 -1.4793  2.0166
 6712SOL     OW31594   2.202   3.869   6.001  0.9900  0.7905 -0.1634
 6712SOL    HW131595   2.193   3.914   6.085  1.5551 -0.5822  0.6487
 6712SOL    HW231596   2.268   3.805   6.030  1.5688  1.3999 -0.1462
 6713SOL     OW31597   1.527   0.032   3.608 -0.1246  0.2328  0.2243
 6713SOL    HW131598   1.575   4.700   3.547 -0.3105 -0.2553  0.5302
 6713SOL    HW231599   1.465   0.074   3.547 -0.0787  0.7585  0.5378
 6714SOL     OW31600   3.059   4.028  14.561 -0.2011  0.2683 -0.3527
 6714SOL    HW131601   3.064   4.048  14.467 -1.2023  0.0124 -0.4539
 6714SOL    HW231602   3.035   3.935  14.561 -1.1362  0.5223  1.7571
 6715SOL     OW31603   3.566   1.280   4.958  0.1794 -0.1943  0.2969
 6715SOL    HW131604   3.483   1.236   4.938 -0.1910  1.8984 -2.8055
 6715SOL    HW231605   3.629   1.210   4.939  0.5517  0.3810 -0.5855
 6716SOL     OW31606   0.205   2.551   6.702  0.5517 -0.3527  0.6522
 6716SOL    HW131607   0.295   2.521   6.714 -0.1791 -1.4093  3.5025
 6716SOL    HW231608   0.169   2.567   6.789 -3.0621 -2.2203 -0.4815
 6717SOL     OW31609   0.188   0.344   6.514 -0.1532 -0.2338 -0.1741
 6717SOL    HW131610   0.198   0.423   6.461 -0.7835 -0.8132 -1.1466
 6717SOL    HW231611   0.093   0.338   6.515 -0.1427 -0.3168  0.6132
 6718SOL     OW31612   3.905   0.914  11.464  0.0512  0.4693  0.0145
 6718SOL    HW131613   3.966   0.859  11.414  0.4700 -0.8323  1.9450
 6718SOL    HW231614   3.937   0.888  11.550 -1.5242  1.4076  0.8670
 6719SOL     OW31615   2.705   4.129   4.785 -0.3582  0.3929  0.8045
 6719SOL    HW131616   2.669   4.044   4.760 -1.5866  1.4011 -0.8649
 6719SOL    HW231617   2.625   4.181   4.789 -0.6820  0.2429 -4.1374
 6720SOL     OW31618   2.316   3.033   3.256  0.0098 -0.4465 -0.0678
 6720SOL    HW131619   2.327   2.941   3.278  0.3835 -0.8632 -2.0047
 6720SOL    HW231620   2.388   3.063   3.312  2.5074 -0.2878 -3.3928
 6721SOL     OW31621   0.995   2.479   3.808 -1.2069 -0.2160  0.2261
 6721SOL    HW131622   1.003   2.390   3.772 -1.2559  0.4957 -1.5310
 6721SOL    HW231623   0.987   2.537   3.732  0.1587  2.5944  2.2480
 6722SOL     OW31624   4.322   4.310   5.315  0.1270 -0.1879  0.0782
 6722SOL    HW131625   4.267   4.270   5.383 -1.2798  0.5166 -0.6633
 6722SOL    HW231626   4.382   4.358   5.372 -2.7629  0.9313  2.1244
 6723SOL     OW31627   3.355   0.602   6.991  0.4821  0.0391  0.6692
 6723SOL    HW131628   3.399   0.687   6.990 -0.5875  0.5851  0.4872
 6723SOL    HW231629   3.389   0.562   6.910 -0.2069  0.2933  0.2598
 6724SOL     OW31630   3.083   2.097   9.466 -0.3766  0.2320 -0.4769
 6724SOL    HW131631   3.117   2.013   9.436  2.8074  1.2337  0.2715
 6724SOL    HW231632   3.068   2.093   9.560  0.6486  1.1917 -0.2723
 6725SOL     OW31633   2.436   3.395   6.058 -0.8597 -0.1120 -0.0154
 6725SOL    HW131634   2.426   3.370   5.966 -2.0192  0.4342 -0.0294
 6725SOL    HW231635   2.364   3.342   6.091 -2.0049  0.4879 -1.5475
 6726SOL     OW31636   1.688   0.934  14.113 -0.2574  0.0452  0.2822
 6726SOL    HW131637   1.700   0.974  14.027 -0.0915 -0.9959 -0.1694
 6726SOL    HW231638   1.778   0.913  14.135 -1.0045 -0.6952  2.6054
 6727SOL     OW31639   4.063   1.054   5.754 -0.2819 -0.1166 -0.0615
 6727SOL    HW131640   4.028   1.130   5.800  0.8295  1.0276 -1.1071
 6727SOL    HW231641   4.047   1.089   5.666  1.0399 -2.4483 -1.2390
 6728SOL     OW31642   1.439   0.467  14.404  0.2608  0.4178  0.4789
 6728SOL    HW131643   1.513   0.408  14.391 -1.1377 -1.2551  0.2185
 6728SOL    HW231644   1.386   0.419  14.467 -0.3783  0.2291 -0.2010
 6729SOL     OW31645   3.925   1.126   3.217  0.1505 -0.5159  0.2469
 6729SOL    HW131646   3.874   1.090   3.290  1.3733 -1.5342  0.5897
 6729SOL    HW231647   3.865   1.112   3.145 -0.7894 -1.2238  1.1592
 6730SOL     OW31648   3.995   3.696  12.181  0.2037  0.5366  0.0116
 6730SOL    HW131649   4.035   3.741  12.106 -0.2126 -4.2003 -3.0254
 6730SOL    HW231650   4.043   3.739  12.252  0.4892  0.2146  0.0111
 6731SOL     OW31651   2.469   3.450  12.226 -0.2871  0.1325 -0.2895
 6731SOL    HW131652   2.507   3.519  12.280 -1.5017  1.6070 -1.3283
 6731SOL    HW231653   2.482   3.479  12.136  0.1531 -1.6127 -0.7938
 6732SOL     OW31654   3.205   4.416   6.051  0.7847  0.3256  0.4047
 6732SOL    HW131655   3.162   4.501   6.063  1.5020  0.7689 -0.1001
 6732SOL    HW231656   3.288   4.439   6.094 -0.4059  3.5028  1.0175
 6733SOL     OW31657   0.836   4.665   9.085 -0.0091 -0.1942 -0.0729
 6733SOL    HW131658   0.902   4.596   9.091 -0.0153 -0.2714 -0.7976
 6733SOL    HW231659   0.752   4.620   9.085 -1.5445  2.6370  1.1701
 6734SOL     OW31660   4.351   0.862   4.288 -0.4280 -0.1260 -0.0239
 6734SOL    HW131661   4.314   0.914   4.217  1.3012 -2.2334 -2.4930
 6734SOL    HW231662   4.443   0.886   4.300 -0.2899 -1.1246  0.9189
 6735SOL     OW31663   2.654   0.536   6.970  0.2932 -0.2696  0.4437
 6735SOL    HW131664   2.624   0.621   6.937  1.6124  0.2796  0.6823
 6735SOL    HW231665   2.746   0.558   6.985  0.4727  1.0340 -2.4489
 6736SOL     OW31666   1.659   2.723   3.483  0.2944 -0.1508  0.0917
 6736SOL    HW131667   1.600   2.658   3.522 -0.4201  0.7859  0.5453
 6736SOL    HW231668   1.698   2.670   3.413 -0.8438  0.5031 -1.0378
 6737SOL     OW31669   3.596   3.985  14.764  0.2667  0.0332  0.0358
 6737SOL    HW131670   3.503   4.001  14.781  0.1055 -2.6679  1.6845
 6737SOL    HW231671   3.643   4.026  14.837 -2.5814  2.4409  0.5208
 6738SOL     OW31672   2.339   0.175   7.972  0.0225 -0.5018 -0.3053
 6738SOL    HW131673   2.373   0.131   7.894 -0.4990 -0.8672 -0.3298
 6738SOL    HW231674   2.373   0.118   8.041 -0.4391 -1.7031 -1.0710
 6739SOL     OW31675   2.857   4.631  14.329  0.0046  0.5781  0.7373
 6739SOL    HW131676   2.825   4.695  14.266 -0.1258  0.0303  0.2418
 6739SOL    HW231677   2.831   4.551  14.283  1.4466  0.6960 -0.2832
 6740SOL     OW31678   2.263   1.076  16.924  0.1604  0.3719  0.0965
 6740SOL    HW131679   2.170   1.096  16.939  0.1479 -0.6454  1.4008
 6740SOL    HW231680   2.305   1.128  16.993  1.8048 -0.4376 -0.3151
 6741SOL     OW31681   2.470   0.166  15.245 -0.2877  0.7745 -0.0319
 6741SOL    HW131682   2.469   0.255  15.281 -0.4744  0.4712  0.7120
 6741SOL    HW231683   2.387   0.129  15.273 -0.2166  0.5659 -0.0976
 6742SOL     OW31684   0.049   2.990  12.622 -0.0007 -0.5311 -0.1310
 6742SOL    HW131685   4.709   3.059  12.605  1.2903  1.2025  1.8792
 6742SOL    HW231686   0.120   3.050  12.648  0.7715 -1.0449 -1.0704
 6743SOL     OW31687   1.294   4.713   4.244 -0.0941  0.4816 -0.1097
 6743SOL    HW131688   1.300   4.715   4.340  4.1955  2.4518 -0.4265
 6743SOL    HW231689   1.209   0.024   4.220  1.0459  3.4451  0.1836
 6744SOL     OW31690   2.254   2.298   5.308 -0.1687  0.1727 -0.1130
 6744SOL    HW131691   2.330   2.350   5.283 -0.9331  1.4730  0.2688
 6744SOL    HW231692   2.188   2.366   5.319 -0.7542 -0.2054 -1.2924
 6745SOL     OW31693   2.564   1.241   4.035 -0.6763  0.2075  0.4165
 6745SOL    HW131694   2.547   1.328   4.071  1.7163  0.0588  1.8626
 6745SOL    HW231695   2.659   1.233   4.028 -0.4797  2.5373  0.2862
 6746SOL     OW31696   0.766   1.958   8.509  0.2841 -0.9576 -0.0862
 6746SOL    HW131697   0.721   1.921   8.585  0.5871 -1.9287 -0.3837
 6746SOL    HW231698   0.847   1.908   8.501  0.6898 -0.1408 -1.0642
 6747SOL     OW31699   0.712   3.639   6.590 -0.4039 -0.0018 -0.8977
 6747SOL    HW131700   0.738   3.654   6.681  1.5415  0.5676 -1.5600
 6747SOL    HW231701   0.726   3.727   6.557  0.4500 -0.0315 -0.6177
 6748SOL     OW31702   0.811   1.064  13.745  0.0613 -0.5656  0.2721
 6748SOL    HW131703   0.757   0.986  13.741 -1.8072  0.8366 -2.2469
 6748SOL    HW231704   0.751   1.118  13.796 -1.0632  0.4917 -2.1597
 6749SOL     OW31705   0.442   2.825   2.535  0.5633  0.1312 -0.7414
 6749SOL    HW131706   0.529   2.786   2.530  0.4409 -0.4314  1.3845
 6749SOL    HW231707   0.449   2.865   2.622 -1.8349 -2.2933  0.5832
 6750SOL     OW31708   2.886   3.390   9.061  0.1044 -0.3686 -0.0729
 6750SOL    HW131709   2.901   3.460   8.998 -0.6565  0.3726  0.5743
 6750SOL    HW231710   2.851   3.440   9.135  0.1588 -0.1340 -0.2055
 6751SOL     OW31711   2.456   1.346   3.565 -0.2667  0.3774  0.2690
 6751SOL    HW131712   2.523   1.405   3.530 -0.0858  0.9216  1.5318
 6751SOL    HW231713   2.412   1.330   3.481  2.6162  0.7414 -1.3355
 6752SOL     OW31714   3.709   3.797   3.702  0.2647  0.3567 -0.3472
 6752SOL    HW131715   3.731   3.740   3.629 -0.9202  2.0062 -2.0048
 6752SOL    HW231716   3.794   3.835   3.723 -1.5987  2.8812  2.6338
 6753SOL     OW31717   0.399   2.726   4.966 -0.0636 -0.1791  0.1569
 6753SOL    HW131718   0.367   2.655   4.910  0.7801  0.8734 -1.6839
 6753SOL    HW231719   0.454   2.677   5.027  3.1534  2.5524 -0.5351
 6754SOL     OW31720   3.098   2.026   2.777 -0.4811 -0.0239  0.2794
 6754SOL    HW131721   3.190   2.047   2.789 -0.7232  1.1337  0.0936
 6754SOL    HW231722   3.093   2.021   2.682 -1.3214  0.8301  0.2767
 6755SOL     OW31723   4.653   1.688   3.430 -0.1683 -0.0826  0.1045
 6755SOL    HW131724   4.676   1.727   3.345 -1.0062 -1.5204 -0.7792
 6755SOL    HW231725   0.013   1.657   3.463 -0.7167 -2.9645 -1.1306
 6756SOL     OW31726   2.196   2.915   2.367 -0.4193 -0.5524  0.2799
 6756SOL    HW131727   2.190   2.870   2.451  0.5257 -2.4252 -0.6503
 6756SOL    HW231728   2.141   2.991   2.385  1.8237  1.2996 -0.8296
 6757SOL     OW31729   3.396   1.466   8.700  0.7224 -0.3231  0.3258
 6757SOL    HW131730   3.464   1.403   8.676  0.3804  0.4779 -2.7439
 6757SOL    HW231731   3.389   1.444   8.793 -0.5697  0.2145  0.3616
 6758SOL     OW31732   0.632   1.146   5.100 -0.2798  1.0648  0.1740
 6758SOL    HW131733   0.587   1.155   5.015 -0.4464  2.6809  0.4462
 6758SOL    HW231734   0.720   1.129   5.066 -0.1049 -0.8177  1.5345
 6759SOL     OW31735   2.646   0.425   1.364 -0.0035  0.1092  0.2639
 6759SOL    HW131736   2.684   0.349   1.319 -1.4813  2.2652 -4.6252
 6759SOL    HW231737   2.564   0.377   1.373 -1.0047  1.6930 -0.3694
 6760SOL     OW31738   4.457   3.060   8.333  0.1860  0.3719  0.2522
 6760SOL    HW131739   4.540   3.106   8.334 -1.3390  3.0976  1.4013
 6760SOL    HW231740   4.417   3.119   8.398  0.2689  1.9323 -1.1086
 6761SOL     OW31741   2.766   4.492   8.168  1.1792 -0.6325 -0.3312
 6761SOL    HW131742   2.740   4.432   8.239  1.0498 -0.7864 -0.5082
 6761SOL    HW231743   2.799   4.430   8.104  0.4085 -0.1395 -1.2043
 6762SOL     OW31744   3.378   4.549   4.978  0.1700  0.2640  0.3897
 6762SOL    HW131745   3.387   4.536   5.072 -0.3101 -1.5921  0.1709
 6762SOL    HW231746   3.455   4.507   4.941  0.5715  0.6412  0.7898
 6763SOL     OW31747   3.457   4.364   7.610  0.6283 -0.5043  0.3350
 6763SOL    HW131748   3.452   4.429   7.540 -0.0893  0.8163  1.6238
 6763SOL    HW231749   3.498   4.406   7.686  1.2534  2.6138 -1.7631
 6764SOL     OW31750   0.990   1.818   8.421  0.3494 -1.2120  0.0795
 6764SOL    HW131751   0.934   1.765   8.364  0.8364 -0.2991 -1.2465
 6764SOL    HW231752   1.052   1.864   8.365 -0.1338 -2.0930 -1.1754
 6765SOL     OW31753   4.576   2.646   6.894  0.0186 -0.0294 -0.1197
 6765SOL    HW131754   4.528   2.570   6.863 -1.4534  0.6782  0.4042
 6765SOL    HW231755   4.583   2.706   6.819 -1.7958  1.2651  0.7432
 6766SOL     OW31756   3.830   1.297   3.864 -0.5349 -0.6149  0.0094
 6766SOL    HW131757   3.813   1.332   3.777 -0.0703 -0.1942  0.0898
 6766SOL    HW231758   3.799   1.208   3.845 -0.7459 -0.7207  0.8159
 6767SOL     OW31759   3.944   0.395  13.845  0.0516 -0.5453 -1.0347
 6767SOL    HW131760   3.906   0.351  13.921  2.2439 -1.0379 -0.2061
 6767SOL    HW231761   3.873   0.455  13.824 -0.2659 -0.8587 -0.8497
 6768SOL     OW31762   4.669   3.617   6.912 -0.3854 -0.1043  0.8585
 6768SOL    HW131763   4.689   3.707   6.886  0.4795 -0.9263 -1.2712
 6768SOL    HW231764   4.575   3.612   6.895 -0.6442 -0.1365  2.2413
 6769SOL     OW31765   2.276   1.309  17.422  0.2863 -0.1234  0.4718
 6769SOL    HW131766   2.349   1.271  17.471  0.2661 -0.1435  0.4862
 6769SOL    HW231767   2.203   1.283  17.478  1.0963 -1.7890  0.7805
 6770SOL     OW31768   2.423   3.677   9.787  0.1170 -0.1195  0.0152
 6770SOL    HW131769   2.483   3.649   9.855 -1.9061 -1.7471  1.1290
 6770SOL    HW231770   2.350   3.703   9.843 -0.4400 -0.8612 -0.3691
 6771SOL     OW31771   3.791   0.474   3.968  0.0552  0.0134 -0.0199
 6771SOL    HW131772   3.886   0.481   3.958 -0.0918  1.0166 -0.7574
 6771SOL    HW231773   3.767   0.524   3.889  1.0654  0.0829 -0.2758
 6772SOL     OW31774   1.574   0.919   8.254 -0.2056 -0.0656 -0.3034
 6772SOL    HW131775   1.642   0.892   8.316 -1.4604  2.0331  2.0113
 6772SOL    HW231776   1.501   0.865   8.285  0.6414 -0.2011  1.4659
 6773SOL     OW31777   3.369   0.056   0.560  0.4273 -0.1713  0.2796
 6773SOL    HW131778   3.380   0.089   0.649  0.8299 -2.4991  1.1041
 6773SOL    HW231779   3.461   0.061   0.532 -0.6947  2.3484 -2.9456
 6774SOL     OW31780   1.341   0.936  12.772  0.0585 -0.1298  0.3365
 6774SOL    HW131781   1.341   0.843  12.795  2.6976  0.1752  1.5158
 6774SOL    HW231782   1.250   0.963  12.780 -0.0158  0.1602 -1.4657
 6775SOL     OW31783   2.144   4.155   9.403  0.3386 -0.0943 -0.8411
 6775SOL    HW131784   2.051   4.179   9.396  0.3499  0.1078 -0.3253
 6775SOL    HW231785   2.164   4.108   9.322 -0.7886 -1.3027 -0.4225
 6776SOL     OW31786   4.388   3.093  16.799 -0.3658 -0.4925 -0.2164
 6776SOL    HW131787   4.443   3.024  16.836 -0.9495 -1.1102 -0.4939
 6776SOL    HW231788   4.369   3.133  16.884  1.4844  1.4747 -0.7366
 6777SOL     OW31789   4.160   2.633   9.449  0.6915  0.2780  0.4140
 6777SOL    HW131790   4.142   2.712   9.500 -0.2787  1.2831 -1.4716
 6777SOL    HW231791   4.203   2.582   9.518  0.6718  1.4308  1.2922
 6778SOL     OW31792   3.630   3.740   6.857 -0.0359  0.4166  0.0311
 6778SOL    HW131793   3.626   3.759   6.951  0.2125  0.9635 -0.0643
 6778SOL    HW231794   3.708   3.685   6.860  0.7462  1.4114 -1.6613
 6779SOL     OW31795   0.870   0.963  16.885  0.0744  0.1692  0.7982
 6779SOL    HW131796   0.888   0.873  16.858 -0.5117  0.3270 -0.1148
 6779SOL    HW231797   0.870   0.939  16.978 -0.7398  1.0104  1.0140
 6780SOL     OW31798   2.742   0.516   6.589  0.1019  0.1848 -0.2251
 6780SOL    HW131799   2.650   0.541   6.585 -0.0860 -0.3390  0.6720
 6780SOL    HW231800   2.752   0.515   6.494 -2.0774  1.1277 -0.4630
 6781SOL     OW31801   2.263   4.488  12.168  0.4533  0.0421 -0.4516
 6781SOL    HW131802   2.308   4.531  12.095  0.3728  1.9372  0.5994
 6781SOL    HW231803   2.175   4.526  12.166  1.0464  1.5787  2.3981
 6782SOL     OW31804   3.757   0.564  16.464 -0.6692  0.0150 -0.0854
 6782SOL    HW131805   3.772   0.469  16.469  1.6806  0.3799  0.1619
 6782SOL    HW231806   3.674   0.568  16.418 -0.9591  1.5426  0.5893
 6783SOL     OW31807   1.034   0.946   4.080  0.5252 -0.3368  0.2336
 6783SOL    HW131808   1.032   0.861   4.036  1.3279  0.2116 -0.8620
 6783SOL    HW231809   0.940   0.958   4.098  0.6949  0.7592  0.3887
 6784SOL     OW31810   2.277   1.715   5.607 -0.1655 -0.0807  0.8818
 6784SOL    HW131811   2.240   1.794   5.567 -1.3499 -1.6197 -1.0578
 6784SOL    HW231812   2.195   1.673   5.632 -0.3127  0.8250  1.9397
 6785SOL     OW31813   0.274   0.380  13.855 -0.0778 -0.4873 -0.2472
 6785SOL    HW131814   0.222   0.458  13.872  2.3167  1.2416 -0.7194
 6785SOL    HW231815   0.249   0.377  13.762  0.0121 -1.2270 -0.2513
 6786SOL     OW31816   3.259   4.291   4.154  0.0082  0.9503  0.1863
 6786SOL    HW131817   3.331   4.242   4.114 -0.3776  1.1071 -0.7065
 6786SOL    HW231818   3.187   4.242   4.114  1.9295 -2.6101  1.1571
 6787SOL     OW31819   2.976   1.726   3.071 -0.1621  0.1168 -0.6360
 6787SOL    HW131820   3.018   1.641   3.086 -1.5425 -0.8091 -1.9943
 6787SOL    HW231821   3.033   1.765   3.005  1.3270 -0.0753  0.5133
 6788SOL     OW31822   2.109   3.596   7.899  0.0921 -0.3136  0.4800
 6788SOL    HW131823   2.082   3.532   7.964 -0.3710 -0.4095  0.1988
 6788SOL    HW231824   2.051   3.664   7.933 -0.3399 -0.1460 -0.5871
 6789SOL     OW31825   3.507   0.798   7.293  0.3217  0.1311 -0.6010
 6789SOL    HW131826   3.598   0.825   7.279 -0.2920  1.4812 -1.8783
 6789SOL    HW231827   3.469   0.875   7.335  2.3222  1.2789 -0.8538
 6790SOL     OW31828   0.157   0.999   5.536 -0.9224 -0.0963  0.2698
 6790SOL    HW131829   0.086   1.040   5.486 -0.8919 -0.1625  0.1723
 6790SOL    HW231830   0.237   1.046   5.512 -0.2541 -0.4053  1.8944
 6791SOL     OW31831   3.438   2.128   5.134 -0.3328 -0.1817  0.0667
 6791SOL    HW131832   3.379   2.177   5.192 -0.2816  0.2317 -0.2296
 6791SOL    HW231833   3.374   2.102   5.067 -1.9602 -0.2526  1.6483
 6792SOL     OW31834   0.967   4.555   7.728  0.4651 -0.0976 -0.1149
 6792SOL    HW131835   0.905   4.612   7.683 -0.0300 -0.4251  0.1650
 6792SOL    HW231836   1.043   4.614   7.719 -0.8396  1.4522 -1.0665
 6793SOL     OW31837   3.479   1.609   2.336 -0.5228  0.6963  0.2134
 6793SOL    HW131838   3.386   1.614   2.312 -0.2804  1.0110 -0.6478
 6793SOL    HW231839   3.514   1.680   2.282 -2.6666  1.7641  0.2128
 6794SOL     OW31840   3.950   0.057   4.268  0.3046 -0.1999 -0.6109
 6794SOL    HW131841   3.883   0.120   4.295  0.4849  0.6301 -2.1100
 6794SOL    HW231842   3.981   0.077   4.180 -0.9800 -0.4306 -1.1159
 6795SOL     OW31843   1.326   4.191   7.073 -0.1826  0.5683 -0.8482
 6795SOL    HW131844   1.332   4.184   6.977 -0.4097 -2.6770 -0.6456
 6795SOL    HW231845   1.250   4.248   7.084 -1.9217 -1.4053 -2.4572
 6796SOL     OW31846   3.152   0.992   4.922 -0.0419  0.0214  0.2997
 6796SOL    HW131847   3.139   1.041   5.004 -0.3013  2.2039 -1.0360
 6796SOL    HW231848   3.071   0.941   4.926  1.2468 -2.1083 -1.4086
 6797SOL     OW31849   2.425   1.705  11.364 -0.1378  0.0380 -0.1874
 6797SOL    HW131850   2.334   1.722  11.391  0.0891  0.3156  0.3933
 6797SOL    HW231851   2.436   1.776  11.300  0.3489 -0.7541 -0.9852
 6798SOL     OW31852   2.733   3.415   9.856  0.6802  0.5015 -0.1717
 6798SOL    HW131853   2.796   3.468   9.807  0.2429  0.3900 -0.8531
 6798SOL    HW231854   2.695   3.486   9.908 -0.3056 -1.4773  1.7972
 6799SOL     OW31855   3.193   3.345   8.947 -0.3130 -0.3631  0.0778
 6799SOL    HW131856   3.244   3.315   9.022  0.3907  1.3741  0.2919
 6799SOL    HW231857   3.231   3.429   8.923  2.3097 -0.7215  3.0007
 6800SOL     OW31858   0.818   2.931  14.268 -0.1247  0.9905 -0.1812
 6800SOL    HW131859   0.845   3.022  14.275 -0.7019  1.1406  0.0950
 6800SOL    HW231860   0.884   2.890  14.212 -0.9337 -1.6787  0.8141
 6801SOL     OW31861   2.928   1.717   5.771  0.0008 -0.7158  0.6281
 6801SOL    HW131862   2.848   1.684   5.812 -0.3839 -0.7186 -0.1311
 6801SOL    HW231863   2.999   1.694   5.830  0.3082  1.3871  1.0920
 6802SOL     OW31864   4.635   0.828  14.911  0.6117 -0.0714  0.7235
 6802SOL    HW131865   4.666   0.911  14.875 -2.5290  0.5862 -0.4502
 6802SOL    HW231866   4.604   0.865  14.993 -2.5866  0.5072 -0.7530
 6803SOL     OW31867   0.928   1.554   5.643 -1.1404  0.2761  0.1036
 6803SOL    HW131868   0.844   1.511   5.629 -0.9128  0.2668 -1.2570
 6803SOL    HW231869   0.985   1.489   5.600  0.2586  1.6913 -0.1897
 6804SOL     OW31870   1.508   1.771  12.315  0.0919 -0.2089  0.4229
 6804SOL    HW131871   1.563   1.693  12.310 -0.2398 -0.5023  1.4684
 6804SOL    HW231872   1.421   1.735  12.331 -0.3728 -0.0823 -1.7535
 6805SOL     OW31873   2.731   0.787   1.585  0.8357 -0.3490  0.1626
 6805SOL    HW131874   2.691   0.728   1.649  0.7083  0.0262  0.4305
 6805SOL    HW231875   2.779   0.725   1.530 -2.0162 -0.0316 -2.6649
 6806SOL     OW31876   4.470   2.737  13.949  0.0849  0.5494  0.2117
 6806SOL    HW131877   4.503   2.691  13.872  0.2186 -0.0425  0.6186
 6806SOL    HW231878   4.502   2.698  14.030  1.3018 -0.7992 -0.9140
 6807SOL     OW31879   1.050   0.182   9.089  0.4598  0.4630  0.2290
 6807SOL    HW131880   1.118   0.163   9.154  1.9380  3.5081 -0.4201
 6807SOL    HW231881   1.054   0.098   9.043  2.4350  0.2291  0.8028
 6808SOL     OW31882   3.343   1.073   4.016 -0.2615  0.1912  0.0044
 6808SOL    HW131883   3.334   1.167   4.026 -1.0350  0.1945 -0.7172
 6808SOL    HW231884   3.274   1.057   3.951  0.8070  0.8517 -1.2828
 6809SOL     OW31885   2.992   1.552  14.295  0.5224 -0.3082  0.1280
 6809SOL    HW131886   3.051   1.625  14.314  2.0330 -0.9698 -2.0085
 6809SOL    HW231887   2.937   1.555  14.374  1.8809 -0.2492  1.0685
 6810SOL     OW31888   0.018   1.615   0.111  0.0412  0.0456  0.7268
 6810SOL    HW131889   0.015   1.527   0.073 -0.0320  0.9971 -1.4766
 6810SOL    HW231890   4.680   1.607   0.183 -0.6652  1.8591  0.2960
 6811SOL     OW31891   4.414   3.820   7.208 -0.2504  0.1593 -0.2755
 6811SOL    HW131892   4.452   3.831   7.295 -1.6308 -1.4795  0.5474
 6811SOL    HW231893   4.475   3.876   7.161 -1.0606  0.4331 -1.0084
 6812SOL     OW31894   3.463   1.335   2.749 -0.5060 -0.5238  0.1772
 6812SOL    HW131895   3.436   1.343   2.658 -2.4593 -0.3919  0.7615
 6812SOL    HW231896   3.382   1.307   2.792 -0.5216 -1.9798 -0.8183
 6813SOL     OW31897   4.392   1.318  17.420  0.4117 -0.3854  0.1423
 6813SOL    HW131898   4.333   1.265  17.366  1.8048 -3.1310  1.3502
 6813SOL    HW231899   4.396   1.394  17.362  0.4790 -1.8577 -1.7888
 6814SOL     OW31900   1.775   1.827   4.480 -0.5819 -0.4580  0.6722
 6814SOL    HW131901   1.807   1.915   4.457  1.5755 -1.1533  0.9728
 6814SOL    HW231902   1.790   1.823   4.575 -2.0252  0.0587  0.9142
 6815SOL     OW31903   1.785   2.900   6.465 -0.2144 -0.0819  0.4097
 6815SOL    HW131904   1.867   2.871   6.505  0.0256 -0.9896 -0.7396
 6815SOL    HW231905   1.739   2.817   6.453 -1.4297  0.4081  1.5756
 6816SOL     OW31906   2.059   3.038  10.675 -0.5290 -1.2236  0.6355
 6816SOL    HW131907   2.088   3.028  10.765  0.1786  1.0481  0.6680
 6816SOL    HW231908   2.140   3.055  10.626  0.1273 -0.0076  2.1562
 6817SOL     OW31909   2.150   1.888   2.839 -0.3833  0.6293  0.7587
 6817SOL    HW131910   2.123   1.796   2.840  3.1793 -0.4058  0.1353
 6817SOL    HW231911   2.185   1.883   2.750  1.6383  0.0182  1.5876
 6818SOL     OW31912   3.360   2.750   7.731 -0.3371 -0.0960  0.3327
 6818SOL    HW131913   3.403   2.683   7.784 -1.0554 -0.9840 -0.2168
 6818SOL    HW231914   3.439   2.803   7.743 -0.5392  0.8631 -2.5005
 6819SOL     OW31915   4.199   2.716   8.997  0.3544 -0.5702 -0.1935
 6819SOL    HW131916   4.250   2.781   8.948  0.2059 -2.3028 -2.6724
 6819SOL    HW231917   4.113   2.757   9.005  0.7649  0.1355  0.6048
 6820SOL     OW31918   1.338   0.303  17.305  0.1773  0.2035  0.3797
 6820SOL    HW131919   1.299   0.388  17.323 -2.2574 -0.7936 -0.1539
 6820SOL    HW231920   1.346   0.258  17.389 -0.4856  0.4299  0.5642
 6821SOL     OW31921   3.303   0.738  14.758 -0.0938 -0.0559 -0.2199
 6821SOL    HW131922   3.377   0.779  14.714 -0.5481  0.7388 -0.2409
 6821SOL    HW231923   3.347   0.720  14.842  0.5980  1.5385 -0.2440
 6822SOL     OW31924   0.019   0.692   8.295  0.2882 -0.1498  0.1409
 6822SOL    HW131925   0.016   0.628   8.366 -1.9704  0.7505  0.8473
 6822SOL    HW231926   4.709   0.768   8.341  1.8588  0.1056  0.8935
 6823SOL     OW31927   2.082   3.097   1.479 -0.2541  0.7537  0.2861
 6823SOL    HW131928   2.113   3.184   1.505  0.1329  0.7470 -0.1574
 6823SOL    HW231929   2.166   3.052   1.483 -0.1912  0.8136 -0.4401
 6824SOL     OW31930   0.888   2.609   5.093  0.1410  0.0657 -0.8208
 6824SOL    HW131931   0.944   2.574   5.161 -2.6744 -0.8785  1.0214
 6824SOL    HW231932   0.816   2.546   5.088  1.7867 -1.8436 -0.5958
 6825SOL     OW31933   4.492   4.224  10.581 -0.1946 -0.5176 -0.0401
 6825SOL    HW131934   4.398   4.222  10.601 -0.0786  0.5361  0.6830
 6825SOL    HW231935   4.506   4.130  10.571  2.6079 -0.2620  1.3780
 6826SOL     OW31936   2.173   3.150   4.836  1.1113  0.6067  0.2988
 6826SOL    HW131937   2.214   3.213   4.894  0.1453  0.3691  1.2370
 6826SOL    HW231938   2.205   3.192   4.756 -2.7782  0.9981 -1.0502
 6827SOL     OW31939   1.832   2.791  15.921 -0.3345  0.4491  0.0613
 6827SOL    HW131940   1.899   2.761  15.983 -3.0106  0.0240  2.7589
 6827SOL    HW231941   1.837   2.887  15.931  1.8643  0.3581 -0.1588
 6828SOL     OW31942   0.178   4.458   4.041  0.0810 -0.9886  0.5039
 6828SOL    HW131943   0.221   4.464   4.127  1.4150 -1.9394 -0.1047
 6828SOL    HW231944   0.251   4.476   3.982 -0.0428 -2.0037  0.0572
 6829SOL     OW31945   3.748   2.297  16.317  0.5654 -0.3915  0.0232
 6829SOL    HW131946   3.731   2.226  16.255 -1.9452  0.1591  0.0547
 6829SOL    HW231947   3.715   2.374  16.270  1.4375 -0.5487 -0.8428
 6830SOL     OW31948   2.440   3.635   2.050  0.1943 -0.1961 -0.2784
 6830SOL    HW131949   2.519   3.615   2.000 -0.2144  0.2132 -1.0979
 6830SOL    HW231950   2.394   3.682   1.980 -0.5572  0.8852  0.9331
 6831SOL     OW31951   0.933   3.370   5.660 -0.0154  0.0642  0.4954
 6831SOL    HW131952   0.848   3.390   5.620  0.3638 -0.0505 -0.3702
 6831SOL    HW231953   0.917   3.279   5.683 -0.5215 -0.2218 -0.9508
 6832SOL     OW31954   2.291   0.374   9.331  0.1701 -0.3968  0.0064
 6832SOL    HW131955   2.372   0.398   9.377  1.1041 -0.3829 -1.6602
 6832SOL    HW231956   2.224   0.408   9.390 -0.5317 -0.7779 -0.5728
 6833SOL     OW31957   4.538   2.771   1.452 -0.3962 -0.1714 -0.0242
 6833SOL    HW131958   4.468   2.836   1.459 -0.6444 -0.1605 -2.7668
 6833SOL    HW231959   4.506   2.733   1.371  1.0872 -1.5046  0.0041
 6834SOL     OW31960   2.637   2.111   5.837 -0.0797 -0.5873 -0.2598
 6834SOL    HW131961   2.681   2.109   5.752  0.5083  2.6935 -0.0327
 6834SOL    HW231962   2.691   2.047   5.883 -0.3100 -1.5076 -1.2686
 6835SOL     OW31963   1.225   4.028  17.574 -0.0462 -0.7079 -0.3635
 6835SOL    HW131964   1.177   4.043  17.492 -0.5585 -2.7886 -0.4495
 6835SOL    HW231965   1.304   4.074  17.546  0.8097 -1.7936  0.2625
 6836SOL     OW31966   2.890   3.161   4.545  0.3209 -0.3527 -0.7901
 6836SOL    HW131967   2.957   3.225   4.568  1.3702 -0.5553 -3.3693
 6836SOL    HW231968   2.886   3.103   4.621 -0.4369  1.1662  0.3365
 6837SOL     OW31969   2.522   4.101  16.488  1.1965 -0.5548  0.5963
 6837SOL    HW131970   2.617   4.113  16.482  1.2148 -1.0579 -0.0943
 6837SOL    HW231971   2.522   4.080  16.582 -1.5989  0.4160  0.7887
 6838SOL     OW31972   3.014   4.337  13.404 -0.1097  0.4996  0.1215
 6838SOL    HW131973   2.951   4.409  13.410 -0.5306  0.1628 -0.2817
 6838SOL    HW231974   3.079   4.381  13.351  1.6213  1.1099  2.7418
 6839SOL     OW31975   3.551   3.412  12.868 -0.0530  0.0737 -0.5860
 6839SOL    HW131976   3.592   3.327  12.882  1.5505  0.8847 -0.3733
 6839SOL    HW231977   3.545   3.423  12.773  0.0262  0.6727 -0.5270
 6840SOL     OW31978   4.012   2.583   6.231 -1.2303  0.5694 -0.4112
 6840SOL    HW131979   4.009   2.522   6.157 -0.3029 -0.5484  0.4624
 6840SOL    HW231980   3.960   2.531   6.292 -1.9350 -0.0791 -1.5772
 6841SOL     OW31981   1.989   1.165  14.540 -0.0242  0.0606  0.1021
 6841SOL    HW131982   2.015   1.247  14.498 -1.2486  1.8674  2.8352
 6841SOL    HW231983   2.062   1.105  14.523  1.1722  1.0611  1.6868
 6842SOL     OW31984   2.894   3.867  14.252  0.0566 -0.1305 -0.1094
 6842SOL    HW131985   2.946   3.892  14.177  2.5078 -1.3506  1.1682
 6842SOL    HW231986   2.829   3.937  14.261 -1.2512 -1.3011 -0.4686
 6843SOL     OW31987   2.526   2.966  13.144 -0.0123  0.0347 -0.3165
 6843SOL    HW131988   2.498   2.898  13.082  0.6515  2.0121 -2.7742
 6843SOL    HW231989   2.586   3.020  13.092  0.7804 -1.0705 -0.5533
 6844SOL     OW31990   1.217   0.912   1.687  0.3401  0.6042  0.3860
 6844SOL    HW131991   1.202   0.867   1.770  0.2335 -0.2064 -0.0768
 6844SOL    HW231992   1.131   0.899   1.648 -0.1625  3.2451  0.6368
 6845SOL     OW31993   1.903   2.918  11.832  0.5771 -0.1097  0.1389
 6845SOL    HW131994   1.891   2.996  11.778  0.5610  0.1150  0.4687
 6845SOL    HW231995   1.951   2.948  11.909 -0.8487 -0.3050  1.1026
 6846SOL     OW31996   0.437   1.562   7.731  0.1966 -0.0241  0.0893
 6846SOL    HW131997   0.507   1.585   7.670  1.8241 -1.7472  1.3346
 6846SOL    HW231998   0.374   1.629   7.704  1.1612  1.2867  1.1030
 6847SOL     OW31999   0.076   0.690  14.180 -0.0149  0.0744  0.0981
 6847SOL    HW132000   0.117   0.646  14.255 -0.2504  1.0140  0.7660
 6847SOL    HW232001   4.710   0.696  14.208  0.4081  0.4466  1.3754
 6848SOL     OW32002   3.806   4.269   6.718 -0.6107  0.6532 -0.0227
 6848SOL    HW132003   3.759   4.277   6.802 -1.3723  0.2965 -0.4116
 6848SOL    HW232004   3.748   4.204   6.679  1.4363 -0.6283 -0.9146
 6849SOL     OW32005   2.444   1.565  12.002  0.4913 -0.5895  0.3508
 6849SOL    HW132006   2.361   1.610  12.018  0.3972 -0.6670  0.0811
 6849SOL    HW232007   2.458   1.527  12.089  0.2494 -1.3381  0.0595
 6850SOL     OW32008   0.203   3.302   4.719  0.7288 -0.3372 -0.1737
 6850SOL    HW132009   0.230   3.349   4.640  0.5100 -1.4746 -0.9347
 6850SOL    HW232010   0.143   3.235   4.685 -0.8200  0.5284  0.8841
 6851SOL     OW32011   2.868   3.486  14.613  0.4733  0.3893  0.1331
 6851SOL    HW132012   2.808   3.551  14.578  0.8409  0.7031  0.0876
 6851SOL    HW232013   2.843   3.413  14.556  2.6288 -0.2342 -0.0004
 6852SOL     OW32014   0.596   4.672   0.183 -0.8032  0.2932  0.3077
 6852SOL    HW132015   0.636   0.032   0.202 -0.3199  0.1738 -0.1916
 6852SOL    HW232016   0.559   4.685   0.096  1.2037 -0.0517 -0.6034
 6853SOL     OW32017   4.007   2.491   3.168 -0.2514 -0.3499 -0.0154
 6853SOL    HW132018   3.942   2.524   3.107  0.3847  2.6773  0.9244
 6853SOL    HW232019   4.047   2.436   3.101 -0.8344 -1.7015  0.7359
 6854SOL     OW32020   4.563   3.153  15.231 -0.1163  0.2553 -0.1836
 6854SOL    HW132021   4.472   3.178  15.245  0.8471  1.7847  3.1329
 6854SOL    HW232022   4.596   3.176  15.318 -0.3316 -0.5829  0.1200
 6855SOL     OW32023   1.399   2.749   2.890 -0.1285 -0.0194  0.6792
 6855SOL    HW132024   1.402   2.668   2.941 -1.0879 -0.4598  0.0199
 6855SOL    HW232025   1.429   2.717   2.805  2.5126  4.3216 -0.0427
 6856SOL     OW32026   1.163   2.835   7.634 -0.0450 -0.9056 -0.0174
 6856SOL    HW132027   1.081   2.838   7.585 -0.5664  1.1684  0.9752
 6856SOL    HW232028   1.219   2.788   7.572  1.0797  1.2314 -0.6497
 6857SOL     OW32029   0.497   0.810   2.511  0.5792 -0.0834 -0.0285
 6857SOL    HW132030   0.551   0.852   2.578  1.5601 -1.9669  0.3540
 6857SOL    HW232031   0.456   0.891   2.479 -1.1768 -1.4991 -1.3611
 6858SOL     OW32032   3.888   4.691   5.081 -0.3097 -0.0667 -0.2308
 6858SOL    HW132033   3.955   4.716   5.018 -0.4211  2.6392  0.7405
 6858SOL    HW232034   3.927   4.617   5.129  0.1981  0.1531 -0.3084
 6859SOL     OW32035   0.246   3.904   6.688  0.4279  0.1843  0.2955
 6859SOL    HW132036   0.245   3.834   6.623 -0.1366 -0.6009  1.1452
 6859SOL    HW232037   0.321   3.959   6.666 -0.4948  1.6875  0.9597
 6860SOL     OW32038   4.493   3.624   8.363  0.4676  0.2618 -0.3106
 6860SOL    HW132039   4.477   3.708   8.405 -0.4558  0.2830 -0.7078
 6860SOL    HW232040   4.483   3.648   8.271  0.2705  2.7137  0.3650
 6861SOL     OW32041   0.166   0.817   7.867  0.8192  0.4307 -1.0385
 6861SOL    HW132042   0.126   0.742   7.911 -1.7250  3.0351  1.1236
 6861SOL    HW232043   0.214   0.866   7.934 -0.1776 -1.1145  0.8190
 6862SOL     OW32044   2.120   3.556   8.499 -0.2358  0.2636 -0.6604
 6862SOL    HW132045   2.066   3.606   8.438  0.6220  2.3102  0.2531
 6862SOL    HW232046   2.063   3.570   8.574  0.2225  0.7056 -0.3965
 6863SOL     OW32047   3.656   3.363  13.257  0.6249  0.5921 -0.1962
 6863SOL    HW132048   3.590   3.418  13.215  0.9586  1.2962  0.2192
 6863SOL    HW232049   3.600   3.296  13.297 -1.0869  2.1225 -0.0126
 6864SOL     OW32050   4.136   0.246  16.813 -0.2861 -0.3129 -0.1441
 6864SOL    HW132051   4.227   0.257  16.787  0.0713  3.0956  2.5739
 6864SOL    HW232052   4.130   0.307  16.887 -1.2703 -0.6815  0.0870
 6865SOL     OW32053   0.940   2.992   0.944  0.1785 -0.1015  0.1674
 6865SOL    HW132054   0.993   2.926   0.899 -1.3887 -0.6141 -0.9375
 6865SOL    HW232055   0.973   3.080   0.928  1.1177  0.0382  3.0121
 6866SOL     OW32056   3.786   0.758   4.889 -0.2663  0.4124 -0.4435
 6866SOL    HW132057   3.859   0.786   4.833  1.8866 -1.7681  1.2467
 6866SOL    HW232058   3.811   0.811   4.965 -1.7821 -1.4785  1.3815
 6867SOL     OW32059   0.737   4.155   6.326  0.1364  0.2801  0.6832
 6867SOL    HW132060   0.766   4.225   6.384 -0.6842  0.6537  0.6353
 6867SOL    HW232061   0.810   4.135   6.266 -0.7561 -2.1957  0.3994
 6868SOL     OW32062   1.736   3.402   8.006  0.0343 -0.0707  0.4180
 6868SOL    HW132063   1.643   3.381   8.009 -0.1520  0.5872 -0.9362
 6868SOL    HW232064   1.730   3.483   7.956 -0.5216  0.2177  0.9561
 6869SOL     OW32065   0.122   1.084   8.798  0.6503 -0.3377  0.5763
 6869SOL    HW132066   0.145   1.043   8.881  1.3596 -0.8718  0.1288
 6869SOL    HW232067   0.128   1.002   8.748 -1.7616 -1.3720  2.0360
 6870SOL     OW32068   1.615   1.067   7.496  0.1945 -0.2387  0.7375
 6870SOL    HW132069   1.633   0.988   7.546 -1.0260 -0.6746  0.4792
 6870SOL    HW232070   1.670   1.132   7.539  2.0603 -0.5937 -1.1065
 6871SOL     OW32071   2.414   0.280   1.331  0.0467 -0.0357 -0.6564
 6871SOL    HW132072   2.379   0.191   1.329 -1.1947  0.4452 -0.1964
 6871SOL    HW232073   2.363   0.331   1.268 -0.6955 -0.7458 -0.6266
 6872SOL     OW32074   1.678   0.194   0.339  0.0074  0.3978  0.5108
 6872SOL    HW132075   1.758   0.146   0.361  0.9083  1.0236 -1.3523
 6872SOL    HW232076   1.679   0.213   0.245  1.0356 -4.3358 -0.4418
 6873SOL     OW32077   2.125   3.988   8.595 -0.2370  0.3684 -0.8433
 6873SOL    HW132078   2.180   4.066   8.601 -0.0332  0.1240  0.4956
 6873SOL    HW232079   2.177   3.937   8.657  0.7872  0.5833 -1.5316
 6874SOL     OW32080   3.117   0.011   2.846  0.2351 -0.4616  0.0910
 6874SOL    HW132081   3.066   0.067   2.904  0.6759  0.9072 -0.8381
 6874SOL    HW232082   3.068   0.029   2.765 -2.0745  2.5057  2.1741
 6875SOL     OW32083   0.835   4.633  17.385  0.1043  0.0934  0.5462
 6875SOL    HW132084   0.740   4.636  17.370  0.4946  0.3496 -1.9285
 6875SOL    HW232085   0.856   4.704  17.446  0.4040  1.0138 -0.6311
 6876SOL     OW32086   2.293   1.505  11.514  0.0223  0.1227 -0.0137
 6876SOL    HW132087   2.290   1.450  11.435  3.0815  1.4150 -1.0550
 6876SOL    HW232088   2.200   1.519  11.533 -0.1370  0.0503 -0.7304
 6877SOL     OW32089   1.297   1.269   8.320 -0.9266 -0.4172 -0.0320
 6877SOL    HW132090   1.260   1.188   8.354  0.1288 -1.7255 -2.0317
 6877SOL    HW232091   1.390   1.250   8.307 -0.9200  0.0648 -0.6526
 6878SOL     OW32092   0.196   0.315   4.087  0.2451 -0.3990 -0.1099
 6878SOL    HW132093   0.120   0.268   4.054  0.8639 -1.5367  0.0732
 6878SOL    HW232094   0.148   0.397   4.090  0.7831 -0.0586 -0.7087
 6879SOL     OW32095   3.365   3.054   8.557 -0.0567 -0.7122  0.3198
 6879SOL    HW132096   3.292   3.038   8.497 -0.2073 -1.4368  0.7003
 6879SOL    HW232097   3.419   3.112   8.503  2.9062 -1.5287  2.4431
 6880SOL     OW32098   3.534   1.955   1.263 -0.4649  0.2527  0.2311
 6880SOL    HW132099   3.480   2.032   1.250 -1.4495 -0.2207  1.5394
 6880SOL    HW232100   3.571   1.957   1.174 -0.3553 -0.4776  0.2578
 6881SOL     OW32101   4.331   1.274   3.968  0.6999 -0.5593 -0.5311
 6881SOL    HW132102   4.260   1.285   3.904  0.7033 -2.1674 -0.8128
 6881SOL    HW232103   4.302   1.329   4.041  2.0836  0.8481 -1.0472
 6882SOL     OW32104   3.940   2.226  16.515 -0.1814  0.1120  0.6721
 6882SOL    HW132105   3.865   2.286  16.521  0.3300  0.8629 -0.4559
 6882SOL    HW232106   3.887   2.146  16.511 -3.1210  2.1562 -1.6201
 6883SOL     OW32107   3.797   2.506   4.140  0.1927 -0.1705  0.4782
 6883SOL    HW132108   3.873   2.513   4.198  0.6015  1.2107 -0.2311
 6883SOL    HW232109   3.842   2.483   4.058 -1.3506 -2.1044  0.1579
 6884SOL     OW32110   3.858   4.162   1.099  0.1882  0.5093  0.1195
 6884SOL    HW132111   3.801   4.125   1.032  0.1383 -0.5401  0.7538
 6884SOL    HW232112   3.948   4.148   1.070 -0.2988  0.0290 -1.1266
 6885SOL     OW32113   4.666   1.428   5.027 -0.0480  0.0441 -0.2949
 6885SOL    HW132114   4.603   1.500   5.031  0.2853  0.4458 -2.3930
 6885SOL    HW232115   4.666   1.401   5.119 -0.3095 -0.1682 -0.3603
 6886SOL     OW32116   3.484   2.906   5.214  0.2968 -0.4770 -0.6248
 6886SOL    HW132117   3.472   2.871   5.125 -2.6946  0.6946 -0.6758
 6886SOL    HW232118   3.572   2.943   5.203 -0.0500 -0.3600 -3.0345
 6887SOL     OW32119   1.815   4.662   4.563  0.0226 -0.5136 -0.0602
 6887SOL    HW132120   1.753   4.652   4.490 -0.7734 -2.4038  0.8571
 6887SOL    HW232121   1.806   0.031   4.582 -2.0231 -0.7311  0.0769
 6888SOL     OW32122   0.553   4.666  17.600  0.2055  0.5192  0.7588
 6888SOL    HW132123   0.543   4.611  17.522  1.2715  2.4507 -0.7308
 6888SOL    HW232124   0.582   0.023  17.560  2.2023 -0.9951 -0.8784
 6889SOL     OW32125   3.544   2.502   8.751 -0.2001 -0.4553 -0.7154
 6889SOL    HW132126   3.450   2.486   8.739 -0.7409  1.7543  0.6966
 6889SOL    HW232127   3.586   2.460   8.676  1.8849 -0.2354  0.3505
 6890SOL     OW32128   2.361   4.523  16.897 -0.2298  0.1982  0.6335
 6890SOL    HW132129   2.453   4.545  16.881 -0.0466 -1.8842 -1.2350
 6890SOL    HW232130   2.359   4.427  16.901 -0.5238  0.2566  1.9314
 6891SOL     OW32131   3.467   4.313   0.563  0.2765 -0.0544 -0.5717
 6891SOL    HW132132   3.433   4.396   0.531  0.3126  0.6024  1.0928
 6891SOL    HW232133   3.388   4.258   0.559 -0.3974  0.7616  1.3110
 6892SOL     OW32134   2.076   1.636   6.924 -0.4636  0.6784  0.5076
 6892SOL    HW132135   2.053   1.646   6.832  1.8359  0.4912 -0.0902
 6892SOL    HW232136   2.171   1.622   6.922 -0.5510  0.3325 -1.1741
 6893SOL     OW32137   2.235   0.400   1.174  0.1100  0.1897 -0.3479
 6893SOL    HW132138   2.265   0.485   1.141  1.7097  0.0119  0.6488
 6893SOL    HW232139   2.171   0.376   1.108  0.8702  0.0030 -1.0117
 6894SOL     OW32140   3.297   0.314   8.078 -0.2966 -0.2223  0.1511
 6894SOL    HW132141   3.249   0.349   8.002  0.2753  1.2804  0.4771
 6894SOL    HW232142   3.265   0.366   8.152  0.9859 -0.5563  0.9179
 6895SOL     OW32143   1.393   0.596   2.383 -0.2393 -0.4504  0.1782
 6895SOL    HW132144   1.388   0.554   2.297 -1.1977 -1.0693  0.5359
 6895SOL    HW232145   1.391   0.689   2.361 -0.7527 -0.3898  0.4848
 6896SOL     OW32146   0.754   0.957   4.457  0.3331  0.4666 -0.1259
 6896SOL    HW132147   0.751   1.025   4.525 -1.8003 -0.2613  0.5240
 6896SOL    HW232148   0.671   0.918   4.484  0.7625  0.6551  1.4371
 6897SOL     OW32149   0.874   2.763   7.821  0.0522  0.2570 -0.2030
 6897SOL    HW132150   0.866   2.794   7.731  0.9976 -1.6800 -0.9363
 6897SOL    HW232151   0.846   2.846   7.861  1.0436  0.2000  0.6112
 6898SOL     OW32152   1.610   4.650   4.392 -0.4899  0.3315 -0.4107
 6898SOL    HW132153   1.520   4.652   4.426 -0.9881 -0.5045 -1.6583
 6898SOL    HW232154   1.599   4.583   4.325 -0.9222  0.5149 -0.5257
 6899SOL     OW32155   2.760   4.099   9.109 -0.1921  0.5081 -0.7107
 6899SOL    HW132156   2.777   4.174   9.052 -0.6492  1.3431  0.2560
 6899SOL    HW232157   2.665   4.087   9.113 -0.0096 -0.4016  1.1719
 6900SOL     OW32158   3.386   0.733  16.949 -0.4547  0.5754 -0.2455
 6900SOL    HW132159   3.330   0.697  17.019 -0.7932 -1.8877 -1.7926
 6900SOL    HW232160   3.427   0.657  16.908 -1.9775 -0.2779 -0.1845
 6901SOL     OW32161   2.458   2.868   7.870  0.2790  0.2963  0.0843
 6901SOL    HW132162   2.380   2.923   7.857  0.4286  0.6033  0.4724
 6901SOL    HW232163   2.411   2.791   7.900  1.8411 -0.1309  1.4492
 6902SOL     OW32164   0.406   2.542   2.970  0.5461 -0.5376  0.6328
 6902SOL    HW132165   0.392   2.604   2.899 -0.6279 -2.2070 -0.6137
 6902SOL    HW232166   0.455   2.601   3.027  2.2908  1.1305 -2.5965
 6903SOL     OW32167   1.299   1.693   5.036 -0.8348  0.3760 -0.0880
 6903SOL    HW132168   1.265   1.689   5.126 -0.9794  0.6440 -0.1310
 6903SOL    HW232169   1.298   1.602   5.006  1.5377  0.7616 -1.2344
 6904SOL     OW32170   3.647   4.430   7.190  0.7953 -0.2634  0.3867
 6904SOL    HW132171   3.560   4.401   7.217  0.8247  0.9641  1.7461
 6904SOL    HW232172   3.680   4.440   7.279  0.9929 -1.7651  0.4895
 6905SOL     OW32173   1.423   1.570   7.417  0.1585  0.3946  0.2188
 6905SOL    HW132174   1.417   1.614   7.501 -4.0547  0.9080 -0.3148
 6905SOL    HW232175   1.435   1.650   7.365  2.4642  0.8090  1.4128
 6906SOL     OW32176   0.413   2.267   3.051 -0.0248  0.1176  0.4324
 6906SOL    HW132177   0.495   2.226   3.024 -0.9713 -2.0286  0.7985
 6906SOL    HW232178   0.423   2.356   3.017 -1.3820 -0.0306 -0.3782
 6907SOL     OW32179   3.876   0.580   9.597 -0.0991  0.4362 -0.2026
 6907SOL    HW132180   3.888   0.548   9.687 -1.9449 -0.9171 -0.4176
 6907SOL    HW232181   3.942   0.649   9.598 -0.0430  0.3970 -1.6369
 6908SOL     OW32182   1.698   0.423   1.169  0.4788 -0.5091  0.3210
 6908SOL    HW132183   1.750   0.447   1.092  0.1292 -1.1511 -0.1137
 6908SOL    HW232184   1.766   0.391   1.229  0.0158  0.1798  1.2066
 6909SOL     OW32185   2.419   3.997   1.919 -0.0965  0.4133  0.2853
 6909SOL    HW132186   2.432   4.044   1.837 -0.5168 -0.1733 -0.1192
 6909SOL    HW232187   2.344   4.051   1.942 -0.1935 -0.6887  2.5652
 6910SOL     OW32188   1.134   3.698   1.705  0.1435  0.3360 -0.1851
 6910SOL    HW132189   1.042   3.720   1.716  0.8221  1.1067  4.0047
 6910SOL    HW232190   1.159   3.768   1.644  1.4308  0.1163  0.0930
 6911SOL     OW32191   1.939   4.325  13.387 -0.1453 -0.7131  0.4688
 6911SOL    HW132192   1.880   4.394  13.355  1.3209  0.9763  1.3983
 6911SOL    HW232193   2.022   4.373  13.384 -0.2727 -0.4847  0.5527
 6912SOL     OW32194   0.954   1.544   0.981 -0.1729  0.1999 -0.3541
 6912SOL    HW132195   0.923   1.496   0.904  0.2019 -1.9680  0.8679
 6912SOL    HW232196   0.874   1.569   1.027  0.7282  0.2965  1.1521
 6913SOL     OW32197   1.782   1.514   8.798 -0.0946  0.1838  0.0299
 6913SOL    HW132198   1.726   1.584   8.764  0.2215  0.4383  0.0372
 6913SOL    HW232199   1.834   1.495   8.720  0.1201 -1.1716  0.4979
 6914SOL     OW32200   3.283   1.201  15.754  0.5538  0.2736  0.1410
 6914SOL    HW132201   3.321   1.113  15.754  1.1412  0.5325 -1.6503
 6914SOL    HW232202   3.278   1.227  15.662 -1.1972  1.1033  0.4763
 6915SOL     OW32203   0.538   0.356   2.969 -0.1035 -0.2429  0.7725
 6915SOL    HW132204   0.452   0.358   2.926  0.8209 -3.0884 -1.1694
 6915SOL    HW232205   0.526   0.289   3.035 -0.0063 -1.7363 -0.7343
 6916SOL     OW32206   1.774   1.487   9.126 -0.3602 -0.1838 -0.0095
 6916SOL    HW132207   1.793   1.537   9.047  2.3346  0.5154  1.0818
 6916SOL    HW232208   1.710   1.537   9.178 -0.0364 -0.3669  0.5583
 6917SOL     OW32209   1.578   3.486   9.066 -0.0688 -0.0871 -0.0934
 6917SOL    HW132210   1.585   3.563   9.122 -0.1841 -1.1656  1.4124
 6917SOL    HW232211   1.586   3.521   8.978 -2.4813  1.2528  0.2248
 6918SOL     OW32212   4.314   4.639   8.316 -0.1719 -0.2232 -0.0069
 6918SOL    HW132213   4.223   4.637   8.288 -0.2160 -1.5624  0.2260
 6918SOL    HW232214   4.309   4.573   8.385  0.0604 -0.3217 -0.0846
 6919SOL     OW32215   4.624   4.423   0.560 -0.6161  0.3069 -0.2485
 6919SOL    HW132216   4.566   4.446   0.487 -1.6072 -3.4543 -0.6498
 6919SOL    HW232217   4.639   4.516   0.578 -2.4573  0.7476 -0.9526
 6920SOL     OW32218   4.438   0.123  14.873 -0.1908  0.0347 -0.6131
 6920SOL    HW132219   4.428   0.130  14.968  1.2867  0.7972 -0.5153
 6920SOL    HW232220   4.529   0.150  14.865 -0.3304  0.5937 -0.3082
 6921SOL     OW32221   0.859   2.020   3.828 -0.4680 -0.0700  0.5192
 6921SOL    HW132222   0.860   1.925   3.831 -0.6694 -0.1085 -0.6547
 6921SOL    HW232223   0.782   2.035   3.773  0.2854  0.2668 -0.4582
 6922SOL     OW32224   0.535   0.819  15.898 -0.0221 -0.3773 -0.7019
 6922SOL    HW132225   0.559   0.911  15.887  3.4345 -1.2199  0.0211
 6922SOL    HW232226   0.476   0.792  15.827 -2.2124  0.6127  0.7237
 6923SOL     OW32227   2.277   0.271  10.509 -0.0251  0.4309 -0.1709
 6923SOL    HW132228   2.347   0.219  10.548 -0.6267  0.8677  1.4739
 6923SOL    HW232229   2.290   0.256  10.415 -1.8762 -0.4256 -0.2762
 6924SOL     OW32230   2.332   0.317   5.400  0.2184  0.5310 -0.0280
 6924SOL    HW132231   2.269   0.304   5.471  0.6592  0.8851  0.4334
 6924SOL    HW232232   2.341   0.412   5.408 -1.0908  1.0208 -4.4035
 6925SOL     OW32233   0.008   2.577  17.582 -0.7781  0.4467  0.1932
 6925SOL    HW132234   0.020   2.553  17.674 -0.1138  1.2500  0.3191
 6925SOL    HW232235   0.063   2.654  17.597  1.2742 -1.1304  0.7885
 6926SOL     OW32236   3.312   0.980   5.577  0.2939 -0.4713  0.1591
 6926SOL    HW132237   3.293   0.889   5.600 -1.5004  0.1194  0.9943
 6926SOL    HW232238   3.273   0.994   5.490 -0.5101  0.3675  0.6528
 6927SOL     OW32239   1.913   3.041   8.863 -1.0228  0.1298  0.0843
 6927SOL    HW132240   1.986   2.999   8.819 -0.5019 -0.0536  1.1108
 6927SOL    HW232241   1.958   3.107   8.916  1.0763  0.9673 -2.8006
 6928SOL     OW32242   2.600   2.875   7.255 -1.3209  0.2735 -0.2437
 6928SOL    HW132243   2.539   2.945   7.233 -0.7344  0.8065 -0.1623
 6928SOL    HW232244   2.676   2.932   7.256 -1.3998  0.3827 -0.4687
 6929SOL     OW32245   2.796   4.137  14.359  1.3731 -0.1958  0.1558
 6929SOL    HW132246   2.743   4.197  14.411 -1.8217 -1.9070 -1.1311
 6929SOL    HW232247   2.842   4.204  14.309  0.5086 -0.3886 -0.8918
 6930SOL     OW32248   2.653   4.691   2.958 -0.1770 -0.0966 -0.7299
 6930SOL    HW132249   2.633   4.602   2.987 -1.2255  0.6723  0.9210
 6930SOL    HW232250   2.618   0.019   3.030  3.8734  1.0922  0.3804
 6931SOL     OW32251   1.707   1.121  16.757  0.2066 -0.0801 -0.1548
 6931SOL    HW132252   1.676   1.068  16.683 -1.8736  0.0627  0.6092
 6931SOL    HW232253   1.799   1.111  16.734  0.8720  2.5132  1.4248
 6932SOL     OW32254   2.552   3.129  10.736 -0.2520  0.2067  0.3430
 6932SOL    HW132255   2.531   3.117  10.644  2.7318  1.3677 -0.4740
 6932SOL    HW232256   2.468   3.099  10.773  0.0510  0.6236  1.3713
 6933SOL     OW32257   4.041   1.921   4.866  0.0897  0.1672  0.1326
 6933SOL    HW132258   4.033   1.840   4.916  1.3617  0.3564  0.6516
 6933SOL    HW232259   3.949   1.931   4.845  0.0062  0.2288  0.5166
 6934SOL     OW32260   1.682   3.913   5.754  0.0388  0.4392 -0.4515
 6934SOL    HW132261   1.754   3.863   5.715  2.0863  0.5759  3.0876
 6934SOL    HW232262   1.662   3.875   5.839  2.2655  0.4611  0.1053
 6935SOL     OW32263   3.190   0.466   3.120 -0.2692  0.1249  0.0770
 6935SOL    HW132264   3.209   0.439   3.030 -0.1975 -2.2025  0.7898
 6935SOL    HW232265   3.233   0.393   3.164 -3.4516 -1.5735  0.3291
 6936SOL     OW32266   3.371   2.007   6.874 -0.8213 -0.2613 -0.4430
 6936SOL    HW132267   3.430   1.968   6.809 -0.1583  1.1348 -0.6688
 6936SOL    HW232268   3.317   1.930   6.893  0.8854 -1.1059  1.0772
 6937SOL     OW32269   1.081   0.307  10.330 -0.6480 -0.2180  0.0727
 6937SOL    HW132270   0.996   0.266  10.312  0.1655 -1.8345 -0.0930
 6937SOL    HW232271   1.124   0.317  10.245  0.5629  2.8414  1.0485
 6938SOL     OW32272   1.541   4.261   7.801  0.5163 -0.2841 -0.3216
 6938SOL    HW132273   1.447   4.256   7.784  0.6047  0.0187 -0.8880
 6938SOL    HW232274   1.548   4.323   7.873 -0.1888  0.1973 -0.6712
 6939SOL     OW32275   1.060   4.352  13.544  0.2043 -0.1478 -0.2067
 6939SOL    HW132276   1.095   4.388  13.625  3.0599 -0.5253 -1.2889
 6939SOL    HW232277   0.968   4.352  13.571  1.0739 -0.4275  2.7018
 6940SOL     OW32278   2.326   2.760   5.265 -0.3223  0.1657 -0.3648
 6940SOL    HW132279   2.394   2.763   5.198  0.2134  1.7568  0.2526
 6940SOL    HW232280   2.278   2.840   5.242 -1.8553 -1.2283 -2.0914
 6941SOL     OW32281   1.562   2.173   8.020 -0.1489  0.3267  0.2765
 6941SOL    HW132282   1.603   2.114   8.084 -2.4655 -1.0359  0.4837
 6941SOL    HW232283   1.528   2.109   7.958 -0.4696  0.7257  0.0407
 6942SOL     OW32284   2.897   0.043   0.370  0.1403  0.5251  0.3243
 6942SOL    HW132285   2.912   0.040   0.275  1.0699  1.7475  0.4391
 6942SOL    HW232286   2.984   0.065   0.404  0.9916 -1.3031 -0.6652
 6943SOL     OW32287   3.180   2.051   4.938  0.2178  0.4122  0.5870
 6943SOL    HW132288   3.106   2.023   4.884  0.6547 -0.8623  0.6540
 6943SOL    HW232289   3.183   2.143   4.914 -1.1430 -0.0303 -1.2753
 6944SOL     OW32290   3.813   1.180   9.344 -0.8241  0.1335  0.5275
 6944SOL    HW132291   3.867   1.258   9.358  1.2908 -0.9035 -1.9526
 6944SOL    HW232292   3.868   1.103   9.359 -0.9204 -0.2120 -0.9306
 6945SOL     OW32293   1.430   0.369   2.518  0.7865  0.2768  0.1100
 6945SOL    HW132294   1.440   0.455   2.478 -0.5166  0.5424  0.3620
 6945SOL    HW232295   1.499   0.311   2.483  0.0165 -1.4064  1.3353
 6946SOL     OW32296   2.075   2.774   3.320  0.3020  0.6072 -0.1206
 6946SOL    HW132297   2.089   2.702   3.259  1.9912  0.4657  0.4340
 6946SOL    HW232298   2.147   2.754   3.379  0.3286 -1.5807 -0.9087
 6947SOL     OW32299   4.345   3.713  12.466 -0.2341  0.1645 -0.7194
 6947SOL    HW132300   4.432   3.673  12.459 -0.1928 -0.3080  2.4269
 6947SOL    HW232301   4.320   3.706  12.559  0.2487 -1.1101 -0.6854
 6948SOL     OW32302   4.574   2.792   1.720  0.3963  0.0677  0.0849
 6948SOL    HW132303   4.561   2.783   1.626  0.6516  0.7104 -0.0116
 6948SOL    HW232304   4.603   2.702   1.738 -1.9860 -0.4783  1.2315
 6949SOL     OW32305   1.429   2.795  10.488 -0.0324  0.3507 -0.0894
 6949SOL    HW132306   1.499   2.852  10.455  1.4803 -0.5324  1.5758
 6949SOL    HW232307   1.379   2.781  10.408 -1.1898 -1.6553  0.9935
 6950SOL     OW32308   0.584   1.067   6.091 -0.0478  0.7319 -0.1763
 6950SOL    HW132309   0.541   1.088   6.174  1.3678  1.8952  0.2622
 6950SOL    HW232310   0.566   1.152   6.050 -1.4497 -0.5653 -2.2940
 6951SOL     OW32311   2.691   4.680   6.499  0.5100 -0.0354 -0.0813
 6951SOL    HW132312   2.774   4.683   6.546  0.0903  1.6729  0.5501
 6951SOL    HW232313   2.677   0.046   6.471 -1.8429  0.1117  1.5379
 6952SOL     OW32314   1.538   3.888   8.599 -0.2287 -0.4037  0.6065
 6952SOL    HW132315   1.622   3.879   8.642  0.1809 -2.1940 -0.5920
 6952SOL    HW232316   1.484   3.869   8.676 -2.4255  1.0132 -0.5650
 6953SOL     OW32317   4.021   0.511   5.572 -0.6295 -0.0560 -0.6220
 6953SOL    HW132318   4.091   0.449   5.596  0.7362  1.2630 -1.1543
 6953SOL    HW232319   4.067   0.594   5.586  0.8054 -1.1731  1.3707
 6954SOL     OW32320   0.689   0.442   0.384 -0.1017 -0.0513 -0.4396
 6954SOL    HW132321   0.622   0.381   0.412 -1.3893  1.7772  0.4367
 6954SOL    HW232322   0.740   0.389   0.323 -1.8294  0.4583 -2.2941
 6955SOL     OW32323   0.026   0.256   4.711  0.0563  0.0084 -0.4975
 6955SOL    HW132324   0.099   0.196   4.721  1.3164  1.4129 -1.2871
 6955SOL    HW232325   4.699   0.247   4.791  1.4794 -2.7833  0.0623
 6956SOL     OW32326   2.850   4.047   6.276 -0.4802  0.6201  0.1424
 6956SOL    HW132327   2.811   4.005   6.200 -2.0700  1.4966  0.4864
 6956SOL    HW232328   2.862   4.138   6.248 -2.3961 -0.1508 -3.1788
 6957SOL     OW32329   0.177   0.542   4.786 -0.0043  0.6217 -0.9980
 6957SOL    HW132330   0.110   0.592   4.833 -0.7906 -0.5004 -0.9083
 6957SOL    HW232331   0.212   0.483   4.853  0.0433  0.6809 -0.9709
 6958SOL     OW32332   4.305   3.700  10.876  0.3882  0.2323 -0.4506
 6958SOL    HW132333   4.248   3.768  10.841 -0.5100  0.4179  1.3576
 6958SOL    HW232334   4.319   3.643  10.800  1.7391  0.8570 -0.6673
 6959SOL     OW32335   2.017   1.272   3.693 -0.3052  0.5687 -0.4103
 6959SOL    HW132336   1.936   1.243   3.651 -0.9246  0.3941  0.8900
 6959SOL    HW232337   2.061   1.188   3.696  0.3144  0.9063 -0.0667
 6960SOL     OW32338   1.469   1.237  16.507 -0.2331  0.1908  0.3371
 6960SOL    HW132339   1.439   1.321  16.542 -2.3144  0.3758 -1.9129
 6960SOL    HW232340   1.388   1.193  16.479 -1.1018  0.7610  1.9250
 6961SOL     OW32341   0.598   2.535   7.706 -0.2732 -0.4896  0.1616
 6961SOL    HW132342   0.556   2.605   7.655  0.6980 -0.7688 -1.0165
 6961SOL    HW232343   0.607   2.579   7.790 -1.5693 -1.9243  1.0584
 6962SOL     OW32344   1.762   1.024   8.083 -0.4130 -0.0393 -0.1476
 6962SOL    HW132345   1.826   1.019   8.154 -0.9716  0.1080  0.3686
 6962SOL    HW232346   1.695   0.962   8.109 -1.1726  1.2760  1.0374
 6963SOL     OW32347   4.679   2.303   0.723  0.3777  0.0691 -0.5631
 6963SOL    HW132348   4.598   2.253   0.719  0.6971 -0.5248  0.6090
 6963SOL    HW232349   0.010   2.249   0.779  0.3931  0.1225 -0.5262
 6964SOL     OW32350   4.463   0.081  10.276 -0.4599  0.5418 -0.2050
 6964SOL    HW132351   4.541   0.034  10.306 -0.4184  1.2372  0.7662
 6964SOL    HW232352   4.418   0.106  10.356 -1.1102 -0.0364 -0.3895
 6965SOL     OW32353   2.292   3.118   6.453  0.1128 -0.0039  0.0901
 6965SOL    HW132354   2.312   3.031   6.487 -0.6008 -0.5205 -0.7852
 6965SOL    HW232355   2.197   3.114   6.465  0.0410  0.5920 -0.2514
 6966SOL     OW32356   0.497   2.958   3.898 -0.2673  0.0379  0.1726
 6966SOL    HW132357   0.433   2.897   3.934  0.1919  1.0686  2.7426
 6966SOL    HW232358   0.543   2.991   3.975  0.5174  0.3007 -0.4034
 6967SOL     OW32359   4.672   1.942   4.893  0.6605 -0.3177 -0.4046
 6967SOL    HW132360   0.001   1.903   4.962  0.6624  0.0057 -0.2207
 6967SOL    HW232361   4.584   1.914   4.918  1.2976 -0.3462  1.7636
 6968SOL     OW32362   3.537   4.231  13.162 -0.5093  0.0476 -0.8614
 6968SOL    HW132363   3.496   4.286  13.228 -1.0391 -1.6279  0.2079
 6968SOL    HW232364   3.459   4.203  13.112 -0.3121 -0.8039 -0.6992
 6969SOL     OW32365   1.113   4.597  10.890 -0.2020 -0.3604  0.3797
 6969SOL    HW132366   1.104   4.658  10.817 -1.5636 -2.3346 -1.0926
 6969SOL    HW232367   1.035   4.545  10.874 -0.8305 -0.1264  2.6688
 6970SOL     OW32368   1.831   1.335  17.354 -0.4785 -0.1329 -0.0549
 6970SOL    HW132369   1.787   1.298  17.430  1.4157 -2.4728 -0.0561
 6970SOL    HW232370   1.924   1.317  17.368 -0.0385  1.5239 -0.8225
 6971SOL     OW32371   1.336   1.531   8.431  0.0165  0.4113 -0.4992
 6971SOL    HW132372   1.293   1.534   8.517 -0.4572  0.0091 -0.7231
 6971SOL    HW232373   1.303   1.448   8.397 -2.9710  1.3320  0.1459
 6972SOL     OW32374   0.357   2.339  15.619 -0.0517  0.3872 -0.5154
 6972SOL    HW132375   0.425   2.324  15.685 -1.3160 -0.5832  0.5624
 6972SOL    HW232376   0.402   2.333  15.535 -3.1390 -1.5943 -2.0083
 6973SOL     OW32377   2.626   4.356  14.410  0.0041 -0.1773  0.1392
 6973SOL    HW132378   2.635   4.409  14.331  1.4785  0.6992  0.8993
 6973SOL    HW232379   2.537   4.372  14.440  1.2732  2.9057  2.2401
 6974SOL     OW32380   0.143   0.842   8.626 -0.2198 -0.3729  0.6255
 6974SOL    HW132381   0.189   0.901   8.566  0.1868  1.0101  2.2895
 6974SOL    HW232382   0.056   0.835   8.588 -0.1643  0.2442  0.3788
 6975SOL     OW32383   1.525   3.412   6.804  0.0626  0.9510  0.4448
 6975SOL    HW132384   1.619   3.393   6.806 -0.0064  0.7229  1.3616
 6975SOL    HW232385   1.491   3.355   6.735  1.2039  1.8147 -0.8197
 6976SOL     OW32386   0.174   4.014   1.052 -0.1456  0.2299 -0.2533
 6976SOL    HW132387   0.162   4.076   1.123  1.0088 -0.5025  0.5662
 6976SOL    HW232388   0.240   4.056   0.997 -1.1252  0.5680 -1.1677
 6977SOL     OW32389   2.834   1.750   7.250 -0.8394 -0.4864  0.1229
 6977SOL    HW132390   2.902   1.762   7.316 -0.4801  0.1781 -0.3704
 6977SOL    HW232391   2.781   1.827   7.269 -1.1066 -0.6158 -0.1040
 6978SOL     OW32392   3.689   3.942   8.722  0.2734  0.4191  0.1271
 6978SOL    HW132393   3.782   3.922   8.712  0.1502 -0.5614  0.9510
 6978SOL    HW232394   3.655   3.894   8.798  1.5372  0.1198  0.5077
 6979SOL     OW32395   2.179   1.207   4.470 -0.2201  0.4940 -0.1309
 6979SOL    HW132396   2.172   1.192   4.376 -0.7157 -3.2504  0.5057
 6979SOL    HW232397   2.171   1.116   4.501 -0.8936  0.0524 -1.6261
 6980SOL     OW32398   1.937   4.714   0.339  0.1924 -0.1229  0.5037
 6980SOL    HW132399   2.005   4.669   0.391 -3.0202 -2.7139  2.4521
 6980SOL    HW232400   1.862   4.689   0.392  1.2273 -1.7542  1.2216
 6981SOL     OW32401   1.725   2.933   7.086 -0.1264  0.7458 -0.1130
 6981SOL    HW132402   1.788   2.862   7.072 -0.1428  0.2365  2.3830
 6981SOL    HW232403   1.758   2.988   7.158 -0.7359 -0.2582  0.9331
 6982SOL     OW32404   4.549   0.909  14.136  0.7945 -0.4197  0.0252
 6982SOL    HW132405   4.559   0.846  14.208 -0.4278 -1.1055 -0.4043
 6982SOL    HW232406   4.468   0.958  14.151  2.6941  2.6484  0.2064
 6983SOL     OW32407   2.528   3.696   3.994  0.0588  0.0859  0.1700
 6983SOL    HW132408   2.499   3.631   3.931 -1.2384 -0.0645  0.9340
 6983SOL    HW232409   2.619   3.681   4.019 -0.0869  0.5425  0.9991
 6984SOL     OW32410   0.125   3.367   9.213 -0.5775 -0.1651 -0.1751
 6984SOL    HW132411   0.104   3.448   9.260 -0.7198  0.0497 -0.6073
 6984SOL    HW232412   0.176   3.314   9.274  2.1077  3.0348  0.4138
 6985SOL     OW32413   3.200   2.971   8.809 -0.5775  0.1105  0.0290
 6985SOL    HW132414   3.165   2.924   8.733  0.4979 -1.1537  0.3234
 6985SOL    HW232415   3.294   2.967   8.791 -0.7184  0.3506 -0.7527
 6986SOL     OW32416   0.976   2.530   6.987 -0.0122  0.3214 -0.1383
 6986SOL    HW132417   0.965   2.490   7.074 -1.3107 -0.6029 -0.7330
 6986SOL    HW232418   1.069   2.554   6.981  0.2780 -0.8969 -0.3595
 6987SOL     OW32419   0.093   4.128   3.320 -0.7165  0.4137 -0.5171
 6987SOL    HW132420   0.092   4.052   3.378  0.4963  0.8498  0.0710
 6987SOL    HW232421   0.107   4.091   3.233 -0.2646 -0.6719  0.0145
 6988SOL     OW32422   0.775   4.552   7.100  0.0072 -0.1531 -0.4355
 6988SOL    HW132423   0.711   4.602   7.049 -1.5153 -1.3280  0.3124
 6988SOL    HW232424   0.852   4.545   7.043 -0.7994  0.8495 -1.6599
 6989SOL     OW32425   1.868   3.613  11.312  0.6873  0.1481  0.1996
 6989SOL    HW132426   1.790   3.655  11.350  0.7730  0.3519  0.1496
 6989SOL    HW232427   1.885   3.536  11.366 -0.0131  0.4044  0.7913
 6990SOL     OW32428   1.118   1.197  11.876  0.3181  0.1705 -0.2411
 6990SOL    HW132429   1.029   1.232  11.884  0.1865 -0.0777 -0.6035
 6990SOL    HW232430   1.099   1.108  11.905  0.8096  0.3507  0.6077
 6991SOL     OW32431   0.783   0.523  14.401  0.0448  0.3528  0.0408
 6991SOL    HW132432   0.741   0.553  14.320  0.8737  1.1919 -0.0810
 6991SOL    HW232433   0.717   0.532  14.469  0.2915 -2.8524  0.7158
 6992SOL     OW32434   3.326   4.156  14.526 -0.4511 -0.0874  0.2883
 6992SOL    HW132435   3.307   4.103  14.603  4.0031  1.7139  2.6436
 6992SOL    HW232436   3.282   4.107  14.457  2.0027  1.9369 -2.6907
 6993SOL     OW32437   3.745   0.293   9.736 -0.1389  0.4819 -0.1236
 6993SOL    HW132438   3.737   0.386   9.752  2.0680  1.1100 -2.5211
 6993SOL    HW232439   3.706   0.256   9.815  2.1992  1.6471  1.5794
 6994SOL     OW32440   1.957   3.641   4.258 -0.0062 -0.5844  0.0727
 6994SOL    HW132441   2.018   3.710   4.232 -0.0168 -0.4946  0.2916
 6994SOL    HW232442   1.887   3.695   4.296 -0.8573  0.3732 -2.8410
 6995SOL     OW32443   3.871   2.426   3.893 -0.0983  0.0882  0.4922
 6995SOL    HW132444   3.837   2.337   3.888 -0.0823  0.0346  1.3018
 6995SOL    HW232445   3.883   2.455   3.803 -1.9334 -1.8093 -0.3684
 6996SOL     OW32446   0.620   3.913   6.450  0.5921  0.0552 -0.1626
 6996SOL    HW132447   0.564   3.949   6.519  0.1919 -1.5309  0.3297
 6996SOL    HW232448   0.678   3.987   6.434 -0.7259  1.6662  2.5048
 6997SOL     OW32449   2.546   3.497  13.247  0.3030 -0.0928 -0.2671
 6997SOL    HW132450   2.513   3.585  13.267 -1.0953 -0.4659 -0.9803
 6997SOL    HW232451   2.625   3.520  13.197  0.4951 -0.4524 -0.1269
 6998SOL     OW32452   1.070   0.895  17.602 -0.5081  0.5038 -0.2031
 6998SOL    HW132453   1.024   0.815  17.575 -0.8643  1.0972 -1.3395
 6998SOL    HW232454   1.148   0.853  17.638 -0.2679 -2.2133 -3.9268
 6999SOL     OW32455   1.359   1.552   5.447 -0.0833  0.2928 -0.3390
 6999SOL    HW132456   1.310   1.500   5.511 -0.2773  1.0584  0.1211
 6999SOL    HW232457   1.447   1.514   5.449 -0.1088  0.1432 -2.1046
 7000SOL     OW32458   3.222   0.365   5.891  0.0301  0.0215 -0.3671
 7000SOL    HW132459   3.271   0.284   5.878 -2.0470 -1.5633  1.7412
 7000SOL    HW232460   3.285   0.423   5.933  0.0003 -0.7436  0.7083
 7001SOL     OW32461   2.942   2.724   6.502  0.0764  0.1537  0.5057
 7001SOL    HW132462   3.038   2.732   6.498 -0.1510  2.3360 -0.6166
 7001SOL    HW232463   2.934   2.712   6.408  2.0220 -1.9138  0.5994
 7002SOL     OW32464   0.524   0.943   2.760  0.1013  0.0342  0.6657
 7002SOL    HW132465   0.519   1.030   2.800 -0.3179 -0.1422  0.9881
 7002SOL    HW232466   0.546   0.895   2.840  1.3826  1.1886  1.0154
 7003SOL     OW32467   1.935   1.867   8.253  0.3922 -0.6058 -0.1731
 7003SOL    HW132468   1.921   1.906   8.339  0.2879 -0.7698 -0.1148
 7003SOL    HW232469   1.855   1.816   8.240 -0.2368 -0.0488  1.4218
 7004SOL     OW32470   0.510   1.769   4.312 -0.6701 -0.4554  0.2070
 7004SOL    HW132471   0.498   1.738   4.401  0.2621 -0.2157  0.4083
 7004SOL    HW232472   0.483   1.694   4.259 -1.1412  0.5148 -0.9463
 7005SOL     OW32473   0.456   4.391   5.618  0.3923 -0.8867 -0.0745
 7005SOL    HW132474   0.532   4.340   5.644  0.7070 -0.8769 -0.9994
 7005SOL    HW232475   0.408   4.390   5.701 -0.0318 -1.0872 -0.3214
 7006SOL     OW32476   1.495   0.553   2.720 -0.0356  0.2753  0.3219
 7006SOL    HW132477   1.518   0.479   2.664 -2.5185 -1.3930  1.4769
 7006SOL    HW232478   1.525   0.629   2.671  3.9150 -2.5534 -1.6404
 7007SOL     OW32479   0.716   0.927   4.808 -0.2617 -0.0247 -0.1549
 7007SOL    HW132480   0.626   0.935   4.776 -0.2762 -0.7039 -0.2921
 7007SOL    HW232481   0.741   1.018   4.819 -1.5406  0.1374  1.5711
 7008SOL     OW32482   2.345   2.348   0.192  0.1676  0.0268 -0.6837
 7008SOL    HW132483   2.355   2.344   0.097  1.0502 -2.1079 -0.4922
 7008SOL    HW232484   2.416   2.408   0.213  1.7734 -1.7291 -1.1293
 7009SOL     OW32485   1.522   4.005   2.877 -0.7363 -0.1142  0.5152
 7009SOL    HW132486   1.549   4.013   2.786  0.2933 -0.7136  0.7666
 7009SOL    HW232487   1.475   4.085   2.899 -0.3547 -0.1605  1.4894
 7010SOL     OW32488   0.713   1.953   3.221  0.0486 -0.0190 -0.4279
 7010SOL    HW132489   0.771   1.883   3.251 -0.2429  0.2948  0.8740
 7010SOL    HW232490   0.737   1.956   3.128  1.6739  0.7266  0.0150
 7011SOL     OW32491   2.121   2.884   8.358  0.3569 -0.3964 -0.2479
 7011SOL    HW132492   2.209   2.860   8.387  0.9776  0.7260 -1.2108
 7011SOL    HW232493   2.144   2.963   8.309  2.2479 -0.6993  0.1472
 7012SOL     OW32494   0.284   1.865   9.298 -0.6298 -0.1292 -0.0333
 7012SOL    HW132495   0.196   1.829   9.288  0.0140 -1.5975 -0.3915
 7012SOL    HW232496   0.343   1.791   9.284  0.6335  0.7626  0.5321
 7013SOL     OW32497   1.251   3.838   1.509  0.1255  0.0041 -0.3186
 7013SOL    HW132498   1.308   3.891   1.453  2.1491 -0.3885  1.3401
 7013SOL    HW232499   1.169   3.854   1.463  0.4134  0.7834 -0.5469
 7014SOL     OW32500   0.854   3.078   9.010  0.6480  0.1144 -0.0622
 7014SOL    HW132501   0.784   3.100   8.949  0.1135  0.1023  0.5578
 7014SOL    HW232502   0.860   3.151   9.071  1.6909  0.2296 -0.2875
 7015SOL     OW32503   2.743   2.024   3.415  0.2563  0.4079 -0.3077
 7015SOL    HW132504   2.675   2.088   3.434  1.7010  2.7886 -3.0755
 7015SOL    HW232505   2.699   1.974   3.347  0.6593 -1.4647  0.8115
 7016SOL     OW32506   3.717   4.417  15.260 -0.2883  0.1923 -0.2134
 7016SOL    HW132507   3.639   4.446  15.213 -0.7319 -0.3595  0.1792
 7016SOL    HW232508   3.699   4.462  15.343  1.1958  0.6231 -0.1285
 7017SOL     OW32509   4.347   4.161   7.253 -0.3205  0.0698  0.7923
 7017SOL    HW132510   4.279   4.099   7.227  1.0663 -0.6831 -1.0521
 7017SOL    HW232511   4.390   4.156   7.168 -2.7775 -0.8356 -0.3671
 7018SOL     OW32512   3.382   2.420  17.450 -0.0867 -0.2665 -0.0126
 7018SOL    HW132513   3.431   2.352  17.496  0.2382  1.0061  1.5395
 7018SOL    HW232514   3.434   2.422  17.370 -0.7550  2.3482 -0.3798
 7019SOL     OW32515   1.386   0.500   7.803  0.0804  0.0667  0.4618
 7019SOL    HW132516   1.429   0.538   7.880 -1.2177  2.0028  0.2521
 7019SOL    HW232517   1.409   0.570   7.742 -1.4239  0.9293  0.8557
 7020SOL     OW32518   1.974   4.227   6.284 -0.2187  0.5861 -0.0072
 7020SOL    HW132519   1.930   4.152   6.243 -2.0643  0.8470  1.5107
 7020SOL    HW232520   1.987   4.294   6.217  1.6672  1.1051  0.8794
 7021SOL     OW32521   0.671   4.116   8.640  0.3597  0.5877  0.5658
 7021SOL    HW132522   0.602   4.050   8.646  0.2074  0.4277 -2.7766
 7021SOL    HW232523   0.748   4.085   8.687  1.2106  0.9678 -0.5755
 7022SOL     OW32524   2.880   3.680   1.158 -0.5624 -0.3046  0.1973
 7022SOL    HW132525   2.906   3.655   1.070  0.0727  0.9290  0.0331
 7022SOL    HW232526   2.955   3.740   1.158 -0.6260 -0.2248  0.7373
 7023SOL     OW32527   0.321   0.069   5.873  0.1493  0.0047 -0.0172
 7023SOL    HW132528   0.323   0.038   5.782  1.1975  0.5905 -0.1969
 7023SOL    HW232529   0.331   4.706   5.910 -2.7561 -0.6528 -0.8181
 7024SOL     OW32530   2.407   0.830   1.572 -0.3635 -0.1189 -0.4308
 7024SOL    HW132531   2.435   0.843   1.663 -2.1458  0.6883 -0.0033
 7024SOL    HW232532   2.442   0.743   1.552 -1.3616 -0.6083 -0.0766
 7025SOL     OW32533   3.641   2.295   4.054  1.1499 -0.1498  0.1614
 7025SOL    HW132534   3.557   2.294   4.100  1.1863 -1.4835  0.1893
 7025SOL    HW232535   3.670   2.378   4.092 -1.0570 -0.7778  3.1838
 7026SOL     OW32536   3.406   0.041   8.001  0.0843 -0.3914 -0.0106
 7026SOL    HW132537   3.324   0.087   8.016  0.2142 -0.6235  1.4143
 7026SOL    HW232538   3.394   4.678   8.039 -1.2386  0.0840  0.6520
 7027SOL     OW32539   1.403   4.098   8.469 -0.1251  0.1104  0.1912
 7027SOL    HW132540   1.466   4.169   8.474  0.2389 -0.1160 -1.2497
 7027SOL    HW232541   1.445   4.021   8.509 -0.2784  0.4236  0.9505
 7028SOL     OW32542   3.337   4.552   1.102  0.6542  0.1905 -0.0258
 7028SOL    HW132543   3.287   4.634   1.108  1.4069  0.7917 -2.2662
 7028SOL    HW232544   3.261   4.495   1.086 -0.4096  1.9336 -1.1940
 7029SOL     OW32545   0.670   1.146  11.928 -0.0940  0.3173 -0.2622
 7029SOL    HW132546   0.675   1.170  11.835  2.0419 -0.9092 -0.4653
 7029SOL    HW232547   0.667   1.052  11.910  0.6807  0.4269 -0.9679
 7030SOL     OW32548   4.645   2.422   4.244 -0.2957 -0.1504  0.2243
 7030SOL    HW132549   4.576   2.393   4.303 -0.8923  1.7784  0.4662
 7030SOL    HW232550   4.715   2.444   4.305  0.0478  0.6337 -0.4553
 7031SOL     OW32551   2.643   0.576   8.520  0.6924 -0.2295 -0.2338
 7031SOL    HW132552   2.690   0.659   8.524  0.2667  0.0236 -0.5344
 7031SOL    HW232553   2.576   0.601   8.456  0.3563 -0.7317 -0.0742
 7032SOL     OW32554   2.196   2.960  16.589 -0.0824 -0.0803  0.3215
 7032SOL    HW132555   2.174   2.956  16.682  1.3982  0.5276  0.6822
 7032SOL    HW232556   2.249   3.040  16.588 -1.8356  1.0815 -0.6199
 7033SOL     OW32557   2.247   3.269   6.200 -0.5954 -0.3614 -0.2231
 7033SOL    HW132558   2.200   3.189   6.180 -0.6561  0.2574 -2.5067
 7033SOL    HW232559   2.254   3.268   6.296 -2.0508 -1.5254 -0.1319
 7034SOL     OW32560   3.385   3.269   9.168 -0.2773 -0.3322 -0.2731
 7034SOL    HW132561   3.479   3.250   9.164 -0.7808 -2.2888 -2.1174
 7034SOL    HW232562   3.385   3.359   9.202  2.0014 -1.0673  1.7006
 7035SOL     OW32563   1.415   3.760  17.418 -0.4336  0.0409  0.1641
 7035SOL    HW132564   1.509   3.752  17.402 -0.2612  1.1871  0.5942
 7035SOL    HW232565   1.402   3.841  17.369  0.3868 -0.4567 -0.8622
 7036SOL     OW32566   0.920   0.300  13.667  0.1565 -0.4751 -0.2526
 7036SOL    HW132567   0.860   0.369  13.637  0.5487  0.6405  1.5049
 7036SOL    HW232568   0.978   0.352  13.722  2.5567 -0.6827 -2.5560
 7037SOL     OW32569   3.224   1.448   3.706  0.6562 -0.4861  0.5477
 7037SOL    HW132570   3.288   1.418   3.641  0.9116  0.9383  0.1319
 7037SOL    HW232571   3.218   1.540   3.679  3.0712 -0.8949 -1.4227
 7038SOL     OW32572   2.315   2.663   7.982  0.3206 -0.3594  0.3599
 7038SOL    HW132573   2.283   2.604   8.051  0.6809 -0.9483  0.0238
 7038SOL    HW232574   2.232   2.684   7.941  0.1495 -0.0957  0.8386
 7039SOL     OW32575   0.898   4.025   0.532  0.9575  0.1076 -0.0483
 7039SOL    HW132576   0.805   4.033   0.556  0.7009  1.4181 -1.5127
 7039SOL    HW232577   0.921   3.944   0.578 -2.2492 -1.5937 -1.4427
 7040SOL     OW32578   1.190   0.056   1.078 -0.4886  0.3775  0.7032
 7040SOL    HW132579   1.166   4.708   1.135  3.1749  0.0925  1.9159
 7040SOL    HW232580   1.158   0.035   0.990  1.8568 -0.0437 -0.0559
 7041SOL     OW32581   4.352   2.340   3.758  0.3772 -0.1029  0.1194
 7041SOL    HW132582   4.297   2.287   3.702  1.0861 -1.6612  0.9007
 7041SOL    HW232583   4.286   2.393   3.803  0.3295  0.0186 -0.0954
 7042SOL     OW32584   3.668   0.744  11.723 -0.0730 -0.1020 -0.1870
 7042SOL    HW132585   3.628   0.665  11.760 -1.0639  1.1859  1.4670
 7042SOL    HW232586   3.759   0.728  11.749 -0.1622 -2.1551 -1.1434
 7043SOL     OW32587   3.019   0.246   5.508  0.1333 -0.0881  0.2693
 7043SOL    HW132588   2.970   0.273   5.587  0.1599  1.3221 -0.1929
 7043SOL    HW232589   3.108   0.278   5.522 -0.3527  1.3074  0.2253
 7044SOL     OW32590   4.063   0.078  16.608  0.8184  0.3659  0.2437
 7044SOL    HW132591   4.096   0.122  16.687  1.5272 -1.5583  1.0146
 7044SOL    HW232592   4.009   0.015  16.655  1.7081  1.0933  2.2648
 7045SOL     OW32593   2.271   2.944  12.795  0.1908 -0.0503  0.4151
 7045SOL    HW132594   2.184   2.927  12.831 -0.2342 -1.4428 -1.2358
 7045SOL    HW232595   2.255   2.958  12.701  0.9882 -0.4284  0.2224
 7046SOL     OW32596   3.757   1.963   2.099  0.1061 -0.0680  0.8073
 7046SOL    HW132597   3.690   1.899   2.124  0.2154 -0.3505  0.3797
 7046SOL    HW232598   3.715   2.041   2.136 -1.4094 -0.2122 -0.6107
 7047SOL     OW32599   2.347   2.642   6.854  0.2386  0.0642 -0.0510
 7047SOL    HW132600   2.344   2.547   6.849  0.6874 -0.0953  2.9433
 7047SOL    HW232601   2.306   2.664   6.938 -0.2096  1.6126 -0.6598
 7048SOL     OW32602   2.897   3.163   2.976  0.4595  0.0030 -0.1937
 7048SOL    HW132603   2.895   3.255   3.003 -1.7766 -0.1470  0.2377
 7048SOL    HW232604   2.937   3.173   2.890  0.2596 -1.5047 -0.4522
 7049SOL     OW32605   1.252   4.031   7.817 -0.1276  0.3918 -0.3419
 7049SOL    HW132606   1.202   4.079   7.882  0.3341  0.6453 -0.1739
 7049SOL    HW232607   1.182   3.979   7.777  0.5847 -0.5165 -0.4160
 7050SOL     OW32608   3.585   2.271   1.439 -0.3185 -0.4347  0.3518
 7050SOL    HW132609   3.545   2.254   1.524 -0.8810  2.7539  0.7525
 7050SOL    HW232610   3.656   2.329   1.465 -2.1912  1.0911  2.0709
 7051SOL     OW32611   0.743   4.624   8.303  0.4359  0.0912  0.2116
 7051SOL    HW132612   0.816   4.575   8.267 -0.7102 -1.0492 -0.5316
 7051SOL    HW232613   0.755   4.596   8.394 -2.5589  0.5675  0.7606
 7052SOL     OW32614   0.064   1.364   6.919 -0.2702  0.1454 -0.3040
 7052SOL    HW132615   0.158   1.353   6.909 -0.3056  0.1678 -0.6598
 7052SOL    HW232616   0.036   1.274   6.933 -0.0426  0.2740  1.0022
 7053SOL     OW32617   3.765   3.854   2.994 -0.1813  0.3258 -0.2047
 7053SOL    HW132618   3.729   3.869   2.907 -2.5882 -2.1610  0.3334
 7053SOL    HW232619   3.830   3.924   2.994 -0.6074  0.7290 -1.2703
 7054SOL     OW32620   1.490   2.430   6.101  0.5986 -0.2745  0.2318
 7054SOL    HW132621   1.502   2.470   6.014  1.1540 -0.1802  0.3528
 7054SOL    HW232622   1.411   2.472   6.135  0.7172  0.1855 -0.0624
 7055SOL     OW32623   1.958   0.728   4.021  0.8882  0.6960 -0.3212
 7055SOL    HW132624   2.008   0.765   4.094 -0.4320 -1.9125  1.9008
 7055SOL    HW232625   1.973   0.793   3.953 -0.9248  0.9467 -0.4617
 7056SOL     OW32626   1.469   3.148   3.722  0.0405  0.4425 -0.0628
 7056SOL    HW132627   1.509   3.086   3.662  2.1693  3.1312 -1.4015
 7056SOL    HW232628   1.536   3.216   3.721  0.2675  0.2719  2.7047
 7057SOL     OW32629   1.904   0.752  16.092  0.0710  0.1533  0.2006
 7057SOL    HW132630   1.943   0.719  16.011 -1.9171  1.4060 -1.2800
 7057SOL    HW232631   1.935   0.700  16.165  0.2473 -1.8345 -1.2838
 7058SOL     OW32632   0.677   0.575  13.806  0.2754 -0.2335 -0.3349
 7058SOL    HW132633   0.653   0.492  13.849  4.0363 -1.6163 -0.9347
 7058SOL    HW232634   0.725   0.541  13.731  2.7296  1.1000  0.6551
 7059SOL     OW32635   3.475   0.344  15.701  0.1770  0.2625 -0.0118
 7059SOL    HW132636   3.449   0.319  15.613 -0.3390  0.6307  0.0359
 7059SOL    HW232637   3.405   0.407  15.721 -1.1311 -0.2326 -3.0941
 7060SOL     OW32638   1.445   1.918  17.278 -1.0386 -0.4530  0.3804
 7060SOL    HW132639   1.449   1.989  17.214  0.3578  0.0708  1.0628
 7060SOL    HW232640   1.367   1.870  17.248 -0.2310 -0.1992 -2.1267
 7061SOL     OW32641   2.717   3.624   3.597  0.0696  0.0230 -0.8001
 7061SOL    HW132642   2.678   3.579   3.522  0.6798 -1.0234 -0.4951
 7061SOL    HW232643   2.637   3.667   3.627 -0.3625 -0.2058 -1.6502
 7062SOL     OW32644   0.462   2.914   2.805  0.2590  0.0492 -0.0352
 7062SOL    HW132645   0.416   2.995   2.828  1.1558  0.3466  0.7443
 7062SOL    HW232646   0.507   2.896   2.888  1.8400 -1.7090 -1.2806
 7063SOL     OW32647   0.538   4.391   5.044 -0.5846  0.7579  0.4904
 7063SOL    HW132648   0.583   4.322   4.995  0.5763  1.1488  1.0177
 7063SOL    HW232649   0.506   4.331   5.112 -1.8463  0.1274 -0.6490
 7064SOL     OW32650   4.333   3.154   4.585  0.4520  0.0043  0.3715
 7064SOL    HW132651   4.293   3.088   4.528 -1.6337  0.6548  1.1116
 7064SOL    HW232652   4.284   3.135   4.664 -0.7320  1.4069 -0.0160
 7065SOL     OW32653   3.106   0.943   3.095 -0.1821 -0.0637 -0.5087
 7065SOL    HW132654   3.178   0.923   3.035 -0.7124  1.5594 -1.6924
 7065SOL    HW232655   3.096   0.862   3.146  2.5991 -0.1281 -0.0541
 7066SOL     OW32656   0.685   0.148   3.921 -0.0825 -0.3241 -0.5155
 7066SOL    HW132657   0.652   0.236   3.901 -0.4922 -1.1000 -3.2158
 7066SOL    HW232658   0.733   0.161   4.003 -0.0070  0.4258 -0.6751
 7067SOL     OW32659   2.123   0.937   1.417 -0.4273 -0.6840  0.7025
 7067SOL    HW132660   2.132   1.006   1.351 -0.7361 -0.4264  0.9287
 7067SOL    HW232661   2.193   0.882   1.381  0.2512 -0.6293  1.9278
 7068SOL     OW32662   1.003   2.924   6.786 -0.4501 -0.5946 -0.0035
 7068SOL    HW132663   1.046   2.858   6.732  0.6547 -0.3934  0.6399
 7068SOL    HW232664   1.073   2.987   6.801 -1.0230 -0.3352  1.6164
 7069SOL     OW32665   2.567   4.720   2.453 -0.0176 -0.7156  0.1120
 7069SOL    HW132666   2.559   4.689   2.363 -2.6043 -1.7857  0.6971
 7069SOL    HW232667   2.550   4.632   2.488  1.2212 -0.2469  1.8894
 7070SOL     OW32668   4.291   1.446  13.881  0.1686 -0.4678  0.1940
 7070SOL    HW132669   4.366   1.495  13.916 -0.3121 -0.3970  1.1271
 7070SOL    HW232670   4.298   1.466  13.788 -1.6480  0.4453  0.2400
 7071SOL     OW32671   1.782   2.501   5.003 -0.1467  0.0073 -0.8962
 7071SOL    HW132672   1.739   2.541   5.079  0.3351 -0.6684 -0.2755
 7071SOL    HW232673   1.727   2.535   4.932  2.3853  2.5902 -1.6211
 7072SOL     OW32674   4.605   3.443  11.162  0.3875  0.2966  0.0998
 7072SOL    HW132675   4.618   3.514  11.099 -0.4604 -0.4213 -0.8957
 7072SOL    HW232676   4.523   3.480  11.197  0.2415 -0.6847  0.7868
 7073SOL     OW32677   0.155   0.295   5.864  0.3464  0.0596 -0.4343
 7073SOL    HW132678   0.091   0.235   5.827 -1.3364 -0.5364  3.3692
 7073SOL    HW232679   0.230   0.237   5.853  0.1259 -0.1323 -0.9015
 7074SOL     OW32680   1.595   1.764  17.520 -0.1295 -1.1580  0.0202
 7074SOL    HW132681   1.534   1.786  17.449  0.2557  1.0795  0.3842
 7074SOL    HW232682   1.592   1.669  17.528  0.5937 -1.1789 -0.0200
 7075SOL     OW32683   3.800   2.297   8.304  0.2089  0.1446 -0.1216
 7075SOL    HW132684   3.789   2.385   8.342  0.8486 -0.2165  0.8963
 7075SOL    HW232685   3.859   2.302   8.229 -0.3857 -0.9423 -0.6596
 7076SOL     OW32686   2.550   3.068   9.589  0.1075  0.2240  0.6080
 7076SOL    HW132687   2.476   3.129   9.587  0.0540  0.0974 -1.0728
 7076SOL    HW232688   2.587   3.078   9.501 -1.9577  0.3731 -0.2456
 7077SOL     OW32689   0.171   4.282   6.033 -0.3796 -0.0033 -0.4231
 7077SOL    HW132690   0.261   4.257   6.053 -0.5232 -0.5670 -0.4687
 7077SOL    HW232691   0.140   4.215   5.972  0.1753  1.1337 -1.9640
 7078SOL     OW32692   2.940   0.788   8.659 -0.9243 -0.2628  0.4534
 7078SOL    HW132693   2.975   0.701   8.680 -2.1186  0.1425  4.1753
 7078SOL    HW232694   2.970   0.841   8.733 -4.3165  1.8313  0.3423
 7079SOL     OW32695   4.374   1.233   0.307 -0.2407  0.4967 -0.5601
 7079SOL    HW132696   4.464   1.202   0.314 -0.5066  0.1015  1.2146
 7079SOL    HW232697   4.324   1.155   0.331 -0.7655  0.9174 -0.2834
 7080SOL     OW32698   3.385   3.774  11.391  0.2659  0.0375  0.2837
 7080SOL    HW132699   3.357   3.712  11.458 -1.2242  0.3666 -0.0431
 7080SOL    HW232700   3.468   3.729  11.373 -0.1386 -0.5974  0.0301
 7081SOL     OW32701   0.434   3.027   4.407  0.4870  0.6125  0.1609
 7081SOL    HW132702   0.366   3.088   4.434 -0.2628 -0.4001  0.5978
 7081SOL    HW232703   0.508   3.040   4.467  2.2773 -0.7530 -1.7291
 7082SOL     OW32704   3.867   2.142  13.160  0.2139 -0.1753  0.0167
 7082SOL    HW132705   3.884   2.124  13.252  0.1115  1.2240  0.3222
 7082SOL    HW232706   3.796   2.080  13.147 -1.6648  2.0033 -0.2164
 7083SOL     OW32707   2.557   2.475   9.714 -0.1138  0.6085 -0.4632
 7083SOL    HW132708   2.556   2.514   9.802 -2.8394 -1.7808  0.5742
 7083SOL    HW232709   2.463   2.460   9.705 -0.0244 -0.3773  0.2611
 7084SOL     OW32710   1.329   0.006  11.511  0.4465 -0.3825  0.5744
 7084SOL    HW132711   1.383   0.072  11.467 -1.6027  2.0099  1.6610
 7084SOL    HW232712   1.308   4.682  11.431 -1.5039  0.6095  0.5021
 7085SOL     OW32713   4.109   1.078   3.587  0.7132 -0.1736  0.2668
 7085SOL    HW132714   4.063   1.020   3.527 -0.9894  2.1088 -0.6367
 7085SOL    HW232715   4.170   1.024   3.637  0.8546 -0.3503 -0.1019
 7086SOL     OW32716   4.482   1.353   5.411  0.1813 -0.3480  0.8267
 7086SOL    HW132717   4.430   1.313   5.342  1.4951 -2.7522  1.2143
 7086SOL    HW232718   4.567   1.335   5.371 -1.0131 -1.5023 -1.1789
 7087SOL     OW32719   0.124   3.863   8.086  0.8522 -0.6762 -0.4470
 7087SOL    HW132720   0.078   3.847   8.168 -0.6313 -3.6665 -1.8691
 7087SOL    HW232721   0.189   3.793   8.076  0.2758 -1.0730 -1.3687
 7088SOL     OW32722   1.009   0.940  11.473  0.3156  0.0688  0.4112
 7088SOL    HW132723   1.071   0.868  11.484 -0.7842 -1.0214 -0.5479
 7088SOL    HW232724   1.068   1.015  11.482  1.5221 -1.0550  2.1052
 7089SOL     OW32725   4.476   1.354   8.664 -0.0582  0.3201  0.4229
 7089SOL    HW132726   4.538   1.337   8.594 -0.8400  0.2750 -0.2583
 7089SOL    HW232727   4.455   1.264   8.686  0.8800  0.0450  0.1967
 7090SOL     OW32728   1.845   1.048   6.078  0.0285 -0.3858 -0.1929
 7090SOL    HW132729   1.918   1.002   6.119  1.3373  0.7766 -1.1982
 7090SOL    HW232730   1.862   1.142   6.082  2.4234 -0.7691 -1.5478
 7091SOL     OW32731   1.343   2.782   0.822 -0.1348  0.2005 -0.1108
 7091SOL    HW132732   1.329   2.778   0.917 -0.8080 -0.0520 -0.2220
 7091SOL    HW232733   1.433   2.814   0.817  0.4113 -1.3099 -0.1639
 7092SOL     OW32734   2.515   4.109  13.311  0.0795 -0.0482 -0.2783
 7092SOL    HW132735   2.518   4.035  13.251 -1.4863 -0.5115  0.2053
 7092SOL    HW232736   2.607   4.106  13.336  1.2324 -0.4621 -4.5968
 7093SOL     OW32737   4.425   1.644   8.829  0.3609 -0.2652  0.0599
 7093SOL    HW132738   4.387   1.560   8.855  0.3075  0.2015  1.4772
 7093SOL    HW232739   4.419   1.688   8.914 -2.7228  0.0127 -0.2914
 7094SOL     OW32740   3.871   3.190   6.163 -0.3998  0.2137 -0.3922
 7094SOL    HW132741   3.870   3.094   6.166  1.6047  0.2844  2.2414
 7094SOL    HW232742   3.837   3.202   6.251  1.5635  1.1588  0.2310
 7095SOL     OW32743   4.701   4.023   2.132  0.3202 -0.0803 -0.0857
 7095SOL    HW132744   0.013   4.018   2.044 -3.2576 -2.1274 -1.4528
 7095SOL    HW232745   4.705   3.930   2.153 -1.0052 -0.0747  0.1756
 7096SOL     OW32746   3.822   3.005   2.278  0.2939  0.3509 -0.0997
 7096SOL    HW132747   3.893   3.066   2.295 -0.4078  0.7582  1.3532
 7096SOL    HW232748   3.845   2.934   2.337 -1.5579 -0.5405 -0.4280
 7097SOL     OW32749   1.089   3.511  10.274 -0.7428 -0.3360 -0.4751
 7097SOL    HW132750   1.055   3.455  10.344 -1.0094 -0.2826 -0.5615
 7097SOL    HW232751   1.013   3.519  10.217 -1.2569 -1.8291 -0.0003
 7098SOL     OW32752   1.820   1.819   5.313  0.2130 -0.4479 -0.0455
 7098SOL    HW132753   1.802   1.912   5.320 -0.4268 -0.7285  1.8429
 7098SOL    HW232754   1.747   1.799   5.254  1.1827  0.2527 -1.4954
 7099SOL     OW32755   1.399   4.431   8.226  0.2614 -0.6992  0.2985
 7099SOL    HW132756   1.449   4.408   8.304  2.1273  0.3865 -0.5861
 7099SOL    HW232757   1.410   4.351   8.175  0.1463 -2.6932  3.4237
 7100SOL     OW32758   0.031   0.259   5.228 -0.0493  0.8422 -0.1231
 7100SOL    HW132759   4.709   0.206   5.162  1.4214 -2.1358  1.2726
 7100SOL    HW232760   0.119   0.270   5.193 -1.4585  0.5856 -3.7352
 7101SOL     OW32761   4.179   2.289   6.538  0.4018 -0.3107 -0.4237
 7101SOL    HW132762   4.117   2.234   6.586 -0.5597  0.7303 -0.4613
 7101SOL    HW232763   4.208   2.226   6.472  2.1865  0.8698 -0.7554
 7102SOL     OW32764   1.855   1.294   3.479  0.1842  0.2833 -0.6595
 7102SOL    HW132765   1.790   1.230   3.508  2.0448 -1.0523  0.5050
 7102SOL    HW232766   1.806   1.324   3.402 -1.1880 -0.8353 -0.2092
 7103SOL     OW32767   0.640   4.410  12.651 -0.1261 -0.5099  0.0660
 7103SOL    HW132768   0.565   4.380  12.598 -0.8802  1.4240  0.0650
 7103SOL    HW232769   0.702   4.437  12.584 -1.3713  1.3550 -0.3216
 7104SOL     OW32770   3.562   3.071   8.769  0.3507  0.4083  0.2741
 7104SOL    HW132771   3.488   3.079   8.708  2.4118  1.0306 -2.1600
 7104SOL    HW232772   3.593   2.984   8.745  1.1467  1.1283 -1.3081
 7105SOL     OW32773   2.990   4.279   9.742  0.3684  0.0833  0.1382
 7105SOL    HW132774   3.060   4.254   9.681 -0.7527  0.6718 -1.3844
 7105SOL    HW232775   2.909   4.277   9.691  0.3790 -0.7319  0.1493
 7106SOL     OW32776   3.172   0.146   0.376  0.2276  0.3830  0.3255
 7106SOL    HW132777   3.220   0.124   0.296 -0.1012 -0.6268  0.3987
 7106SOL    HW232778   3.239   0.119   0.439  2.1820  0.4000 -1.7361
 7107SOL     OW32779   1.697   2.723  14.513 -0.3914 -0.1148  0.2843
 7107SOL    HW132780   1.724   2.712  14.422  1.0687 -1.9919  0.9320
 7107SOL    HW232781   1.734   2.640  14.546 -3.0739 -1.0235  1.0142
 7108SOL     OW32782   3.882   3.793  12.666  0.8073 -0.4789 -0.2232
 7108SOL    HW132783   3.898   3.852  12.740 -0.1536 -1.0877  0.4721
 7108SOL    HW232784   3.957   3.734  12.669 -1.0497 -2.7438  1.2275
 7109SOL     OW32785   3.089   2.551  17.202  0.3059 -0.1351  0.1272
 7109SOL    HW132786   3.043   2.474  17.236 -1.6142  1.3594  0.9054
 7109SOL    HW232787   3.144   2.504  17.140  0.4181  0.5650 -0.2985
 7110SOL     OW32788   2.335   4.268  11.990 -0.2741 -0.0833 -0.1716
 7110SOL    HW132789   2.336   4.340  12.053 -1.0116  1.1547 -1.5527
 7110SOL    HW232790   2.248   4.276  11.950  0.0023  3.2130 -0.1048
 7111SOL     OW32791   4.025   0.750  13.418  0.2001 -0.2423  0.2126
 7111SOL    HW132792   4.015   0.743  13.323 -0.6625  0.5113  0.2570
 7111SOL    HW232793   4.120   0.756  13.432  0.4039 -0.9016 -0.9153
 7112SOL     OW32794   3.562   0.662   8.423 -0.0567 -0.4860 -0.5022
 7112SOL    HW132795   3.633   0.599   8.428 -1.6349 -2.2726 -0.4631
 7112SOL    HW232796   3.497   0.641   8.490 -0.4337 -0.1600 -0.7624
 7113SOL     OW32797   2.052   2.962   8.036  0.5177 -0.3631  0.1202
 7113SOL    HW132798   1.988   3.000   8.096 -0.6858 -3.0886  0.5495
 7113SOL    HW232799   2.128   2.994   8.086 -0.4119 -2.2291  2.7551
 7114SOL     OW32800   1.071   2.151   8.416 -0.5306  0.1778 -0.6641
 7114SOL    HW132801   1.158   2.146   8.376 -0.9950 -2.9616 -1.3207
 7114SOL    HW232802   1.031   2.088   8.356  0.5812 -0.7242 -0.4635
 7115SOL     OW32803   4.690   2.196   2.022 -0.5805 -0.6742 -0.2626
 7115SOL    HW132804   4.700   2.232   1.934  1.0734  1.8027  0.9424
 7115SOL    HW232805   0.044   2.141   2.024 -0.1417 -0.0051  0.7022
 7116SOL     OW32806   0.975   0.226  15.231  0.0256  0.2891  0.3378
 7116SOL    HW132807   1.015   0.149  15.190 -0.9464  0.2250 -0.4813
 7116SOL    HW232808   1.041   0.254  15.295 -0.6922  1.1374  0.6931
 7117SOL     OW32809   0.223   2.777  13.398  0.0456  0.3054  0.2356
 7117SOL    HW132810   0.138   2.777  13.441  1.0368 -0.5195  2.1563
 7117SOL    HW232811   0.184   2.786  13.311 -0.4104 -1.0071  0.3106
 7118SOL     OW32812   4.210   3.518   3.741  0.2458 -0.2252  0.0379
 7118SOL    HW132813   4.206   3.604   3.699  0.3416 -0.5865 -0.7065
 7118SOL    HW232814   4.297   3.521   3.781  0.6106 -0.5985 -0.7296
 7119SOL     OW32815   0.982   4.049  11.498 -0.1571 -0.3580 -0.0947
 7119SOL    HW132816   1.051   4.082  11.556 -1.2826  0.0390  0.9999
 7119SOL    HW232817   0.948   4.133  11.467  0.6523 -0.2497 -0.6893
 7120SOL     OW32818   3.938   4.037   1.808 -0.3152 -0.3630 -0.1066
 7120SOL    HW132819   3.873   4.064   1.743  1.0045 -1.5288 -1.8962
 7120SOL    HW232820   3.893   4.072   1.885 -1.2793  0.0164 -0.8431
 7121SOL     OW32821   4.437   3.136   2.211  0.1174  0.1893 -0.8381
 7121SOL    HW132822   4.369   3.198   2.185  1.1106  1.5210 -0.2584
 7121SOL    HW232823   4.452   3.082   2.133  0.4699  0.0997 -0.7073
 7122SOL     OW32824   2.516   4.501   4.269  0.3168  0.2141  0.2549
 7122SOL    HW132825   2.585   4.462   4.215  0.6110  0.4745  0.4388
 7122SOL    HW232826   2.523   4.589   4.232  0.1291  0.1604  0.0954
 7123SOL     OW32827   2.694   3.857   9.730 -0.0948  0.5630  0.8702
 7123SOL    HW132828   2.757   3.785   9.722  0.6328  1.6225 -3.3014
 7123SOL    HW232829   2.620   3.825   9.678 -0.1662  2.7601 -0.3770
 7124SOL     OW32830   1.935   0.640  15.134  0.1782 -0.1026 -0.1696
 7124SOL    HW132831   1.942   0.685  15.051  2.4241 -0.5153 -0.2041
 7124SOL    HW232832   1.904   0.552  15.113  1.2088 -0.8421  1.3688
 7125SOL     OW32833   1.414   1.133  17.563 -0.1932 -0.0710  0.0366
 7125SOL    HW132834   1.408   1.148  17.468  0.0926  1.9410  0.3586
 7125SOL    HW232835   1.509   1.124  17.572 -0.1917 -0.8471 -0.7084
 7126SOL     OW32836   2.326   4.482   6.439 -0.0589 -0.2754  0.1780
 7126SOL    HW132837   2.402   4.514   6.488 -0.5756 -0.1984  0.9226
 7126SOL    HW232838   2.260   4.461   6.504 -0.3363  0.6873  0.2054
 7127SOL     OW32839   0.890   2.057   4.115  0.1447 -0.4296  0.1349
 7127SOL    HW132840   0.841   1.997   4.172  1.3342  0.5438  2.1892
 7127SOL    HW232841   0.849   2.045   4.030 -0.3743  0.5637  0.2511
 7128SOL     OW32842   2.559   0.959  16.784  0.3063 -0.2436 -0.2333
 7128SOL    HW132843   2.633   0.903  16.762 -1.2119 -2.0544 -0.6813
 7128SOL    HW232844   2.573   0.978  16.876  0.1367  1.2470 -0.5101
 7129SOL     OW32845   3.639   4.353  16.168  0.6520  0.6924  0.2694
 7129SOL    HW132846   3.563   4.299  16.190  1.4923 -1.2683 -1.5633
 7129SOL    HW232847   3.621   4.441  16.201 -3.6983 -0.7465  1.8315
 7130SOL     OW32848   2.073   3.581  13.863 -0.2820 -0.3058  0.4445
 7130SOL    HW132849   2.120   3.566  13.945  0.8505  0.7578 -0.0136
 7130SOL    HW232850   2.051   3.674  13.862  2.5240  0.2966 -1.6122
 7131SOL     OW32851   2.232   4.002  14.436  0.4966 -0.1464  0.2247
 7131SOL    HW132852   2.276   3.972  14.356 -2.1987  1.0234 -1.7311
 7131SOL    HW232853   2.176   4.065  14.390  0.0682 -2.4143 -2.4141
 7132SOL     OW32854   1.615   1.002   4.258  0.3239 -0.0853  0.2924
 7132SOL    HW132855   1.630   0.980   4.166  2.0674  0.0786  0.5463
 7132SOL    HW232856   1.543   0.942   4.279  0.6066 -0.1392  1.1108
 7133SOL     OW32857   3.359   1.062   5.203 -0.6134  0.1921  0.4581
 7133SOL    HW132858   3.278   1.021   5.235 -0.3874 -1.2488 -0.8314
 7133SOL    HW232859   3.357   1.031   5.113  2.4062 -1.4362  0.9461
 7134SOL     OW32860   2.015   1.309   5.423  0.3436 -0.8974 -0.1631
 7134SOL    HW132861   1.959   1.275   5.353 -0.8400 -1.0822  0.8868
 7134SOL    HW232862   1.948   1.289   5.488 -0.2695 -1.3316 -0.9232
 7135SOL     OW32863   3.919   2.759   8.994 -0.6068  0.1495  0.7742
 7135SOL    HW132864   3.860   2.686   8.979 -1.6677  1.9466 -3.5563
 7135SOL    HW232865   3.879   2.811   9.064 -3.6335 -1.0630 -0.0741
 7136SOL     OW32866   0.657   2.080   1.202 -0.0533  0.3077  0.0334
 7136SOL    HW132867   0.737   2.103   1.250  0.2099 -0.4852 -0.0185
 7136SOL    HW232868   0.614   2.164   1.212  1.4063  1.1296 -0.6503
 7137SOL     OW32869   2.649   1.813   4.145  0.4175  0.5285 -0.0537
 7137SOL    HW132870   2.582   1.857   4.197  1.7400 -0.3066  2.3672
 7137SOL    HW232871   2.640   1.843   4.054  1.4381  1.5724  0.1832
 7138SOL     OW32872   4.126   1.169   9.331  0.0452 -0.4835  0.5788
 7138SOL    HW132873   4.158   1.218   9.407 -2.8634 -0.0001  1.5119
 7138SOL    HW232874   4.097   1.241   9.275  0.1296  0.6103  1.9470
 7139SOL     OW32875   3.716   2.781  10.340  0.0628  0.2014  0.2554
 7139SOL    HW132876   3.736   2.824  10.423 -2.7799  1.8712  0.0668
 7139SOL    HW232877   3.735   2.693  10.371 -2.6549  0.3104  2.1753
 7140SOL     OW32878   0.587   4.099   2.293  0.0873 -0.3236  0.0569
 7140SOL    HW132879   0.532   4.132   2.365  0.9969  0.5251  0.3740
 7140SOL    HW232880   0.526   4.039   2.250 -0.3202 -0.4804  0.8557
 7141SOL     OW32881   4.599   3.747   7.689 -0.1833  0.1594 -0.3553
 7141SOL    HW132882   4.511   3.714   7.708 -0.3241 -0.1262 -1.4961
 7141SOL    HW232883   4.608   3.788   7.775  0.5949  0.3090 -0.5119
 7142SOL     OW32884   4.618   0.912   3.026  0.1489 -0.0922  0.4074
 7142SOL    HW132885   4.691   0.971   3.044  0.0350  1.0810 -2.9011
 7142SOL    HW232886   4.545   0.972   3.013  0.2299 -0.1480 -0.3013
 7143SOL     OW32887   1.891   2.963   3.413  0.4050  0.2816 -0.1296
 7143SOL    HW132888   1.959   3.003   3.467 -0.9821  1.1035  0.9917
 7143SOL    HW232889   1.934   2.879   3.394 -0.0120  0.0756 -0.1631
 7144SOL     OW32890   1.049   3.336   3.145  0.3987  0.2467  0.1946
 7144SOL    HW132891   1.124   3.356   3.201  0.6274 -0.4936  0.1488
 7144SOL    HW232892   1.076   3.365   3.058  2.9411  1.2121  1.3151
 7145SOL     OW32893   3.443   4.610  13.060  0.2292  0.1481  0.4147
 7145SOL    HW132894   3.493   4.537  13.024  2.1762  0.2008  3.0233
 7145SOL    HW232895   3.491   4.688  13.032  0.9645 -1.3637 -2.5487
 7146SOL     OW32896   2.703   4.723  17.011 -0.4743 -0.1978 -0.6300
 7146SOL    HW132897   2.676   4.637  17.042 -0.4771  0.0563  0.0727
 7146SOL    HW232898   2.762   4.696  16.940  0.6276  0.4735  0.0208
 7147SOL     OW32899   1.862   2.879  10.889 -0.1044 -0.1904 -0.0095
 7147SOL    HW132900   1.823   2.854  10.805  0.1280  0.7548 -0.3986
 7147SOL    HW232901   1.792   2.936  10.922  1.0995  1.8987 -1.0542
 7148SOL     OW32902   0.660   3.409   3.062  0.2388  0.3979  0.0058
 7148SOL    HW132903   0.597   3.471   3.099 -0.3380  0.1001 -0.4700
 7148SOL    HW232904   0.733   3.469   3.048  0.2831  0.4314  0.3708
 7149SOL     OW32905   2.751   4.179   2.794 -0.7854  0.0286  0.7337
 7149SOL    HW132906   2.833   4.180   2.843 -0.2075  1.7193 -0.2667
 7149SOL    HW232907   2.768   4.106   2.735 -0.6099  0.0349  0.7746
 7150SOL     OW32908   0.776   4.688   8.650  0.6422 -0.2570  0.1173
 7150SOL    HW132909   0.689   4.717   8.621  0.5144 -0.7722 -0.0068
 7150SOL    HW232910   0.761   4.599   8.681 -0.6424 -0.3040 -0.6484
 7151SOL     OW32911   4.049   1.477  17.588 -0.4365 -0.1703  0.0372
 7151SOL    HW132912   4.027   1.570  17.596 -0.2402  0.0283 -1.7504
 7151SOL    HW232913   4.012   1.443  17.669 -0.4321 -0.2960 -0.0141
 7152SOL     OW32914   3.584   0.643   4.104 -0.4467  0.4137  0.2894
 7152SOL    HW132915   3.645   0.596   4.048  0.8560  1.1818  1.0643
 7152SOL    HW232916   3.619   0.634   4.193  0.6328 -1.9095 -0.3697
 7153SOL     OW32917   3.568   1.178   9.495  0.0887 -0.1912  0.0732
 7153SOL    HW132918   3.634   1.193   9.427 -0.4297  0.2898 -0.3213
 7153SOL    HW232919   3.616   1.109   9.542  0.9966  0.9912  0.8856
 7154SOL     OW32920   0.974   3.322  10.468 -0.3278 -0.4919 -0.0710
 7154SOL    HW132921   0.999   3.353  10.555  0.1700  0.6030 -0.6079
 7154SOL    HW232922   0.982   3.227  10.478  0.5488 -0.5330 -1.1442
 7155SOL     OW32923   3.728   0.455   7.813  0.4422 -0.7237 -0.1105
 7155SOL    HW132924   3.710   0.372   7.768  1.0715 -1.7568  1.5264
 7155SOL    HW232925   3.648   0.467   7.865 -0.7350  3.1024 -2.8958
 7156SOL     OW32926   1.360   0.810   2.941 -0.6511  0.3812 -0.7458
 7156SOL    HW132927   1.362   0.858   3.023  1.3059  2.1722 -1.8562
 7156SOL    HW232928   1.334   0.722   2.969  0.5688  0.5908  1.0262
 7157SOL     OW32929   1.711   4.127   2.006  0.5941 -0.4136 -0.1969
 7157SOL    HW132930   1.690   4.140   1.913 -0.5124 -1.8628 -0.1500
 7157SOL    HW232931   1.790   4.180   2.016  1.7341 -2.0246 -0.6100
 7158SOL     OW32932   3.288   1.822   5.074 -0.1698 -0.4150  0.8121
 7158SOL    HW132933   3.229   1.748   5.086  0.7839 -1.2033  0.5622
 7158SOL    HW232934   3.237   1.891   5.030 -0.1019  0.6731  2.4291
 7159SOL     OW32935   3.541   3.196   8.432  0.4319 -0.1094 -0.0363
 7159SOL    HW132936   3.635   3.181   8.422  0.4496 -1.6975  2.3089
 7159SOL    HW232937   3.522   3.241   8.350  0.3593 -0.5744 -0.2779
 7160SOL     OW32938   1.877   2.728   1.877 -0.0154  0.6198  0.6529
 7160SOL    HW132939   1.919   2.771   1.803  1.0089  1.8931  1.9579
 7160SOL    HW232940   1.784   2.736   1.858 -0.6474  0.4411  3.5896
 7161SOL     OW32941   2.966   1.111  14.402  0.2523 -0.5386  0.9172
 7161SOL    HW132942   2.922   1.192  14.427  0.8207  0.8507 -2.4861
 7161SOL    HW232943   3.006   1.088  14.485  0.9305  0.2729  0.8136
 7162SOL     OW32944   1.380   1.824  10.408  0.1152  0.3746  0.1473
 7162SOL    HW132945   1.427   1.761  10.462 -0.2323 -1.1551 -1.3322
 7162SOL    HW232946   1.331   1.766  10.350 -0.1327 -1.4388  2.1969
 7163SOL     OW32947   4.665   3.346  15.969  0.0165  0.6929 -0.2083
 7163SOL    HW132948   4.630   3.339  15.880 -0.3241  0.4659 -0.0560
 7163SOL    HW232949   0.029   3.376  15.946  0.5448  0.0335  0.9594
 7164SOL     OW32950   3.527   3.469   5.166 -0.2817  0.3097 -0.3836
 7164SOL    HW132951   3.463   3.406   5.199 -0.2381  0.0947 -0.7146
 7164SOL    HW232952   3.470   3.529   5.117  0.0470 -0.9345 -2.3084
 7165SOL     OW32953   0.944   1.683   5.053  0.0999 -0.0737  0.0853
 7165SOL    HW132954   1.004   1.613   5.080 -1.3769 -1.8761 -1.2300
 7165SOL    HW232955   0.879   1.675   5.123  0.2370 -2.1753 -0.0156
 7166SOL     OW32956   4.105   1.767   2.862 -0.4506  0.1203 -0.3643
 7166SOL    HW132957   4.098   1.835   2.929  0.2803 -2.2078  2.1032
 7166SOL    HW232958   4.055   1.800   2.788  0.0648  0.5853 -0.5067
 7167SOL     OW32959   2.140   4.220  14.114  0.1714 -0.0834  0.0315
 7167SOL    HW132960   2.154   4.309  14.146  0.5035 -0.8640  2.0477
 7167SOL    HW232961   2.069   4.193  14.173  0.7614 -0.5710  0.5155
 7168SOL     OW32962   3.751   1.363   2.718 -0.0215  0.2783  1.1982
 7168SOL    HW132963   3.671   1.312   2.704 -0.8204  2.0065 -0.6311
 7168SOL    HW232964   3.722   1.449   2.687 -0.0212  0.5063  1.8337
 7169SOL     OW32965   0.433   3.582   2.526 -0.0077 -0.3788  0.3429
 7169SOL    HW132966   0.358   3.572   2.468  0.0673 -0.2906  0.2315
 7169SOL    HW232967   0.463   3.670   2.502 -0.5681 -0.1671  0.4267
 7170SOL     OW32968   3.760   4.415  14.654 -0.4394 -0.1776  0.1004
 7170SOL    HW132969   3.846   4.427  14.694 -2.0681  2.5109  2.8356
 7170SOL    HW232970   3.709   4.371  14.722 -1.1268  3.4097  1.9583
 7171SOL     OW32971   4.665   3.927   6.470  0.5586 -0.5124  0.0759
 7171SOL    HW132972   4.679   4.021   6.483 -2.5298  0.1649 -1.3952
 7171SOL    HW232973   4.572   3.929   6.448  0.3868  0.5577  0.9092
 7172SOL     OW32974   3.787   0.918   7.251 -0.1936  0.1857 -0.0282
 7172SOL    HW132975   3.790   1.013   7.236 -0.9160  0.0050 -1.3386
 7172SOL    HW232976   3.824   0.911   7.339  0.0123  2.3078  0.0543
 7173SOL     OW32977   3.287   0.036   6.856  0.3910  0.5762  0.9273
 7173SOL    HW132978   3.201   4.721   6.871  0.2282  0.5078 -0.2018
 7173SOL    HW232979   3.343   4.687   6.880  0.3206 -0.1620 -1.2098
 7174SOL     OW32980   0.757   1.498   7.201 -0.4154  0.0867 -0.5508
 7174SOL    HW132981   0.714   1.581   7.219 -0.5711 -0.0878 -0.1004
 7174SOL    HW232982   0.848   1.523   7.214  0.0469 -1.1992 -1.2830
 7175SOL     OW32983   0.082   1.084   2.539  0.0710  0.3852  0.3103
 7175SOL    HW132984   0.081   1.131   2.623  0.6895  1.0477 -0.0587
 7175SOL    HW232985   4.715   1.054   2.539  0.5076 -0.9609  1.0452
 7176SOL     OW32986   0.555   1.745  14.906  0.7851  0.5674  0.2040
 7176SOL    HW132987   0.649   1.729  14.904  0.6020 -0.4481 -0.4058
 7176SOL    HW232988   0.539   1.795  14.825  1.1468  0.9334  0.3609
 7177SOL     OW32989   2.516   4.125  16.784  0.7171 -0.2888 -0.1802
 7177SOL    HW132990   2.447   4.190  16.795  1.6443  0.7411 -0.4242
 7177SOL    HW232991   2.593   4.181  16.798  1.0499 -0.2444 -2.2597
 7178SOL     OW32992   2.753   2.058   5.403  0.3048 -0.4930 -0.3127
 7178SOL    HW132993   2.813   1.998   5.359 -0.0401  0.0618 -1.5366
 7178SOL    HW232994   2.784   2.035   5.491  1.4106  1.5516 -0.1870
 7179SOL     OW32995   1.347   0.953   2.500 -0.0451 -0.3058  0.1781
 7179SOL    HW132996   1.329   1.044   2.522  0.2271  0.3657 -2.3814
 7179SOL    HW232997   1.388   0.958   2.413 -2.1363 -0.9049 -0.8456
 7180SOL     OW32998   2.509   4.067  11.966  0.0801 -0.4848 -0.4571
 7180SOL    HW132999   2.452   4.143  11.966 -1.4469 -1.6411 -3.6861
 7180SOL    HW233000   2.595   4.107  11.950  0.1096 -0.1999  0.4505
 7181SOL     OW33001   2.036   0.374   2.399 -0.4458  0.1892 -0.0410
 7181SOL    HW133002   1.983   0.316   2.343 -0.6357 -1.0860  1.4654
 7181SOL    HW233003   2.053   0.319   2.475  0.1475  0.2093 -0.1641
 7182SOL     OW33004   1.327   4.071   0.408 -0.4627  0.2638  0.2025
 7182SOL    HW133005   1.419   4.068   0.435 -0.7219  0.2614  1.1004
 7182SOL    HW233006   1.279   4.085   0.490  1.7911 -1.8042  1.9189
 7183SOL     OW33007   4.620   4.430   8.027 -0.0377  0.3080 -0.0657
 7183SOL    HW133008   4.599   4.366   7.959 -1.6046 -0.7214  1.4007
 7183SOL    HW233009   4.539   4.481   8.021  0.8111  1.5828 -0.8120
 7184SOL     OW33010   4.506   4.623  10.057  0.0190 -0.2987  0.1480
 7184SOL    HW133011   4.531   4.710  10.025 -2.5930  0.4020  0.0551
 7184SOL    HW233012   4.480   4.640  10.148 -2.3380  2.8494 -1.0954
 7185SOL     OW33013   2.435   4.165   2.839  0.2578  0.3072 -0.6795
 7185SOL    HW133014   2.367   4.140   2.777  0.9878  0.2107 -1.4424
 7185SOL    HW233015   2.478   4.084   2.866  1.6913  2.1497  2.5820
 7186SOL     OW33016   0.715   3.952  12.651  0.2622 -0.8460  0.4348
 7186SOL    HW133017   0.760   3.949  12.735  0.9017 -0.2251  0.1206
 7186SOL    HW233018   0.796   3.944  12.600  0.6394  2.0078  0.6006
 7187SOL     OW33019   0.651   4.333   6.769  0.3464 -0.3492 -0.6021
 7187SOL    HW133020   0.628   4.426   6.773 -1.0088 -0.6774 -0.8645
 7187SOL    HW233021   0.661   4.303   6.859  0.1220  0.3575 -0.3426
 7188SOL     OW33022   3.461   3.031   6.326 -0.6004  0.1944 -0.1877
 7188SOL    HW133023   3.517   2.992   6.393 -0.8096  1.8914  0.9599
 7188SOL    HW233024   3.376   3.013   6.366 -0.2057 -0.1050  0.5135
 7189SOL     OW33025   3.655   4.505  15.527 -0.3899 -0.2396 -0.5651
 7189SOL    HW133026   3.573   4.526  15.573 -0.9511 -0.4819 -1.4641
 7189SOL    HW233027   3.712   4.464  15.593  0.0867  1.5192  0.1007
 7190SOL     OW33028   2.695   2.616   2.827  0.5327 -0.4356 -0.7028
 7190SOL    HW133029   2.602   2.595   2.832  0.6301 -0.9260 -1.0110
 7190SOL    HW233030   2.709   2.625   2.733  2.0226 -3.8553 -0.8072
 7191SOL     OW33031   4.071   0.305   9.974  0.5794  0.0186  0.1761
 7191SOL    HW133032   4.009   0.237  10.000 -2.1147  2.7153  0.8105
 7191SOL    HW233033   4.142   0.294  10.038 -0.1863  0.5077  1.1028
 7192SOL     OW33034   0.216   0.910  12.859  0.0849 -0.3312  0.2113
 7192SOL    HW133035   0.255   0.843  12.915 -1.6564  0.4824  2.3880
 7192SOL    HW233036   0.291   0.964  12.835 -1.0184  0.3616 -1.6586
 7193SOL     OW33037   2.115   1.256   3.047 -0.0381  0.1490 -0.0471
 7193SOL    HW133038   2.091   1.300   3.128 -4.1755 -0.8266 -0.7343
 7193SOL    HW233039   2.210   1.267   3.049  0.2257 -2.1676  0.0987
 7194SOL     OW33040   4.410   0.227   8.520 -0.3016 -0.2795 -0.3939
 7194SOL    HW133041   4.452   0.146   8.491 -1.5135 -0.4525 -1.6484
 7194SOL    HW233042   4.444   0.299   8.467 -0.0872  0.2250  0.4202
 7195SOL     OW33043   2.641   1.015   4.763  0.0636 -0.0871  0.5027
 7195SOL    HW133044   2.609   0.980   4.846  0.7549  2.9246  2.0377
 7195SOL    HW233045   2.570   1.054   4.713  1.1989  1.7791  0.3698
 7196SOL     OW33046   3.701   1.241   7.770 -0.1603  0.2412 -0.1259
 7196SOL    HW133047   3.675   1.150   7.758 -1.8281  0.4298  2.0142
 7196SOL    HW233048   3.782   1.230   7.720 -0.2781  2.1428 -0.7282
 7197SOL     OW33049   4.643   0.361   6.523 -0.2307 -0.6146 -0.6364
 7197SOL    HW133050   4.633   0.359   6.427  3.2980 -2.5308 -0.9554
 7197SOL    HW233051   4.561   0.404   6.548 -0.0023  0.9618 -2.5347
 7198SOL     OW33052   4.382   1.895   6.266  0.0842  0.1078  0.1582
 7198SOL    HW133053   4.378   1.862   6.356  0.1427 -1.4176 -0.3932
 7198SOL    HW233054   4.342   1.817   6.227 -0.3394 -0.6639  2.1450
 7199SOL     OW33055   2.043   1.165  17.454 -0.5137  0.1249  0.0405
 7199SOL    HW133056   2.052   1.165  17.549  0.2159  0.1717 -0.0295
 7199SOL    HW233057   2.002   1.079  17.444 -1.6352  0.6729 -0.0812
 7200SOL     OW33058   2.495   3.927   2.944  0.6067 -0.3089  0.4668
 7200SOL    HW133059   2.552   3.865   2.899  0.3858  1.2766 -2.0058
 7200SOL    HW233060   2.492   3.895   3.034  0.4308 -2.0666 -0.1732
 7201SOL     OW33061   1.486   2.912   4.402  0.0575 -0.2670  0.4987
 7201SOL    HW133062   1.504   2.829   4.446 -2.5681 -2.7792 -3.1868
 7201SOL    HW233063   1.502   2.878   4.314 -0.4418  1.4952 -0.2701
 7202SOL     OW33064   0.825   1.119   5.373 -0.0845 -1.0083  0.1233
 7202SOL    HW133065   0.882   1.056   5.417 -0.2064 -1.9610 -1.0727
 7202SOL    HW233066   0.873   1.130   5.291 -1.1079 -0.5937 -0.4162
 7203SOL     OW33067   2.233   1.688   8.068 -0.9310 -0.5927  0.3790
 7203SOL    HW133068   2.291   1.670   8.142  3.2799  0.8438 -2.5936
 7203SOL    HW233069   2.183   1.607   8.076 -1.7195 -0.1109  0.3696
 7204SOL     OW33070   4.440   4.382   3.748 -0.3085 -0.4848 -0.4119
 7204SOL    HW133071   4.505   4.446   3.720  0.1425 -1.0941 -0.7667
 7204SOL    HW233072   4.399   4.435   3.816 -2.3566 -0.9071 -1.3288
 7205SOL     OW33073   0.939   4.427   6.811 -0.5073  0.5293  0.3448
 7205SOL    HW133074   0.910   4.451   6.723 -0.8912 -2.5717 -0.3793
 7205SOL    HW233075   0.974   4.511   6.841 -1.8970  1.7067 -1.3058
 7206SOL     OW33076   4.395   0.767   8.623  0.1079  0.0841 -0.0920
 7206SOL    HW133077   4.319   0.731   8.577  1.7134 -2.5556 -0.6857
 7206SOL    HW233078   4.406   0.705   8.696 -3.6281  1.6528  1.7988
 7207SOL     OW33079   0.787   3.372   7.415 -0.0210 -0.5661 -0.3873
 7207SOL    HW133080   0.824   3.284   7.422  0.6611 -0.0531  2.5541
 7207SOL    HW233081   0.864   3.425   7.434 -0.9469  0.1124  1.5393
 7208SOL     OW33082   1.249   2.274   7.793 -0.1680 -0.5741  0.6415
 7208SOL    HW133083   1.334   2.235   7.773 -1.5525 -2.7055 -1.0538
 7208SOL    HW233084   1.256   2.362   7.755  1.0865  0.1052  2.4693
 7209SOL     OW33085   2.024   0.137   1.401  0.1912  0.7803 -0.1504
 7209SOL    HW133086   2.056   0.076   1.334 -0.2092 -0.3563  0.6913
 7209SOL    HW233087   2.093   0.203   1.409  0.5061  0.4968 -0.5653
 7210SOL     OW33088   1.556   0.342   5.023  0.6666 -0.1572 -0.4903
 7210SOL    HW133089   1.555   0.351   5.119  1.3219  1.4327 -0.6258
 7210SOL    HW233090   1.537   0.249   5.014  0.6661 -0.3238  1.2025
 7211SOL     OW33091   3.304   0.185  12.791  0.0810  0.3940 -0.1186
 7211SOL    HW133092   3.388   0.204  12.833  0.6588 -0.0703 -1.0818
 7211SOL    HW233093   3.250   0.197  12.870  0.2553  2.7587 -0.3666
 7212SOL     OW33094   0.802   3.797   1.150  0.0531  0.4804 -0.7194
 7212SOL    HW133095   0.877   3.855   1.168 -0.5113  0.7344  0.8472
 7212SOL    HW233096   0.835   3.708   1.157  3.1083  1.6700  0.1259
 7213SOL     OW33097   4.589   3.118   4.473  0.2539  0.3721  0.3472
 7213SOL    HW133098   4.592   3.209   4.442  3.6965  1.0168  2.5953
 7213SOL    HW233099   4.499   3.115   4.506 -0.0884  0.7019 -0.5318
 7214SOL     OW33100   2.857   3.369   7.194 -0.4379 -0.1638 -0.2728
 7214SOL    HW133101   2.951   3.381   7.209 -1.2153  2.1436  2.8376
 7214SOL    HW233102   2.812   3.446   7.228 -1.1111 -0.5800 -0.2204
 7215SOL     OW33103   1.705   0.712  13.074 -0.9016 -0.0119  0.0854
 7215SOL    HW133104   1.711   0.790  13.129 -0.4576  0.5440 -0.7378
 7215SOL    HW233105   1.727   0.641  13.135  1.2090 -0.2007 -0.8983
 7216SOL     OW33106   1.282   0.847  11.558 -0.2908 -0.2302  0.0528
 7216SOL    HW133107   1.330   0.831  11.639 -0.3947  2.7136  0.7173
 7216SOL    HW233108   1.319   0.932  11.535  0.5827  0.0097  2.3098
 7217SOL     OW33109   0.344   0.612   6.130  0.3373 -0.1485 -0.1389
 7217SOL    HW133110   0.406   0.682   6.153 -1.3706  0.8212  1.5612
 7217SOL    HW233111   0.327   0.647   6.043 -2.3423  2.3581  1.4129
 7218SOL     OW33112   1.130   0.475   4.864 -0.1887 -0.3123 -0.0635
 7218SOL    HW133113   1.195   0.544   4.873  1.4271 -2.2505  3.0833
 7218SOL    HW233114   1.094   0.474   4.953 -1.4396 -2.1185 -0.5750
 7219SOL     OW33115   1.031   0.619   2.692 -0.2459 -0.6186  0.3395
 7219SOL    HW133116   1.095   0.689   2.681 -0.2932 -0.5318  0.6029
 7219SOL    HW233117   1.071   0.558   2.630  0.6793  0.7869 -0.4395
 7220SOL     OW33118   4.024   4.669   5.962  0.4814 -0.7694  0.5865
 7220SOL    HW133119   4.021   0.009   6.032 -0.5321 -0.4756  0.2792
 7220SOL    HW233120   3.973   4.601   6.007  0.4807 -1.4637 -0.4496
 7221SOL     OW33121   3.405   2.642   5.280 -0.2052 -0.2604 -0.1411
 7221SOL    HW133122   3.446   2.728   5.287  0.8275 -0.6580 -1.5340
 7221SOL    HW233123   3.415   2.626   5.187  1.1174 -2.6975  0.4260
 7222SOL     OW33124   3.110   1.012   2.685  0.4914 -0.6341 -0.4929
 7222SOL    HW133125   3.139   0.929   2.724  1.8544  0.5979  1.0966
 7222SOL    HW233126   3.179   1.077   2.701 -0.5429  0.6097 -1.1486
 7223SOL     OW33127   1.113   2.471   5.086 -0.2945  0.2076  0.1659
 7223SOL    HW133128   1.148   2.387   5.117  1.2361  1.0774  0.8253
 7223SOL    HW233129   1.096   2.451   4.994 -1.5097  0.0184  0.4325
 7224SOL     OW33130   3.824   0.663   2.422  0.1950 -0.1973  0.3049
 7224SOL    HW133131   3.776   0.723   2.479  0.7777  0.4438  0.1261
 7224SOL    HW233132   3.752   0.624   2.374 -0.9783 -0.5455  2.3702
 7225SOL     OW33133   0.214   2.442   2.671  0.2881 -0.0716  0.0995
 7225SOL    HW133134   0.183   2.365   2.623  1.3320 -1.3003  1.3776
 7225SOL    HW233135   0.304   2.408   2.673  0.0311 -0.7116  0.7037
 7226SOL     OW33136   4.443   0.719  14.782 -0.4695  0.4085 -0.1352
 7226SOL    HW133137   4.507   0.762  14.839 -0.6031 -0.8168  0.9388
 7226SOL    HW233138   4.492   0.642  14.753  0.7306  0.8571  0.6641
 7227SOL     OW33139   4.195   1.054  15.891 -0.2137 -0.0068  0.1357
 7227SOL    HW133140   4.233   1.091  15.971 -1.2040  0.7439  0.2572
 7227SOL    HW233141   4.102   1.072  15.907 -0.4228  1.0294 -2.3245
 7228SOL     OW33142   1.436   2.465   4.179 -0.1407  0.3219 -0.1682
 7228SOL    HW133143   1.472   2.518   4.107 -0.4149 -0.9826 -1.2617
 7228SOL    HW233144   1.352   2.509   4.193 -0.8119 -0.7424 -0.8365
 7229SOL     OW33145   4.724   1.565  10.412  0.2872 -0.0120 -0.5208
 7229SOL    HW133146   4.684   1.626  10.349  1.0364 -0.1017 -1.0707
 7229SOL    HW233147   0.088   1.562  10.378  0.8542 -2.0455  1.1687
 7230SOL     OW33148   4.259   2.046   8.606 -0.7792 -0.0748  0.1067
 7230SOL    HW133149   4.305   2.088   8.678 -0.1769 -2.8024  1.2746
 7230SOL    HW233150   4.284   1.954   8.612 -0.1192  0.1106  0.1628
 7231SOL     OW33151   3.352   3.556  11.590 -0.4035  0.3325 -0.5117
 7231SOL    HW133152   3.357   3.465  11.561 -1.9069  0.6460 -1.7017
 7231SOL    HW233153   3.401   3.551  11.672 -1.7015 -0.8858  0.1853
 7232SOL     OW33154   4.241   0.792  15.837 -0.4020  0.3802 -0.2718
 7232SOL    HW133155   4.242   0.875  15.886 -0.6370  0.0756  0.2509
 7232SOL    HW233156   4.333   0.780  15.812 -0.5793 -1.8503  0.1700
 7233SOL     OW33157   1.217   1.602   8.711  0.1511 -0.1295  0.2143
 7233SOL    HW133158   1.178   1.683   8.679  0.4050 -0.8880 -1.9963
 7233SOL    HW233159   1.248   1.642   8.792 -0.1727 -0.6145  0.5790
 7234SOL     OW33160   1.499   3.671  11.930 -0.5415  0.0225  0.4650
 7234SOL    HW133161   1.462   3.699  12.014 -3.6180  0.8506 -1.1608
 7234SOL    HW233162   1.536   3.584  11.946 -0.6422  0.0824  1.0300
 7235SOL     OW33163   3.933   4.383   0.837 -0.7283  0.3640  0.5105
 7235SOL    HW133164   3.863   4.417   0.782 -0.1238  1.4868  0.4234
 7235SOL    HW233165   3.925   4.288   0.830 -2.5963  0.6968 -1.8105
 7236SOL     OW33166   4.200   0.632   3.702  0.0432 -0.0033  0.2100
 7236SOL    HW133167   4.285   0.627   3.747 -1.2864 -0.1033  2.6719
 7236SOL    HW233168   4.231   0.677   3.623  0.1836 -0.7176 -0.1507
 7237SOL     OW33169   1.601   4.713   2.248  0.5092  0.0924  0.2746
 7237SOL    HW133170   1.528   4.653   2.241  0.7732 -0.4127  1.9404
 7237SOL    HW233171   1.648   4.698   2.165 -0.4236 -2.4027  0.2244
 7238SOL     OW33172   4.693   1.523   0.681 -0.0612 -0.0546  0.4570
 7238SOL    HW133173   4.656   1.479   0.605 -2.8734  0.5710  1.4733
 7238SOL    HW233174   4.621   1.513   0.744  0.0342  0.4701  0.6480
 7239SOL     OW33175   0.193   4.279   5.264  0.5643 -0.0092  0.2536
 7239SOL    HW133176   0.171   4.186   5.274  1.1956 -0.6396 -4.1605
 7239SOL    HW233177   0.276   4.291   5.310  0.1643 -1.5794  1.3938
 7240SOL     OW33178   2.987   3.915   0.452  0.5025  0.1536  0.3783
 7240SOL    HW133179   2.946   3.989   0.498 -0.0200 -0.4316  0.8501
 7240SOL    HW233180   2.989   3.851   0.523  0.1654  0.4371  0.6451
 7241SOL     OW33181   1.373   4.254   6.812 -0.1656 -0.0432  0.5075
 7241SOL    HW133182   1.450   4.232   6.759 -0.3794  0.9159 -0.2046
 7241SOL    HW233183   1.313   4.300   6.753  0.4411  2.4291  1.8197
 7242SOL     OW33184   3.042   2.192   7.828  0.0739  0.1137  0.2559
 7242SOL    HW133185   3.049   2.273   7.778 -0.5395 -0.2299 -0.3964
 7242SOL    HW233186   2.950   2.165   7.821 -0.1935  1.7055 -2.4377
 7243SOL     OW33187   0.036   4.077   5.899 -0.4704  0.1768 -0.1720
 7243SOL    HW133188   0.078   4.011   5.843 -0.0489 -1.8535  2.5357
 7243SOL    HW233189   4.698   4.010   5.926 -0.6406  0.4315  0.0675
 7244SOL     OW33190   3.939   0.123   6.168  0.1632  0.0552 -0.1136
 7244SOL    HW133191   3.932   0.217   6.152 -0.2265 -0.3224 -2.2237
 7244SOL    HW233192   3.856   0.078   6.150  0.1197  0.1861 -0.2453
 7245SOL     OW33193   2.479   4.507   1.358  0.0362  0.4825  0.0739
 7245SOL    HW133194   2.567   4.541   1.376  1.0758 -2.0849 -0.1561
 7245SOL    HW233195   2.433   4.582   1.322  1.0064  1.3221  0.5871
 7246SOL     OW33196   1.507   2.180   8.839 -0.5007 -0.2848  0.1508
 7246SOL    HW133197   1.426   2.231   8.839  0.0152  0.5328 -2.3594
 7246SOL    HW233198   1.552   2.221   8.913  0.8226  0.1214 -0.8897
 7247SOL     OW33199   2.918   0.309   6.676 -0.2609  0.2645 -0.4893
 7247SOL    HW133200   2.985   0.357   6.727 -0.5064 -0.0406  0.1237
 7247SOL    HW233201   2.856   0.380   6.660 -0.8251  0.0057  0.5326
 7248SOL     OW33202   4.640   0.687  11.109  0.2451 -0.1370  0.0897
 7248SOL    HW133203   4.699   0.613  11.101  0.2143 -0.1711  0.1794
 7248SOL    HW233204   4.664   0.741  11.185 -1.5621 -0.2498  0.7413
 7249SOL     OW33205   0.900   0.754  12.616  0.6467  0.3662 -0.0980
 7249SOL    HW133206   0.827   0.704  12.654  1.8270 -0.5760  0.8989
 7249SOL    HW233207   0.931   0.698  12.545  2.8673 -0.0850  1.2369
 7250SOL     OW33208   2.847   2.317   4.370 -0.1911 -0.1532 -0.7585
 7250SOL    HW133209   2.787   2.373   4.321 -1.0842  0.7415  1.3695
 7250SOL    HW233210   2.811   2.311   4.459  1.9712 -3.1234 -0.0811
 7251SOL     OW33211   0.986   3.883   1.430 -0.1099 -0.0529 -0.9092
 7251SOL    HW133212   0.907   3.875   1.483 -0.1117  0.1759 -0.8780
 7251SOL    HW233213   0.973   3.970   1.392  0.3003  1.7768  3.1115
 7252SOL     OW33214   1.317   2.404   8.869 -0.1467  0.3346  0.3241
 7252SOL    HW133215   1.225   2.397   8.845 -0.3812 -0.8611  1.5895
 7252SOL    HW233216   1.319   2.438   8.959 -0.7199 -1.2708  0.9419
 7253SOL     OW33217   1.519   1.671   9.214  0.5301 -0.7220  0.6004
 7253SOL    HW133218   1.438   1.700   9.256 -0.3054 -1.6408 -0.3856
 7253SOL    HW233219   1.580   1.741   9.234 -1.9265  1.1684  1.5102
 7254SOL     OW33220   1.112   1.072   7.846 -0.1045  0.2325 -0.0030
 7254SOL    HW133221   1.037   1.093   7.902  0.4645 -0.7765  1.1388
 7254SOL    HW233222   1.076   1.087   7.758  0.0242  1.4660  0.1596
 7255SOL     OW33223   3.323   3.590  12.785 -0.0048 -0.1353  0.8202
 7255SOL    HW133224   3.259   3.586  12.856 -0.2510  1.1107  0.6780
 7255SOL    HW233225   3.379   3.513  12.795 -1.2549 -1.0437  0.6745
 7256SOL     OW33226   2.446   2.917  15.466  0.4958 -0.2778  0.3138
 7256SOL    HW133227   2.440   2.926  15.371  2.2821 -2.8823 -0.0537
 7256SOL    HW233228   2.535   2.950  15.478 -0.1408  0.8965  1.8241
 7257SOL     OW33229   1.219   0.983   7.226  0.8162  0.1999 -0.1335
 7257SOL    HW133230   1.264   1.034   7.293 -0.5626  0.3023  0.7130
 7257SOL    HW233231   1.291   0.955   7.168  0.3189  2.0965 -1.6661
 7258SOL     OW33232   2.084   1.545   4.637 -0.1900  0.1509 -0.4167
 7258SOL    HW133233   2.077   1.538   4.542  0.2952 -0.6385 -0.3937
 7258SOL    HW233234   2.105   1.639   4.640  1.3838 -0.1772 -1.1312
 7259SOL     OW33235   1.795   3.059   4.193  0.1341 -0.0262 -0.4550
 7259SOL    HW133236   1.701   3.046   4.186 -0.1248  1.0693  0.8476
 7259SOL    HW233237   1.806   3.079   4.100  0.8730 -0.3392 -0.4377
 7260SOL     OW33238   4.217   4.281   0.933 -0.9986  0.2470 -0.4726
 7260SOL    HW133239   4.150   4.275   0.865 -0.3232 -0.1777 -1.0931
 7260SOL    HW233240   4.170   4.221   0.991 -1.5572  1.4041  0.2747
 7261SOL     OW33241   1.246   1.376  16.404 -0.1945 -0.3589  0.6736
 7261SOL    HW133242   1.210   1.424  16.478 -0.7165  0.5563 -0.1768
 7261SOL    HW233243   1.257   1.445  16.338 -1.4906 -0.6150  0.1958
 7262SOL     OW33244   2.276   3.990  10.022  0.1596  0.3287 -0.5268
 7262SOL    HW133245   2.235   3.936  10.090  1.1644 -1.1993 -1.1407
 7262SOL    HW233246   2.215   3.975   9.950  0.3031  0.4692 -0.6774
 7263SOL     OW33247   2.672   2.816   6.240 -0.1944  0.4698  0.4083
 7263SOL    HW133248   2.664   2.721   6.246  0.7421  0.3665  0.0063
 7263SOL    HW233249   2.624   2.826   6.158 -0.9820  0.2922  0.8460
 7264SOL     OW33250   1.267   4.291   5.601  0.0535 -0.3846  0.0311
 7264SOL    HW133251   1.232   4.351   5.536  2.7417  1.2779  0.1463
 7264SOL    HW233252   1.206   4.217   5.592 -0.4696  0.2900 -1.8180
 7265SOL     OW33253   1.718   3.360  12.953  0.3411  0.2413 -0.1844
 7265SOL    HW133254   1.721   3.415  12.874 -1.7492  2.2632  1.1489
 7265SOL    HW233255   1.626   3.362  12.979 -0.2623  0.5426 -2.3124
 7266SOL     OW33256   2.959   4.276   2.392  0.0748  0.1810 -0.0851
 7266SOL    HW133257   2.957   4.372   2.400 -0.7047  0.1489  0.0968
 7266SOL    HW233258   2.876   4.241   2.423 -0.4719  2.3437  0.8799
 7267SOL     OW33259   3.872   3.409   1.492 -0.6025  0.6544 -0.1362
 7267SOL    HW133260   3.867   3.453   1.577  2.8042 -1.2579  1.0620
 7267SOL    HW233261   3.804   3.344   1.506  0.0273 -0.3412 -1.7276
 7268SOL     OW33262   3.834   3.798   9.211  0.4489  0.5144  0.2593
 7268SOL    HW133263   3.874   3.711   9.222  0.6303  0.7172  1.1820
 7268SOL    HW233264   3.907   3.857   9.229  0.6286  0.2863  0.2789
 7269SOL     OW33265   2.022   1.644  12.435  0.2698  1.1542 -0.4997
 7269SOL    HW133266   1.963   1.590  12.487 -0.1581 -0.4049 -2.5954
 7269SOL    HW233267   2.055   1.700  12.505 -1.7242  1.2956  0.3206
 7270SOL     OW33268   2.635   3.626   0.546  0.3433 -0.2342  0.0319
 7270SOL    HW133269   2.548   3.637   0.584 -0.5925 -1.0258 -1.8724
 7270SOL    HW233270   2.695   3.686   0.589  1.5499 -1.8802  0.6710
 7271SOL     OW33271   2.344   0.921   8.201 -0.2702 -0.2795  0.1099
 7271SOL    HW133272   2.409   0.867   8.246 -0.0641 -0.0398  0.0969
 7271SOL    HW233273   2.378   1.003   8.236  1.1823 -0.4376 -0.9520
 7272SOL     OW33274   3.842   3.614   7.767  0.4389  0.0661 -0.5403
 7272SOL    HW133275   3.842   3.529   7.724 -5.1854 -0.1270 -0.1995
 7272SOL    HW233276   3.754   3.642   7.741  0.3639 -1.6340 -2.0948
 7273SOL     OW33277   1.665   3.738  14.232 -0.5305 -0.1172  0.1053
 7273SOL    HW133278   1.591   3.760  14.289 -1.4329 -2.8874 -0.0075
 7273SOL    HW233279   1.625   3.722  14.147  2.0436 -0.0468 -1.1074
 7274SOL     OW33280   1.228   2.133  17.449 -0.2332  0.5492  0.1400
 7274SOL    HW133281   1.232   2.052  17.397  0.7097  0.4978  0.2794
 7274SOL    HW233282   1.189   2.108  17.533 -0.7988  0.1614 -0.2405
 7275SOL     OW33283   2.101   2.401   7.360 -0.0681  0.0423  0.2284
 7275SOL    HW133284   2.067   2.369   7.276 -0.6082  0.2939  0.3510
 7275SOL    HW233285   2.115   2.320   7.409  1.2190  0.9834  1.4090
 7276SOL     OW33286   3.361   1.655  14.159  0.4032 -0.1804 -0.1227
 7276SOL    HW133287   3.449   1.623  14.176 -0.0793 -0.7912  1.2162
 7276SOL    HW233288   3.319   1.576  14.123  2.2364 -2.5300  2.9304
 7277SOL     OW33289   4.248   2.245  15.824 -0.0919 -0.6791 -0.1371
 7277SOL    HW133290   4.155   2.262  15.841 -0.7714 -3.4758 -1.0844
 7277SOL    HW233291   4.238   2.172  15.763 -1.1058 -1.2932  0.7564
 7278SOL     OW33292   2.293   3.455  16.532 -0.2680 -0.3608  0.3030
 7278SOL    HW133293   2.317   3.363  16.521 -2.0766 -0.5851 -1.5938
 7278SOL    HW233294   2.308   3.458  16.626 -1.2382  0.4909  0.4174
 7279SOL     OW33295   0.609   3.882   4.604  0.9909  0.0198 -0.0980
 7279SOL    HW133296   0.607   3.787   4.608  0.5469  0.1053  1.7658
 7279SOL    HW233297   0.623   3.900   4.697  0.0252  0.9653 -0.1255
 7280SOL     OW33298   2.122   2.139   6.202  0.3177  0.7132 -0.5662
 7280SOL    HW133299   2.209   2.178   6.196  0.3871  0.7761  0.9774
 7280SOL    HW233300   2.115   2.111   6.110  0.9891 -3.3501  0.6292
 7281SOL     OW33301   0.745   3.222   8.737 -0.2874 -0.0477 -0.0780
 7281SOL    HW133302   0.710   3.134   8.750 -0.8245  0.1982  0.1229
 7281SOL    HW233303   0.806   3.196   8.668 -0.5422 -1.4191  0.2177
 7282SOL     OW33304   0.573   0.441   2.385  0.2897  0.6629  0.9060
 7282SOL    HW133305   0.632   0.515   2.396 -0.9992  1.9046 -0.5131
 7282SOL    HW233306   0.494   0.481   2.420 -0.1400  0.1142  0.5620
 7283SOL     OW33307   1.964   3.658   8.309  0.0979  0.4374  0.2158
 7283SOL    HW133308   2.011   3.739   8.292 -1.2866  0.6985 -2.3643
 7283SOL    HW233309   1.877   3.679   8.274 -0.8954 -2.5530  0.8233
 7284SOL     OW33310   3.549   0.844   4.476 -0.0546 -0.1493  0.3330
 7284SOL    HW133311   3.498   0.769   4.444 -0.1218 -0.2132  0.5925
 7284SOL    HW233312   3.502   0.915   4.432  2.0062  1.4462  0.7681
 7285SOL     OW33313   2.424   1.913  13.356  0.6860 -0.0790 -0.4082
 7285SOL    HW133314   2.329   1.909  13.346  0.8374 -0.3838 -1.7417
 7285SOL    HW233315   2.441   2.001  13.389 -1.1977  0.6255 -1.3366
 7286SOL     OW33316   1.462   3.846   5.573 -0.1643  0.3876  0.7243
 7286SOL    HW133317   1.543   3.880   5.611 -0.6817  0.5312  1.7127
 7286SOL    HW233318   1.429   3.789   5.642 -2.6149  0.9673  0.0252
 7287SOL     OW33319   2.983   1.182   3.584  0.2862  0.3258 -0.2846
 7287SOL    HW133320   2.939   1.118   3.639 -0.0547  1.5193  0.8397
 7287SOL    HW233321   3.040   1.220   3.652 -0.8161  0.0850  0.7700
 7288SOL     OW33322   1.923   4.625   3.188  0.1481  0.3147 -0.1869
 7288SOL    HW133323   1.832   4.598   3.199  0.3546  0.0173  0.7706
 7288SOL    HW233324   1.969   4.581   3.259 -0.6623  0.0751  0.1880
 7289SOL     OW33325   4.112   3.788   0.684  0.0754 -0.3146 -0.0178
 7289SOL    HW133326   4.114   3.855   0.752  1.6457  0.3201 -0.6840
 7289SOL    HW233327   4.148   3.833   0.607 -1.8789  1.2482 -0.0143
 7290SOL     OW33328   2.069   2.695   1.272  0.4594  0.4005 -0.4532
 7290SOL    HW133329   2.033   2.783   1.280 -3.0962 -1.1193  0.2982
 7290SOL    HW233330   2.131   2.699   1.346  1.0830 -3.5841 -0.7434
 7291SOL     OW33331   0.725   2.363  12.068  0.0963  0.6722 -0.1456
 7291SOL    HW133332   0.723   2.458  12.079  2.9244  0.8728 -1.3411
 7291SOL    HW233333   0.785   2.357  11.993  0.2881 -1.5011  0.1555
 7292SOL     OW33334   4.365   0.461   3.519 -0.2712  0.8639 -0.1357
 7292SOL    HW133335   4.355   0.371   3.487  0.5178  0.7244  0.0202
 7292SOL    HW233336   4.289   0.476   3.575 -0.4456  1.3799 -0.5050
 7293SOL     OW33337   3.191   4.108   7.882 -0.2510  0.1292 -0.0945
 7293SOL    HW133338   3.264   4.120   7.943 -1.9436 -0.9295  2.0907
 7293SOL    HW233339   3.127   4.101   7.952 -0.1049  1.4565  0.1742
 7294SOL     OW33340   2.224   0.079   6.969 -0.4201  0.0411 -0.1825
 7294SOL    HW133341   2.259   0.100   7.055  1.6730 -1.6233 -0.6436
 7294SOL    HW233342   2.152   0.141   6.957  0.6017  1.8704  3.1025
 7295SOL     OW33343   4.246   0.887  12.003 -0.4279  0.6699 -0.0103
 7295SOL    HW133344   4.335   0.854  11.998 -0.2206  1.3169 -0.6142
 7295SOL    HW233345   4.192   0.812  11.978  2.0407 -0.4100 -1.9735
 7296SOL     OW33346   1.249   1.389   4.232  0.3556 -0.0361  0.0130
 7296SOL    HW133347   1.259   1.319   4.297  1.6119  0.6847  0.5997
 7296SOL    HW233348   1.154   1.400   4.240  0.0954 -2.5555  0.4520
 7297SOL     OW33349   1.710   2.024   5.869  0.1693  0.4982 -0.2199
 7297SOL    HW133350   1.648   2.094   5.888 -1.2367 -1.0903  0.9857
 7297SOL    HW233351   1.753   2.008   5.953 -2.7838 -0.8221  0.9936
 7298SOL     OW33352   0.943   2.313   5.556 -0.1371 -0.1360  0.3784
 7298SOL    HW133353   0.978   2.245   5.499  1.1198  0.4363  0.4536
 7298SOL    HW233354   0.860   2.274   5.583 -1.0651  2.0488  0.7054
 7299SOL     OW33355   3.231   2.712   9.399 -0.3836 -0.1958  0.0841
 7299SOL    HW133356   3.248   2.777   9.466 -2.3881 -1.5317  1.8813
 7299SOL    HW233357   3.307   2.728   9.342 -1.9927  0.0042 -2.0141
 7300SOL     OW33358   1.634   3.079   8.843  0.1176 -0.1753  0.0098
 7300SOL    HW133359   1.648   3.098   8.751 -1.6313  0.4499 -0.1223
 7300SOL    HW233360   1.721   3.041   8.861  0.1019 -1.4248 -2.5538
 7301SOL     OW33361   1.449   4.114  11.954  0.6043  0.0622 -0.1743
 7301SOL    HW133362   1.433   4.203  11.921 -2.1032 -0.0666  0.8031
 7301SOL    HW233363   1.473   4.071  11.872  1.5112 -0.0928  0.1766
 7302SOL     OW33364   3.924   1.603   8.274  0.4322 -0.0682 -0.8286
 7302SOL    HW133365   3.946   1.677   8.217  0.7989 -0.3885 -1.1055
 7302SOL    HW233366   4.012   1.592   8.310  0.3036 -1.5439 -0.9730
 7303SOL     OW33367   2.797   4.282   3.488 -0.6420  0.8614  0.1096
 7303SOL    HW133368   2.865   4.337   3.527  0.7222 -1.4894  1.0349
 7303SOL    HW233369   2.789   4.210   3.551  4.1548  3.1745  3.3594
 7304SOL     OW33370   0.505   1.427   9.566 -0.2486 -0.2179 -0.5883
 7304SOL    HW133371   0.559   1.488   9.615  1.4644 -1.4938 -0.8977
 7304SOL    HW233372   0.571   1.408   9.499  0.6861  0.9013  0.0101
 7305SOL     OW33373   0.524   0.898  16.361  0.1910 -0.4240 -1.0484
 7305SOL    HW133374   0.539   0.992  16.364 -1.2726 -0.2629  1.1736
 7305SOL    HW233375   0.595   0.873  16.420  0.7444 -2.1191 -2.4184
 7306SOL     OW33376   4.458   0.114   1.603  0.0934 -0.0066 -0.0664
 7306SOL    HW133377   4.390   0.095   1.667  1.0800 -0.1377  0.9426
 7306SOL    HW233378   4.536   0.095   1.655  0.9913  1.0344 -1.0230
 7307SOL     OW33379   2.452   2.186   8.933 -0.1076  0.0433  0.0823
 7307SOL    HW133380   2.464   2.280   8.949  1.1295 -0.0801 -0.1088
 7307SOL    HW233381   2.452   2.169   8.839  2.6677  1.0045 -0.1046
 7308SOL     OW33382   2.798   2.951   9.049  0.8154  0.5135  0.3460
 7308SOL    HW133383   2.752   3.029   9.015 -2.1650 -0.3164  2.4208
 7308SOL    HW233384   2.868   3.000   9.093  0.9316  0.5165  0.1578
 7309SOL     OW33385   2.498   3.049  10.446  0.1233  0.1974  0.2357
 7309SOL    HW133386   2.573   2.993  10.468 -1.1871 -0.5648  2.7850
 7309SOL    HW233387   2.544   3.127  10.416  0.9086 -0.8139 -1.2043
 7310SOL     OW33388   3.843   1.800  15.942 -1.1247  0.0896  0.0471
 7310SOL    HW133389   3.804   1.806  16.029 -1.3743 -1.8826  0.0612
 7310SOL    HW233390   3.802   1.874  15.897 -1.0134 -1.2454 -2.2506
 7311SOL     OW33391   0.328   3.141   2.849  0.4206 -0.5307  0.1388
 7311SOL    HW133392   0.235   3.155   2.867  0.7379  0.0670  1.2913
 7311SOL    HW233393   0.373   3.134   2.932 -0.3552 -0.3299  0.5781
 7312SOL     OW33394   2.730   0.855   8.517  0.0527  0.1881 -0.3461
 7312SOL    HW133395   2.789   0.835   8.590 -0.9818  0.8380  0.6651
 7312SOL    HW233396   2.683   0.931   8.551  1.5915  1.2132 -0.4752
 7313SOL     OW33397   1.344   3.167   8.851  0.4912 -0.0340 -0.3054
 7313SOL    HW133398   1.266   3.125   8.888  1.7337 -0.1912  2.1469
 7313SOL    HW233399   1.407   3.096   8.842  0.3374 -0.0066 -1.6629
 7314SOL     OW33400   2.302   0.306   1.878 -0.0563  0.2505 -0.1139
 7314SOL    HW133401   2.383   0.318   1.929 -1.4934 -0.6010  2.3827
 7314SOL    HW233402   2.243   0.323   1.952 -1.0621 -1.6358 -0.4873
 7315SOL     OW33403   3.366   1.264   0.113 -0.3947  0.2078 -0.0625
 7315SOL    HW133404   3.293   1.326   0.120  0.5201  1.4823 -1.6097
 7315SOL    HW233405   3.444   1.320   0.117 -0.1836 -0.0522 -0.4510
 7316SOL     OW33406   1.891   2.782   3.936  0.3301 -0.0572  0.3163
 7316SOL    HW133407   1.927   2.869   3.952 -1.1673  0.2446  1.9983
 7316SOL    HW233408   1.832   2.799   3.862 -1.5809  2.4745  2.4434
 7317SOL     OW33409   2.184   3.280   5.390 -0.3459 -0.0042  0.2497
 7317SOL    HW133410   2.151   3.314   5.473 -0.7735 -0.6763  0.3545
 7317SOL    HW233411   2.125   3.319   5.326  0.7853  1.1812 -0.0881
 7318SOL     OW33412   1.674   3.302   3.303 -0.4686 -0.5230  0.0342
 7318SOL    HW133413   1.720   3.255   3.233 -0.5982  1.2566 -1.2474
 7318SOL    HW233414   1.698   3.389   3.270 -0.6275 -0.1870  0.8118
 7319SOL     OW33415   0.360   0.971   3.642  0.2606  0.0017 -0.1406
 7319SOL    HW133416   0.325   1.018   3.566  1.6701 -0.5685 -1.1451
 7319SOL    HW233417   0.320   1.025   3.710 -0.2807  0.5908 -0.9340
 7320SOL     OW33418   4.536   3.433   7.975  0.0763 -0.1245 -0.6866
 7320SOL    HW133419   4.613   3.472   8.017 -0.2299 -2.2103  1.8023
 7320SOL    HW233420   4.503   3.371   8.039 -1.3496  0.8880 -0.4574
 7321SOL     OW33421   0.171   0.454  13.609  0.0921 -0.2022 -0.2227
 7321SOL    HW133422   0.120   0.373  13.598  2.2253 -1.3488 -1.5365
 7321SOL    HW233423   0.130   0.519  13.553 -0.7857  1.8057  2.7733
 7322SOL     OW33424   2.331   0.163   6.405  0.1109  0.4440 -0.0146
 7322SOL    HW133425   2.332   0.087   6.346 -1.2298  1.6266 -1.5549
 7322SOL    HW233426   2.291   0.128   6.485  0.0518  2.2814  0.7575
 7323SOL     OW33427   2.614   3.523   4.674 -0.2410  0.0170  0.0102
 7323SOL    HW133428   2.527   3.562   4.684  0.7418  2.3033 -0.3427
 7323SOL    HW233429   2.629   3.543   4.581 -2.3275 -0.3288 -0.4003
 7324SOL     OW33430   0.046   0.075   3.432 -0.2506  0.6611 -0.1360
 7324SOL    HW133431   4.681   0.039   3.433  0.3047 -0.6310  2.1941
 7324SOL    HW233432   0.038   0.135   3.506 -0.0378 -0.5728  0.8858
 7325SOL     OW33433   2.780   2.215   4.839  0.0765  0.1298 -0.2279
 7325SOL    HW133434   2.692   2.223   4.876  0.2037 -0.4723  0.2122
 7325SOL    HW233435   2.764   2.192   4.748  0.1680 -0.0813 -0.1909
 7326SOL     OW33436   2.408   2.499   8.302 -0.4775  0.3955 -0.6339
 7326SOL    HW133437   2.350   2.470   8.232 -2.0064  0.7538  0.4814
 7326SOL    HW233438   2.363   2.473   8.382  2.9292 -2.8039  0.2460
 7327SOL     OW33439   3.937   2.469   5.045 -0.5765  0.1412  0.2664
 7327SOL    HW133440   3.984   2.531   5.101  0.6429  0.8775 -1.5577
 7327SOL    HW233441   3.886   2.539   5.003  1.6970  0.6734 -1.6535
 7328SOL     OW33442   3.951   2.948   2.508 -0.6287  0.1192  0.6791
 7328SOL    HW133443   3.989   3.021   2.459  2.1476 -2.4143 -0.8823
 7328SOL    HW233444   3.996   2.955   2.593 -0.1859  0.2213  0.4347
 7329SOL     OW33445   2.245   3.294   8.024  0.0872 -0.2380 -0.8281
 7329SOL    HW133446   2.299   3.370   8.045 -0.0732 -0.3042 -0.1667
 7329SOL    HW233447   2.154   3.325   8.032  0.0277 -0.6667  0.1721
 7330SOL     OW33448   0.274   4.581  16.692  0.0945  0.2739  0.2614
 7330SOL    HW133449   0.325   4.585  16.611  2.4194  1.0460  1.7892
 7330SOL    HW233450   0.269   4.673  16.718 -0.8760  0.5064 -0.7635
 7331SOL     OW33451   3.967   0.293   9.580 -0.0154 -0.4334 -0.2394
 7331SOL    HW133452   3.890   0.285   9.636 -0.6548  0.9775 -0.9057
 7331SOL    HW233453   3.943   0.370   9.528  1.0222 -0.4959 -0.8265
 7332SOL     OW33454   0.416   3.928   2.152  0.0767  0.1837  0.0489
 7332SOL    HW133455   0.433   3.947   2.060  0.7998 -2.9215 -0.4607
 7332SOL    HW233456   0.492   3.871   2.168  0.8363  0.7392 -1.6797
 7333SOL     OW33457   1.579   0.442   1.675  0.9517  0.5565  0.2773
 7333SOL    HW133458   1.514   0.428   1.606 -0.2871 -0.4823  1.6581
 7333SOL    HW233459   1.619   0.355   1.680  0.1677  0.1659 -0.3209
 7334SOL     OW33460   2.315   0.030   4.560  0.2169 -0.0267  0.2709
 7334SOL    HW133461   2.271   0.091   4.619  1.9014 -2.1488  3.6617
 7334SOL    HW233462   2.399   0.075   4.551  0.0171  0.2569 -0.2117
 7335SOL     OW33463   1.411   4.000   1.681 -1.0379  0.6065 -0.3883
 7335SOL    HW133464   1.353   3.983   1.756 -0.6565  1.4034  0.0907
 7335SOL    HW233465   1.390   3.932   1.617  0.8751  0.0074 -0.3690
 7336SOL     OW33466   3.385   2.369   4.360 -0.4295  0.1179 -0.1068
 7336SOL    HW133467   3.302   2.345   4.318 -0.0158  2.6297 -2.3568
 7336SOL    HW233468   3.370   2.463   4.354  0.2363  0.2479  0.3376
 7337SOL     OW33469   0.135   4.064   7.471  0.2563 -0.5259  0.3900
 7337SOL    HW133470   0.228   4.083   7.485 -0.3806  2.3980  0.5943
 7337SOL    HW233471   0.122   4.101   7.383 -0.6264  1.5128  1.3847
 7338SOL     OW33472   4.315   0.930   3.753  0.1930 -0.0185 -0.3241
 7338SOL    HW133473   4.337   0.879   3.675  1.7467  0.7945 -0.4112
 7338SOL    HW233474   4.402   0.954   3.784 -0.0456  1.5439 -0.8146
 7339SOL     OW33475   2.692   1.733  10.901  0.4703 -0.2551 -0.0821
 7339SOL    HW133476   2.779   1.746  10.939 -0.2317 -0.4211  1.5842
 7339SOL    HW233477   2.673   1.820  10.866 -3.5168 -2.3871 -3.1679
 7340SOL     OW33478   3.414   3.633   6.406 -0.1012 -0.1170 -0.4879
 7340SOL    HW133479   3.343   3.688   6.439  0.9250  1.5585 -1.0310
 7340SOL    HW233480   3.458   3.630   6.491 -1.5141  0.5023  0.2491
 7341SOL     OW33481   0.130   0.162   9.906 -0.4601  0.2178  0.2162
 7341SOL    HW133482   0.077   0.125   9.976 -0.6025  0.4211  0.2159
 7341SOL    HW233483   0.063   0.172   9.838 -0.9199  1.6678  0.8738
 7342SOL     OW33484   4.316   4.145  11.314 -0.0533 -0.4045 -0.0522
 7342SOL    HW133485   4.233   4.192  11.308 -0.5019 -1.3797 -1.7316
 7342SOL    HW233486   4.301   4.088  11.389  0.9706  0.9727  1.1892
 7343SOL     OW33487   0.385   2.381   4.733  0.0678 -0.5730 -0.4049
 7343SOL    HW133488   0.430   2.394   4.650  3.2038  1.3666  1.6162
 7343SOL    HW233489   0.445   2.320   4.778  1.0448  0.9592  0.3537
 7344SOL     OW33490   1.203   4.434   5.127  0.1804  0.1723  0.0318
 7344SOL    HW133491   1.259   4.373   5.175 -0.9883 -0.3113  0.7777
 7344SOL    HW233492   1.181   4.382   5.050  2.4449  0.1037 -0.5524
 7345SOL     OW33493   3.368   2.051  11.206  0.1033 -0.0056  0.7553
 7345SOL    HW133494   3.362   2.001  11.124 -1.5125  0.2601  0.7186
 7345SOL    HW233495   3.328   2.133  11.180  0.4467 -0.0039  0.2257
 7346SOL     OW33496   3.561   0.830   6.543 -0.1489  0.2482  1.0379
 7346SOL    HW133497   3.638   0.849   6.597 -0.4321  0.0145  1.5148
 7346SOL    HW233498   3.599   0.875   6.466 -1.9230  2.9820  1.7454
 7347SOL     OW33499   1.184   2.601   4.177 -0.3053  0.5194  0.5168
 7347SOL    HW133500   1.201   2.694   4.160 -2.6348  1.3978  2.9526
 7347SOL    HW233501   1.114   2.603   4.243  0.9930  1.7792  1.8772
 7348SOL     OW33502   2.001   0.613   2.009  0.2477 -0.3123  0.5508
 7348SOL    HW133503   1.928   0.595   2.068 -1.1231 -1.7054 -1.5530
 7348SOL    HW233504   1.960   0.651   1.931 -1.9031 -1.3340  1.1833
 7349SOL     OW33505   2.647   1.091   8.141 -0.3567 -0.2416  0.3266
 7349SOL    HW133506   2.577   1.133   8.191 -0.8140 -0.4811 -0.1220
 7349SOL    HW233507   2.723   1.073   8.197  1.1630 -0.2850 -1.7605
 7350SOL     OW33508   1.340   3.522  17.503 -0.0303 -0.5907  0.4632
 7350SOL    HW133509   1.269   3.545  17.563  0.2979 -1.0800  1.0445
 7350SOL    HW233510   1.345   3.608  17.463 -0.5010 -0.2308  1.1672
 7351SOL     OW33511   2.379   0.679   3.961  0.4233  0.8257  0.3702
 7351SOL    HW133512   2.390   0.768   3.927  1.1079  0.6522  0.1435
 7351SOL    HW233513   2.362   0.697   4.054 -1.1737 -3.2097  0.8646
 7352SOL     OW33514   2.781   0.190   1.244 -0.4117 -0.0391  0.0561
 7352SOL    HW133515   2.823   0.217   1.162 -1.0216  0.1455 -0.1972
 7352SOL    HW233516   2.707   0.138   1.214 -0.0991 -0.7403  0.4917
 7353SOL     OW33517   1.313   3.185   5.585 -0.1405  0.4031 -0.1730
 7353SOL    HW133518   1.406   3.201   5.571  0.2772 -0.7494  1.3519
 7353SOL    HW233519   1.268   3.179   5.500  1.4140  0.7506 -1.0190
 7354SOL     OW33520   3.943   0.494   7.978 -0.1555 -0.0082  0.1395
 7354SOL    HW133521   3.869   0.489   7.918  1.2357 -1.3473 -1.4461
 7354SOL    HW233522   3.962   0.400   7.984  1.4771  0.4377  2.2024
 7355SOL     OW33523   0.425   0.267  17.538 -0.2199 -0.7575  0.2192
 7355SOL    HW133524   0.347   0.212  17.549 -0.3780 -0.6487 -0.3695
 7355SOL    HW233525   0.377   0.346  17.515  0.4070 -0.4311  0.0255
 7356SOL     OW33526   0.804   1.088  10.047 -0.1941 -0.0931  0.0013
 7356SOL    HW133527   0.830   1.073  10.138 -0.6427  0.5444  0.2364
 7356SOL    HW233528   0.892   1.110  10.019  0.5477 -2.5282  0.4224
 7357SOL     OW33529   0.781   2.950   2.746  0.7943  0.1896  0.0216
 7357SOL    HW133530   0.741   2.882   2.691  1.4881  0.0140 -0.2607
 7357SOL    HW233531   0.757   2.926   2.836  0.5660  0.3096 -0.0071
 7358SOL     OW33532   4.675   0.186   2.543 -0.0794 -0.3176 -0.0446
 7358SOL    HW133533   4.687   0.116   2.479 -0.0946 -0.3342 -0.0292
 7358SOL    HW233534   4.644   0.257   2.486  0.1763  0.1862  0.4462
 7359SOL     OW33535   3.171   2.103  16.550 -0.1541 -0.3224 -0.1092
 7359SOL    HW133536   3.104   2.072  16.610 -0.7977  2.8121  0.8278
 7359SOL    HW233537   3.117   2.137  16.478  0.2515 -1.9035 -1.1577
 7360SOL     OW33538   1.215   4.034   3.518 -0.5466  0.5984 -0.0054
 7360SOL    HW133539   1.194   4.023   3.425  2.1569 -0.1552 -0.5257
 7360SOL    HW233540   1.272   4.109   3.501 -0.1957 -0.2740 -2.5963
 7361SOL     OW33541   2.150   4.589   6.825 -0.0981  0.3254 -0.1162
 7361SOL    HW133542   2.177   4.676   6.853  1.8356  0.4049 -2.2158
 7361SOL    HW233543   2.093   4.558   6.896 -1.0149 -0.2112 -1.0865
 7362SOL     OW33544   2.609   2.266   3.037  0.2267 -0.2862 -0.0535
 7362SOL    HW133545   2.590   2.215   2.959 -1.0990  0.0605  0.0481
 7362SOL    HW233546   2.550   2.235   3.106  2.1702  1.1218  2.2397
 7363SOL     OW33547   3.010   1.390  10.162 -0.3626 -0.1937 -0.3667
 7363SOL    HW133548   2.951   1.439  10.220  1.0062  1.9719 -0.8252
 7363SOL    HW233549   3.026   1.312  10.216  1.3931  0.8595  0.6423
 7364SOL     OW33550   3.262   0.996   3.551 -0.2140  0.4255 -0.0663
 7364SOL    HW133551   3.260   1.067   3.486  0.0029  0.9201  0.4722
 7364SOL    HW233552   3.233   0.928   3.490 -0.0495  0.1256  0.1880
 7365SOL     OW33553   1.057   4.335   6.330 -0.1076  0.1686  0.3150
 7365SOL    HW133554   1.062   4.397   6.403  0.6645 -1.3513  1.5535
 7365SOL    HW233555   0.984   4.365   6.276 -0.0168 -1.4089 -0.6678
 7366SOL     OW33556   2.583   4.689   1.857  0.2518 -0.4568 -0.7483
 7366SOL    HW133557   2.496   4.684   1.896  1.1887  1.5683  1.6319
 7366SOL    HW233558   2.600   4.602   1.822 -3.3514 -0.7181 -1.8418
 7367SOL     OW33559   1.664   1.064  17.379 -0.9048  0.2103 -0.3710
 7367SOL    HW133560   1.694   1.122  17.448  0.0133 -1.3409  0.5377
 7367SOL    HW233561   1.684   0.977  17.414 -0.4854 -0.3095 -1.9047
 7368SOL     OW33562   4.216   1.634   3.555 -0.1997 -0.1322  0.2500
 7368SOL    HW133563   4.183   1.631   3.645 -1.5208 -0.6737 -0.2572
 7368SOL    HW233564   4.206   1.542   3.533 -0.7631 -0.2012  0.8162
 7369SOL     OW33565   0.025   1.469   4.196  0.7079  0.4861  0.1977
 7369SOL    HW133566   0.040   1.412   4.271  0.8158 -1.3430 -1.1957
 7369SOL    HW233567   0.049   1.556   4.227  1.1456  0.0301  1.1190
 7370SOL     OW33568   2.444   1.314   0.159  0.2017  0.4615  0.4544
 7370SOL    HW133569   2.450   1.293   0.252  1.8014 -1.2397 -0.0362
 7370SOL    HW233570   2.504   1.386   0.145 -0.9234  1.9410  3.3615
 7371SOL     OW33571   3.742   4.211   3.406  0.1009  0.7566  0.3652
 7371SOL    HW133572   3.661   4.224   3.455 -1.4567 -0.5212 -1.8665
 7371SOL    HW233573   3.733   4.286   3.347 -2.3704  0.6062  0.5307
 7372SOL     OW33574   2.772   0.236   5.194  0.4724  0.1795 -0.0187
 7372SOL    HW133575   2.686   0.228   5.153 -0.1263 -0.8804  1.4324
 7372SOL    HW233576   2.792   0.329   5.180  1.7438 -0.2728 -1.1244
 7373SOL     OW33577   3.730   4.140  15.428  0.0754  0.0329 -0.0144
 7373SOL    HW133578   3.711   4.230  15.403  2.5335  0.3131 -0.8609
 7373SOL    HW233579   3.701   4.141  15.520  0.5155  1.5843  0.1148
 7374SOL     OW33580   0.086   4.578   8.582  0.1514 -0.0522  0.1537
 7374SOL    HW133581   0.149   4.557   8.513 -0.7917  0.5010 -0.8848
 7374SOL    HW233582   0.018   4.518   8.553  0.0124  0.4287 -0.5436
 7375SOL     OW33583   1.423   4.342   2.603  0.2678 -0.1381 -0.0648
 7375SOL    HW133584   1.465   4.365   2.686  1.6975  0.8055 -1.0408
 7375SOL    HW233585   1.491   4.355   2.537 -0.9108 -1.1920 -1.4973
 7376SOL     OW33586   1.207   4.675   6.505  0.0902 -0.0337 -0.6817
 7376SOL    HW133587   1.256   0.003   6.568  0.4494  0.3268 -1.2600
 7376SOL    HW233588   1.216   4.722   6.422 -0.3276 -0.0728 -0.7526
 7377SOL     OW33589   1.485   2.617   5.624 -0.1165 -0.0615 -0.0396
 7377SOL    HW133590   1.442   2.570   5.553 -0.9600 -1.2863  1.2670
 7377SOL    HW233591   1.472   2.707   5.597  0.3944  0.9341  3.0158
 7378SOL     OW33592   3.464   2.202  12.782  0.0978  0.3969 -0.2329
 7378SOL    HW133593   3.535   2.137  12.778  0.0113  0.1184  2.3775
 7378SOL    HW233594   3.427   2.188  12.870  1.3096 -2.6384 -0.1848
 7379SOL     OW33595   1.938   3.250   8.525 -0.0092  0.2952 -0.5602
 7379SOL    HW133596   2.033   3.254   8.517  0.0043  1.9821  0.6285
 7379SOL    HW233597   1.915   3.302   8.602 -1.8900 -1.6953  0.2463
 7380SOL     OW33598   0.127   2.812   4.679  0.1539 -0.2423 -0.4475
 7380SOL    HW133599   0.138   2.736   4.736 -0.8103  0.6571  0.9591
 7380SOL    HW233600   0.185   2.878   4.718  1.8890 -1.6667 -0.6205
 7381SOL     OW33601   4.314   0.792  13.375 -1.2171  0.3622 -0.2392
 7381SOL    HW133602   4.297   0.829  13.288  1.5304 -0.3575 -1.1066
 7381SOL    HW233603   4.392   0.741  13.350  0.0705  1.4901  1.5102
 7382SOL     OW33604   1.915   1.837  14.301 -0.1371 -0.8691 -0.3494
 7382SOL    HW133605   1.851   1.784  14.347  3.5139 -1.2188  4.3102
 7382SOL    HW233606   1.964   1.770  14.253  0.2357 -0.4802 -0.5166
 7383SOL     OW33607   0.419   2.297   2.609  0.1688 -0.1402 -0.2277
 7383SOL    HW133608   0.514   2.291   2.607  0.2823  1.3948  1.3596
 7383SOL    HW233609   0.394   2.205   2.619 -1.3741  0.4176  1.0673
 7384SOL     OW33610   2.564   1.109  13.808  0.2836  0.4918 -0.0175
 7384SOL    HW133611   2.584   1.057  13.886  2.8368  2.3371  0.5666
 7384SOL    HW233612   2.470   1.109  13.823  0.4962 -0.5148  1.3972
 7385SOL     OW33613   2.352   3.763   1.836 -0.6294  0.4252 -0.5580
 7385SOL    HW133614   2.373   3.854   1.858  1.5212 -0.0792 -0.5028
 7385SOL    HW233615   2.338   3.769   1.742 -0.5738  0.9271 -0.5344
 7386SOL     OW33616   2.384   2.177   3.162 -0.5209 -0.1423 -0.2344
 7386SOL    HW133617   2.301   2.221   3.146  0.2509  0.7061 -1.8388
 7386SOL    HW233618   2.370   2.085   3.139 -4.3805  0.5039 -0.3995
 7387SOL     OW33619   1.251   4.487   5.770 -0.0992 -0.3667  0.0838
 7387SOL    HW133620   1.280   4.450   5.853  3.6599  0.2554 -0.9483
 7387SOL    HW233621   1.282   4.418   5.711 -0.9400  0.8715 -1.8031
 7388SOL     OW33622   1.361   1.744   2.024 -0.7421  0.0511 -0.0592
 7388SOL    HW133623   1.445   1.785   2.002 -0.3378 -0.9381 -0.3557
 7388SOL    HW233624   1.321   1.756   1.938 -0.9493 -1.5753 -0.1781
 7389SOL     OW33625   2.715   0.637   1.103 -0.4979  0.1441 -0.1252
 7389SOL    HW133626   2.721   0.573   1.173 -3.9494 -1.3700 -1.1746
 7389SOL    HW233627   2.789   0.610   1.049  1.0370  0.7642  1.6964
 7390SOL     OW33628   1.892   3.763   9.580  0.3826  0.3939 -0.0017
 7390SOL    HW133629   1.950   3.823   9.627 -0.1325  0.2919  0.7749
 7390SOL    HW233630   1.946   3.746   9.503  1.7671 -0.4931  1.1623
 7391SOL     OW33631   2.448   0.422   6.093 -0.3817 -0.3214  0.3353
 7391SOL    HW133632   2.490   0.350   6.142  1.4979  1.8814  1.9601
 7391SOL    HW233633   2.448   0.382   6.006  2.7851  0.3010  0.0420
 7392SOL     OW33634   2.524   3.800   8.216  0.0051 -0.1127  0.3423
 7392SOL    HW133635   2.594   3.737   8.233 -0.3167 -0.8194 -0.9555
 7392SOL    HW233636   2.456   3.745   8.255 -0.0787 -1.5201 -1.7908
 7393SOL     OW33637   1.939   2.304   8.400  0.4704 -0.4686  0.1213
 7393SOL    HW133638   1.881   2.379   8.404 -0.0103 -0.7241 -2.0871
 7393SOL    HW233639   2.019   2.344   8.435  1.9014 -2.7511 -0.4709
 7394SOL     OW33640   0.406   2.204   8.685  0.1958 -0.1496 -0.0771
 7394SOL    HW133641   0.334   2.141   8.687  0.7165 -0.7413  0.0056
 7394SOL    HW233642   0.442   2.195   8.597  0.5252 -2.1363  0.2762
 7395SOL     OW33643   2.808   0.932   1.231  0.2140  0.3331 -0.1586
 7395SOL    HW133644   2.845   0.975   1.154  1.9378  0.6389  0.8563
 7395SOL    HW233645   2.843   0.844   1.212  2.0893  1.4138 -1.6865
 7396SOL     OW33646   1.534   0.626   5.465 -0.1229 -0.7850  0.1578
 7396SOL    HW133647   1.529   0.716   5.496 -2.1677 -0.9117  0.1615
 7396SOL    HW233648   1.556   0.587   5.549 -2.2870 -1.6703  0.3119
 7397SOL     OW33649   3.880   4.645   8.723  0.2313 -0.6202 -0.2904
 7397SOL    HW133650   3.784   4.644   8.729  0.0496 -0.2525 -3.3267
 7397SOL    HW233651   3.900   4.601   8.806  1.5276 -0.0521 -0.3128
 7398SOL     OW33652   3.219   2.319   4.882 -0.9090 -0.0927 -0.6216
 7398SOL    HW133653   3.277   2.335   4.807  0.0308  0.1140  0.1551
 7398SOL    HW233654   3.136   2.355   4.852 -0.8696 -1.6297 -2.5678
 7399SOL     OW33655   2.255   4.635  16.684  0.7880 -0.1193 -0.1334
 7399SOL    HW133656   2.314   4.644  16.609  0.0136  1.3383 -0.5672
 7399SOL    HW233657   2.316   4.609  16.753  1.6285  0.2918 -0.7209
 7400SOL     OW33658   3.565   1.402  14.793 -0.0254  0.1944  0.2044
 7400SOL    HW133659   3.626   1.463  14.834  0.3643 -0.6438  0.8621
 7400SOL    HW233660   3.513   1.452  14.729  0.2015 -0.2660 -0.3350
 7401SOL     OW33661   2.076   1.666   9.253  0.4011 -0.2365 -0.5020
 7401SOL    HW133662   2.145   1.728   9.231  1.1209 -1.5240 -1.9161
 7401SOL    HW233663   2.020   1.682   9.177 -0.8066  0.9187  0.6405
 7402SOL     OW33664   2.442   2.210   0.404  0.8835  0.0780  0.1697
 7402SOL    HW133665   2.402   2.263   0.335  2.6786 -0.6611 -1.4437
 7402SOL    HW233666   2.480   2.137   0.355  1.5737  1.0772 -0.7931
 7403SOL     OW33667   0.797   0.698   3.068  0.4505  0.1639  0.0136
 7403SOL    HW133668   0.880   0.711   3.022  0.1807 -1.7306 -1.0316
 7403SOL    HW233669   0.739   0.691   2.991  1.1148  1.5380 -0.6081
 7404SOL     OW33670   1.895   4.195   9.660  0.1671  0.0464 -0.3278
 7404SOL    HW133671   1.864   4.159   9.743  0.2225  2.9357  0.9583
 7404SOL    HW233672   1.985   4.167   9.646  0.5690  0.8855  0.6243
 7405SOL     OW33673   3.400   3.844  14.449 -0.1337 -0.2744 -0.9809
 7405SOL    HW133674   3.457   3.777  14.486  0.4549 -0.7394 -2.7064
 7405SOL    HW233675   3.465   3.914  14.442  0.5258 -0.8029 -0.0997
 7406SOL     OW33676   4.194   3.171  12.595  0.1286 -0.2096  0.2805
 7406SOL    HW133677   4.258   3.223  12.644 -0.1727  0.2098  0.2266
 7406SOL    HW233678   4.256   3.132  12.533  0.4971  0.7910  0.0242
 7407SOL     OW33679   1.831   1.210   8.884 -0.4204 -0.6311 -0.2107
 7407SOL    HW133680   1.819   1.304   8.874 -1.2531 -0.7541 -0.3638
 7407SOL    HW233681   1.913   1.197   8.931 -0.6289 -1.4164 -0.0561
 7408SOL     OW33682   0.724   1.168   3.981  0.0168 -0.6396 -0.2613
 7408SOL    HW133683   0.734   1.102   3.913 -1.3343 -0.9123 -0.1936
 7408SOL    HW233684   0.758   1.122   4.058  0.0735  1.2033  0.8126
 7409SOL     OW33685   4.276   1.516  17.044 -0.3203 -0.8034 -0.6104
 7409SOL    HW133686   4.305   1.547  17.130  0.8196 -1.5019 -0.7422
 7409SOL    HW233687   4.230   1.591  17.006 -3.3236 -1.2553  2.0651
 7410SOL     OW33688   3.690   1.274   5.888 -0.8075  0.5182 -0.6001
 7410SOL    HW133689   3.634   1.338   5.933 -1.0400 -2.2137  3.0331
 7410SOL    HW233690   3.644   1.273   5.804 -1.3078  2.0526 -0.3536
 7411SOL     OW33691   3.347   1.353   4.114  0.2622  0.1704 -0.3690
 7411SOL    HW133692   3.272   1.408   4.098  0.8291  1.0982  0.1574
 7411SOL    HW233693   3.402   1.380   4.041 -0.5210  2.9088  0.0791
 7412SOL     OW33694   1.752   2.144  13.994  0.3175  0.7468  0.0089
 7412SOL    HW133695   1.688   2.090  14.041  0.4848  1.1975  0.7554
 7412SOL    HW233696   1.732   2.114  13.906 -0.8719 -0.3720  0.6621
 7413SOL     OW33697   0.436   1.067  12.729 -0.1349 -0.6209  0.0061
 7413SOL    HW133698   0.516   1.060  12.782 -0.3446 -0.4347  0.3440
 7413SOL    HW233699   0.452   1.153  12.690 -2.9834  0.2403  0.7407
 7414SOL     OW33700   2.152   0.394   1.440 -0.2141  0.6412 -0.2464
 7414SOL    HW133701   2.243   0.387   1.470 -0.7930  1.5397  1.7050
 7414SOL    HW233702   2.172   0.413   1.349  2.5194  1.6328  0.5607
 7415SOL     OW33703   1.561   1.308  15.832 -0.2697 -0.7766  0.6058
 7415SOL    HW133704   1.469   1.325  15.854 -0.8604 -0.0271 -2.4189
 7415SOL    HW233705   1.609   1.360  15.896 -1.2312  1.2584 -0.3187
 7416SOL     OW33706   2.696   3.152  14.252 -0.1760  0.1211 -0.0337
 7416SOL    HW133707   2.743   3.220  14.204  0.8995 -1.5807 -1.3974
 7416SOL    HW233708   2.626   3.200  14.296  0.5234  0.8621  0.2635
 7417SOL     OW33709   2.238   1.949   8.558 -0.6798 -0.1789  0.6907
 7417SOL    HW133710   2.273   2.037   8.568  2.2946 -0.9987 -2.9533
 7417SOL    HW233711   2.172   1.958   8.627 -2.0495 -0.3748 -0.5939
 7418SOL     OW33712   2.896   3.767   2.997 -0.5012 -0.6001  0.1380
 7418SOL    HW133713   2.819   3.747   3.051 -0.1857 -1.8908  0.1120
 7418SOL    HW233714   2.934   3.847   3.032  0.2832 -1.3421  1.0068
 7419SOL     OW33715   0.432   1.917   7.984 -0.0236  0.3170  0.5963
 7419SOL    HW133716   0.354   1.898   8.037 -0.6743  1.4487  0.0600
 7419SOL    HW233717   0.391   1.978   7.923 -0.7894 -0.4466  0.3542
 7420SOL     OW33718   4.023   2.129   6.669  0.8134  0.0037  0.6890
 7420SOL    HW133719   4.043   2.038   6.690  1.1394  0.0953  0.7842
 7420SOL    HW233720   3.980   2.159   6.749  1.0990  0.4998  0.6582
 7421SOL     OW33721   1.703   1.410  16.038  0.2356 -0.4391 -0.0888
 7421SOL    HW133722   1.786   1.437  16.078  0.6041  1.8730 -2.4498
 7421SOL    HW233723   1.673   1.370  16.120  0.7547 -0.8329 -0.0882
 7422SOL     OW33724   4.180   2.652   5.910 -0.2579 -0.0836 -0.3704
 7422SOL    HW133725   4.218   2.714   5.848 -1.6667 -0.3103 -1.4665
 7422SOL    HW233726   4.095   2.638   5.869  1.0528 -0.9555 -2.8192
 7423SOL     OW33727   1.312   2.571   3.138 -0.3682  0.0244  1.1448
 7423SOL    HW133728   1.368   2.534   3.207  0.3805 -2.6002 -0.8618
 7423SOL    HW233729   1.320   2.501   3.073 -0.2592 -1.0823  2.3492
 7424SOL     OW33730   1.771   2.164  10.826  0.0446  0.0864  0.7062
 7424SOL    HW133731   1.715   2.133  10.754  3.3544 -0.4001 -1.6612
 7424SOL    HW233732   1.761   2.097  10.893 -1.0761  1.0479  1.4747
 7425SOL     OW33733   2.134   1.135   9.873 -0.1645 -0.2241 -0.0677
 7425SOL    HW133734   2.107   1.161   9.961  2.1378  0.9370  0.2690
 7425SOL    HW233735   2.066   1.178   9.821  1.7349  1.5692 -1.0300
 7426SOL     OW33736   3.244   0.734   4.634 -0.2788 -0.2073  0.2333
 7426SOL    HW133737   3.280   0.675   4.569 -0.0203  0.8137 -0.5499
 7426SOL    HW233738   3.275   0.690   4.713 -1.8502  0.6300  1.3140
 7427SOL     OW33739   0.398   0.167  15.054  0.1142 -0.1438 -0.3152
 7427SOL    HW133740   0.329   0.119  15.008 -1.2632  1.7520 -0.2068
 7427SOL    HW233741   0.368   0.257  15.068  2.6685  0.6508 -0.0603
 7428SOL     OW33742   4.393   3.163  13.750  0.2326 -0.0141 -0.1802
 7428SOL    HW133743   4.308   3.207  13.758 -0.9358 -2.0414 -1.4733
 7428SOL    HW233744   4.437   3.202  13.675  0.8471 -1.4648 -0.5659
 7429SOL     OW33745   4.096   2.467  10.734 -0.3648  0.2239  0.2151
 7429SOL    HW133746   4.015   2.420  10.756 -0.6680  1.0439  0.8656
 7429SOL    HW233747   4.135   2.476  10.821 -0.4600  0.3973  0.2399
 7430SOL     OW33748   2.847   1.270   5.788  0.2140 -0.4725 -0.9286
 7430SOL    HW133749   2.936   1.297   5.767  0.0136  1.3519  0.6222
 7430SOL    HW233750   2.857   1.175   5.787  0.0727 -0.5555  3.8143
 7431SOL     OW33751   4.449   4.637   4.678 -0.2029  0.0049  0.1808
 7431SOL    HW133752   4.447   4.671   4.768 -3.1747  0.0607  0.0971
 7431SOL    HW233753   4.435   4.545   4.699 -0.0511 -0.3317 -1.1977
 7432SOL     OW33754   3.479   2.682   1.357 -0.3042  0.1136  0.0171
 7432SOL    HW133755   3.566   2.644   1.343 -0.3891 -0.3055  0.6417
 7432SOL    HW233756   3.500   2.713   1.445  1.2306 -0.6393 -0.0917
 7433SOL     OW33757   4.704   1.560   8.784 -0.4342  0.5571  0.3493
 7433SOL    HW133758   4.721   1.532   8.874  1.3490 -2.5965 -0.9771
 7433SOL    HW233759   4.610   1.576   8.779 -0.6456 -0.5502  0.9500
 7434SOL     OW33760   1.191   2.158   6.427  0.0573 -0.0228 -0.1814
 7434SOL    HW133761   1.236   2.129   6.347  0.2157  1.2819 -0.5737
 7434SOL    HW233762   1.251   2.224   6.461 -0.0784 -0.9584  1.8540
 7435SOL     OW33763   3.547   4.621  10.838 -0.4831 -0.4137  0.5462
 7435SOL    HW133764   3.452   4.624  10.829 -0.4634 -2.6226 -0.2702
 7435SOL    HW233765   3.558   4.608  10.933  0.3372 -0.8589  0.3877
 7436SOL     OW33766   2.921   0.483  12.324  0.5002  0.4173 -0.4220
 7436SOL    HW133767   2.975   0.560  12.310  0.3202  0.6077 -0.0687
 7436SOL    HW233768   2.915   0.473  12.419  1.2185 -0.9473 -0.5280
 7437SOL     OW33769   3.810   0.095   8.271  0.0041 -0.4794  0.3022
 7437SOL    HW133770   3.733   0.123   8.221 -0.1140  0.9894  1.3159
 7437SOL    HW233771   3.767   0.082   8.356 -1.1530 -0.6976 -0.3196
 7438SOL     OW33772   3.689   0.688   9.403 -0.0251 -0.5704  0.0193
 7438SOL    HW133773   3.754   0.638   9.453  1.7475  1.4671 -0.2446
 7438SOL    HW233774   3.708   0.668   9.312  0.0510  1.2331 -0.3555
 7439SOL     OW33775   4.017   2.752   2.216 -0.7105  0.0653 -0.6040
 7439SOL    HW133776   4.082   2.814   2.183 -1.4943  2.6280  2.5725
 7439SOL    HW233777   3.941   2.803   2.244 -0.3844  0.2344 -0.0123
 7440SOL     OW33778   2.586   1.946   9.424 -0.0736  0.1772 -0.1002
 7440SOL    HW133779   2.521   1.877   9.440 -1.8777  1.5640 -1.3963
 7440SOL    HW233780   2.570   1.959   9.330  2.8987 -0.8992 -0.7293
 7441SOL     OW33781   2.591   2.162   2.340  0.1261  0.5819  0.3461
 7441SOL    HW133782   2.672   2.208   2.318  0.0844  1.0039  1.0787
 7441SOL    HW233783   2.543   2.164   2.257 -2.3013 -0.1711  1.7429
 7442SOL     OW33784   3.330   2.147  12.312 -0.3574  0.1538  0.0210
 7442SOL    HW133785   3.315   2.197  12.392 -0.4294  0.1115  0.0340
 7442SOL    HW233786   3.416   2.105  12.319 -0.2186  0.2511 -1.1154
 7443SOL     OW33787   2.533   0.667   7.891 -0.2265  0.1150 -0.3247
 7443SOL    HW133788   2.451   0.622   7.914  0.1775 -0.4197  0.0664
 7443SOL    HW233789   2.490   0.752   7.901  1.1439  0.8015 -0.4033
 7444SOL     OW33790   3.619   0.748  13.796 -0.2942 -0.7741  0.4140
 7444SOL    HW133791   3.687   0.724  13.859 -1.1198 -0.7639  1.3066
 7444SOL    HW233792   3.581   0.829  13.829  2.7995  0.8307  0.0685
 7445SOL     OW33793   1.604   0.030   7.525  0.3425 -0.3192 -0.2048
 7445SOL    HW133794   1.576   0.095   7.589  0.0491  0.4680 -1.1284
 7445SOL    HW233795   1.696   0.021   7.553  0.4263 -1.6422 -0.8759
 7446SOL     OW33796   3.541   0.243   7.259 -0.6365  0.4327  0.5697
 7446SOL    HW133797   3.477   0.291   7.206 -2.6354 -0.2755  2.3696
 7446SOL    HW233798   3.608   0.312   7.261 -0.6259  0.4482 -0.6907
 7447SOL     OW33799   3.666   1.659   5.197  0.2179 -0.2153  0.4559
 7447SOL    HW133800   3.730   1.689   5.132  0.7166  0.9941  1.5140
 7447SOL    HW233801   3.724   1.655   5.273 -0.8072 -1.4606  1.1599
 7448SOL     OW33802   0.998   1.631   4.125  0.3426  0.7081  0.2906
 7448SOL    HW133803   0.954   1.594   4.048 -0.5437 -0.1024  1.1976
 7448SOL    HW233804   0.998   1.722   4.095  0.6673  0.4565 -0.4882
 7449SOL     OW33805   0.873   0.117  10.295 -0.6294  0.0464  0.1216
 7449SOL    HW133806   0.794   0.075  10.260  0.2341 -1.1157 -0.4336
 7449SOL    HW233807   0.935   0.046  10.275  0.7693  1.2502  0.1798
 7450SOL     OW33808   3.282   0.741   3.984  0.0114 -0.0210 -0.1132
 7450SOL    HW133809   3.265   0.716   4.075  0.0696  0.8734  0.1411
 7450SOL    HW233810   3.242   0.826   3.970  1.6312  1.1039  2.0315
 7451SOL     OW33811   1.245   2.428  16.189 -0.0085  0.2385 -0.9545
 7451SOL    HW133812   1.288   2.408  16.273 -0.8394 -2.3913 -1.1535
 7451SOL    HW233813   1.274   2.349  16.143  0.8109 -0.0145 -0.0218
 7452SOL     OW33814   3.434   4.440   1.592 -0.3400  0.2389 -0.4420
 7452SOL    HW133815   3.476   4.356   1.572 -0.2266  1.0080 -3.4018
 7452SOL    HW233816   3.492   4.499   1.544 -0.7625 -0.0205 -1.2819
 7453SOL     OW33817   1.441   2.853   4.119  0.2604  0.5562  0.1759
 7453SOL    HW133818   1.346   2.864   4.130 -0.0921 -3.2858  0.9876
 7453SOL    HW233819   1.448   2.785   4.053 -1.0797 -1.3347  1.9615
 7454SOL     OW33820   4.121   0.397   9.256  0.6044 -0.1689  0.5341
 7454SOL    HW133821   4.194   0.380   9.316  1.3422  0.7742 -0.0840
 7454SOL    HW233822   4.048   0.416   9.314  2.5576  1.9181  2.3198
 7455SOL     OW33823   1.021   4.259   0.552  0.2667 -0.1939  0.2971
 7455SOL    HW133824   1.070   4.236   0.631  1.2493  0.5348 -0.1023
 7455SOL    HW233825   0.993   4.171   0.527  1.8186 -0.9497  1.2131
 7456SOL     OW33826   4.377   4.285   8.714  0.5595 -0.0519 -0.0616
 7456SOL    HW133827   4.411   4.317   8.797  0.8358 -0.2165 -0.1128
 7456SOL    HW233828   4.378   4.364   8.660  0.2816 -0.2172 -0.3113
 7457SOL     OW33829   2.447   0.596   1.432 -0.8941 -0.0615  0.2855
 7457SOL    HW133830   2.526   0.560   1.392 -0.4414  0.9945  0.2251
 7457SOL    HW233831   2.425   0.525   1.493 -0.3239 -2.0280 -1.7795
 7458SOL     OW33832   0.586   2.994   6.707  0.5735 -0.2476 -0.1708
 7458SOL    HW133833   0.615   2.936   6.636 -0.0333  1.5764 -1.9345
 7458SOL    HW233834   0.492   2.986   6.693  0.3813 -0.4296  1.2579
 7459SOL     OW33835   3.160   0.090   8.287 -0.0284 -0.1381  0.3543
 7459SOL    HW133836   3.151   0.095   8.192  0.0914  1.8205  0.4426
 7459SOL    HW233837   3.248   0.120   8.312  1.1496 -0.7103 -3.0395
 7460SOL     OW33838   2.248   3.241  12.900  0.4175 -0.4042  0.3240
 7460SOL    HW133839   2.180   3.236  12.967 -0.9779  2.0977 -0.9222
 7460SOL    HW233840   2.253   3.152  12.864  1.6836 -0.5901  0.9545
 7461SOL     OW33841   2.196   2.426  11.199  0.7113  0.2363 -0.4069
 7461SOL    HW133842   2.214   2.407  11.291  1.5289 -1.3362 -0.8838
 7461SOL    HW233843   2.287   2.439  11.173  0.7766  2.1909  0.8533
 7462SOL     OW33844   3.189   0.457   6.406  0.2994  0.3034  0.0691
 7462SOL    HW133845   3.167   0.538   6.452 -1.9941 -1.1944  1.5769
 7462SOL    HW233846   3.250   0.491   6.340 -0.3488  1.7191  0.1954
 7463SOL     OW33847   1.362   1.807   5.536  0.3310 -0.1744  0.5809
 7463SOL    HW133848   1.458   1.814   5.539  0.2372  0.6314  1.5182
 7463SOL    HW233849   1.362   1.717   5.502 -0.0714 -0.5665  1.6274
 7464SOL     OW33850   1.026   0.020  10.701  0.1204 -0.2206 -0.1979
 7464SOL    HW133851   1.028   0.115  10.712 -0.2531 -0.2191 -0.1593
 7464SOL    HW233852   0.954   4.720  10.644 -0.8291  0.5616  0.6650
 7465SOL     OW33853   2.561   0.855  12.564  0.2842 -0.2746 -0.6002
 7465SOL    HW133854   2.629   0.801  12.525 -0.8225 -1.5386 -0.7911
 7465SOL    HW233855   2.483   0.818  12.522 -0.3173  1.2030 -0.7730
 7466SOL     OW33856   2.890   4.561   9.511 -0.3603  0.1954 -0.5323
 7466SOL    HW133857   2.967   4.608   9.541 -1.8292  1.3864  1.3878
 7466SOL    HW233858   2.938   4.485   9.479  0.0515 -0.3584  1.3811
 7467SOL     OW33859   4.165   3.870   7.109  0.3327 -0.3966 -0.1298
 7467SOL    HW133860   4.257   3.844   7.112  0.5958  0.6215  0.5003
 7467SOL    HW233861   4.149   3.875   7.014 -1.2696 -0.4099  0.1320
 7468SOL     OW33862   0.821   0.296  17.667  0.2168  0.0295 -0.1695
 7468SOL    HW133863   0.746   0.249   0.005  0.0008  0.1596 -0.4347
 7468SOL    HW233864   0.775   0.352  17.604 -1.1831  0.3901  1.1553
 7469SOL     OW33865   0.426   4.327   7.213 -0.2435  0.8694  0.3189
 7469SOL    HW133866   0.362   4.397   7.206  0.1489  1.3904  1.9756
 7469SOL    HW233867   0.380   4.246   7.192 -0.3132  0.8637  0.4909
 7470SOL     OW33868   4.186   3.831   8.398 -0.0308 -0.0034  0.4700
 7470SOL    HW133869   4.234   3.913   8.389 -0.5846  0.2777  0.1630
 7470SOL    HW233870   4.232   3.773   8.336 -0.7213  0.0246 -0.0604
 7471SOL     OW33871   2.972   2.809   8.153  0.6315 -0.1636  0.4283
 7471SOL    HW133872   2.893   2.771   8.114  1.3775 -2.6415  1.3732
 7471SOL    HW233873   3.042   2.794   8.089  0.2791 -2.9634  0.6945
 7472SOL     OW33874   4.577   4.141  12.258 -0.4254 -0.6276 -0.2874
 7472SOL    HW133875   4.588   4.091  12.177 -1.8728 -1.3699 -0.0191
 7472SOL    HW233876   4.520   4.076  12.300 -0.8044 -0.3652 -0.3953
 7473SOL     OW33877   2.473   3.018   8.167  0.2870  0.7825 -0.1938
 7473SOL    HW133878   2.475   2.986   8.077  1.2897 -0.9123  0.4297
 7473SOL    HW233879   2.384   3.051   8.179 -1.1758 -3.9122  1.7092
 7474SOL     OW33880   0.561   0.500   9.023 -0.6909 -0.2686  0.0142
 7474SOL    HW133881   0.525   0.446   9.094 -0.0037  0.7126  1.1007
 7474SOL    HW233882   0.483   0.551   9.003  0.4833  1.4956 -0.0064
 7475SOL     OW33883   4.019   0.252   7.392  0.0180 -0.1061  0.2108
 7475SOL    HW133884   3.997   0.253   7.299  2.3957  0.8683 -0.3377
 7475SOL    HW233885   3.992   0.162   7.409 -0.7395 -0.2193 -1.5559
 7476SOL     OW33886   4.315   1.027  14.238  0.2492 -0.0505  0.3054
 7476SOL    HW133887   4.269   1.058  14.315 -0.2352 -0.0280  0.0068
 7476SOL    HW233888   4.276   1.068  14.160 -1.2579 -1.2045  0.4809
 7477SOL     OW33889   0.114   3.662  15.706  0.3690 -0.0511  0.0606
 7477SOL    HW133890   0.150   3.747  15.681 -1.7756  1.8269  3.2035
 7477SOL    HW233891   0.067   3.641  15.625  1.7462  0.8411 -0.9675
 7478SOL     OW33892   3.502   2.884   1.134 -0.3250 -0.1246 -0.8386
 7478SOL    HW133893   3.486   2.810   1.192 -0.6083  0.6979  0.1203
 7478SOL    HW233894   3.414   2.920   1.124 -0.5252 -0.6319 -0.9002
 7479SOL     OW33895   1.203   1.661  10.281 -0.3334  0.6169 -0.4586
 7479SOL    HW133896   1.201   1.596  10.210  0.0724  1.7483 -1.5138
 7479SOL    HW233897   1.147   1.625  10.349 -1.2648 -0.2139 -1.6685
 7480SOL     OW33898   1.333   4.134   7.588 -0.8342 -0.3291  0.2060
 7480SOL    HW133899   1.284   4.101   7.663 -1.2239 -0.5778 -0.1614
 7480SOL    HW233900   1.426   4.123   7.607 -0.9352 -1.4298  0.0742
 7481SOL     OW33901   2.500   0.793  14.526  0.0541  0.5348 -0.3616
 7481SOL    HW133902   2.492   0.707  14.568  2.1251 -0.1596 -1.3709
 7481SOL    HW233903   2.539   0.770  14.442  0.8921  0.7591 -0.0370
 7482SOL     OW33904   0.897   3.593   7.579  0.5681 -0.1478  0.3706
 7482SOL    HW133905   0.824   3.620   7.634 -0.4783 -0.1307 -1.0382
 7482SOL    HW233906   0.959   3.569   7.648  0.1593  2.5930  1.6804
 7483SOL     OW33907   1.918   1.682   8.969 -0.3953  0.9313 -0.1846
 7483SOL    HW133908   1.875   1.767   8.961 -2.3875  0.1229  2.0624
 7483SOL    HW233909   1.856   1.642   8.908  0.2800  0.9772 -0.9046
 7484SOL     OW33910   4.442   0.832   9.739 -0.1159 -0.0118  0.2698
 7484SOL    HW133911   4.424   0.924   9.719  0.7909 -0.0520 -0.7840
 7484SOL    HW233912   4.384   0.817   9.813 -1.6799 -1.3928 -1.2433
 7485SOL     OW33913   2.619   0.026   6.964 -0.1882 -0.4910 -0.0035
 7485SOL    HW133914   2.681   0.076   6.911  0.4583 -1.9990 -0.6604
 7485SOL    HW233915   2.549   0.037   6.900  0.6030 -0.0542 -0.7923
 7486SOL     OW33916   3.340   1.709  17.303  0.1901 -0.8923  0.4942
 7486SOL    HW133917   3.386   1.629  17.276 -0.0673 -0.7152 -0.4907
 7486SOL    HW233918   3.252   1.671  17.307  0.1778 -0.8783  0.3632
 7487SOL     OW33919   3.344   4.073   0.101  0.5067 -0.3725  0.1022
 7487SOL    HW133920   3.396   3.993   0.109 -0.2498 -0.5931  2.5964
 7487SOL    HW233921   3.277   4.041   0.040  1.0906 -1.1484 -0.1329
 7488SOL     OW33922   3.231   2.148   2.073 -0.0453 -0.6359  0.3846
 7488SOL    HW133923   3.306   2.093   2.094  1.1038  0.5956 -0.4992
 7488SOL    HW233924   3.266   2.234   2.050 -2.2999  0.4871  1.0858
 7489SOL     OW33925   0.496   4.278   0.452  0.6825 -0.0635 -0.2077
 7489SOL    HW133926   0.429   4.211   0.437  0.0569  0.4702  0.2139
 7489SOL    HW233927   0.583   4.239   0.459  1.5278  1.3088 -3.0689
 7490SOL     OW33928   4.677   0.069   9.241  0.0474  0.1897 -0.1529
 7490SOL    HW133929   4.586   0.065   9.271  0.3117 -1.1177  0.4341
 7490SOL    HW233930   4.703   0.155   9.276  0.5379 -0.2033  0.4386
 7491SOL     OW33931   0.159   2.406   6.365  0.3469  0.5030 -0.2344
 7491SOL    HW133932   0.161   2.360   6.281 -2.3677  0.1355 -0.0976
 7491SOL    HW233933   0.255   2.410   6.372  0.0963  0.8292  3.0803
 7492SOL     OW33934   4.138   1.593   4.503  0.6069 -0.3322 -0.5570
 7492SOL    HW133935   4.140   1.660   4.434 -3.3940 -1.1810 -1.4783
 7492SOL    HW233936   4.049   1.560   4.498  0.1211  1.1137 -1.6248
 7493SOL     OW33937   1.189   4.338   2.777 -0.0528  0.0120 -0.0865
 7493SOL    HW133938   1.232   4.255   2.755 -1.3831 -0.8511  0.5518
 7493SOL    HW233939   1.140   4.346   2.696  0.2270 -0.4590 -0.3038
 7494SOL     OW33940   0.012   3.871   6.834 -0.1597  0.3913  0.0199
 7494SOL    HW133941   0.099   3.882   6.795  0.2479  1.7774  1.3172
 7494SOL    HW233942   0.032   3.899   6.923  1.5006 -1.3392  0.1801
 7495SOL     OW33943   2.561   1.789   5.674  0.5387  0.0435 -0.2467
 7495SOL    HW133944   2.541   1.710   5.725 -2.6510 -0.8170 -2.8165
 7495SOL    HW233945   2.472   1.812   5.646  1.1181  2.6410  0.0395
 7496SOL     OW33946   3.533   2.796   8.717  0.6377 -0.2002 -0.2713
 7496SOL    HW133947   3.532   2.801   8.813  1.2208  1.7164 -0.3699
 7496SOL    HW233948   3.491   2.712   8.697 -0.4121  0.0623  0.8405
 7497SOL     OW33949   2.610   3.721   9.306  0.1969  0.2104  0.4808
 7497SOL    HW133950   2.538   3.690   9.251  0.5763 -2.6081  1.5814
 7497SOL    HW233951   2.581   3.707   9.396  0.7506 -0.3732  0.5672
 7498SOL     OW33952   4.216   1.404   7.502  0.2492  0.1759  0.3309
 7498SOL    HW133953   4.217   1.341   7.431 -1.3307  1.2686 -0.6417
 7498SOL    HW233954   4.265   1.476   7.461 -1.6067  0.6104 -1.0801
 7499SOL     OW33955   2.833   1.211   4.686  0.0844 -0.7001 -0.2445
 7499SOL    HW133956   2.795   1.124   4.672 -0.7528 -0.3524 -0.0990
 7499SOL    HW233957   2.787   1.229   4.768  0.7082 -1.9295  0.3750
 7500SOL     OW33958   2.305   0.445   8.414 -0.4883  0.1090 -0.1966
 7500SOL    HW133959   2.340   0.515   8.358 -0.0437 -0.3262 -0.4724
 7500SOL    HW233960   2.345   0.364   8.381  1.2743  0.7011  0.4970
 7501SOL     OW33961   2.142   4.484   3.850  0.1983  0.0451  0.1843
 7501SOL    HW133962   2.190   4.406   3.822 -1.1284 -1.0491  0.9545
 7501SOL    HW233963   2.199   4.552   3.814 -1.6165  0.8821 -1.1487
 7502SOL     OW33964   1.009   0.777  14.313 -0.5256 -0.5355 -0.4638
 7502SOL    HW133965   1.083   0.835  14.331 -2.1513  1.1577  0.7770
 7502SOL    HW233966   1.047   0.690  14.307 -2.5632 -1.5435  1.0927
 7503SOL     OW33967   4.163   3.598   7.249  1.1650 -0.2944  0.6095
 7503SOL    HW133968   4.154   3.679   7.199  1.8690 -1.2463 -1.0462
 7503SOL    HW233969   4.172   3.643   7.333  2.4575  1.4751 -0.4814
 7504SOL     OW33970   1.518   0.377   2.133 -0.1083  0.4640  0.0654
 7504SOL    HW133971   1.584   0.316   2.098 -1.2363  0.8849 -2.7617
 7504SOL    HW233972   1.481   0.317   2.198 -1.5063  0.5008 -0.7031
 7505SOL     OW33973   2.726   0.075   4.899  0.0173  0.8057 -0.0069
 7505SOL    HW133974   2.707   0.008   4.965 -0.4539  1.1907  0.2489
 7505SOL    HW233975   2.819   0.061   4.880 -0.2239 -1.5987  0.5312
 7506SOL     OW33976   4.559   3.343   7.693 -0.4066 -1.0512 -0.2851
 7506SOL    HW133977   4.577   3.356   7.786 -1.9280 -0.3408 -0.1021
 7506SOL    HW233978   4.626   3.276   7.677  1.1805  0.3270  0.5237
 7507SOL     OW33979   1.116   1.105   2.748  0.6172  0.1310  0.3023
 7507SOL    HW133980   1.114   1.040   2.818  3.4164 -2.4438 -2.0284
 7507SOL    HW233981   1.041   1.087   2.692 -0.3276  1.4324  1.1487
 7508SOL     OW33982   2.020   0.625  10.751 -0.3289  0.6145 -0.9444
 7508SOL    HW133983   2.065   0.674  10.683  0.6775  2.7296  1.2562
 7508SOL    HW233984   2.051   0.681  10.822  2.0866 -0.4535 -1.1166
 7509SOL     OW33985   2.437   1.631  17.648  0.5039 -1.3225 -0.6566
 7509SOL    HW133986   2.464   1.718  17.621 -0.9217 -1.1050 -1.3538
 7509SOL    HW233987   2.453   1.635   0.043 -0.5808 -1.5545 -0.4652
 7510SOL     OW33988   2.533   3.407  14.312 -0.2526 -0.2657  0.7997
 7510SOL    HW133989   2.628   3.411  14.325 -0.1722  0.8421 -0.1164
 7510SOL    HW233990   2.498   3.471  14.374  0.4423  1.9343 -1.0781
 7511SOL     OW33991   3.269   0.745   5.690  0.0720 -0.4876  0.5006
 7511SOL    HW133992   3.321   0.737   5.769 -0.6320  0.3468  1.0374
 7511SOL    HW233993   3.337   0.719   5.627  0.3592 -0.7547  0.9221
 7512SOL     OW33994   2.654   1.608  15.092 -0.3971 -0.3639 -0.1921
 7512SOL    HW133995   2.597   1.665  15.144 -1.3665 -1.3798 -0.1189
 7512SOL    HW233996   2.587   1.547  15.059  2.9031 -4.4485  0.6421
 7513SOL     OW33997   1.334   4.115   4.116 -0.6083  0.3185  0.1078
 7513SOL    HW133998   1.368   4.134   4.203  3.4705 -1.6143 -1.0759
 7513SOL    HW233999   1.419   4.095   4.077  1.1168  1.7628  3.0896
 7514SOL     OW34000   4.245   1.433   4.191  0.2052 -0.2259  0.3064
 7514SOL    HW134001   4.172   1.394   4.239 -1.4621  2.3130 -0.1633
 7514SOL    HW234002   4.316   1.413   4.250  0.7344  1.0262  0.0988
 7515SOL     OW34003   3.115   3.484   7.250  0.5858 -0.6569  0.1271
 7515SOL    HW134004   3.147   3.432   7.325 -0.5588  1.1309  1.8488
 7515SOL    HW234005   3.188   3.472   7.189  1.6055  2.3332  0.7725
 7516SOL     OW34006   2.170   1.306  15.297 -0.2082  0.0260 -0.2021
 7516SOL    HW134007   2.264   1.323  15.298 -0.2760  0.3639  0.2075
 7516SOL    HW234008   2.162   1.252  15.376  0.7858 -1.3484 -1.0330
 7517SOL     OW34009   2.102   2.529  13.707  0.5225  0.4124 -0.8045
 7517SOL    HW134010   2.083   2.600  13.768 -2.6295  0.0660 -1.3757
 7517SOL    HW234011   2.054   2.457  13.746 -1.6862  1.2759 -1.9493
 7518SOL     OW34012   1.765   3.869  12.388  0.1950  0.8689 -0.1192
 7518SOL    HW134013   1.681   3.877  12.342  0.8726  3.2647 -0.9455
 7518SOL    HW234014   1.810   3.813  12.326 -0.4456 -0.1423  0.3359
 7519SOL     OW34015   3.045   3.406  11.068 -0.1265 -0.2401 -0.3666
 7519SOL    HW134016   2.956   3.400  11.102 -0.3232 -0.4593 -0.9083
 7519SOL    HW234017   3.032   3.344  10.996 -1.0726 -0.3532 -0.1015
 7520SOL     OW34018   3.497   2.571   5.007  0.4283 -0.2491 -0.5636
 7520SOL    HW134019   3.457   2.598   4.924 -0.2724 -0.7370 -0.3823
 7520SOL    HW234020   3.499   2.477   4.994 -1.8862 -0.7043  2.5190
 7521SOL     OW34021   4.237   3.470  13.416 -0.4153  0.4868  0.5231
 7521SOL    HW134022   4.227   3.437  13.505 -0.3060  0.7420  0.6264
 7521SOL    HW234023   4.325   3.505  13.422 -0.4269  1.1653 -3.0479
 7522SOL     OW34024   0.691   0.602  16.707  0.2090  0.1952 -0.1874
 7522SOL    HW134025   0.617   0.585  16.766  0.3611 -1.2179 -0.3916
 7522SOL    HW234026   0.690   0.525  16.650  2.8516 -0.7605  0.9997
 7523SOL     OW34027   0.507   1.906  14.698  0.4697  0.5219  0.5052
 7523SOL    HW134028   0.577   1.880  14.639  0.8574  0.4030  1.0197
 7523SOL    HW234029   0.517   2.000  14.685  0.3007  0.4778  0.0679
 7524SOL     OW34030   2.754   0.262   7.671  0.4312  0.1706  0.4545
 7524SOL    HW134031   2.748   0.220   7.756  0.2280  0.2860  0.4980
 7524SOL    HW234032   2.671   0.310   7.668  0.1824 -0.2937 -0.2133
 7525SOL     OW34033   2.185   1.936   2.235  0.2173 -0.1375  0.4727
 7525SOL    HW134034   2.222   1.990   2.305 -0.5306 -0.6245  1.2379
 7525SOL    HW234035   2.106   1.900   2.274  0.6587 -2.6574 -0.9480
 7526SOL     OW34036   4.683   1.197   6.028  0.1683 -0.5201  0.4436
 7526SOL    HW134037   4.649   1.248   5.955 -1.7657  0.2478  1.8707
 7526SOL    HW234038   0.051   1.217   6.017  0.4038 -2.3356 -0.8545
 7527SOL     OW34039   1.710   2.046  13.750 -0.3550  0.1323 -0.1654
 7527SOL    HW134040   1.630   1.997  13.769  0.1332 -0.5680  0.0713
 7527SOL    HW234041   1.766   1.981  13.709 -0.2291  0.0863  0.0814
 7528SOL     OW34042   4.482   3.469   7.462  0.4109  0.4268 -0.0200
 7528SOL    HW134043   4.456   3.547   7.510 -0.3870 -1.1514  2.1271
 7528SOL    HW234044   4.520   3.427   7.539 -0.4363 -0.0945  0.1216
 7529SOL     OW34045   4.360   2.851   4.213  0.0826 -0.3858 -0.3015
 7529SOL    HW134046   4.441   2.832   4.261 -0.6392 -1.0723  0.6453
 7529SOL    HW234047   4.395   2.869   4.125 -0.3608  0.0289 -0.3932
 7530SOL     OW34048   2.364   4.569   8.612  0.0994 -0.4286 -0.0888
 7530SOL    HW134049   2.404   4.656   8.619  1.0998 -0.9355  0.4121
 7530SOL    HW234050   2.424   4.527   8.674 -0.3429 -0.6121  0.2174
 7531SOL     OW34051   4.099   4.089   2.407  0.0124 -0.1737 -0.4537
 7531SOL    HW134052   4.028   4.084   2.471  0.0822  1.7843 -0.2014
 7531SOL    HW234053   4.042   4.128   2.340  2.0814  0.4674 -1.8442
 7532SOL     OW34054   0.470   1.249   3.349 -0.4381 -0.0246 -0.2092
 7532SOL    HW134055   0.535   1.179   3.348 -1.0575 -0.5412 -2.1737
 7532SOL    HW234056   0.468   1.260   3.444  2.0847 -1.9665  0.0758
 7533SOL     OW34057   3.150   1.540   9.634 -0.4291  0.4081 -0.2883
 7533SOL    HW134058   3.140   1.519   9.726  2.0196  0.4953  0.0063
 7533SOL    HW234059   3.210   1.471   9.606 -0.0586  0.0491  1.4335
 7534SOL     OW34060   3.829   1.774   1.926  0.0897 -0.3635 -0.2854
 7534SOL    HW134061   3.917   1.785   1.960 -0.4249 -0.9756  1.2719
 7534SOL    HW234062   3.803   1.866   1.937  1.4004 -0.1254  0.8385
 7535SOL     OW34063   1.538   3.144   7.517  0.5629  0.1074 -0.3591
 7535SOL    HW134064   1.582   3.228   7.531  2.3116 -0.9833  0.5163
 7535SOL    HW234065   1.556   3.087   7.591  3.8287 -0.6537 -1.7390
 7536SOL     OW34066   2.103   1.095   3.419  0.4444 -0.0056  0.8233
 7536SOL    HW134067   2.038   1.164   3.434 -0.1316 -0.3662 -0.0122
 7536SOL    HW234068   2.158   1.095   3.497  2.1029 -2.0287 -0.3498
 7537SOL     OW34069   4.639   0.662   2.948  0.0513  0.3247 -0.4759
 7537SOL    HW134070   0.005   0.649   2.979 -0.3060  1.0783  0.8843
 7537SOL    HW234071   4.630   0.752   2.980  1.3891  0.0312  0.7229
 7538SOL     OW34072   1.663   0.542   4.854 -0.4020  0.4616 -0.0806
 7538SOL    HW134073   1.623   0.461   4.885  1.1659  0.3616  1.6850
 7538SOL    HW234074   1.629   0.535   4.765 -2.5816 -1.3575  0.9180
 7539SOL     OW34075   1.217   2.393  15.308 -0.0464 -0.0336 -0.0591
 7539SOL    HW134076   1.245   2.309  15.344 -0.1567  0.8567  2.1375
 7539SOL    HW234077   1.242   2.387  15.216  0.7907  2.5721 -0.0107
 7540SOL     OW34078   2.628   3.857   4.675  0.1431  0.1579  0.0718
 7540SOL    HW134079   2.592   3.847   4.587 -1.5982  0.0170  0.7912
 7540SOL    HW234080   2.544   3.870   4.720  1.8512  0.4149  3.2156
 7541SOL     OW34081   0.276   2.040   1.456  0.2096  0.0821  0.2647
 7541SOL    HW134082   0.273   2.073   1.545 -0.4631 -0.8601  0.5969
 7541SOL    HW234083   0.343   2.097   1.419 -0.4467  0.5326 -0.2281
 7542SOL     OW34084   0.125   0.354   4.364 -0.1787  0.0161 -0.9192
 7542SOL    HW134085   0.085   0.270   4.385 -0.0617  0.1170 -0.2753
 7542SOL    HW234086   0.182   0.326   4.292  0.3985 -0.5668 -0.2425
 7543SOL     OW34087   3.086   3.600   4.153 -0.0724 -0.4565  0.0179
 7543SOL    HW134088   3.074   3.616   4.247  1.6881  0.2984  0.1194
 7543SOL    HW234089   3.121   3.682   4.119 -1.2136 -0.0780 -0.2356
 7544SOL     OW34090   3.079   2.344   2.237 -0.3224 -0.2389  0.2872
 7544SOL    HW134091   3.081   2.410   2.168 -0.4861 -0.7549 -0.2043
 7544SOL    HW234092   3.171   2.318   2.240 -0.0060  0.7800 -0.5147
 7545SOL     OW34093   3.211   1.085   7.051 -0.4480  0.3831  0.1938
 7545SOL    HW134094   3.182   1.173   7.078 -0.0482  0.3306  0.8030
 7545SOL    HW234095   3.259   1.114   6.974 -1.2464  1.2946  0.0253
 7546SOL     OW34096   1.967   1.738  10.472  0.7874 -0.2106  0.0858
 7546SOL    HW134097   1.973   1.733  10.567 -0.7990 -1.4569  0.1160
 7546SOL    HW234098   2.012   1.822  10.463 -0.3109  0.2609 -1.0710
 7547SOL     OW34099   2.295   2.388   0.598  0.4755 -0.4527  0.5876
 7547SOL    HW134100   2.338   2.330   0.536 -2.2811  0.1777 -1.8985
 7547SOL    HW234101   2.215   2.415   0.552  1.0171 -2.9722 -1.7783
 7548SOL     OW34102   2.208   4.349   8.645 -0.2994  0.0170  0.0986
 7548SOL    HW134103   2.255   4.322   8.724 -1.8965 -2.7454  0.1126
 7548SOL    HW234104   2.253   4.431   8.626  1.1922 -0.7374  0.3727
 7549SOL     OW34105   3.972   1.008   6.346 -0.2229  0.0377  0.0332
 7549SOL    HW134106   3.964   0.928   6.398 -0.6931  0.2266  0.2556
 7549SOL    HW234107   4.013   1.056   6.418  1.1169 -1.7249  0.4413
 7550SOL     OW34108   0.515   2.873   5.190  0.3076 -0.3666 -0.1581
 7550SOL    HW134109   0.428   2.870   5.228 -0.9039  2.0543 -2.7403
 7550SOL    HW234110   0.540   2.781   5.193  1.7636 -0.0151 -1.0291
 7551SOL     OW34111   3.912   0.253  15.500 -0.0229  0.0691  0.4185
 7551SOL    HW134112   3.870   0.168  15.488 -0.1028  0.2453 -0.5907
 7551SOL    HW234113   3.878   0.284  15.584 -0.1024 -0.1225  0.4566
 7552SOL     OW34114   0.041   1.925   5.526 -0.2168 -0.5943  0.6609
 7552SOL    HW134115   0.033   2.019   5.539 -0.4625 -0.6497  0.9137
 7552SOL    HW234116   0.007   1.891   5.609  1.3322  2.3092  2.4827
 7553SOL     OW34117   3.696   4.294   3.141 -0.2868 -0.4934 -0.0454
 7553SOL    HW134118   3.724   4.324   3.054 -0.8409  0.0661 -0.0370
 7553SOL    HW234119   3.601   4.285   3.131 -0.3360 -1.2918  1.2087
 7554SOL     OW34120   0.899   3.665   3.570 -0.1897  0.0012 -0.1997
 7554SOL    HW134121   0.957   3.739   3.590 -0.0897 -0.1463  0.0548
 7554SOL    HW234122   0.933   3.640   3.484  1.0731 -0.1240  0.3316
 7555SOL     OW34123   0.479   3.754   0.186  0.3414  0.1241  0.8546
 7555SOL    HW134124   0.420   3.818   0.145  2.4052  2.4692  1.5250
 7555SOL    HW234125   0.431   3.746   0.269 -1.6427 -1.2050 -0.4108
 7556SOL     OW34126   4.519   2.886  16.900  0.0638 -0.0932 -0.1225
 7556SOL    HW134127   4.610   2.870  16.877  0.0177  2.4604 -2.0772
 7556SOL    HW234128   4.505   2.834  16.980  1.0328 -1.4350 -0.8398
 7557SOL     OW34129   1.986   3.173   6.150  0.2416  1.2532  0.3058
 7557SOL    HW134130   1.931   3.195   6.076 -1.4412 -2.7013  0.4174
 7557SOL    HW234131   1.940   3.203   6.229 -1.0192 -1.5879  0.6365
 7558SOL     OW34132   3.617   3.815  16.124  0.0109  0.3233 -0.3302
 7558SOL    HW134133   3.622   3.843  16.033  0.7542 -2.2134 -1.0695
 7558SOL    HW234134   3.538   3.760  16.118 -1.0550  1.8069 -0.0072
 7559SOL     OW34135   4.415   1.678   7.766 -0.1577  0.1707  0.3936
 7559SOL    HW134136   4.448   1.767   7.774 -1.7772  0.9141 -1.4286
 7559SOL    HW234137   4.446   1.660   7.677  0.8842  1.2997  0.5356
 7560SOL     OW34138   1.996   3.208   9.081  0.2354  0.3995  0.3771
 7560SOL    HW134139   1.979   3.153   9.157  0.2768 -1.3899 -0.9277
 7560SOL    HW234140   2.075   3.262   9.091  0.0116  1.3135 -2.7808
 7561SOL     OW34141   2.330   4.348  14.349 -0.4697  0.3740 -0.4077
 7561SOL    HW134142   2.374   4.396  14.279  0.3598 -0.2616 -0.3300
 7561SOL    HW234143   2.238   4.370  14.336  0.1823  2.5695 -1.2580
 7562SOL     OW34144   0.958   2.029   5.825 -0.2999 -0.2299  0.3833
 7562SOL    HW134145   0.935   1.974   5.900 -0.4754  1.5373  1.6281
 7562SOL    HW234146   1.022   2.087   5.866 -1.5893  1.8584 -0.5656
 7563SOL     OW34147   0.682   0.487   5.869  0.0342 -0.1383 -0.1825
 7563SOL    HW134148   0.751   0.479   5.803  1.2268 -1.9806  1.2986
 7563SOL    HW234149   0.646   0.574   5.852  1.1138  0.4879  0.7872
 7564SOL     OW34150   3.783   2.902   3.172 -0.3003 -0.3309 -0.0563
 7564SOL    HW134151   3.847   2.971   3.158  0.5729 -1.0298  0.5311
 7564SOL    HW234152   3.724   2.943   3.235  0.0683 -0.5803  0.4413
 7565SOL     OW34153   0.076   1.853  12.491  0.5112 -0.0672  0.2698
 7565SOL    HW134154   0.063   1.770  12.536 -3.5168 -0.1443 -0.9879
 7565SOL    HW234155   0.040   1.911  12.559  0.6271  0.4474 -0.1027
 7566SOL     OW34156   1.172   1.931  14.098 -0.0164  0.1741 -0.4351
 7566SOL    HW134157   1.082   1.900  14.091  0.0154 -0.3596  1.7565
 7566SOL    HW234158   1.192   1.887  14.180 -3.1940  0.3473  0.4096
 7567SOL     OW34159   3.682   1.356   2.390  0.3345  0.3984 -0.7767
 7567SOL    HW134160   3.603   1.362   2.444  0.5035  1.7070 -0.6768
 7567SOL    HW234161   3.681   1.421   2.320  2.3310  0.4236 -0.7697
 7568SOL     OW34162   0.867   3.776   9.415  0.1699  0.2453 -0.1810
 7568SOL    HW134163   0.893   3.734   9.333 -0.2860  1.9770 -1.2271
 7568SOL    HW234164   0.879   3.708   9.481  1.9472 -0.8647 -1.6575
 7569SOL     OW34165   2.947   1.281   2.133  0.3871  0.2857 -1.0548
 7569SOL    HW134166   2.863   1.264   2.090 -0.5009 -1.1395  1.2363
 7569SOL    HW234167   2.909   1.277   2.221  1.8177 -0.9311 -0.4856
 7570SOL     OW34168   0.342   0.433  10.125 -0.0319  0.1080  0.1174
 7570SOL    HW134169   0.247   0.442  10.117  0.1179 -1.4897 -3.3969
 7570SOL    HW234170   0.358   0.371  10.054  1.9861 -1.5485  2.0067
 7571SOL     OW34171   0.829   1.434   6.730  0.1251  0.3538  0.3715
 7571SOL    HW134172   0.744   1.461   6.695  0.3419  1.0204  0.3559
 7571SOL    HW234173   0.812   1.409   6.820  4.3956  0.0529  1.1245
 7572SOL     OW34174   3.164   4.145   6.046 -0.3206  0.2484  0.1201
 7572SOL    HW134175   3.175   4.165   5.953 -1.9417  0.6934  0.0222
 7572SOL    HW234176   3.199   4.229   6.075  0.5110 -0.0324 -0.0568
 7573SOL     OW34177   3.728   1.045   3.792  0.1094 -0.2037 -0.2737
 7573SOL    HW134178   3.664   1.024   3.859 -0.8464 -2.1610 -1.8007
 7573SOL    HW234179   3.679   1.045   3.709  0.4242  0.3624 -0.4601
 7574SOL     OW34180   1.628   0.195   5.462 -0.4562 -0.2453  0.0620
 7574SOL    HW134181   1.557   0.153   5.511 -1.2147  0.9290 -0.0345
 7574SOL    HW234182   1.661   0.226   5.546 -0.6078 -1.4581  0.5644
 7575SOL     OW34183   0.886   2.462   9.403  0.0379 -0.4214 -0.3023
 7575SOL    HW134184   0.829   2.516   9.348  0.7142  0.4663 -0.1128
 7575SOL    HW234185   0.841   2.379   9.386 -1.0716  0.1432 -0.1554
 7576SOL     OW34186   0.013   2.684  16.936 -0.6421 -0.1680 -0.1259
 7576SOL    HW134187   0.084   2.734  16.977  1.2523 -0.8551 -2.5770
 7576SOL    HW234188   4.698   2.667  17.021 -0.2549 -1.2217 -0.1680
 7577SOL     OW34189   4.061   1.083  13.331  0.0537 -0.1399  0.4537
 7577SOL    HW134190   4.073   1.040  13.416 -1.1737 -0.8643  0.2565
 7577SOL    HW234191   3.978   1.043  13.306 -1.0340  2.2935  0.2220
 7578SOL     OW34192   3.889   3.880  16.482 -0.6639 -0.7628  0.1452
 7578SOL    HW134193   3.811   3.896  16.429  0.4988  1.1717 -0.9913
 7578SOL    HW234194   3.937   3.815  16.430 -0.6243 -0.2873 -0.4210
 7579SOL     OW34195   0.668   1.606   7.600  0.5142 -0.2536 -0.5743
 7579SOL    HW134196   0.672   1.687   7.550 -1.8859  0.4781  0.4187
 7579SOL    HW234197   0.761   1.587   7.608  0.2962 -0.4221  1.4969
 7580SOL     OW34198   0.757   3.735  15.109  0.0283  0.3472 -0.2622
 7580SOL    HW134199   0.785   3.772  15.193  0.6412 -0.9026  0.0865
 7580SOL    HW234200   0.828   3.671  15.100  0.2190  0.5196  0.0263
 7581SOL     OW34201   3.056   3.021   2.352  0.1591  0.9678  0.3864
 7581SOL    HW134202   3.152   3.015   2.359  0.2052  1.0740 -0.1270
 7581SOL    HW234203   3.026   2.940   2.310  2.6810 -0.5710  1.5639
 7582SOL     OW34204   4.448   0.995   5.419  0.2159  0.2735  0.1458
 7582SOL    HW134205   4.511   0.962   5.355  0.8410  0.6895  0.5580
 7582SOL    HW234206   4.426   1.077   5.374  1.3181  0.3785 -0.2057
 7583SOL     OW34207   4.133   1.256   8.190  0.1391  0.8598 -0.5247
 7583SOL    HW134208   4.208   1.222   8.240 -0.2739  2.7868  1.4111
 7583SOL    HW234209   4.173   1.336   8.155  2.0706 -0.0912 -0.4565
 7584SOL     OW34210   0.769   4.619   5.715 -0.2927  0.0620 -0.0123
 7584SOL    HW134211   0.831   4.569   5.767 -0.1356 -0.4223 -0.6693
 7584SOL    HW234212   0.716   4.651   5.789  0.9390 -2.5727  2.0232
 7585SOL     OW34213   3.579   0.567   3.367  0.2449 -0.5658 -0.4653
 7585SOL    HW134214   3.655   0.532   3.413  1.2929 -2.2449 -3.5086
 7585SOL    HW234215   3.584   0.530   3.279 -2.4056 -2.5773  0.2294
 7586SOL     OW34216   1.525   4.483  15.276 -0.3603 -0.4295  0.1652
 7586SOL    HW134217   1.601   4.426  15.291  0.8660  0.9638 -0.7202
 7586SOL    HW234218   1.549   4.540  15.203  1.4690  0.9305  1.8273
 7587SOL     OW34219   3.672   3.608   4.860  0.1799 -0.2745 -0.2986
 7587SOL    HW134220   3.629   3.640   4.940  1.6842 -0.1197  0.4512
 7587SOL    HW234221   3.660   3.514   4.873  0.9000 -0.3413 -0.0996
 7588SOL     OW34222   1.730   2.440  10.970  0.6133 -0.2565  0.0550
 7588SOL    HW134223   1.776   2.449  11.053 -2.5593  0.3758  1.7517
 7588SOL    HW234224   1.649   2.484  10.998  1.3746  1.1884 -0.0361
 7589SOL     OW34225   3.454   1.444   3.854  0.8567 -0.1092 -0.0161
 7589SOL    HW134226   3.377   1.430   3.798 -0.4219 -2.1155  2.2685
 7589SOL    HW234227   3.467   1.536   3.829  0.2476  0.5247  2.0102
 7590SOL     OW34228   1.188   3.025  16.971  0.3262 -0.4332  0.1754
 7590SOL    HW134229   1.122   3.067  17.026  2.0532  0.8757  1.2618
 7590SOL    HW234230   1.145   2.943  16.945 -1.6309  0.0741  1.8351
 7591SOL     OW34231   4.246   2.759  14.207 -0.1957  0.1809 -0.3468
 7591SOL    HW134232   4.302   2.703  14.153  0.5629  1.5340 -0.9803
 7591SOL    HW234233   4.292   2.741  14.288 -0.6511 -0.6940 -0.2802
 7592SOL     OW34234   1.668   3.772   1.390  0.0141 -0.4507  0.2694
 7592SOL    HW134235   1.725   3.764   1.314  0.5526  0.2037  0.5993
 7592SOL    HW234236   1.630   3.685   1.399 -0.8386  0.2665  3.8047
 7593SOL     OW34237   0.859   4.315   0.877 -0.3099 -0.0202  0.0422
 7593SOL    HW134238   0.893   4.379   0.814 -0.3382 -1.2175 -1.1740
 7593SOL    HW234239   0.780   4.359   0.908  0.2705 -0.1532  1.6897
 7594SOL     OW34240   2.732   1.118   2.949  0.2869  0.1008  0.3512
 7594SOL    HW134241   2.715   1.192   2.891  3.3145  1.0465  0.6810
 7594SOL    HW234242   2.692   1.148   3.031  2.1793  1.0805  0.9090
 7595SOL     OW34243   3.879   0.211  15.862 -0.2144 -0.2035  0.0501
 7595SOL    HW134244   3.889   0.133  15.807 -0.1171 -0.7894  0.8961
 7595SOL    HW234245   3.822   0.263  15.806  2.2954  1.4552 -0.9577
 7596SOL     OW34246   4.326   1.347   7.734  0.5725 -0.0634  0.0570
 7596SOL    HW134247   4.290   1.369   7.648 -0.9151 -3.9726 -0.3302
 7596SOL    HW234248   4.369   1.430   7.753  0.0073  0.2474 -0.0059
 7597SOL     OW34249   3.939   2.056   7.421  0.5191 -0.6424 -0.5637
 7597SOL    HW134250   3.844   2.051   7.435  0.0810  1.0021 -2.9886
 7597SOL    HW234251   3.961   2.012   7.502 -3.0561  2.8602  2.3250
 7598SOL     OW34252   2.581   3.751   8.642 -0.5078  0.1216 -0.2542
 7598SOL    HW134253   2.505   3.707   8.606  0.1722 -0.7975 -0.5644
 7598SOL    HW234254   2.638   3.674   8.646 -1.0765 -0.3877 -1.9692
 7599SOL     OW34255   0.226   1.867   3.627  0.3179 -0.2689 -0.0482
 7599SOL    HW134256   0.264   1.823   3.550 -0.0234 -1.0791  0.2472
 7599SOL    HW234257   0.232   1.956   3.594 -0.7927 -0.3523 -0.4614
 7600SOL     OW34258   3.873   2.037   6.473  0.0579 -0.3418  0.1353
 7600SOL    HW134259   3.930   2.093   6.527 -0.2909 -0.9734  1.1542
 7600SOL    HW234260   3.858   2.096   6.400 -1.0938 -2.1972 -1.1081
 7601SOL     OW34261   4.613   1.008   7.230  0.5085  1.1806 -0.3220
 7601SOL    HW134262   4.576   1.085   7.273  0.4347 -0.5480  2.6839
 7601SOL    HW234263   4.617   0.942   7.299  1.8141  0.4875 -1.0502
 7602SOL     OW34264   1.496   4.436   7.044  0.0292 -0.4162 -0.1239
 7602SOL    HW134265   1.444   4.508   7.010  1.5436  1.2564  1.0947
 7602SOL    HW234266   1.436   4.363   7.029  1.3089 -1.0000 -2.4844
 7603SOL     OW34267   4.480   1.123   2.176 -0.2439  0.0016 -0.2768
 7603SOL    HW134268   4.555   1.178   2.197 -2.0190  2.2676  0.0625
 7603SOL    HW234269   4.444   1.165   2.098  0.9164  0.5070 -0.5279
 7604SOL     OW34270   4.273   1.389  12.981  0.0815 -0.4012 -0.3374
 7604SOL    HW134271   4.274   1.432  12.896 -1.1489 -0.8636 -0.5861
 7604SOL    HW234272   4.230   1.306  12.959  0.4691 -0.8175  0.4624
 7605SOL     OW34273   0.732   3.433   2.641  0.0410 -0.6513  0.0806
 7605SOL    HW134274   0.776   3.513   2.670 -0.2401  0.0153 -1.3343
 7605SOL    HW234275   0.658   3.462   2.588  0.9931  2.0914  0.2505
 7606SOL     OW34276   4.107   0.245   2.275 -0.1401 -0.2736 -0.4921
 7606SOL    HW134277   4.091   0.337   2.296 -0.1370 -0.4899  0.4545
 7606SOL    HW234278   4.024   0.207   2.303 -1.1563  0.3780 -2.6319
 7607SOL     OW34279   3.804   0.603   4.598  0.0607  0.4238  0.1766
 7607SOL    HW134280   3.891   0.564   4.586  0.2375  1.1157 -0.8309
 7607SOL    HW234281   3.773   0.563   4.679 -1.0605  2.6269  0.8416
 7608SOL     OW34282   3.067   1.608   4.333 -0.5117  0.6278 -0.3427
 7608SOL    HW134283   3.099   1.673   4.270 -0.7315  0.7324 -0.3460
 7608SOL    HW234284   3.144   1.567   4.371  0.5177  4.0755  1.2834
 7609SOL     OW34285   4.091   1.274   3.816  0.1560 -0.0575 -0.1737
 7609SOL    HW134286   4.068   1.213   3.746 -0.2360 -0.5431  0.3699
 7609SOL    HW234287   4.005   1.287   3.854 -0.3393 -2.9255 -0.3201
 7610SOL     OW34288   2.165   4.122   4.853  0.0549 -0.3564  0.1838
 7610SOL    HW134289   2.149   4.138   4.760 -2.8991 -2.4131  0.3212
 7610SOL    HW234290   2.153   4.212   4.884  2.0931  0.0554 -0.2412
 7611SOL     OW34291   0.113   3.003  15.273  0.5158 -0.1105  0.2288
 7611SOL    HW134292   0.090   3.009  15.366  1.3343  1.1210  0.3628
 7611SOL    HW234293   0.205   3.030  15.266  0.5608 -0.5461 -0.8156
 7612SOL     OW34294   3.987   1.141   5.506 -0.8051  0.4817 -0.6543
 7612SOL    HW134295   3.997   1.074   5.438 -1.5197 -0.5030  0.2050
 7612SOL    HW234296   3.891   1.145   5.513 -0.8825 -2.8449  0.0003
 7613SOL     OW34297   2.838   4.176   9.468 -0.0475 -0.8368  0.7729
 7613SOL    HW134298   2.747   4.201   9.453  0.3203 -0.0618 -0.1928
 7613SOL    HW234299   2.847   4.110   9.399  1.2278  2.5080 -2.3087
 7614SOL     OW34300   0.545   3.383  11.433  0.2459  0.0427  0.3032
 7614SOL    HW134301   0.545   3.465  11.383  0.6461  0.1570  0.4879
 7614SOL    HW234302   0.467   3.399  11.488 -0.1072  2.0459 -0.7801
 7615SOL     OW34303   1.293   0.683   4.965  0.2451  0.3296 -0.0287
 7615SOL    HW134304   1.235   0.755   4.992  2.1732  0.5811  3.5352
 7615SOL    HW234305   1.311   0.636   5.046 -0.1798  1.3644  0.6775
 7616SOL     OW34306   2.164   4.663  17.413  0.4398 -0.4857  0.6228
 7616SOL    HW134307   2.109   4.629  17.342  1.2991  3.4180 -1.9316
 7616SOL    HW234308   2.109   0.014  17.433 -0.7371 -1.1179 -0.2139
 7617SOL     OW34309   1.137   4.316  17.424  0.4193 -0.2224  0.4937
 7617SOL    HW134310   1.091   4.322  17.340  2.6640  1.9914 -0.5583
 7617SOL    HW234311   1.067   4.333  17.487 -1.1610 -1.4343 -0.9041
 7618SOL     OW34312   0.176   0.446  12.025  0.0065  0.4564  0.3231
 7618SOL    HW134313   0.180   0.524  12.080 -0.6753  0.6060  0.1635
 7618SOL    HW234314   0.261   0.458  11.982 -0.5141 -0.7796 -1.0456
 7619SOL     OW34315   1.633   1.396   8.148 -0.8730  0.4348 -0.3102
 7619SOL    HW134316   1.611   1.329   8.213  1.5947 -0.5363 -0.4784
 7619SOL    HW234317   1.556   1.381   8.095 -0.8694  1.3195 -0.5746
 7620SOL     OW34318   2.161   0.967  12.293 -0.0247  0.6475 -0.5769
 7620SOL    HW134319   2.150   0.876  12.265  0.3619  0.4928 -0.2379
 7620SOL    HW234320   2.104   0.973  12.370 -0.2274  0.3442 -0.7022
 7621SOL     OW34321   1.990   0.470  17.393 -0.4261  0.3915  0.9352
 7621SOL    HW134322   1.983   0.549  17.448  0.7750 -1.1981  3.3509
 7621SOL    HW234323   1.899   0.451  17.373 -0.0235  0.4728 -0.9901
 7622SOL     OW34324   0.486   1.748  10.472 -0.9242 -0.3457  0.4603
 7622SOL    HW134325   0.492   1.781  10.562 -0.4517  0.5813  0.0908
 7622SOL    HW234326   0.574   1.710  10.473 -1.3671 -1.3778 -0.7723
 7623SOL     OW34327   1.576   2.997   4.649  0.4332 -0.4715 -0.2124
 7623SOL    HW134328   1.571   2.975   4.556  0.0973 -1.5061  0.0494
 7623SOL    HW234329   1.656   3.051   4.650  0.1780 -0.0983  0.1062
 7624SOL     OW34330   0.919   2.123   5.342 -0.2410 -0.5876  0.1139
 7624SOL    HW134331   0.858   2.059   5.304  0.0464  0.2033 -1.6878
 7624SOL    HW234332   0.990   2.059   5.356  2.8676  2.9912  0.6304
 7625SOL     OW34333   2.464   0.435  11.639  0.3354  0.3004 -0.6815
 7625SOL    HW134334   2.418   0.438  11.555 -1.5911 -1.5502  0.3146
 7625SOL    HW234335   2.391   0.437  11.701  1.2233  1.7534  0.3033
 7626SOL     OW34336   1.385   0.469   0.324 -0.2904  0.4350 -0.4296
 7626SOL    HW134337   1.440   0.397   0.293  1.1189  0.7518  1.3523
 7626SOL    HW234338   1.361   0.435   0.411 -0.0925  0.9711 -0.1695
 7627SOL     OW34339   2.542   2.072   5.183  0.5723  0.3174 -0.5502
 7627SOL    HW134340   2.523   2.042   5.272  1.3693  2.9110  0.4897
 7627SOL    HW234341   2.638   2.069   5.179  0.5594 -0.5884 -0.1779
 7628SOL     OW34342   4.237   1.193  15.338  0.0287  0.0551 -0.0185
 7628SOL    HW134343   4.218   1.278  15.298  1.8125 -0.5652 -2.1855
 7628SOL    HW234344   4.215   1.145  15.258  0.1888 -0.3030  0.1542
 7629SOL     OW34345   0.624   0.318  11.160 -0.4625  0.4080 -0.3550
 7629SOL    HW134346   0.696   0.376  11.133 -0.6163 -0.2986 -2.2675
 7629SOL    HW234347   0.643   0.240  11.109 -1.0508  0.2841 -0.3744
 7630SOL     OW34348   0.020   2.194  16.519  0.6123 -0.1710 -0.3774
 7630SOL    HW134349   0.052   2.140  16.591  0.0036 -0.6819 -0.4902
 7630SOL    HW234350   4.654   2.167  16.501  0.6353 -0.2550 -0.3652
 7631SOL     OW34351   2.031   3.578  15.244 -0.2734  0.0866 -0.2672
 7631SOL    HW134352   2.000   3.514  15.180  0.0893  0.3963 -0.7585
 7631SOL    HW234353   1.980   3.655  15.218  1.2620  1.4564  0.7912
 7632SOL     OW34354   1.803   3.367   8.776 -0.2602  0.4531 -0.2063
 7632SOL    HW134355   1.810   3.462   8.779 -2.7295  0.6625 -1.0496
 7632SOL    HW234356   1.829   3.342   8.864 -1.0616 -0.4502 -0.2223
 7633SOL     OW34357   1.934   0.316   5.539  0.1424  0.6080 -0.4806
 7633SOL    HW134358   1.941   0.409   5.520  0.2312  1.2053  2.4260
 7633SOL    HW234359   1.845   0.319   5.575 -0.5578  1.2795 -2.2753
 7634SOL     OW34360   0.859   1.563   3.582  0.3746 -0.2488  0.4286
 7634SOL    HW134361   0.849   1.588   3.491  0.3097 -0.2977  0.4220
 7634SOL    HW234362   0.812   1.630   3.632  0.3601  0.2658 -0.2869
 7635SOL     OW34363   4.475   3.088   7.048  0.7895 -0.1043 -0.5066
 7635SOL    HW134364   4.527   3.011   7.070  0.0861 -0.7654 -1.1306
 7635SOL    HW234365   4.407   3.086   7.115  0.9258  2.4607 -0.3141
 7636SOL     OW34366   4.625   2.544   9.709  0.6968  0.1244  0.5285
 7636SOL    HW134367   4.663   2.456   9.719  0.2484 -0.3552 -2.1612
 7636SOL    HW234368   4.645   2.578   9.796  0.8927  1.4393 -0.0364
 7637SOL     OW34369   1.685   1.056   3.963  0.0314 -0.3728  0.0458
 7637SOL    HW134370   1.646   0.969   3.966 -0.4836 -0.1741 -0.7631
 7637SOL    HW234371   1.612   1.100   4.006 -0.1142  0.6566 -1.2508
 7638SOL     OW34372   2.919   0.777  15.072  0.3601 -0.4072  0.8306
 7638SOL    HW134373   2.838   0.780  15.123 -0.4905  0.5859 -0.5788
 7638SOL    HW234374   2.990   0.737  15.122 -0.0975  1.0952  2.6964
 7639SOL     OW34375   2.514   0.129   3.125  0.7063 -0.5798  0.1864
 7639SOL    HW134376   2.551   0.163   3.206 -0.6031 -0.7744  0.8570
 7639SOL    HW234377   2.422   0.153   3.130  0.7033  0.0239 -2.5766
 7640SOL     OW34378   2.024   4.064   8.325 -0.0047 -0.2677 -0.3730
 7640SOL    HW134379   1.980   4.065   8.410  1.9051 -2.0302  0.6501
 7640SOL    HW234380   2.083   4.139   8.333 -1.7273  1.3031 -2.1605
 7641SOL     OW34381   0.437   3.974   7.621 -0.4849 -0.4017  0.2578
 7641SOL    HW134382   0.426   3.962   7.715 -1.6847  2.4011  0.4810
 7641SOL    HW234383   0.509   4.036   7.611  1.2625 -2.6886 -1.2455
 7642SOL     OW34384   1.344   0.413  12.504  0.3228  0.3987 -0.1754
 7642SOL    HW134385   1.383   0.333  12.467  2.6452  0.6962  1.5721
 7642SOL    HW234386   1.344   0.385  12.595 -0.1901  0.2317 -0.2287
 7643SOL     OW34387   3.804   3.698   4.642  0.3591 -0.0576 -0.3004
 7643SOL    HW134388   3.828   3.624   4.587  2.8483  0.1317  0.5429
 7643SOL    HW234389   3.768   3.657   4.721 -0.0052 -1.2955 -1.1104
 7644SOL     OW34390   1.597   1.711   2.287  0.0328 -0.4006  0.3388
 7644SOL    HW134391   1.608   1.618   2.268  0.6149 -0.1922 -0.3421
 7644SOL    HW234392   1.615   1.750   2.202  2.2944 -0.2972  0.8549
 7645SOL     OW34393   2.292   4.553   8.371 -0.1558 -0.1338 -0.3205
 7645SOL    HW134394   2.378   4.588   8.345 -0.2642 -0.5559 -1.2398
 7645SOL    HW234395   2.307   4.555   8.465 -0.0882 -1.4672 -0.3128
 7646SOL     OW34396   2.390   3.610   9.183  0.0332  0.5960  0.2659
 7646SOL    HW134397   2.359   3.612   9.274  1.1999 -0.6628  0.7070
 7646SOL    HW234398   2.315   3.638   9.131  1.6352  0.6024 -2.0204
 7647SOL     OW34399   1.159   2.017   2.880 -0.2914 -0.0821 -0.5340
 7647SOL    HW134400   1.166   1.995   2.787 -2.6656  0.7645 -0.9056
 7647SOL    HW234401   1.244   2.044   2.913 -1.9893  0.5607  3.2987
 7648SOL     OW34402   2.254   3.940  15.142  0.1773 -0.3783  1.1065
 7648SOL    HW134403   2.232   3.924  15.051  0.6279  2.5054  0.4904
 7648SOL    HW234404   2.173   3.982  15.170 -0.7267 -1.3304 -0.0556
 7649SOL     OW34405   1.538   2.614   2.085  0.1833  0.4633 -0.0224
 7649SOL    HW134406   1.495   2.537   2.122  1.9925 -0.1004  0.8929
 7649SOL    HW234407   1.461   2.662   2.053 -1.2754 -2.2218 -0.5583
 7650SOL     OW34408   4.680   0.918   9.702  0.1883  0.1006 -0.6153
 7650SOL    HW134409   4.684   0.951   9.792 -0.4244 -2.7851  0.4422
 7650SOL    HW234410   4.601   0.865   9.708  0.8404 -0.7559  0.4722
 7651SOL     OW34411   0.353   3.726   1.373  1.0307 -0.6550  0.7921
 7651SOL    HW134412   0.312   3.729   1.287  0.2541  2.4587  1.3014
 7651SOL    HW234413   0.298   3.664   1.422 -0.9011  0.0578 -0.4759
 7652SOL     OW34414   1.357   3.108  10.211 -0.2427  0.1647  0.2208
 7652SOL    HW134415   1.323   3.098  10.300 -2.3003  1.8862 -0.3795
 7652SOL    HW234416   1.276   3.103  10.161 -1.4536 -0.0228  2.2351
 7653SOL     OW34417   2.048   2.104   3.900  0.1677 -0.0300  0.1464
 7653SOL    HW134418   2.082   2.052   3.972  0.0422  0.9508  0.9141
 7653SOL    HW234419   2.043   2.192   3.937 -0.3393  0.0232 -0.0468
 7654SOL     OW34420   4.252   1.380   4.670  0.1883 -0.3273  0.3693
 7654SOL    HW134421   4.222   1.455   4.618  1.7534  0.2086  0.2417
 7654SOL    HW234422   4.171   1.341   4.703  0.8073 -2.2393 -0.4304
 7655SOL     OW34423   0.243   0.979  14.918 -0.2892 -0.4452  0.4561
 7655SOL    HW134424   0.270   0.976  15.010  2.6221  1.6460 -0.3456
 7655SOL    HW234425   0.176   1.047  14.915  0.8126  0.6553  0.6315
 7656SOL     OW34426   0.972   3.311   4.343  0.0512 -0.0603  0.1648
 7656SOL    HW134427   1.027   3.267   4.279  0.5948 -0.0612  0.6313
 7656SOL    HW234428   1.026   3.384   4.371 -1.5267  1.2239 -0.1566
 7657SOL     OW34429   1.846   0.276   2.225  0.3619  0.4497  0.2526
 7657SOL    HW134430   1.802   0.228   2.155  0.4115  0.2464  0.3607
 7657SOL    HW234431   1.790   0.263   2.302  0.4627  0.7752  0.3858
 7658SOL     OW34432   3.188   0.198  14.763  0.2675 -0.0533 -0.0953
 7658SOL    HW134433   3.261   0.136  14.764  1.8614  1.8495  2.7578
 7658SOL    HW234434   3.185   0.227  14.855 -1.3605  0.2153 -0.2281
 7659SOL     OW34435   3.250   4.540   0.256 -0.0293 -0.8224  0.2318
 7659SOL    HW134436   3.194   4.463   0.243  1.8904 -2.4638  1.8383
 7659SOL    HW234437   3.253   4.558   0.350  2.1655 -1.1171  0.2140
 7660SOL     OW34438   3.036   3.202   8.785 -0.0539  0.4263 -0.4236
 7660SOL    HW134439   3.078   3.241   8.861 -0.6913 -0.1288  0.2073
 7660SOL    HW234440   3.067   3.112   8.791 -0.2474  0.3329 -0.7880
 7661SOL     OW34441   2.286   3.297  11.987 -0.1324  0.2312 -0.5570
 7661SOL    HW134442   2.300   3.231  12.055  1.7898  0.1696 -1.0058
 7661SOL    HW234443   2.272   3.379  12.035  1.2498  0.0132  0.1983
 7662SOL     OW34444   3.980   3.613  10.645  0.2540 -0.9773 -0.6135
 7662SOL    HW134445   3.951   3.528  10.609  0.8755 -0.7031 -1.7594
 7662SOL    HW234446   4.074   3.600  10.635  0.6646  1.0287  0.7067
 7663SOL     OW34447   1.084   3.515  13.856  0.1221  0.7056  0.1766
 7663SOL    HW134448   1.169   3.557  13.869  0.9948 -0.4731 -1.7957
 7663SOL    HW234449   1.029   3.594  13.854  1.0970  1.3760 -0.1742
 7664SOL     OW34450   2.347   0.945   6.894 -0.1512  0.0390 -0.2205
 7664SOL    HW134451   2.253   0.928   6.902 -0.0083 -1.7049 -2.2037
 7664SOL    HW234452   2.356   1.014   6.960 -2.2688 -1.0711  1.2611
 7665SOL     OW34453   2.367   0.330  11.094 -0.2516  0.0250 -0.1811
 7665SOL    HW134454   2.343   0.263  11.029  1.0540  1.2556 -1.9242
 7665SOL    HW234455   2.390   0.404  11.039  1.2913 -0.1111  0.2896
 7666SOL     OW34456   4.591   2.364   5.997  0.3398  0.3645 -0.1333
 7666SOL    HW134457   4.618   2.448   5.961  1.8069 -0.1199 -0.1580
 7666SOL    HW234458   4.497   2.369   5.981  0.4918  0.2429 -1.0730
 7667SOL     OW34459   4.383   3.834   3.143  0.1230 -0.0339 -0.4366
 7667SOL    HW134460   4.427   3.896   3.200 -2.4576  1.7248 -0.3515
 7667SOL    HW234461   4.444   3.833   3.069  2.4226 -2.1335  1.4835
 7668SOL     OW34462   4.028   0.518   2.300  1.2155  0.2826 -0.2775
 7668SOL    HW134463   3.955   0.575   2.322  1.9129  0.7795  0.7729
 7668SOL    HW234464   4.074   0.572   2.235  0.4880  1.9383  0.5833
 7669SOL     OW34465   1.343   0.018  15.102 -0.0217 -0.1442 -0.3081
 7669SOL    HW134466   1.426   4.696  15.092 -0.5299 -1.2465  0.6434
 7669SOL    HW234467   1.375   0.106  15.126 -1.1714  0.3319 -0.5476
 7670SOL     OW34468   4.521   1.577   7.085  0.0091  0.0519 -0.1147
 7670SOL    HW134469   4.581   1.602   7.015 -0.6142 -0.1763 -0.7199
 7670SOL    HW234470   4.532   1.482   7.087  1.2287  0.1436 -2.2147
 7671SOL     OW34471   1.077   3.871   3.719  0.1583 -0.0124 -0.1167
 7671SOL    HW134472   1.003   3.932   3.723 -0.2103 -0.6777  3.0184
 7671SOL    HW234473   1.136   3.923   3.664 -0.5831 -0.0004 -0.8999
 7672SOL     OW34474   2.898   1.046   3.791 -0.3385  0.2804  0.0369
 7672SOL    HW134475   2.847   0.966   3.778  1.7868 -0.9606 -0.5299
 7672SOL    HW234476   2.860   1.088   3.868  1.1470  0.1796  0.8171
 7673SOL     OW34477   0.655   4.236   5.693  0.1895  0.5715 -0.7037
 7673SOL    HW134478   0.641   4.141   5.685  1.1320  0.3434  0.3593
 7673SOL    HW234479   0.747   4.240   5.718  0.1141 -0.9748 -0.1879
 7674SOL     OW34480   1.458   2.146   0.482  0.3944 -0.0509  0.1618
 7674SOL    HW134481   1.511   2.091   0.424 -0.0820  3.7810 -3.9242
 7674SOL    HW234482   1.419   2.207   0.420  1.4537  1.1658  0.6801
 7675SOL     OW34483   2.038   3.868   3.926 -0.3496  0.2921 -0.3091
 7675SOL    HW134484   2.065   3.899   4.012 -0.8152  0.4799 -0.2327
 7675SOL    HW234485   2.102   3.912   3.869  0.4868 -0.6211 -0.0729
 7676SOL     OW34486   0.674   0.911   7.507  0.3049  0.0631  0.4160
 7676SOL    HW134487   0.650   0.993   7.462  0.0399 -1.4681 -2.2297
 7676SOL    HW234488   0.767   0.901   7.483  0.5796  2.4503  0.4386
 7677SOL     OW34489   2.502   4.086   8.189  0.5527 -0.6564  0.2691
 7677SOL    HW134490   2.429   4.073   8.129 -0.3818 -0.1418  1.2868
 7677SOL    HW234491   2.549   4.003   8.189 -1.3611 -1.7494  0.9110
 7678SOL     OW34492   0.632   0.871   3.905  0.4349 -0.2110 -0.1071
 7678SOL    HW134493   0.727   0.873   3.913  0.3057  0.7925  1.0923
 7678SOL    HW234494   0.605   0.794   3.955 -0.6347  1.2197  1.5318
 7679SOL     OW34495   3.603   4.496  15.818 -0.2173 -0.0116 -0.4868
 7679SOL    HW134496   3.630   4.424  15.875  0.7660  0.9526  0.2651
 7679SOL    HW234497   3.640   4.571  15.863 -1.4336  0.3056 -0.0402
 7680SOL     OW34498   1.011   0.750  12.235  0.4245 -0.6756 -0.2189
 7680SOL    HW134499   1.089   0.806  12.240  0.8568 -1.0665 -2.3840
 7680SOL    HW234500   1.041   0.681  12.294  0.8644  0.3441  0.7456
 7681SOL     OW34501   1.630   2.834   2.762  0.1535 -0.0947  0.0565
 7681SOL    HW134502   1.586   2.848   2.846 -0.3777 -2.7550  0.2517
 7681SOL    HW234503   1.615   2.740   2.746 -0.4231 -0.4746  2.9234
 7682SOL     OW34504   2.854   4.518   2.512  0.1016  0.2993  0.2268
 7682SOL    HW134505   2.904   4.485   2.587  0.2438  0.5877  0.2592
 7682SOL    HW234506   2.765   4.490   2.531 -0.8661  1.7266 -2.3104
 7683SOL     OW34507   2.158   4.671   5.776 -0.1738  0.2511 -0.2198
 7683SOL    HW134508   2.225   0.011   5.799 -0.2879  0.1410  0.4082
 7683SOL    HW234509   2.081   0.003   5.788  0.0790  0.9820 -1.9141
 7684SOL     OW34510   4.387   1.116   8.328 -0.3257 -0.6092 -0.1747
 7684SOL    HW134511   4.335   1.049   8.284  0.8989 -1.9177  0.3986
 7684SOL    HW234512   4.392   1.084   8.418 -1.1077  0.7719  0.3614
 7685SOL     OW34513   0.709   3.219   6.483 -0.4753 -0.4587  0.0107
 7685SOL    HW134514   0.693   3.249   6.394  3.4275 -1.9885 -1.2526
 7685SOL    HW234515   0.796   3.179   6.473  0.4729  1.5305  0.3265
 7686SOL     OW34516   3.884   0.109  10.062  0.4895 -0.2999  0.1845
 7686SOL    HW134517   3.903   0.065   9.980  0.5726 -0.1017  0.0974
 7686SOL    HW234518   3.801   0.151  10.042 -0.3286 -1.5498  0.8997
 7687SOL     OW34519   4.142   4.112   7.478 -0.1501 -0.3754 -0.3961
 7687SOL    HW134520   4.212   4.139   7.418  0.3718  0.1057  0.4313
 7687SOL    HW234521   4.063   4.148   7.438  0.3103 -0.5638 -1.4727
 7688SOL     OW34522   4.492   2.582  13.455 -0.5341  1.1980  0.1971
 7688SOL    HW134523   4.408   2.564  13.412 -0.0753 -1.7327  0.5286
 7688SOL    HW234524   4.504   2.677  13.453  2.5699  0.8236  0.6285
 7689SOL     OW34525   4.134   3.105   8.104 -0.8303 -0.4604  0.5592
 7689SOL    HW134526   4.109   3.015   8.085 -0.7086 -0.7605  1.8244
 7689SOL    HW234527   4.116   3.104   8.198 -1.1220  1.4487  0.5193
 7690SOL     OW34528   2.458   0.937   3.864  0.0423  0.5719 -0.1293
 7690SOL    HW134529   2.470   1.017   3.812 -1.3393  1.1593  0.4630
 7690SOL    HW234530   2.492   0.965   3.948  3.2665 -2.1751 -0.5654
 7691SOL     OW34531   0.645   2.026  12.977  0.5664 -1.2741 -0.4422
 7691SOL    HW134532   0.713   2.050  13.041  1.0022 -1.1697 -0.9424
 7691SOL    HW234533   0.685   2.035  12.890  0.9635  0.9205 -0.0348
 7692SOL     OW34534   2.284   1.589   2.443 -0.2018 -0.3638 -0.0096
 7692SOL    HW134535   2.232   1.515   2.413 -1.7435 -0.2133  2.3577
 7692SOL    HW234536   2.360   1.543   2.481  3.0650  3.5900 -1.7723
 7693SOL     OW34537   0.968   1.749  11.444  0.3043 -0.4399  0.4816
 7693SOL    HW134538   0.884   1.775  11.483  0.0769 -0.1545 -0.1862
 7693SOL    HW234539   0.980   1.655  11.437 -0.0884 -0.6191  2.2299
 7694SOL     OW34540   4.136   0.124  16.337 -0.0989  0.1332  0.4913
 7694SOL    HW134541   4.074   0.166  16.278 -1.0665 -2.7867 -0.5840
 7694SOL    HW234542   4.079   0.083  16.403 -0.9005  0.0423 -0.2564
 7695SOL     OW34543   3.357   2.646   4.337 -0.2078 -0.4640  0.2854
 7695SOL    HW134544   3.273   2.670   4.376  0.0950 -0.0939  0.7065
 7695SOL    HW234545   3.370   2.724   4.283  2.2919  0.8628  2.7683
 7696SOL     OW34546   1.791   2.115   4.097 -0.6554 -0.2711  0.3290
 7696SOL    HW134547   1.696   2.114   4.110 -0.9804  0.7722 -1.9380
 7696SOL    HW234548   1.797   2.038   4.040 -0.2327 -0.3476  0.4813
 7697SOL     OW34549   2.937   0.420   1.325  0.1409  0.2118 -0.2707
 7697SOL    HW134550   2.926   0.449   1.416  1.9080 -1.0705  0.3546
 7697SOL    HW234551   2.892   0.335   1.325  0.5040  0.0209 -0.4877
 7698SOL     OW34552   1.364   3.871  16.326 -0.9670 -0.1131  0.2842
 7698SOL    HW134553   1.333   3.920  16.402 -3.1203  1.3328 -1.5188
 7698SOL    HW234554   1.442   3.832  16.366 -1.0347 -1.7084 -1.1225
 7699SOL     OW34555   2.599   0.274   3.341  0.0069  0.0948  0.1288
 7699SOL    HW134556   2.606   0.368   3.356 -2.1760  0.0389  1.5637
 7699SOL    HW234557   2.678   0.246   3.387 -0.0110 -0.2164 -0.0257
 7700SOL     OW34558   4.601   0.335   5.728  0.8144 -0.3438 -0.0674
 7700SOL    HW134559   4.655   0.311   5.654  0.5980 -0.4832 -0.1822
 7700SOL    HW234560   4.558   0.407   5.682  2.5014  1.6820  1.5032
 7701SOL     OW34561   1.335   3.630  10.127  0.1840  0.3796  0.1225
 7701SOL    HW134562   1.355   3.622  10.034 -0.0289  2.8357 -0.1279
 7701SOL    HW234563   1.377   3.553  10.165 -0.0914  0.4232  0.5185
 7702SOL     OW34564   4.012   0.805  13.158  1.0150  0.0837 -0.2093
 7702SOL    HW134565   4.104   0.831  13.151  0.8464  0.7432  0.1242
 7702SOL    HW234566   3.968   0.889  13.151 -1.8217 -1.4111 -0.1068
 7703SOL     OW34567   1.375   2.387  16.781  0.3011  0.1863 -0.1701
 7703SOL    HW134568   1.411   2.311  16.827 -0.4639  0.5913  1.0816
 7703SOL    HW234569   1.282   2.384  16.803 -0.1373  0.4488 -1.9857
 7704SOL     OW34570   3.927   2.225   2.433 -0.1986  0.0091 -0.0042
 7704SOL    HW134571   3.947   2.277   2.355 -0.4034  1.7673  1.1126
 7704SOL    HW234572   3.976   2.146   2.407 -1.9267 -1.1774  0.3687
 7705SOL     OW34573   2.203   0.748   8.401  0.1507  0.2317  0.3409
 7705SOL    HW134574   2.277   0.731   8.460 -1.7811 -1.7255  2.1941
 7705SOL    HW234575   2.232   0.816   8.340  1.8637 -1.0816 -0.2936
 7706SOL     OW34576   2.416   2.685   0.071  0.8806 -0.4689  0.0795
 7706SOL    HW134577   2.400   2.624   0.142 -0.2420 -1.1304 -0.7477
 7706SOL    HW234578   2.496   2.645   0.036  0.8053 -0.3778 -0.1990
 7707SOL     OW34579   2.992   4.082  11.032 -0.1787  0.5943  0.2602
 7707SOL    HW134580   2.980   4.168  11.072  1.0757  1.7461 -1.8747
 7707SOL    HW234581   3.080   4.087  10.996 -0.3609  3.3818  0.2026
 7708SOL     OW34582   1.010   2.883   1.496 -0.1780  0.7003 -0.1720
 7708SOL    HW134583   1.012   2.961   1.552  0.5098  1.1721 -0.8756
 7708SOL    HW234584   0.920   2.855   1.516  0.4909 -0.2653  1.4735
 7709SOL     OW34585   3.936   0.255   3.809  0.2636 -0.1334 -0.0354
 7709SOL    HW134586   3.844   0.277   3.820  0.0844 -0.7042 -0.4174
 7709SOL    HW234587   3.919   0.175   3.760 -0.9210  0.8175 -1.1644
 7710SOL     OW34588   2.081   1.024  12.044  0.4659 -0.1091 -0.2378
 7710SOL    HW134589   2.107   0.992  12.131  1.1913  0.5169 -0.2234
 7710SOL    HW234590   2.148   1.091  12.028 -1.8234  2.3165  0.3031
 7711SOL     OW34591   1.625   3.011  15.166 -0.1278  0.1989  0.0529
 7711SOL    HW134592   1.536   2.997  15.135 -0.3391  0.5432  0.5117
 7711SOL    HW234593   1.649   2.918  15.162 -1.2137 -0.2196  2.9860
 7712SOL     OW34594   3.525   0.835  16.681 -0.0222  0.4772  0.0757
 7712SOL    HW134595   3.499   0.836  16.773  0.1809 -0.6110  0.1413
 7712SOL    HW234596   3.452   0.790  16.639  0.6285  0.4424 -1.0289
 7713SOL     OW34597   2.548   0.498  11.963 -0.2385 -0.4802 -0.1362
 7713SOL    HW134598   2.539   0.587  11.928 -0.6655 -0.4718 -0.0112
 7713SOL    HW234599   2.556   0.439  11.888  0.2085  0.7580 -1.0642
 7714SOL     OW34600   2.035   2.910   3.675 -0.0030 -0.0683 -0.0324
 7714SOL    HW134601   1.968   2.892   3.740 -1.1362  1.3758 -0.8045
 7714SOL    HW234602   2.065   2.821   3.657  0.6167  0.3729 -1.2187
 7715SOL     OW34603   3.057   0.675   3.202 -0.2146  0.1808 -0.3727
 7715SOL    HW134604   2.961   0.667   3.201 -0.4872  3.4874  1.0762
 7715SOL    HW234605   3.094   0.594   3.166  0.1371  0.2825 -0.2344
 7716SOL     OW34606   2.665   0.864   3.055  0.2108  0.1070 -0.5069
 7716SOL    HW134607   2.664   0.959   3.048  0.4752  0.0488 -1.3693
 7716SOL    HW234608   2.571   0.852   3.072 -0.3262  0.5688 -3.2092
 7717SOL     OW34609   0.847   4.042   9.348 -0.3104 -0.0842 -0.6038
 7717SOL    HW134610   0.850   3.948   9.364  1.0582 -0.0895 -0.8592
 7717SOL    HW234611   0.819   4.084   9.429 -0.6766  0.5520 -1.0566
 7718SOL     OW34612   1.951   2.255   6.368 -0.1786  0.1120 -0.1349
 7718SOL    HW134613   2.013   2.203   6.318 -0.1421 -1.9232  2.0261
 7718SOL    HW234614   1.882   2.265   6.303  0.4360  0.6094 -0.7047
 7719SOL     OW34615   1.804   2.218   6.138  0.3463  0.9298 -0.0093
 7719SOL    HW134616   1.838   2.129   6.129 -2.8748 -0.0452 -2.1722
 7719SOL    HW234617   1.728   2.200   6.083  0.9740  2.1924 -1.2941
 7720SOL     OW34618   1.841   2.981   2.754  0.2892 -0.0669  0.4437
 7720SOL    HW134619   1.761   2.936   2.727 -0.1989 -0.1604  2.0205
 7720SOL    HW234620   1.880   2.920   2.816  0.4919 -0.0854  0.2974
 7721SOL     OW34621   4.262   0.292   8.182 -0.4649 -0.2887  0.5371
 7721SOL    HW134622   4.333   0.239   8.145 -1.2174  0.1536 -1.5042
 7721SOL    HW234623   4.217   0.316   8.101 -0.2204 -0.7295  0.2733
 7722SOL     OW34624   3.066   1.302   4.616 -0.2425  0.1464  0.0668
 7722SOL    HW134625   2.993   1.257   4.659  3.0139 -2.9746  2.3130
 7722SOL    HW234626   3.029   1.384   4.582 -0.3498 -2.2128 -5.6380
 7723SOL     OW34627   3.499   0.535   7.408 -0.3638  0.1651 -0.4759
 7723SOL    HW134628   3.414   0.491   7.404  0.2333 -0.8049 -2.4042
 7723SOL    HW234629   3.481   0.624   7.378 -0.5013  0.9905  2.1264
 7724SOL     OW34630   0.189   3.227   8.097  0.0529  0.1438 -0.0144
 7724SOL    HW134631   0.183   3.279   8.176  1.6267  0.0935  0.1363
 7724SOL    HW234632   0.199   3.294   8.029  0.2931 -1.0141 -1.1272
 7725SOL     OW34633   0.858   1.950   5.575  0.3820  0.2138  0.3222
 7725SOL    HW134634   0.892   1.986   5.657  1.3957 -2.0437  0.9135
 7725SOL    HW234635   0.782   2.008   5.569  0.3001  0.0290 -0.3819
 7726SOL     OW34636   2.234   0.365   9.606  0.2149  0.6727  0.6383
 7726SOL    HW134637   2.249   0.272   9.625  0.4953  1.2532  3.2411
 7726SOL    HW234638   2.292   0.402   9.673  0.4265  0.2794  0.6717
 7727SOL     OW34639   4.194   4.200   3.446  0.5885  0.4079  0.0240
 7727SOL    HW134640   4.107   4.184   3.483  1.2987 -0.7464  1.2415
 7727SOL    HW234641   4.183   4.177   3.354 -0.8311 -1.1487  0.5733
 7728SOL     OW34642   1.510   2.691  16.961 -0.6499 -0.3685 -0.4336
 7728SOL    HW134643   1.428   2.666  17.002 -0.7005 -0.2290 -0.4486
 7728SOL    HW234644   1.516   2.779  16.997  0.6376 -0.0299 -1.4372
 7729SOL     OW34645   2.837   0.423   8.909 -0.2176  0.3301  0.8378
 7729SOL    HW134646   2.794   0.390   8.830 -0.7016  2.5422  0.1953
 7729SOL    HW234647   2.805   0.358   8.972 -0.1774  0.5649  1.0980
 7730SOL     OW34648   1.732   1.696   6.179  0.0809  0.9292 -0.1062
 7730SOL    HW134649   1.669   1.663   6.243  0.9015  1.3393  0.9117
 7730SOL    HW234650   1.804   1.669   6.236 -1.1236  0.1206  1.0504
 7731SOL     OW34651   0.844   0.361   6.796  0.0147  0.1830 -0.0779
 7731SOL    HW134652   0.758   0.347   6.835 -0.6905  0.8280 -1.3992
 7731SOL    HW234653   0.834   0.308   6.717  0.7709 -0.1816  0.0723
 7732SOL     OW34654   2.251   1.915  13.853 -0.1809 -1.0176  0.2234
 7732SOL    HW134655   2.229   1.998  13.895  2.3574  0.9701 -2.3543
 7732SOL    HW234656   2.258   1.863  13.932 -0.2792 -0.5743  0.5258
 7733SOL     OW34657   1.111   0.876   0.299  0.3434  0.1065 -0.5414
 7733SOL    HW134658   1.123   0.792   0.253 -0.0491  0.7638 -1.8397
 7733SOL    HW234659   1.200   0.907   0.283  0.4496  0.4955  0.7692
 7734SOL     OW34660   0.236   3.932   9.444  0.8034 -0.7245 -0.0040
 7734SOL    HW134661   0.254   3.839   9.455 -0.8779 -1.0912 -0.4266
 7734SOL    HW234662   0.314   3.978   9.475  1.4264 -0.9128 -1.3048
 7735SOL     OW34663   2.068   2.647   2.269 -0.2430 -0.4371 -0.1157
 7735SOL    HW134664   2.082   2.705   2.344 -0.2453  0.6792 -0.9655
 7735SOL    HW234665   1.977   2.671   2.251  0.0337  0.6919 -0.0387
 7736SOL     OW34666   2.189   0.944   4.523  0.5201 -0.1735 -0.7372
 7736SOL    HW134667   2.118   0.898   4.569  0.5853 -0.1925 -0.6570
 7736SOL    HW234668   2.213   0.868   4.470 -0.9947 -0.6075 -0.8133
 7737SOL     OW34669   1.811   2.096  10.353 -0.0580  0.0810 -0.3712
 7737SOL    HW134670   1.838   2.040  10.425 -0.7224  0.6520  0.3198
 7737SOL    HW234671   1.716   2.087  10.362 -0.2015  1.6785 -0.2803
 7738SOL     OW34672   0.898   1.305   4.341 -0.0970  0.3034  0.1212
 7738SOL    HW134673   0.818   1.305   4.288 -0.3436 -0.1297  0.4923
 7738SOL    HW234674   0.857   1.286   4.426 -2.4353 -0.9168 -1.2806
 7739SOL     OW34675   1.467   2.996   8.508 -0.5152  0.6607 -0.1020
 7739SOL    HW134676   1.530   3.053   8.552  1.7551 -2.3532  0.5378
 7739SOL    HW234677   1.405   3.058   8.470 -0.7552  0.9128  0.6836
 7740SOL     OW34678   1.147   4.720   3.296 -0.0822 -0.2530 -0.4760
 7740SOL    HW134679   1.117   0.030   3.381 -1.3033  0.3400 -1.1544
 7740SOL    HW234680   1.067   4.709   3.245  0.3665 -2.8564 -0.5944
 7741SOL     OW34681   0.953   1.549   7.693 -0.2262 -0.7434  0.2294
 7741SOL    HW134682   0.945   1.570   7.787 -0.8636  0.1530 -0.0216
 7741SOL    HW234683   1.028   1.493   7.714  0.4792 -0.3419 -1.2348
 7742SOL     OW34684   3.490   2.481   6.031 -0.0059 -0.1919  0.0944
 7742SOL    HW134685   3.448   2.552   5.983 -0.3373 -0.2647  0.2782
 7742SOL    HW234686   3.441   2.477   6.113  1.5605  1.1892  1.0893
 7743SOL     OW34687   2.194   2.076   7.248 -0.5149 -0.8280 -0.5131
 7743SOL    HW134688   2.131   2.135   7.207 -0.6616  0.4550  1.5585
 7743SOL    HW234689   2.147   2.059   7.330 -1.2081  0.8353 -0.5680
 7744SOL     OW34690   2.363   3.519   8.145  0.3499 -0.7914  0.2949
 7744SOL    HW134691   2.409   3.499   8.227 -0.0745  1.3419  1.0547
 7744SOL    HW234692   2.276   3.547   8.174 -0.5882 -1.6134 -1.6992
 7745SOL     OW34693   1.545   4.168   3.220 -0.1241 -0.1833  0.4934
 7745SOL    HW134694   1.555   4.073   3.218  1.8160  0.0252  0.5783
 7745SOL    HW234695   1.491   4.181   3.142  1.8259  0.9299 -0.6534
 7746SOL     OW34696   0.325   4.523   0.714 -0.4922  0.0945 -0.3763
 7746SOL    HW134697   0.358   4.613   0.717 -1.5842  0.5242 -1.5259
 7746SOL    HW234698   0.297   4.519   0.805  0.5623  1.9747  0.0360
 7747SOL     OW34699   0.328   3.485  12.070 -0.4468 -0.5912  0.4294
 7747SOL    HW134700   0.259   3.539  12.030  1.8709  1.6788 -0.4614
 7747SOL    HW234701   0.405   3.539  12.059 -0.2511 -0.7517  1.0491
 7748SOL     OW34702   4.117   1.795   1.871 -0.1352 -0.1432  0.0936
 7748SOL    HW134703   4.211   1.806   1.861 -0.3483  1.7924  0.2164
 7748SOL    HW234704   4.088   1.831   1.955 -1.2969 -1.0085  0.0693
 7749SOL     OW34705   4.150   0.657  12.208  0.0963 -0.3324 -0.3934
 7749SOL    HW134706   4.120   0.717  12.139  1.0489  2.1922  1.3863
 7749SOL    HW234707   4.193   0.592  12.152  1.6248  1.4758 -1.3095
 7750SOL     OW34708   0.089   3.399   2.842 -0.3415 -0.0490 -0.0300
 7750SOL    HW134709   0.120   3.378   2.754 -0.0431 -0.0235  0.0710
 7750SOL    HW234710   0.126   3.486   2.858 -0.5697 -0.1474  1.0737
 7751SOL     OW34711   2.156   3.164  16.850 -0.2615 -0.4858  0.1449
 7751SOL    HW134712   2.175   3.195  16.939  0.1829  0.2089 -0.1936
 7751SOL    HW234713   2.110   3.083  16.871  1.6979 -0.9381  2.7113
 7752SOL     OW34714   0.833   1.781   2.169  0.4307 -0.4557  0.3403
 7752SOL    HW134715   0.840   1.725   2.092  1.2149 -0.8141  0.6702
 7752SOL    HW234716   0.920   1.821   2.170 -1.2162  3.0446  2.6380
 7753SOL     OW34717   1.044   2.635  10.258 -0.3145  0.2613  0.4636
 7753SOL    HW134718   0.991   2.575  10.310 -0.8857 -0.3230 -0.7900
 7753SOL    HW234719   1.009   2.616  10.172  1.7822 -0.4489 -0.2391
 7754SOL     OW34720   2.002   1.793   9.491  0.1137  0.3540 -0.1311
 7754SOL    HW134721   2.023   1.769   9.401 -0.4082 -0.8383  0.0710
 7754SOL    HW234722   1.915   1.831   9.480  0.4421  0.2277 -3.1328
 7755SOL     OW34723   1.522   2.600   3.956  0.0965  0.1639  0.8123
 7755SOL    HW134724   1.445   2.577   3.905  1.7399 -0.7848 -1.2182
 7755SOL    HW234725   1.594   2.590   3.894  1.1681  1.3501  1.8632
 7756SOL     OW34726   4.065   3.023   6.704 -0.1067  0.1673  0.1640
 7756SOL    HW134727   4.144   2.970   6.711 -0.2965 -0.2131 -0.6024
 7756SOL    HW234728   4.085   3.054   6.616  1.0028 -0.6027  0.1491
 7757SOL     OW34729   2.573   3.457   3.387  0.3954 -0.3835 -0.0511
 7757SOL    HW134730   2.557   3.363   3.388  0.0337 -0.3243 -0.1813
 7757SOL    HW234731   2.647   3.452   3.327 -0.6903  1.1669 -1.5301
 7758SOL     OW34732   4.616   4.366   8.886 -0.3820  0.2275  0.0797
 7758SOL    HW134733   4.648   4.286   8.845 -0.2725  0.4405 -0.2540
 7758SOL    HW234734   4.692   4.423   8.902  0.1731 -0.6117  0.4279
 7759SOL     OW34735   2.056   3.044  12.038 -0.5736  0.2843 -0.0696
 7759SOL    HW134736   2.140   3.078  12.069 -0.6521 -0.4532  0.9446
 7759SOL    HW234737   2.005   3.123  12.061 -0.8589  0.4361 -1.2301
 7760SOL     OW34738   0.367   0.400  14.259 -0.3183 -0.3518 -0.1998
 7760SOL    HW134739   0.276   0.402  14.286  0.0888 -2.3057  1.3200
 7760SOL    HW234740   0.375   0.313  14.220 -1.4744  0.5320 -2.4009
 7761SOL     OW34741   2.828   3.221   6.644  0.2373 -0.1202  0.5267
 7761SOL    HW134742   2.801   3.145   6.594  2.5467 -1.1423  0.8225
 7761SOL    HW234743   2.923   3.223   6.632  0.1301 -0.3613 -0.3740
 7762SOL     OW34744   2.294   2.495   9.809  0.2267 -0.4039  0.5257
 7762SOL    HW134745   2.218   2.461   9.856 -0.2838 -0.9319 -0.6690
 7762SOL    HW234746   2.271   2.587   9.816  0.3477 -0.3023 -0.4071
 7763SOL     OW34747   3.618   4.017   3.242 -0.0529 -0.3623 -1.0037
 7763SOL    HW134748   3.674   4.090   3.269  0.3605 -0.6924 -0.9581
 7763SOL    HW234749   3.632   4.023   3.148  1.0937 -1.2476 -0.8869
 7764SOL     OW34750   1.439   3.623   6.485  0.1754  0.0320 -0.1415
 7764SOL    HW134751   1.443   3.712   6.518 -0.8263 -0.1268  0.4031
 7764SOL    HW234752   1.369   3.597   6.545  1.2116 -1.8419  0.2484
 7765SOL     OW34753   3.470   0.885   9.434 -0.2532 -0.4037  0.0377
 7765SOL    HW134754   3.541   0.824   9.454  0.0077 -0.1734 -0.1841
 7765SOL    HW234755   3.506   0.968   9.463  2.5946 -1.4759 -0.3950
 7766SOL     OW34756   2.632   0.187   5.465 -0.1162 -0.2674  0.4654
 7766SOL    HW134757   2.640   0.163   5.373 -1.3189  1.8788 -0.1822
 7766SOL    HW234758   2.623   0.282   5.460  1.3998 -0.0385  1.9970
 7767SOL     OW34759   0.606   0.489  15.171  0.0661  0.4957 -0.2807
 7767SOL    HW134760   0.636   0.580  15.173 -0.0075  0.4496  2.6942
 7767SOL    HW234761   0.512   0.505  15.180  0.0287  0.9963 -1.5532
 7768SOL     OW34762   4.197   2.377   5.377 -0.2848  0.6892 -0.1297
 7768SOL    HW134763   4.109   2.361   5.343  0.7052 -0.7121 -2.0452
 7768SOL    HW234764   4.245   2.328   5.310  0.2639  1.8797 -0.5993
 7769SOL     OW34765   1.046   2.891   4.450  0.3521  0.0888  0.6662
 7769SOL    HW134766   1.132   2.933   4.451 -0.6145  2.1123 -1.3221
 7769SOL    HW234767   0.992   2.965   4.477  0.2419  0.6909 -1.1936
 7770SOL     OW34768   1.901   3.848   8.519  0.1259  0.3927  0.7165
 7770SOL    HW134769   1.986   3.879   8.552 -0.2893  4.5848 -2.1302
 7770SOL    HW234770   1.839   3.848   8.592  0.6510 -2.0458  1.1525
 7771SOL     OW34771   3.325   4.707   8.652  0.1489 -0.7291  0.1733
 7771SOL    HW134772   3.289   0.071   8.662 -0.6439 -0.8323 -1.8733
 7771SOL    HW234773   3.266   4.656   8.707  0.4907 -0.7638  0.5085
 7772SOL     OW34774   0.315   1.307   4.025 -0.4321  0.0263  0.0483
 7772SOL    HW134775   0.280   1.395   4.016 -1.0795 -0.3040 -0.7024
 7772SOL    HW234776   0.323   1.308   4.120 -2.8129  0.0093  0.2481
 7773SOL     OW34777   4.693   2.030   9.021 -0.0615 -0.2057  0.3487
 7773SOL    HW134778   0.009   2.112   9.050  0.7202 -0.6767  0.6221
 7773SOL    HW234779   4.600   2.042   9.040  0.2406  0.1252  1.6590
 7774SOL     OW34780   3.333   2.677   2.491  0.2894 -0.1893  0.2235
 7774SOL    HW134781   3.345   2.583   2.479 -0.9246 -0.4394  0.9491
 7774SOL    HW234782   3.408   2.701   2.546  1.3589 -0.4209 -1.1324
 7775SOL     OW34783   4.421   4.038   7.919 -0.3169 -0.1410  0.0056
 7775SOL    HW134784   4.450   4.116   7.872  1.2631  0.4792  1.9955
 7775SOL    HW234785   4.330   4.034   7.889 -0.6348 -1.5967  1.1281
 7776SOL     OW34786   2.896   3.182  15.729 -0.1612 -0.0416 -0.2911
 7776SOL    HW134787   2.906   3.121  15.656 -1.3866 -1.4987  0.7444
 7776SOL    HW234788   2.907   3.266  15.685 -1.1343  0.3214  0.1491
 7777SOL     OW34789   1.609   1.488  14.827 -0.2908 -0.2784  0.2829
 7777SOL    HW134790   1.640   1.502  14.917 -1.4225 -0.5846  0.7190
 7777SOL    HW234791   1.682   1.427  14.811 -1.6424 -1.8495  0.0834
 7778SOL     OW34792   1.213   4.211   1.847 -0.4457  0.2347 -0.1986
 7778SOL    HW134793   1.184   4.128   1.809 -2.3903  1.2279 -0.9276
 7778SOL    HW234794   1.129   4.255   1.864 -0.5611  0.4563 -1.3829
 7779SOL     OW34795   1.718   0.602   5.719 -0.2348  0.5452 -0.0173
 7779SOL    HW134796   1.625   0.579   5.715  0.0146 -0.7328  1.5053
 7779SOL    HW234797   1.725   0.626   5.811  3.9097  0.3653 -0.2918
 7780SOL     OW34798   4.198   0.149   6.280  0.3603  0.6340  0.6102
 7780SOL    HW134799   4.116   0.129   6.234  0.0702 -0.3432  1.5460
 7780SOL    HW234800   4.265   0.158   6.212  3.0065  0.5218  3.2423
 7781SOL     OW34801   0.070   4.014   7.771  0.6930 -0.5559 -0.0555
 7781SOL    HW134802   0.069   4.033   7.677  0.7846  0.3068  0.1149
 7781SOL    HW234803   0.113   3.929   7.775  0.8142 -0.6096 -2.5701
 7782SOL     OW34804   1.005   0.219  13.947 -0.0284 -0.3756  0.2693
 7782SOL    HW134805   0.935   0.280  13.970  1.1017  0.3775  1.6759
 7782SOL    HW234806   1.069   0.285  13.973  0.1266 -0.2019 -0.5609
 7783SOL     OW34807   4.360   1.926   4.964 -0.1197 -0.5387  0.2557
 7783SOL    HW134808   4.335   1.834   4.966  0.5098 -0.7191 -0.3871
 7783SOL    HW234809   4.324   1.961   4.882  1.1943 -1.5688 -0.7518
 7784SOL     OW34810   1.772   3.495  13.795 -0.4034 -0.4477  0.3270
 7784SOL    HW134811   1.722   3.562  13.842 -0.3538  0.3340 -0.7168
 7784SOL    HW234812   1.859   3.533  13.780 -0.4538  0.4087  2.2048
 7785SOL     OW34813   1.892   4.407   6.512 -0.5996  0.0316  0.5907
 7785SOL    HW134814   1.877   4.474   6.446  1.9660  0.0133  0.0012
 7785SOL    HW234815   1.893   4.333   6.451  1.5649  1.8024 -1.4782
 7786SOL     OW34816   2.826   0.697   3.968 -0.2286 -0.2882  0.1307
 7786SOL    HW134817   2.888   0.758   4.007 -0.3448 -2.3211  3.5108
 7786SOL    HW234818   2.879   0.640   3.912  2.9636  0.1905  2.6608
 7787SOL     OW34819   2.146   0.873   1.701 -0.1370  0.1691 -0.1739
 7787SOL    HW134820   2.058   0.909   1.696  0.0471  0.5628 -0.5420
 7787SOL    HW234821   2.174   0.903   1.615  2.5973  3.3247  1.8314
 7788SOL     OW34822   0.822   1.032   5.972 -0.4271  0.0749  0.2663
 7788SOL    HW134823   0.739   1.055   6.013 -1.3246 -0.8435 -1.0226
 7788SOL    HW234824   0.868   1.020   6.056 -0.3073  0.3909  0.2455
 7789SOL     OW34825   3.697   4.685  15.955 -1.1993 -0.0054 -0.0521
 7789SOL    HW134826   3.752   4.672  16.032  0.5772  0.3418 -1.2746
 7789SOL    HW234827   3.665   0.051  15.963  2.0168  1.1383 -0.0887
 7790SOL     OW34828   2.828   0.329   1.654  0.0655 -0.2936 -0.3198
 7790SOL    HW134829   2.833   0.324   1.750  1.6393 -0.9239 -0.4349
 7790SOL    HW234830   2.812   0.238   1.630 -1.1067 -0.5500  1.4202
 7791SOL     OW34831   0.691   0.869   9.939  0.1069 -0.2758  0.1623
 7791SOL    HW134832   0.702   0.888   9.846 -0.3307  0.1397  0.1994
 7791SOL    HW234833   0.725   0.951   9.975  0.1338 -1.4634  2.8306
 7792SOL     OW34834   1.384   0.631   5.213 -0.0295  0.3321 -0.3513
 7792SOL    HW134835   1.293   0.618   5.242 -0.6456  1.9488 -1.6261
 7792SOL    HW234836   1.430   0.637   5.297  1.4406 -0.6498 -1.0882
 7793SOL     OW34837   1.302   1.053   4.148  0.0051 -0.4113 -0.2897
 7793SOL    HW134838   1.344   0.968   4.158  0.6083 -0.1295 -0.4288
 7793SOL    HW234839   1.218   1.014   4.125  0.5941 -1.3911 -0.7805
 7794SOL     OW34840   1.063   1.567  12.481  0.7523  0.0956  0.4613
 7794SOL    HW134841   1.068   1.533  12.391 -2.2083 -0.9674  0.6853
 7794SOL    HW234842   0.970   1.557  12.500  0.6584  0.3290  0.1237
 7795SOL     OW34843   4.301   4.421   4.738  0.2410  0.3964  0.9583
 7795SOL    HW134844   4.217   4.466   4.733  0.8771  1.6674  1.5622
 7795SOL    HW234845   4.296   4.334   4.698  1.5765  1.2450 -1.0435
 7796SOL     OW34846   0.954   2.734   4.850  0.8606  0.2100 -0.4582
 7796SOL    HW134847   0.936   2.689   4.932  0.6728 -1.4304 -1.3946
 7796SOL    HW234848   0.902   2.674   4.796  1.5147 -1.7590  1.0819
 7797SOL     OW34849   1.045   0.917   1.301  0.0398 -0.1079 -0.0507
 7797SOL    HW134850   1.098   0.930   1.223 -0.7130 -0.1880 -0.5744
 7797SOL    HW234851   1.095   0.842   1.334  0.2662 -0.2475 -0.7084
 7798SOL     OW34852   3.572   2.418   3.799 -0.5854  0.2359  0.2072
 7798SOL    HW134853   3.608   2.344   3.847 -1.8946 -0.9642 -0.6857
 7798SOL    HW234854   3.492   2.384   3.760  0.2346 -0.1586 -1.1101
 7799SOL     OW34855   1.227   4.185   1.433 -0.0198 -0.2207  0.5136
 7799SOL    HW134856   1.218   4.195   1.338 -0.7855  1.5003  0.7833
 7799SOL    HW234857   1.319   4.160   1.444 -0.2337 -0.3233  2.1109
 7800SOL     OW34858   3.610   3.760   8.132 -0.2469 -0.0825  0.8734
 7800SOL    HW134859   3.545   3.717   8.188 -1.8889 -1.8591 -2.3984
 7800SOL    HW234860   3.581   3.851   8.133  0.6577  0.1928  1.7496
 7801SOL     OW34861   2.656   3.616   7.860 -0.3000 -0.1142  0.2364
 7801SOL    HW134862   2.743   3.575   7.851 -0.4969 -0.5302  0.2212
 7801SOL    HW234863   2.675   3.710   7.866 -0.7978 -0.0008 -0.0513
 7802SOL     OW34864   0.879   3.683   2.640  0.2334  0.1147  0.2640
 7802SOL    HW134865   0.840   3.765   2.610 -0.3230 -0.0876  0.4402
 7802SOL    HW234866   0.970   3.697   2.613  0.1098 -0.6191 -0.5423
 7803SOL     OW34867   2.879   2.881   7.086 -0.1855 -0.1312 -0.2950
 7803SOL    HW134868   2.940   2.943   7.125  1.1720  0.1674 -2.8693
 7803SOL    HW234869   2.825   2.951   7.051  0.4903  0.9559  0.8446
 7804SOL     OW34870   2.785   0.018   7.175  0.3030  0.3015 -0.2337
 7804SOL    HW134871   2.741   0.024   7.260  1.4683  0.3784  0.3635
 7804SOL    HW234872   2.718   4.716   7.112 -0.6805  2.4582 -0.1048
 7805SOL     OW34873   2.164   0.862   0.913  0.3865  0.0874  0.0392
 7805SOL    HW134874   2.167   0.865   0.817 -0.6409 -0.6170 -0.0221
 7805SOL    HW234875   2.147   0.955   0.927  0.3998 -0.1313  1.5001
 7806SOL     OW34876   0.223   3.493   4.936  0.1434 -0.0472 -0.3687
 7806SOL    HW134877   0.225   3.585   4.913  0.4656 -0.5124 -2.2089
 7806SOL    HW234878   0.183   3.462   4.855 -0.7585 -0.1809  0.1281
 7807SOL     OW34879   3.871   0.032   7.493 -0.1329 -0.2605 -0.1894
 7807SOL    HW134880   3.918   0.056   7.573 -1.9457  2.1981  0.1482
 7807SOL    HW234881   3.798   0.092   7.509 -0.3652 -1.0472  1.7527
 7808SOL     OW34882   4.126   1.157   2.762 -0.1436  0.3791 -0.9337
 7808SOL    HW134883   4.046   1.113   2.731 -1.2125  0.9612  0.9875
 7808SOL    HW234884   4.185   1.082   2.758  0.5912  0.8955  0.3169
 7809SOL     OW34885   0.066   3.094   2.054 -0.2854 -1.0609 -0.2475
 7809SOL    HW134886   0.139   3.053   2.102 -0.8926 -1.7682  0.0746
 7809SOL    HW234887   0.116   3.120   1.977 -0.3643  0.7961  0.3351
 7810SOL     OW34888   1.059   4.157   6.856 -0.0395  0.2723  0.0423
 7810SOL    HW134889   1.041   4.247   6.884  0.3430  0.5959 -0.7560
 7810SOL    HW234890   1.091   4.160   6.766 -0.9655 -2.4894 -0.3619
 7811SOL     OW34891   4.669   4.246   4.810  0.3326  0.3706  0.3375
 7811SOL    HW134892   4.667   4.278   4.720 -0.8791  2.8241  1.2355
 7811SOL    HW234893   4.585   4.264   4.854 -0.2299  0.3098 -0.7078
 7812SOL     OW34894   1.394   3.379   4.519 -0.1754 -0.0866 -0.0547
 7812SOL    HW134895   1.446   3.380   4.439 -1.4690  2.3094 -0.8936
 7812SOL    HW234896   1.312   3.422   4.493  0.6672  0.9254 -1.0243
 7813SOL     OW34897   3.284   1.455   4.905  0.3891  0.5033  0.1016
 7813SOL    HW134898   3.327   1.532   4.870  1.5378 -0.2227 -0.0821
 7813SOL    HW234899   3.309   1.391   4.838  1.9871  0.3009  0.8867
 7814SOL     OW34900   1.018   0.506   0.581  0.1822  0.2728 -0.8012
 7814SOL    HW134901   1.034   0.580   0.640 -1.2806  0.3076 -0.4592
 7814SOL    HW234902   0.976   0.555   0.510  0.3744  0.4521 -0.7937
 7815SOL     OW34903   3.640   0.966   6.276  0.2809 -0.0481 -0.6366
 7815SOL    HW134904   3.546   0.959   6.257  0.0018  0.6268  0.4633
 7815SOL    HW234905   3.644   1.061   6.291 -0.7380 -0.0116 -0.5892
 7816SOL     OW34906   0.857   2.013   4.867  0.7498  0.6718  0.2573
 7816SOL    HW134907   0.868   2.028   4.773  2.6465 -3.3006 -0.1657
 7816SOL    HW234908   0.886   1.922   4.869  2.8456  1.3531  0.5561
 7817SOL     OW34909   2.311   1.764   4.976  0.3742 -0.2382 -0.3641
 7817SOL    HW134910   2.240   1.744   5.037 -0.9657  0.4752 -1.7052
 7817SOL    HW234911   2.329   1.673   4.952 -0.3014 -0.1230 -1.2976
 7818SOL     OW34912   3.198   1.727   3.593 -0.5669 -0.0675 -0.3846
 7818SOL    HW134913   3.269   1.782   3.627  1.0641 -2.3688 -0.1069
 7818SOL    HW234914   3.202   1.743   3.498  0.2303  2.6090  0.0837
 7819SOL     OW34915   1.380   3.806   4.328 -0.4202 -0.0578  0.9291
 7819SOL    HW134916   1.395   3.779   4.419  1.1212  0.9441  0.9896
 7819SOL    HW234917   1.296   3.851   4.337 -0.0064  1.1125 -1.0114
 7820SOL     OW34918   1.073   3.172   7.247  0.2618  0.0353 -0.5486
 7820SOL    HW134919   1.093   3.183   7.154  2.3627 -1.9396 -0.3051
 7820SOL    HW234920   1.160   3.176   7.286  0.1324 -0.2189 -0.2347
 7821SOL     OW34921   1.098   0.398   0.278  0.1326  1.2468  0.2717
 7821SOL    HW134922   1.022   0.456   0.274 -0.0878  0.9853  0.7388
 7821SOL    HW234923   1.163   0.440   0.334 -0.6096  2.7631 -0.0090
 7822SOL     OW34924   0.658   2.319   7.117  0.6906  0.4334 -0.2866
 7822SOL    HW134925   0.708   2.395   7.147 -0.0063  0.4861  0.7635
 7822SOL    HW234926   0.716   2.280   7.052  0.0770 -1.1559  0.1268
 7823SOL     OW34927   2.260   4.011   3.873  0.4347  0.5439  0.2079
 7823SOL    HW134928   2.311   4.069   3.930  0.1325  0.7941  0.2235
 7823SOL    HW234929   2.240   4.069   3.800  2.6183 -0.5215 -1.2302
 7824SOL     OW34930   1.885   0.493   6.335  0.2927 -0.4179  0.0592
 7824SOL    HW134931   1.870   0.587   6.338  0.4861 -0.3725 -0.3623
 7824SOL    HW234932   1.906   0.480   6.428 -1.6808 -0.8802  0.4333
 7825SOL     OW34933   2.758   3.897   6.050  0.7012  0.0428 -0.4070
 7825SOL    HW134934   2.798   3.817   6.016 -1.1794 -0.4031 -1.5655
 7825SOL    HW234935   2.675   3.856   6.075  0.9832  0.7523  1.6594
 7826SOL     OW34936   2.767   3.368  11.206 -0.6039 -0.7080  0.4298
 7826SOL    HW134937   2.756   3.315  11.285 -0.3201  1.1826  1.7367
 7826SOL    HW234938   2.710   3.315  11.151 -0.1168 -1.1409  0.3464
 7827SOL     OW34939   2.042   0.424   1.715  0.2386 -0.0722  0.1897
 7827SOL    HW134940   2.095   0.393   1.642 -0.1532 -0.2210 -0.0312
 7827SOL    HW234941   2.104   0.481   1.759  0.6513 -0.7282  0.4647
 7828SOL     OW34942   0.345   0.625  12.408 -0.4453  0.2455  0.2832
 7828SOL    HW134943   0.373   0.606  12.498 -0.2170 -1.9457 -0.2532
 7828SOL    HW234944   0.274   0.561  12.399 -0.1246  0.3199 -2.9304
 7829SOL     OW34945   1.777   3.825   0.091 -0.7877 -0.0213  0.3641
 7829SOL    HW134946   1.697   3.825   0.038  0.3224 -1.0833 -1.3227
 7829SOL    HW234947   1.771   3.731   0.107  2.5524 -0.5419 -1.6351
 7830SOL     OW34948   1.478   4.693   5.285 -0.1202  0.3409  0.0188
 7830SOL    HW134949   1.472   0.008   5.198  0.5941  0.9517  0.2461
 7830SOL    HW234950   1.568   4.710   5.314 -0.7509  1.4840  1.3012
 7831SOL     OW34951   4.565   2.772   2.841 -0.5663 -0.4201  0.2340
 7831SOL    HW134952   4.522   2.820   2.912 -2.6560 -3.6554  1.1814
 7831SOL    HW234953   4.495   2.787   2.777 -1.2094 -0.2379  0.9685
 7832SOL     OW34954   2.924   4.285  16.991  0.1428  0.1057  0.7116
 7832SOL    HW134955   2.957   4.374  16.978  0.4200  0.3183  2.7855
 7832SOL    HW234956   2.858   4.278  16.923 -0.5504  0.3596  1.3555
 7833SOL     OW34957   4.089   3.745   5.380 -0.3821 -0.1671 -0.1721
 7833SOL    HW134958   4.068   3.830   5.340 -0.3076  0.9044  2.0637
 7833SOL    HW234959   4.097   3.770   5.472 -1.4510  2.0185 -0.6633
 7834SOL     OW34960   4.526   4.475  12.935 -0.0433 -0.1007  0.2314
 7834SOL    HW134961   4.440   4.480  12.978 -0.7383  1.1051 -1.3184
 7834SOL    HW234962   4.582   4.488  13.011  0.3952 -0.5267 -0.0133
 7835SOL     OW34963   0.532   0.121  15.304  0.2650  0.6465  0.4539
 7835SOL    HW134964   0.550   0.141  15.213  1.6804  0.2728  0.6473
 7835SOL    HW234965   0.442   0.092  15.291  1.1237 -1.5724 -0.5128
 7836SOL     OW34966   3.477   3.273   2.819 -0.6348 -0.5671 -0.4012
 7836SOL    HW134967   3.526   3.217   2.879  1.1809  0.6623 -0.7359
 7836SOL    HW234968   3.541   3.301   2.754 -1.3342 -0.5804 -1.0922
 7837SOL     OW34969   0.024   3.680   2.689 -0.6882  0.7082 -0.0073
 7837SOL    HW134970   4.722   3.740   2.619 -0.4094  1.3168  0.4115
 7837SOL    HW234971   0.111   3.648   2.666 -1.0030 -0.7391  0.8640
 7838SOL     OW34972   0.104   3.373   2.558  0.4257  0.4804  0.1588
 7838SOL    HW134973   0.135   3.297   2.509  0.4891 -0.8923  2.3290
 7838SOL    HW234974   0.126   3.455   2.513  0.2072  1.3296  1.5981
 7839SOL     OW34975   1.268   1.465  10.506 -0.3203 -0.1622 -0.5510
 7839SOL    HW134976   1.185   1.495  10.543  1.2108  1.5284  1.5771
 7839SOL    HW234977   1.334   1.522  10.546  0.7774 -2.2696  0.6369
 7840SOL     OW34978   3.387   2.678   2.925 -0.1953 -0.2451 -0.6101
 7840SOL    HW134979   3.451   2.714   2.986  0.9183 -0.3105 -1.7338
 7840SOL    HW234980   3.446   2.640   2.859 -2.0676 -0.8709 -1.9145
 7841SOL     OW34981   3.523   3.270   3.624  0.1474 -0.5629 -1.0286
 7841SOL    HW134982   3.523   3.308   3.536  0.7737 -1.0124 -1.2202
 7841SOL    HW234983   3.474   3.191   3.602  1.0526 -1.7513  1.2832
 7842SOL     OW34984   1.436   3.395   7.185 -0.7826  0.3813  0.4214
 7842SOL    HW134985   1.446   3.487   7.163  0.5260  0.1877  0.2296
 7842SOL    HW234986   1.389   3.410   7.268 -1.0976  2.5471 -0.1446
 7843SOL     OW34987   2.911   1.784  11.044  0.3120 -0.6858 -0.2177
 7843SOL    HW134988   2.987   1.759  11.096 -1.1981 -0.8969  1.8493
 7843SOL    HW234989   2.875   1.855  11.098 -1.1818 -1.4144 -0.2612
 7844SOL     OW34990   2.089   3.357   5.617  0.4145 -0.5870 -0.1925
 7844SOL    HW134991   2.028   3.287   5.639  1.4423 -1.5408 -0.4084
 7844SOL    HW234992   2.165   3.324   5.665  0.4038  0.2040  0.3731
 7845SOL     OW34993   4.047   2.825   6.149 -0.7269 -0.1298  0.2007
 7845SOL    HW134994   4.023   2.738   6.180  1.3539 -1.0776 -0.8571
 7845SOL    HW234995   3.956   2.854   6.143  0.6603  4.6380  1.8262
 7846SOL     OW34996   3.778   1.675   8.521  0.3162 -0.4130 -0.1356
 7846SOL    HW134997   3.773   1.676   8.425 -0.1122 -2.1497 -0.1305
 7846SOL    HW234998   3.819   1.590   8.536  0.4567 -0.5573 -1.3072
 7847SOL     OW34999   3.099   3.358   4.559  0.2218  0.4674 -0.3775
 7847SOL    HW135000   3.047   3.373   4.638  4.1760 -0.0051  2.2670
 7847SOL    HW235001   3.076   3.434   4.505 -0.2650  0.2598 -0.4703
 7848SOL     OW35002   4.578   0.869   1.898 -0.3681  0.0003  0.2251
 7848SOL    HW135003   4.609   0.935   1.960  0.3206  2.0000 -2.2239
 7848SOL    HW235004   4.540   0.812   1.965  0.1695 -0.3875  0.1997
 7849SOL     OW35005   3.353   2.096   9.260 -0.0839  0.2747  0.1641
 7849SOL    HW135006   3.420   2.055   9.316 -1.1803 -0.7059  0.7598
 7849SOL    HW235007   3.344   2.185   9.294  0.0636  0.6318 -0.7402
 7850SOL     OW35008   1.197   4.408  16.959  0.2036  0.0322  0.3103
 7850SOL    HW135009   1.134   4.395  16.887  0.7175 -0.8175  0.0179
 7850SOL    HW235010   1.139   4.382  17.030 -0.5502 -0.0572 -0.3298
 7851SOL     OW35011   4.148   4.404   2.384  0.0461 -0.3730 -0.1633
 7851SOL    HW135012   4.096   4.462   2.439  0.3754 -0.0137 -0.2298
 7851SOL    HW235013   4.082   4.339   2.362 -1.1063  0.9708 -0.6557
 7852SOL     OW35014   0.747   2.821   9.072  0.5909  0.1868  0.2335
 7852SOL    HW135015   0.803   2.896   9.091 -0.2794  0.6203  1.1219
 7852SOL    HW235016   0.686   2.852   9.005  0.4071 -1.1705 -0.2241
 7853SOL     OW35017   3.562   2.249   5.895 -0.0558 -0.1300  0.2478
 7853SOL    HW135018   3.550   2.342   5.909  1.8895  0.0044  1.0096
 7853SOL    HW235019   3.525   2.237   5.807  1.5742 -0.3984 -0.4119
 7854SOL     OW35020   4.435   1.533   7.337 -0.3555 -0.1905  0.1157
 7854SOL    HW135021   4.499   1.465   7.359 -0.1654 -0.8179 -2.2894
 7854SOL    HW235022   4.470   1.554   7.250 -0.3696 -0.6040  0.0098
 7855SOL     OW35023   0.058   3.594   0.203  0.3712  0.0473  0.0904
 7855SOL    HW135024   0.066   3.595   0.298  2.3317 -0.2947 -0.0638
 7855SOL    HW235025   0.083   3.503   0.191  2.2793  0.4643  0.8474
 7856SOL     OW35026   0.277   1.920  15.836  0.2930  0.0713  0.3467
 7856SOL    HW135027   0.342   1.850  15.848 -1.0628 -0.9710  1.5680
 7856SOL    HW235028   0.314   1.975  15.767  2.8331 -0.8618  0.9588
 7857SOL     OW35029   0.939   1.014   0.145 -0.5643 -0.5830 -0.1269
 7857SOL    HW135030   0.959   0.973   0.060  0.2861  1.1700 -0.7833
 7857SOL    HW235031   0.981   0.951   0.204  1.1948  0.2382 -0.4779
 7858SOL     OW35032   2.997   0.126   3.062 -0.0812 -0.5946 -0.7202
 7858SOL    HW135033   3.028   0.156   3.147  0.8181 -2.7083 -0.3071
 7858SOL    HW235034   2.945   0.051   3.091 -1.1200  0.4031 -0.0192
 7859SOL     OW35035   3.677   1.008  11.225 -0.3723 -0.0548 -0.3346
 7859SOL    HW135036   3.714   0.958  11.153  0.7319 -0.5777  0.6091
 7859SOL    HW235037   3.747   1.071  11.244 -1.2137  0.9290 -0.4431
 7860SOL     OW35038   4.438   2.876  12.888  0.3272  0.1401  0.2139
 7860SOL    HW135039   4.420   2.965  12.919 -2.0380 -0.3443  0.2192
 7860SOL    HW235040   4.353   2.845  12.857  1.1052 -1.5189 -0.2515
 7861SOL     OW35041   1.214   4.187   7.358 -0.4171 -0.0389 -0.3325
 7861SOL    HW135042   1.220   4.283   7.358  0.4249 -0.0949  0.0370
 7861SOL    HW235043   1.266   4.165   7.435  0.0616  1.5494 -0.1897
 7862SOL     OW35044   0.040   0.868  15.361 -0.6382 -0.4940 -0.5277
 7862SOL    HW135045   0.049   0.952  15.407  2.9376 -1.2024  0.1253
 7862SOL    HW235046   0.061   0.811  15.435  0.5433  0.5777 -0.0224
 7863SOL     OW35047   1.561   4.581   1.280  0.5213 -0.0624  0.2380
 7863SOL    HW135048   1.596   4.666   1.303  0.3883  0.3963 -1.2467
 7863SOL    HW235049   1.492   4.550   1.339  0.5313 -2.5240 -1.0203
 7864SOL     OW35050   2.968   0.275  11.526  0.7397 -0.3548  0.0428
 7864SOL    HW135051   3.023   0.308  11.597  0.1572  1.9920 -0.5983
 7864SOL    HW235052   2.881   0.276  11.566 -0.3011  1.1951 -2.2581
 7865SOL     OW35053   0.152   0.594   3.076  0.1194  0.2475 -0.5988
 7865SOL    HW135054   0.195   0.522   3.121 -2.5114  0.0985  1.6942
 7865SOL    HW235055   0.142   0.660   3.145 -0.1137 -2.1431  1.6493
 7866SOL     OW35056   3.704   3.232  11.247 -0.3359  0.1387 -0.0684
 7866SOL    HW135057   3.615   3.217  11.278 -0.7178  0.9388 -0.7654
 7866SOL    HW235058   3.698   3.322  11.215  0.0732  0.5639  1.0285
 7867SOL     OW35059   2.816   1.687   7.611 -0.7755  0.6847  0.2937
 7867SOL    HW135060   2.910   1.674   7.601 -0.9869  0.2224 -1.1813
 7867SOL    HW235061   2.780   1.612   7.563  0.2434  1.6080 -1.8908
 7868SOL     OW35062   1.017   1.593  10.533 -0.0294 -0.6022 -0.3085
 7868SOL    HW135063   0.941   1.535  10.533  0.2973 -1.0251 -2.4478
 7868SOL    HW235064   0.997   1.651  10.607  0.3969  1.3707 -1.7495
 7869SOL     OW35065   0.420   2.551   3.709 -0.0456 -0.3417  0.4156
 7869SOL    HW135066   0.396   2.568   3.800 -2.4612 -0.3770 -0.2216
 7869SOL    HW235067   0.504   2.597   3.702 -0.1928 -0.3672 -1.5316
 7870SOL     OW35068   2.121   1.022   0.269 -0.1346  0.3138 -0.1295
 7870SOL    HW135069   2.213   1.019   0.293 -1.0855  0.1257  3.5880
 7870SOL    HW235070   2.113   0.930   0.242  2.6601  0.1181 -0.2179
 7871SOL     OW35071   3.227   1.120  11.505  0.5242  0.1683  0.1492
 7871SOL    HW135072   3.246   1.152  11.593  1.8644 -0.6999  0.1758
 7871SOL    HW235073   3.308   1.079  11.474 -0.2526 -0.9545 -0.3989
 7872SOL     OW35074   0.316   0.325   2.821 -0.1135  0.0503  0.0647
 7872SOL    HW135075   0.282   0.293   2.737  2.2258 -1.4127 -0.3032
 7872SOL    HW235076   0.294   0.418   2.813 -2.1560 -0.4059  0.3956
 7873SOL     OW35077   0.093   0.693  14.600 -0.0240  0.6746 -0.5725
 7873SOL    HW135078   0.111   0.654  14.686 -0.3593 -2.4081 -1.9041
 7873SOL    HW235079   0.175   0.675  14.556 -0.4048  1.7320 -1.6919
 7874SOL     OW35080   0.455   1.366   0.809  0.1688  0.1600 -0.5744
 7874SOL    HW135081   0.492   1.386   0.895  0.4071  0.2321 -0.6958
 7874SOL    HW235082   0.497   1.432   0.754 -3.2994  2.7344 -0.1879
 7875SOL     OW35083   2.170   1.474  12.047 -0.2832 -0.0291  0.0025
 7875SOL    HW135084   2.230   1.403  12.022  1.0788  0.1869  2.6392
 7875SOL    HW235085   2.092   1.427  12.077  0.3756 -1.1319  0.0119
 7876SOL     OW35086   4.341   4.107   6.677  0.0012  0.2726 -0.3782
 7876SOL    HW135087   4.409   4.171   6.702  0.1453  0.5882 -1.5814
 7876SOL    HW235088   4.284   4.159   6.621 -1.8515  1.0613  2.2505
 7877SOL     OW35089   1.471   0.349  15.319  0.2022 -0.2304  0.0926
 7877SOL    HW135090   1.487   0.407  15.245  0.3639  1.7616  1.6986
 7877SOL    HW235091   1.547   0.292  15.315  2.3872  2.5864  1.8021
 7878SOL     OW35092   2.263   1.822  15.074 -0.1712 -0.0172  0.2303
 7878SOL    HW135093   2.304   1.829  14.988  0.5017  1.3303  0.6537
 7878SOL    HW235094   2.343   1.808  15.124 -0.2223 -0.1636  0.2721
 7879SOL     OW35095   0.702   2.275   5.268  0.4157 -0.4025  0.0741
 7879SOL    HW135096   0.770   2.225   5.313  0.3656 -0.0617  0.5329
 7879SOL    HW235097   0.738   2.293   5.182  1.9187 -1.8956  0.4081
 7880SOL     OW35098   0.603   3.962   8.389  0.5026 -0.2288  0.6461
 7880SOL    HW135099   0.533   3.905   8.421 -0.7639  0.6558 -0.5886
 7880SOL    HW235100   0.670   3.898   8.414 -0.1029 -1.4899 -0.9260
 7881SOL     OW35101   0.061   0.823   4.131 -0.1941  0.1886  0.0356
 7881SOL    HW135102   0.124   0.759   4.166 -1.2374  0.5657  2.6151
 7881SOL    HW235103   0.072   0.814   4.037 -2.2524 -0.0652 -0.1635
 7882SOL     OW35104   3.590   2.503   5.491 -0.2401 -0.5454  0.4902
 7882SOL    HW135105   3.570   2.512   5.584 -0.2603  1.0864  0.3346
 7882SOL    HW235106   3.529   2.570   5.460 -3.1034 -3.1262  0.5781
 7883SOL     OW35107   4.510   1.663   6.500  0.4365  0.1001  0.3475
 7883SOL    HW135108   4.440   1.625   6.553 -1.0500  1.5404 -0.5472
 7883SOL    HW235109   4.473   1.638   6.415  0.6579 -2.9662  1.1707
 7884SOL     OW35110   2.023   2.730  16.098  0.0964  0.7052  0.5241
 7884SOL    HW135111   2.064   2.649  16.068  0.6511  1.0469  0.3699
 7884SOL    HW235112   2.093   2.757  16.158 -0.1359  1.7365  0.3287
 7885SOL     OW35113   2.853   2.578  15.759  0.2429  0.1090  0.3382
 7885SOL    HW135114   2.935   2.535  15.735  0.2547 -0.4667  1.4156
 7885SOL    HW235115   2.839   2.648  15.695 -0.4401  1.0219  1.4972
 7886SOL     OW35116   0.816   1.351  14.829 -0.3393  0.1600  0.2427
 7886SOL    HW135117   0.791   1.263  14.857  0.7435 -0.7528 -1.5945
 7886SOL    HW235118   0.887   1.370  14.891 -1.1292 -0.2601  1.2662
 7887SOL     OW35119   4.550   3.722   4.687 -0.1021 -0.1376  0.0038
 7887SOL    HW135120   4.502   3.686   4.761  2.1470 -1.9304  0.5862
 7887SOL    HW235121   4.553   3.813   4.715  0.5124 -0.3703  0.6823
 7888SOL     OW35122   2.151   4.712   0.035 -0.0686 -0.0237  0.1967
 7888SOL    HW135123   2.067   0.030   0.056  0.1903  0.9494 -0.7487
 7888SOL    HW235124   2.121   4.649  17.668  2.2009  0.5995 -1.4125
 7889SOL     OW35125   3.276   3.808   7.709  0.0171  0.3145 -0.2000
 7889SOL    HW135126   3.253   3.901   7.707 -0.0070  0.3278  0.6779
 7889SOL    HW235127   3.371   3.807   7.695 -0.1082  0.0621 -1.0304
 7890SOL     OW35128   1.243   3.474   6.619  0.1684 -0.2900 -0.1532
 7890SOL    HW135129   1.214   3.552   6.666  2.2663 -1.3874  2.9422
 7890SOL    HW235130   1.189   3.405   6.658  0.6554 -0.6538 -0.1268
 7891SOL     OW35131   4.327   0.044   4.208 -0.2624  0.3632  0.4785
 7891SOL    HW135132   4.352   4.716   4.284 -3.0600  1.6974  2.2719
 7891SOL    HW235133   4.358   0.129   4.238 -1.5244 -0.1002  3.0511
 7892SOL     OW35134   1.629   2.093   7.047 -0.4800 -0.2529  0.6145
 7892SOL    HW135135   1.540   2.071   7.074 -0.8153  1.1626  0.6258
 7892SOL    HW235136   1.669   2.157   7.106 -1.2011  0.6861  0.0784
 7893SOL     OW35137   3.867   1.303  11.108 -0.5262  0.4098  0.4407
 7893SOL    HW135138   3.834   1.220  11.072 -1.1117  1.9619 -2.5695
 7893SOL    HW235139   3.849   1.288  11.201 -2.7192 -2.1558 -0.3626
 7894SOL     OW35140   3.417   3.401  17.101  0.3528 -0.0145 -0.0305
 7894SOL    HW135141   3.473   3.433  17.030 -0.3932  0.9890 -0.1821
 7894SOL    HW235142   3.389   3.317  17.066 -1.4593 -0.2180  1.9093
 7895SOL     OW35143   0.214   0.861   1.455  0.3827 -0.8175 -0.0817
 7895SOL    HW135144   0.143   0.798   1.467  0.3525  0.0095  3.8846
 7895SOL    HW235145   0.214   0.889   1.546  2.5212 -1.3912  0.0977
 7896SOL     OW35146   1.533   0.901  12.394  0.4487  0.2450  0.2665
 7896SOL    HW135147   1.505   0.824  12.442 -2.5531  1.3782  0.3224
 7896SOL    HW235148   1.610   0.923  12.447  1.0793  2.3093 -1.4875
 7897SOL     OW35149   3.895   2.433   2.229  0.6679 -0.0103  0.2585
 7897SOL    HW135150   3.932   2.520   2.242 -0.0502  0.3193  0.0973
 7897SOL    HW235151   3.939   2.406   2.149  0.3818  0.7163 -0.1355
 7898SOL     OW35152   0.671   1.290   2.563  0.4235 -0.3128 -0.0938
 7898SOL    HW135153   0.751   1.312   2.515  1.3711 -1.9787  0.7220
 7898SOL    HW235154   0.644   1.219   2.505  0.1220 -0.4276  0.1860
 7899SOL     OW35155   4.658   2.264   7.724  0.3562  0.8453 -0.1784
 7899SOL    HW135156   4.666   2.238   7.632  1.9353  0.3517  0.0949
 7899SOL    HW235157   4.569   2.232   7.740  1.0181 -2.2800 -2.6911
 7900SOL     OW35158   0.751   3.583   5.272  0.1673 -0.1647  0.5970
 7900SOL    HW135159   0.760   3.620   5.184  2.1325  1.6296  1.5690
 7900SOL    HW235160   0.657   3.591   5.287 -0.2201 -1.5185 -1.0536
 7901SOL     OW35161   2.963   0.651   6.715  0.2033  0.3367 -0.0061
 7901SOL    HW135162   2.880   0.618   6.680  1.7164 -1.1312 -2.2815
 7901SOL    HW235163   2.939   0.680   6.802 -0.6944  1.7544 -0.7231
 7902SOL     OW35164   4.083   0.155   4.010 -0.4094 -0.7003 -0.0866
 7902SOL    HW135165   4.030   0.203   3.946 -0.6529 -0.7343  0.0874
 7902SOL    HW235166   4.133   0.232   4.037 -1.7975  0.3186 -0.4373
 7903SOL     OW35167   4.654   3.261   1.626 -0.2086 -0.4854  0.4284
 7903SOL    HW135168   4.608   3.298   1.550  1.7489  0.0861 -0.4939
 7903SOL    HW235169   4.576   3.256   1.681 -2.1184 -1.9347 -2.4378
 7904SOL     OW35170   2.184   0.701   5.399 -0.0526  0.0002  0.2216
 7904SOL    HW135171   2.151   0.789   5.383  0.0387 -0.4928 -2.5917
 7904SOL    HW235172   2.107   0.649   5.421 -0.8647  0.8784 -0.6008
 7905SOL     OW35173   1.341   1.607  12.501 -0.4694  0.4311 -0.5290
 7905SOL    HW135174   1.246   1.612  12.494 -0.2487  0.6421 -3.5723
 7905SOL    HW235175   1.350   1.622  12.595 -0.6438 -0.7279 -0.3327
 7906SOL     OW35176   0.589   2.900   4.661  0.3640 -0.3999 -0.1703
 7906SOL    HW135177   0.502   2.919   4.696  1.1805  0.5233  1.3543
 7906SOL    HW235178   0.636   2.982   4.645  1.1725 -1.0668 -1.3045
 7907SOL     OW35179   2.160   2.184   2.770 -0.4882  0.2038  0.7683
 7907SOL    HW135180   2.131   2.156   2.684  1.5351  2.0916 -0.5062
 7907SOL    HW235181   2.137   2.106   2.821  0.4314  0.0778  0.9897
 7908SOL     OW35182   4.160   1.196   4.353  0.1485  0.6096 -0.2423
 7908SOL    HW135183   4.130   1.157   4.271  2.0457  1.9091 -1.5664
 7908SOL    HW235184   4.073   1.198   4.392  0.5253 -4.5369  0.8690
 7909SOL     OW35185   0.059   2.755   4.421  0.5411 -0.5101  0.4153
 7909SOL    HW135186   0.104   2.671   4.407 -0.6598 -0.9175 -1.0468
 7909SOL    HW235187   0.087   2.769   4.511  0.9450 -0.3676  0.2667
 7910SOL     OW35188   3.129   2.216   6.522 -0.0379 -0.0201  0.2260
 7910SOL    HW135189   3.062   2.281   6.540 -0.6036 -0.2602 -1.0393
 7910SOL    HW235190   3.184   2.232   6.599  2.3549 -1.1723 -1.2326
 7911SOL     OW35191   3.626   0.006   7.053 -0.2343 -0.2371  0.2348
 7911SOL    HW135192   3.542   4.689   7.031 -0.5256 -0.7263  2.2828
 7911SOL    HW235193   3.608   0.068   7.125 -1.1973  0.4615 -0.6082
 7912SOL     OW35194   3.721   1.473   5.576 -1.2014 -0.3390  0.5922
 7912SOL    HW135195   3.643   1.527   5.567 -0.3319  0.5963 -1.5080
 7912SOL    HW235196   3.787   1.529   5.534 -0.6571 -0.3657  1.4100
 7913SOL     OW35197   0.496   2.700   6.571 -0.0388 -0.0781  0.2446
 7913SOL    HW135198   0.428   2.763   6.593  0.9022  0.8943  0.4004
 7913SOL    HW235199   0.567   2.760   6.548 -0.0626 -0.3612 -0.5850
 7914SOL     OW35200   3.321   3.046   2.260 -0.0443 -0.2024  0.3638
 7914SOL    HW135201   3.396   3.040   2.201 -0.2698  0.0567  0.0508
 7914SOL    HW235202   3.273   3.106   2.204 -0.5172 -1.7265 -0.8470
 7915SOL     OW35203   3.919   4.467   8.058 -0.0589  0.0293 -0.0621
 7915SOL    HW135204   3.937   4.479   8.152  0.6988  0.5060 -0.2686
 7915SOL    HW235205   4.007   4.436   8.038  0.4793  0.9363  0.8688
 7916SOL     OW35206   4.110   3.272   5.313  0.4099 -0.2035 -0.1506
 7916SOL    HW135207   4.058   3.329   5.258 -0.5920  1.2336  2.2681
 7916SOL    HW235208   4.195   3.314   5.303 -0.6262  1.8425 -0.2739
 7917SOL     OW35209   1.425   3.118   3.286 -0.1188 -0.4628 -1.0124
 7917SOL    HW135210   1.488   3.190   3.278 -0.9264  0.5609  1.9122
 7917SOL    HW235211   1.492   3.060   3.321  0.1191  1.3609  1.5586
 7918SOL     OW35212   0.725   3.624  10.426 -0.4657  0.5244 -0.1452
 7918SOL    HW135213   0.765   3.691  10.371  1.6337 -0.2920  0.3773
 7918SOL    HW235214   0.744   3.649  10.516 -0.4836 -0.2273  0.0699
 7919SOL     OW35215   2.463   1.678  13.450 -0.1611 -0.1006  0.2180
 7919SOL    HW135216   2.459   1.770  13.425  2.8740 -0.3804 -1.3007
 7919SOL    HW235217   2.408   1.644  13.380  0.9455 -1.1996 -0.1252
 7920SOL     OW35218   3.149   0.439   1.725 -0.4305  0.1530 -0.0549
 7920SOL    HW135219   3.143   0.436   1.821  0.4209 -1.9694 -0.0723
 7920SOL    HW235220   3.243   0.434   1.707 -0.8642 -1.1137 -1.9522
 7921SOL     OW35221   3.860   2.956   3.537  0.4894 -0.1774 -0.0741
 7921SOL    HW135222   3.767   2.939   3.524  0.4412  0.8963 -1.1157
 7921SOL    HW235223   3.869   2.987   3.627  2.6872  2.0247 -1.0542
 7922SOL     OW35224   3.263   3.080   3.958  0.0901 -0.1442 -0.1210
 7922SOL    HW135225   3.237   3.096   3.867 -1.4575  2.6968  0.8230
 7922SOL    HW235226   3.291   3.166   3.989  2.4456 -1.2586  0.8684
 7923SOL     OW35227   1.683   4.129   1.717  0.1052  0.3600  0.2296
 7923SOL    HW135228   1.629   4.056   1.685  0.5402  0.3124 -0.3993
 7923SOL    HW235229   1.621   4.202   1.723  1.0952  1.3272 -1.4600
 7924SOL     OW35230   1.786   0.930   2.761 -0.1751 -0.3893 -0.8257
 7924SOL    HW135231   1.749   0.852   2.803  0.9212  0.6851  2.1071
 7924SOL    HW235232   1.866   0.938   2.814 -0.7139  1.5336 -0.3177
 7925SOL     OW35233   4.542   3.841  14.992  0.2863 -0.0147 -0.0526
 7925SOL    HW135234   4.486   3.777  15.035  0.1638  0.7173  0.8808
 7925SOL    HW235235   4.600   3.867  15.064  2.1882 -2.4570 -0.7109
 7926SOL     OW35236   1.102   1.084   6.884 -0.0350 -0.3152  0.3910
 7926SOL    HW135237   1.117   1.000   6.840  1.2134  0.5258 -0.7879
 7926SOL    HW235238   1.057   1.124   6.809  0.0517  0.6117  0.8431
 7927SOL     OW35239   3.112   1.910   2.487  0.5947 -0.0463  0.4393
 7927SOL    HW135240   3.082   1.948   2.405  4.2751 -0.6548 -1.1730
 7927SOL    HW235241   3.207   1.907   2.480  0.6410  0.0316  0.9779
 7928SOL     OW35242   4.607   1.884  17.127 -0.7702  0.3510  0.2657
 7928SOL    HW135243   4.619   1.830  17.205 -0.5476  0.7009  0.4753
 7928SOL    HW235244   4.682   1.849  17.079 -0.8563  2.0081 -1.0631
 7929SOL     OW35245   3.681   0.972   9.644  0.2150  0.0476 -0.0158
 7929SOL    HW135246   3.772   0.945   9.630  0.4878  0.2091  1.4469
 7929SOL    HW235247   3.656   0.900   9.703  0.5950 -1.4462 -1.6687
 7930SOL     OW35248   1.221   0.022  11.871  0.4192 -0.6446 -0.2602
 7930SOL    HW135249   1.310   0.056  11.878  0.3271 -0.3475 -0.5233
 7930SOL    HW235250   1.240   4.653  11.872  0.4671 -0.6071  1.3737
 7931SOL     OW35251   0.904   0.748   5.188 -0.2135 -0.3778 -0.1226
 7931SOL    HW135252   0.849   0.744   5.266 -0.5635 -2.4993 -0.4892
 7931SOL    HW235253   0.830   0.744   5.127 -0.7323  0.0292  0.4831
 7932SOL     OW35254   3.557   2.591   3.331 -0.2271 -0.1656 -0.0952
 7932SOL    HW135255   3.641   2.618   3.368  0.4677 -0.4936 -1.4410
 7932SOL    HW235256   3.573   2.499   3.309 -0.9651 -0.0698 -1.0234
 7933SOL     OW35257   1.686   2.650   9.128  0.9298 -0.6405  0.7403
 7933SOL    HW135258   1.609   2.703   9.110  0.4995 -0.9340  1.7101
 7933SOL    HW235259   1.718   2.651   9.038 -3.8096  0.7502 -0.9016
 7934SOL     OW35260   1.455   1.192  12.352  0.6443  0.6476  0.5284
 7934SOL    HW135261   1.469   1.130  12.280  0.3409 -0.2254  1.2344
 7934SOL    HW235262   1.388   1.146  12.401  1.2762 -1.7326 -0.8538
 7935SOL     OW35263   1.330   2.321   9.831 -0.4620 -0.9610  0.1735
 7935SOL    HW135264   1.270   2.364   9.771  0.3837 -0.4471 -0.2961
 7935SOL    HW235265   1.266   2.278   9.888 -1.7926  1.4793  0.5126
 7936SOL     OW35266   1.676   3.743   4.233  0.2360  0.0081  0.5328
 7936SOL    HW135267   1.668   3.760   4.139  0.8451 -1.2420  0.2547
 7936SOL    HW235268   1.589   3.755   4.271  0.6148  0.0176  1.3886
 7937SOL     OW35269   4.041   3.178   6.446  0.3011 -0.0125 -0.0777
 7937SOL    HW135270   4.075   3.143   6.363 -0.3189 -3.5381  1.1520
 7937SOL    HW235271   3.955   3.209   6.417 -0.1005 -0.2624  0.8367
 7938SOL     OW35272   4.050   4.548   6.907 -0.3756  0.8033 -0.3431
 7938SOL    HW135273   3.962   4.538   6.943 -0.4292 -1.3722 -1.0723
 7938SOL    HW235274   4.080   4.630   6.945  0.0234  0.5035 -0.0044
 7939SOL     OW35275   2.468   2.443   1.694 -0.0799 -0.1131 -0.2185
 7939SOL    HW135276   2.532   2.473   1.758 -1.1013 -2.4482  1.9238
 7939SOL    HW235277   2.391   2.499   1.705  0.0686  0.2503 -1.0121
 7940SOL     OW35278   3.664   0.706  13.534  0.0270  0.1958 -0.2418
 7940SOL    HW135279   3.650   0.696  13.629  0.3176  1.5714 -0.0581
 7940SOL    HW235280   3.734   0.641  13.527  0.3224  0.4275  0.5723
 7941SOL     OW35281   1.598   4.321   5.653 -0.5903 -0.1015  0.4574
 7941SOL    HW135282   1.514   4.281   5.629 -1.9003  2.9078  0.1006
 7941SOL    HW235283   1.613   4.365   5.570 -1.4456  0.4155  0.5766
 7942SOL     OW35284   1.522   1.032  12.156  0.3010  0.0727 -0.0441
 7942SOL    HW135285   1.515   0.975  12.079  0.9656 -0.5591  0.3674
 7942SOL    HW235286   1.520   0.964  12.223  0.6994 -1.3233 -1.4311
 7943SOL     OW35287   2.278   2.002   4.200 -0.5305 -0.1653 -0.4945
 7943SOL    HW135288   2.345   1.965   4.258 -1.1631  0.1074  0.3939
 7943SOL    HW235289   2.205   2.001   4.261 -0.4578  0.9045 -0.3961
 7944SOL     OW35290   4.494   2.344   5.213  0.0390 -0.3084  0.1709
 7944SOL    HW135291   4.571   2.368   5.264 -0.9856  1.0648  1.0697
 7944SOL    HW235292   4.525   2.260   5.179 -0.1587 -0.5085  0.4968
 7945SOL     OW35293   2.143   4.421   6.620  0.0732 -0.3331 -0.6208
 7945SOL    HW135294   2.052   4.433   6.592  0.3597 -0.8061 -1.7491
 7945SOL    HW235295   2.146   4.486   6.689 -1.3589  0.9646 -1.7914
 7946SOL     OW35296   3.268   0.089   6.564 -0.3218 -0.7354  0.2897
 7946SOL    HW135297   3.330   0.151   6.525 -0.0711 -0.2410  1.4697
 7946SOL    HW235298   3.283   0.103   6.657 -0.6014  1.5920 -0.0321
 7947SOL     OW35299   2.399   0.038   0.957  0.2219  0.2369 -0.4452
 7947SOL    HW135300   2.458   0.077   0.893 -0.1887 -0.7161 -1.4154
 7947SOL    HW235301   2.350   4.713   0.891  3.0479 -0.4966 -1.9753
 7948SOL     OW35302   1.437   1.290   4.017  0.7829  0.4028 -0.2558
 7948SOL    HW135303   1.400   1.221   4.072  0.1426  1.3963  0.5717
 7948SOL    HW235304   1.380   1.360   4.049  0.3808  1.0824 -2.4731
 7949SOL     OW35305   1.062   0.351   0.835  0.0749 -0.1795 -0.2332
 7949SOL    HW135306   1.125   0.407   0.880 -1.9686  1.1343  1.0235
 7949SOL    HW235307   0.986   0.408   0.824  0.0508 -0.0798  0.4139
 7950SOL     OW35308   0.453   3.690   6.811  0.5682 -0.2456 -0.2808
 7950SOL    HW135309   0.468   3.783   6.828  0.6845 -0.3163  0.0033
 7950SOL    HW235310   0.456   3.682   6.716 -0.5313  0.7058 -0.3985
 7951SOL     OW35311   2.355   3.657   4.774  0.4054  0.3427 -0.0272
 7951SOL    HW135312   2.371   3.733   4.830  1.4075 -0.3308  0.6079
 7951SOL    HW235313   2.283   3.675   4.715 -2.5298 -0.8197  3.2125
 7952SOL     OW35314   1.067   4.000  15.558 -0.3511 -0.3829  0.1592
 7952SOL    HW135315   1.092   3.910  15.536  0.5383  0.1046 -0.8136
 7952SOL    HW235316   1.151   4.043  15.543 -0.2046 -0.8978 -0.5251
 7953SOL     OW35317   0.524   2.911   5.612 -0.2865  0.3456  0.1626
 7953SOL    HW135318   0.478   2.905   5.528 -1.3671  0.4364  0.7497
 7953SOL    HW235319   0.611   2.884   5.582 -0.6577  0.3090 -0.9001
 7954SOL     OW35320   4.428   2.379   4.406  0.3455  0.3833  0.2007
 7954SOL    HW135321   4.426   2.321   4.483  1.6093 -0.1278 -0.1462
 7954SOL    HW235322   4.358   2.437   4.437  0.2050  0.1523  0.3240
 7955SOL     OW35323   0.017   3.772   5.551  0.4129 -0.1272  0.3310
 7955SOL    HW135324   4.719   3.810   5.466 -0.4698 -0.6497  0.3328
 7955SOL    HW235325   0.022   3.679   5.529  2.2465 -0.4245  2.0137
 7956SOL     OW35326   3.831   0.773   5.579  0.1991  0.3152 -0.1501
 7956SOL    HW135327   3.801   0.851   5.627  1.4581  0.4422  0.4057
 7956SOL    HW235328   3.901   0.807   5.523  0.2964  0.2115 -0.0904
 7957SOL     OW35329   4.700   0.568   7.521  0.2728  0.3066 -0.2435
 7957SOL    HW135330   4.664   0.527   7.442  0.3903  4.3273 -2.3662
 7957SOL    HW235331   0.012   0.493   7.568  1.0505 -1.3861 -3.5021
 7958SOL     OW35332   0.785   2.892   5.447  0.3092 -0.4643  0.3907
 7958SOL    HW135333   0.858   2.865   5.392 -0.1275 -2.2792  0.7037
 7958SOL    HW235334   0.791   2.810   5.496 -0.8451 -0.7532  0.0479
 7959SOL     OW35335   2.070   2.462   4.312 -0.4747 -0.1062  0.5939
 7959SOL    HW135336   2.113   2.437   4.394  2.1846  1.6098 -0.2657
 7959SOL    HW235337   2.064   2.379   4.264  0.3121  1.4326 -2.1994
 7960SOL     OW35338   1.764   2.430   3.067 -0.1718  0.1001 -0.1022
 7960SOL    HW135339   1.699   2.467   3.008  0.3788  2.1964  0.6107
 7960SOL    HW235340   1.793   2.349   3.026  0.2809  0.0915  0.2339
 7961SOL     OW35341   4.262   4.259   2.623 -0.4664 -0.0604  0.1066
 7961SOL    HW135342   4.333   4.324   2.629  0.0747 -0.7749  1.4309
 7961SOL    HW235343   4.261   4.243   2.528 -0.6648  0.7090 -0.0245
 7962SOL     OW35344   3.348   3.450   6.759 -0.2957  0.0715  0.0513
 7962SOL    HW135345   3.273   3.429   6.704 -0.2312 -0.1344  0.0442
 7962SOL    HW235346   3.300   3.464   6.840 -1.1612  0.7979 -0.5956
 7963SOL     OW35347   2.076   0.320   6.984  0.1894 -0.0033 -0.2525
 7963SOL    HW135348   1.984   0.309   7.009 -0.0918  2.5458 -0.1807
 7963SOL    HW235349   2.108   0.353   7.068  0.6797  0.9217 -0.8091
 7964SOL     OW35350   3.386   2.914   5.672 -0.1343 -0.0192  0.6763
 7964SOL    HW135351   3.357   2.854   5.741  1.0001 -0.9996  0.3050
 7964SOL    HW235352   3.303   2.955   5.650 -0.6818 -0.6598  1.5628
 7965SOL     OW35353   4.475   4.581  14.696 -0.1622  0.6369  0.3199
 7965SOL    HW135354   4.546   4.592  14.633 -1.0207  1.5838 -0.4815
 7965SOL    HW235355   4.522   4.604  14.776 -0.7818  1.4854  0.4435
 7966SOL     OW35356   0.351   4.457   4.769 -0.8347 -0.0614  0.2330
 7966SOL    HW135357   0.322   4.367   4.786 -1.8244  0.1973 -0.0421
 7966SOL    HW235358   0.436   4.434   4.733 -0.2603  2.5251 -0.0359
 7967SOL     OW35359   1.600   2.557   6.987 -0.0983  0.3773  0.3027
 7967SOL    HW135360   1.646   2.486   6.942  1.1014  1.4740 -0.2279
 7967SOL    HW235361   1.538   2.599   6.928 -0.0094  0.9133  0.5863
 7968SOL     OW35362   1.839   3.729   0.603  0.2717  0.3071  0.0286
 7968SOL    HW135363   1.816   3.811   0.559  2.0819  0.6899 -0.1761
 7968SOL    HW235364   1.777   3.727   0.676 -1.3648 -1.4897 -1.4179
 7969SOL     OW35365   4.345   2.187  16.485  0.3590 -0.0396  0.2118
 7969SOL    HW135366   4.406   2.260  16.493  0.2335 -0.0144  0.9711
 7969SOL    HW235367   4.400   2.112  16.511  1.3160  0.8730  0.8063
 7970SOL     OW35368   4.403   3.761   3.888  0.1674  0.3482  0.0944
 7970SOL    HW135369   4.448   3.760   3.972  0.5313 -1.0721 -0.1284
 7970SOL    HW235370   4.324   3.719   3.922  0.2332  0.3901  0.2998
 7971SOL     OW35371   4.260   2.980   5.159 -0.4976 -0.5098 -0.5512
 7971SOL    HW135372   4.181   3.007   5.205 -0.4248  1.1838 -1.4413
 7971SOL    HW235373   4.230   2.904   5.110  2.0567 -1.0023 -1.3528
 7972SOL     OW35374   2.060   1.765   7.735  0.3055  0.0801  0.0679
 7972SOL    HW135375   2.042   1.805   7.820 -0.2282  0.5870 -0.2830
 7972SOL    HW235376   1.992   1.806   7.680  0.1832 -0.9907 -0.5846
 7973SOL     OW35377   1.374   4.535  11.017  0.5047 -0.2308 -0.2189
 7973SOL    HW135378   1.296   4.560  10.968  0.5012  1.4677  0.6731
 7973SOL    HW235379   1.391   4.451  10.975  1.0706  1.1674 -2.7927
 7974SOL     OW35380   3.691   4.196   2.674  0.6392 -0.5165 -0.1886
 7974SOL    HW135381   3.618   4.164   2.620 -0.4979  0.7948  0.5465
 7974SOL    HW235382   3.761   4.132   2.659 -0.1450 -1.3541 -0.3015
 7975SOL     OW35383   3.379   3.223   7.562  0.0291  0.0462  0.1628
 7975SOL    HW135384   3.467   3.231   7.599  0.3262 -3.1048  0.0839
 7975SOL    HW235385   3.322   3.257   7.631 -0.8935  2.4590 -1.7648
 7976SOL     OW35386   2.760   3.455  13.791  0.0525  0.5838  0.2219
 7976SOL    HW135387   2.701   3.530  13.784  0.0321  0.3856 -1.6519
 7976SOL    HW235388   2.834   3.494  13.837  0.9280 -0.3583 -0.3828
 7977SOL     OW35389   0.874   3.317   9.173 -0.4785 -0.1349 -0.2626
 7977SOL    HW135390   0.962   3.346   9.197 -0.3069  0.2570 -1.3974
 7977SOL    HW235391   0.853   3.372   9.098  1.8785 -0.0182 -0.8300
 7978SOL     OW35392   3.604   2.087  10.050  0.1035 -0.1054  0.4592
 7978SOL    HW135393   3.515   2.090  10.084  0.6202  0.7199  1.7311
 7978SOL    HW235394   3.574   2.090   9.959  2.7966  0.3961 -0.4224
 7979SOL     OW35395   4.309   2.282   5.828 -0.4150  0.2535  0.7948
 7979SOL    HW135396   4.270   2.360   5.867 -1.6713 -0.5166  1.0989
 7979SOL    HW235397   4.363   2.322   5.760 -1.9786  1.5731  0.3323
 7980SOL     OW35398   2.387   0.725  12.406  0.4954  0.0232 -0.1411
 7980SOL    HW135399   2.326   0.677  12.462  1.2307 -1.2757 -0.4433
 7980SOL    HW235400   2.326   0.740  12.334 -0.1458  1.8576  0.7789
 7981SOL     OW35401   0.026   3.809   9.263  0.0445 -0.0162  0.0756
 7981SOL    HW135402   0.069   3.880   9.311  0.3570 -0.1234 -0.0481
 7981SOL    HW235403   0.073   3.735   9.302  0.9456  1.5508  1.9519
 7982SOL     OW35404   3.776   3.282  13.537 -0.2410 -0.0557  0.5228
 7982SOL    HW135405   3.741   3.290  13.625  1.3704  1.3005  1.0384
 7982SOL    HW235406   3.761   3.367  13.494 -0.1432 -1.2147 -1.8404
 7983SOL     OW35407   2.075   1.224  11.575 -0.9258  0.4877  0.4856
 7983SOL    HW135408   2.082   1.211  11.481  2.0955  0.3558  0.7476
 7983SOL    HW235409   2.062   1.136  11.610  1.0751  0.7508  1.8972
 7984SOL     OW35410   3.485   0.694   8.123  0.1542  0.1793  0.3971
 7984SOL    HW135411   3.461   0.784   8.100 -0.2839 -0.4478 -1.6363
 7984SOL    HW235412   3.486   0.702   8.218 -0.3154  0.3217  0.3915
 7985SOL     OW35413   1.036   1.619   2.801 -0.0200 -0.0681 -0.2179
 7985SOL    HW135414   0.945   1.649   2.797 -0.0612 -0.2087 -0.3349
 7985SOL    HW235415   1.024   1.545   2.861  1.0373 -2.4923 -2.9613
 7986SOL     OW35416   1.288   4.561  16.670  0.3773  0.2222  0.6021
 7986SOL    HW135417   1.231   4.613  16.612 -0.0016 -2.0793 -1.0857
 7986SOL    HW235418   1.237   4.482  16.687 -0.8493  1.8857  4.7955
 7987SOL     OW35419   2.092   1.120   5.693 -0.0759 -0.6472 -0.2973
 7987SOL    HW135420   2.118   1.080   5.776 -1.7402  0.4742  0.7734
 7987SOL    HW235421   2.059   1.049   5.637 -0.9735 -0.0770 -0.4911
 7988SOL     OW35422   4.506   0.511  10.568 -0.1963  0.2382 -0.0087
 7988SOL    HW135423   4.557   0.551  10.639 -3.1601 -0.4639  2.5427
 7988SOL    HW235424   4.560   0.435  10.548  0.7697  0.2673  2.5051
 7989SOL     OW35425   1.511   4.032   6.299  0.1001  0.0877  0.5637
 7989SOL    HW135426   1.481   3.948   6.262 -2.9076  1.9526 -1.2072
 7989SOL    HW235427   1.532   4.026   6.392  1.6468 -0.9274  0.1426
 7990SOL     OW35428   4.431   2.242  13.749  0.1296 -0.3753 -0.0990
 7990SOL    HW135429   4.479   2.170  13.709 -0.7161 -0.6398 -0.6361
 7990SOL    HW235430   4.364   2.256  13.682  0.0586  0.7968  0.2178
 7991SOL     OW35431   4.479   1.126   7.823 -0.3944  0.4451 -0.3462
 7991SOL    HW135432   4.480   1.149   7.916  1.9009  0.4731 -0.3884
 7991SOL    HW235433   4.428   1.196   7.783 -0.7210  1.4811  1.9066
 7992SOL     OW35434   1.057   2.725  12.591  0.3709 -0.3653  0.0643
 7992SOL    HW135435   0.969   2.719  12.628  0.3663 -1.0371 -0.0638
 7992SOL    HW235436   1.046   2.788  12.520  0.4535 -0.7953 -0.3222
 7993SOL     OW35437   1.524   3.887   7.816  0.2880  0.1804 -0.0146
 7993SOL    HW135438   1.563   3.915   7.899  0.8876 -0.2094 -0.1676
 7993SOL    HW235439   1.450   3.949   7.818  1.4751  1.6489 -1.7104
 7994SOL     OW35440   2.744   2.816   5.487  0.4736 -0.0930  0.2236
 7994SOL    HW135441   2.837   2.825   5.506  1.0844  3.2142 -4.3744
 7994SOL    HW235442   2.723   2.890   5.430  0.0943  0.1965  0.7450
 7995SOL     OW35443   4.616   2.058   8.682  0.2538 -0.0972 -0.6313
 7995SOL    HW135444   4.558   2.098   8.746  0.5875  2.2759 -1.8138
 7995SOL    HW235445   4.609   2.108   8.600 -1.4645  1.6445  0.5949
 7996SOL     OW35446   0.078   4.134   5.597  0.5020  0.0772 -0.1008
 7996SOL    HW135447   4.712   4.104   5.597  0.7430 -0.6457 -0.1763
 7996SOL    HW235448   0.064   4.214   5.648  1.0986 -0.0563  0.2727
 7997SOL     OW35449   1.610   4.285   6.329  0.0310 -0.0006 -0.2584
 7997SOL    HW135450   1.519   4.305   6.352  0.2151  1.4022 -0.7646
 7997SOL    HW235451   1.594   4.201   6.286 -1.0480  0.5510 -0.9179
 7998SOL     OW35452   0.741   1.833   6.910  0.2766  0.6864  0.6647
 7998SOL    HW135453   0.822   1.851   6.862 -0.5161 -2.1586 -1.7555
 7998SOL    HW235454   0.684   1.898   6.869  1.6407 -0.6944 -3.4371
 7999SOL     OW35455   3.059   3.718   7.436  0.3411  0.0739 -0.4516
 7999SOL    HW135456   3.067   3.653   7.506  2.1447  0.6447 -0.1351
 7999SOL    HW235457   3.099   3.800   7.464  0.3638 -0.8612  2.2525
 8000SOL     OW35458   0.651   1.643   3.377  0.3887  0.1245  0.4426
 8000SOL    HW135459   0.557   1.650   3.361  0.7388  0.1770 -1.5099
 8000SOL    HW235460   0.649   1.708   3.447  1.3571  0.4146  0.1917
 8001SOL     OW35461   3.957   0.620   8.657 -0.1483  0.3196  0.2693
 8001SOL    HW135462   3.899   0.558   8.612 -0.4604  0.6324  0.2357
 8001SOL    HW235463   3.903   0.699   8.659 -1.4560 -0.5905  1.3639
 8002SOL     OW35464   2.709   0.929   6.028  0.1713  0.1060 -0.1496
 8002SOL    HW135465   2.718   0.842   5.989  0.9566 -0.6302  1.7218
 8002SOL    HW235466   2.709   0.912   6.122 -1.3740 -1.7603 -0.4772
 8003SOL     OW35467   0.223   0.936   6.060 -0.0665  0.0650 -0.2144
 8003SOL    HW135468   0.251   0.945   6.151 -0.6641 -2.8156  0.2671
 8003SOL    HW235469   0.223   1.027   6.030  1.3618 -0.1754 -0.9731
 8004SOL     OW35470   2.322   3.389   4.843  0.1568  0.7223 -0.3096
 8004SOL    HW135471   2.312   3.357   4.754  1.9708 -0.9158  0.0831
 8004SOL    HW235472   2.347   3.481   4.835  2.1538  0.3451  1.7049
 8005SOL     OW35473   3.007   1.197   3.026 -0.0613  0.1058  0.1337
 8005SOL    HW135474   2.917   1.188   2.994  0.2734  0.7034 -0.9517
 8005SOL    HW235475   3.023   1.104   3.043 -1.1065  0.4930  3.2098
 8006SOL     OW35476   2.780   3.246  10.840 -0.1861 -0.3882  0.3572
 8006SOL    HW135477   2.703   3.215  10.792  0.8836 -0.4768 -1.3214
 8006SOL    HW235478   2.774   3.333  10.801 -0.9731 -1.1607 -1.2554
 8007SOL     OW35479   4.543   2.998   1.999 -0.3398 -0.1408 -0.2700
 8007SOL    HW135480   4.561   2.905   2.012 -1.2101 -0.5354 -1.9745
 8007SOL    HW235481   4.631   3.034   2.009  0.3836 -1.8386 -0.4695
 8008SOL     OW35482   4.555   0.326   2.309  0.5557 -0.6176  0.4744
 8008SOL    HW135483   4.602   0.337   2.226 -1.3154  0.5742 -0.4421
 8008SOL    HW235484   4.516   0.241   2.289 -1.3057 -0.1329  2.0265
 8009SOL     OW35485   2.436   3.861   8.943  0.0640  0.0591 -0.2133
 8009SOL    HW135486   2.484   3.897   8.868 -1.3234  1.5101 -0.3880
 8009SOL    HW235487   2.453   3.925   9.012 -1.4205 -0.1475  0.3290
 8010SOL     OW35488   0.254   0.844   4.529  0.0085 -0.1168 -0.1173
 8010SOL    HW135489   0.231   0.753   4.544 -0.0251  0.0818  1.0359
 8010SOL    HW235490   0.238   0.863   4.436 -1.3787  3.6056  0.8681
 8011SOL     OW35491   3.446   4.594   5.288  0.0084  0.5665  0.1631
 8011SOL    HW135492   3.372   4.652   5.303  0.7403  1.9838 -1.7319
 8011SOL    HW235493   3.508   4.664   5.269  1.3084 -1.3701 -2.6363
 8012SOL     OW35494   4.214   0.177   3.212 -0.1439  0.1303  0.1477
 8012SOL    HW135495   4.127   0.137   3.201 -0.0477 -0.3819  1.2414
 8012SOL    HW235496   4.196   0.271   3.214  0.1893  0.2179 -0.9035
 8013SOL     OW35497   0.595   3.461   3.959 -0.0537  0.3545  0.1089
 8013SOL    HW135498   0.529   3.509   4.011 -1.5770 -1.9087  0.2544
 8013SOL    HW235499   0.546   3.387   3.923 -1.1639 -0.3625  3.1156
 8014SOL     OW35500   1.462   1.817   3.947  0.7460  0.3211  0.0035
 8014SOL    HW135501   1.525   1.745   3.948  0.6889  0.2657 -0.5454
 8014SOL    HW235502   1.398   1.781   4.009 -2.2221  1.5791 -2.3324
 8015SOL     OW35503   2.181   4.338  14.871 -0.2134 -0.0723 -0.1944
 8015SOL    HW135504   2.230   4.309  14.794 -1.3238 -0.6521 -0.6830
 8015SOL    HW235505   2.090   4.335  14.840 -1.0567  1.6910  2.1162
 8016SOL     OW35506   2.480   4.568   6.020 -0.1805 -0.7364 -0.1458
 8016SOL    HW135507   2.564   4.582   5.976  0.2714 -0.9418  0.6656
 8016SOL    HW235508   2.452   4.483   5.985  0.5098 -0.6473 -0.9220
 8017SOL     OW35509   1.548   1.296  13.878 -0.0862  0.7405 -0.3637
 8017SOL    HW135510   1.604   1.226  13.845  1.8275  2.1984 -0.2567
 8017SOL    HW235511   1.472   1.283  13.821 -0.3806  0.7667  0.0214
 8018SOL     OW35512   4.095   0.981   7.119 -0.0443 -0.4100 -0.2958
 8018SOL    HW135513   4.133   1.058   7.162 -1.4317  0.6288 -0.9174
 8018SOL    HW235514   4.033   0.953   7.187  0.2923  0.2827  0.3024
 8019SOL     OW35515   3.698   0.653  10.317  0.6029 -0.5973  0.3937
 8019SOL    HW135516   3.754   0.718  10.274 -2.6117  2.2076  0.4141
 8019SOL    HW235517   3.713   0.674  10.409  0.0110 -0.8908  0.5580
 8020SOL     OW35518   4.342   3.594   8.828 -0.1859 -0.2430  0.3485
 8020SOL    HW135519   4.405   3.576   8.758  1.1243 -1.5200  1.8441
 8020SOL    HW235520   4.301   3.674   8.795  1.1515  0.9503  1.5999
 8021SOL     OW35521   1.158   2.891   4.173  0.2425 -0.0518 -0.1916
 8021SOL    HW135522   1.097   2.936   4.114  0.9369  0.1366 -0.7581
 8021SOL    HW235523   1.116   2.896   4.259 -0.2067  0.6840 -0.4520
 8022SOL     OW35524   4.294   1.382   3.135 -0.7702 -0.1713 -0.0164
 8022SOL    HW135525   4.310   1.383   3.041  1.3196  2.0815  0.3453
 8022SOL    HW235526   4.349   1.457   3.158 -1.6809  1.0096 -1.7037
 8023SOL     OW35527   3.719   4.374   5.941 -0.4119  0.1961  0.2763
 8023SOL    HW135528   3.722   4.290   5.988 -1.4513 -0.8227 -1.4725
 8023SOL    HW235529   3.706   4.345   5.851 -1.4666 -0.3698  0.6112
 8024SOL     OW35530   3.674   1.885   2.405 -0.0130 -0.0407  0.2356
 8024SOL    HW135531   3.747   1.830   2.432  0.5171  0.7622  0.4523
 8024SOL    HW235532   3.643   1.849   2.322 -0.3513  1.0976 -0.1350
 8025SOL     OW35533   1.173   2.492   8.518 -0.4745  0.7467  0.1933
 8025SOL    HW135534   1.093   2.502   8.570 -0.8930 -0.7519 -0.1665
 8025SOL    HW235535   1.140   2.497   8.429 -0.9063  2.0122  0.4255
 8026SOL     OW35536   4.388   0.366   3.940 -0.3592 -0.6093 -0.3823
 8026SOL    HW135537   4.302   0.351   3.981  0.2997  0.0747  1.2452
 8026SOL    HW235538   4.405   0.460   3.939  0.8384 -0.8191  0.3439
 8027SOL     OW35539   3.981   3.943  11.521  0.4342 -0.8445 -0.8325
 8027SOL    HW135540   3.886   3.949  11.512  0.3928  0.5469  0.4821
 8027SOL    HW235541   3.977   3.868  11.581 -2.5216  0.7349  0.9468
 8028SOL     OW35542   2.093   2.629   3.072  0.9029  0.2431  0.1349
 8028SOL    HW135543   2.058   2.558   3.125 -0.9274  0.9245 -0.1531
 8028SOL    HW235544   2.093   2.575   2.993 -0.2183  1.9393 -1.0401
 8029SOL     OW35545   2.716   3.508   8.799 -0.5196  0.2564 -0.2734
 8029SOL    HW135546   2.788   3.556   8.840 -1.3112  0.9640  0.2924
 8029SOL    HW235547   2.659   3.496   8.875 -1.9989  1.3929 -1.1942
 8030SOL     OW35548   0.807   1.550  12.065 -0.5579 -0.1472  0.3086
 8030SOL    HW135549   0.771   1.629  12.104 -0.7440  0.0812 -0.3324
 8030SOL    HW235550   0.734   1.509  12.019  0.0189 -0.8156 -0.0161
 8031SOL     OW35551   1.284   2.352   7.305  0.0945 -0.6842 -0.2289
 8031SOL    HW135552   1.211   2.306   7.346 -1.0298  0.1866 -1.2686
 8031SOL    HW235553   1.358   2.326   7.360 -1.2095 -3.1221  0.3691
 8032SOL     OW35554   0.372   0.073   7.925 -0.0262  0.6570  0.5963
 8032SOL    HW135555   0.421   0.089   8.006 -0.9245  0.3408  1.2037
 8032SOL    HW235556   0.352   0.159   7.887  2.1983  0.1663 -1.6534
 8033SOL     OW35557   0.560   1.669   6.193  0.0398 -0.1889 -0.4045
 8033SOL    HW135558   0.653   1.691   6.193  0.0403 -0.1966 -0.8487
 8033SOL    HW235559   0.541   1.688   6.285 -2.1190 -3.0923 -0.2563
 8034SOL     OW35560   2.513   2.216   8.171  0.9663 -0.8891  0.2468
 8034SOL    HW135561   2.576   2.233   8.102 -1.0281  1.6974 -0.9313
 8034SOL    HW235562   2.505   2.307   8.199  0.6072 -0.4358 -1.3674
 8035SOL     OW35563   0.494   2.370  11.755 -0.1578 -0.2531 -0.1573
 8035SOL    HW135564   0.552   2.294  11.761 -0.8442 -0.8630 -1.2262
 8035SOL    HW235565   0.517   2.397  11.666 -2.8641 -1.7771 -1.3263
 8036SOL     OW35566   1.549   2.294   3.939 -0.1080 -0.4465  0.3806
 8036SOL    HW135567   1.529   2.355   4.010 -1.4462  0.1091 -0.4806
 8036SOL    HW235568   1.507   2.213   3.968  1.3267 -1.3886 -0.1746
 8037SOL     OW35569   3.626   1.581   3.525 -0.0387 -0.0505 -0.3238
 8037SOL    HW135570   3.711   1.619   3.547  0.4795  0.4550 -3.2924
 8037SOL    HW235571   3.576   1.653   3.563  0.9497  0.5811 -0.2059
 8038SOL     OW35572   2.293   1.447   4.972 -0.5135 -0.1061 -0.7838
 8038SOL    HW135573   2.346   1.435   5.050 -1.8593  0.3633  0.2058
 8038SOL    HW235574   2.206   1.439   5.010 -0.0872  0.7716  0.3699
 8039SOL     OW35575   3.831   3.425  10.462  0.5215 -0.3233  0.1759
 8039SOL    HW135576   3.830   3.459  10.372 -0.8249 -1.1291 -0.1150
 8039SOL    HW235577   3.896   3.356  10.449 -0.0650 -0.6549 -1.0475
 8040SOL     OW35578   4.221   0.418   9.636  0.8483  0.1672 -0.1714
 8040SOL    HW135579   4.281   0.379   9.572 -0.6160 -1.7897 -0.3470
 8040SOL    HW235580   4.138   0.381   9.606  1.9650 -2.1228 -0.4133
 8041SOL     OW35581   2.062   4.558   2.949  0.1600 -0.1158  0.5460
 8041SOL    HW135582   2.001   4.594   3.014 -1.7986 -2.2040 -0.1178
 8041SOL    HW235583   2.072   4.472   2.989  0.4170 -1.0336 -1.5056
 8042SOL     OW35584   3.391   2.871  12.443  0.3756  0.0443 -0.4414
 8042SOL    HW135585   3.478   2.909  12.453  0.3542  0.2137 -0.9143
 8042SOL    HW235586   3.393   2.797  12.504 -0.4178  1.7229  1.6242
 8043SOL     OW35587   1.461   3.798   0.268 -0.3678  0.3392  0.0967
 8043SOL    HW135588   1.506   3.749   0.199 -1.2556  0.3751 -0.5049
 8043SOL    HW235589   1.375   3.809   0.228  0.1325  1.3290 -0.7001
 8044SOL     OW35590   2.410   0.128   7.168  0.6078 -0.3417 -0.0142
 8044SOL    HW135591   2.477   0.169   7.223 -1.0075  0.6082  1.2506
 8044SOL    HW235592   2.427   0.161   7.080 -1.6981  0.2627 -0.2432
 8045SOL     OW35593   3.048   0.224   3.300  0.5152  0.9089 -0.3025
 8045SOL    HW135594   3.035   0.304   3.350  3.3581  1.1754  0.0209
 8045SOL    HW235595   3.040   0.152   3.363  0.0783  1.1197 -0.1181
 8046SOL     OW35596   1.295   0.908   3.695 -0.5827 -0.6085  0.1502
 8046SOL    HW135597   1.295   0.837   3.632 -1.2576  0.1702 -0.7313
 8046SOL    HW235598   1.304   0.858   3.776  2.0403 -1.1551 -0.4880
 8047SOL     OW35599   1.025   2.243   3.566 -0.1352 -0.1279 -0.2921
 8047SOL    HW135600   1.110   2.213   3.597 -0.9456 -1.9996  0.0859
 8047SOL    HW235601   0.981   2.165   3.533  1.6226 -1.1058 -0.2692
 8048SOL     OW35602   0.538   2.085   4.284 -0.0690 -0.0900  0.6474
 8048SOL    HW135603   0.562   2.089   4.376 -1.3891 -3.5032  1.1243
 8048SOL    HW235604   0.443   2.088   4.295  0.0518  0.9735  1.4200
 8049SOL     OW35605   3.310   2.237   3.104  0.0327 -0.0604 -0.0452
 8049SOL    HW135606   3.320   2.244   3.009 -1.0016 -2.1984 -0.3131
 8049SOL    HW235607   3.215   2.227   3.107  0.3402 -2.5767  1.6942
 8050SOL     OW35608   3.291   2.034  16.864 -0.9751  0.4525 -0.0370
 8050SOL    HW135609   3.356   2.056  16.932 -0.7569 -1.0948  0.2445
 8050SOL    HW235610   3.211   2.033  16.916 -0.5151 -1.0006  0.6336
 8051SOL     OW35611   1.704   4.488   1.586 -0.3221  0.4238  0.2517
 8051SOL    HW135612   1.755   4.467   1.664  1.5297  0.4825 -0.9557
 8051SOL    HW235613   1.775   4.526   1.535  0.2197 -0.0157  0.6682
 8052SOL     OW35614   0.549   0.454   6.610  0.1552  0.2373 -0.2867
 8052SOL    HW135615   0.494   0.460   6.688  0.9971  2.7438  0.0789
 8052SOL    HW235616   0.511   0.377   6.567  0.4159 -0.0207 -0.0570
 8053SOL     OW35617   2.560   0.588   2.960  0.6225 -0.1068  0.2493
 8053SOL    HW135618   2.568   0.503   2.918 -0.4686  0.6948 -1.5868
 8053SOL    HW235619   2.467   0.605   2.947  0.8572  0.7207 -0.3941
 8054SOL     OW35620   3.361   1.813   0.523 -0.2980  0.6287  0.4645
 8054SOL    HW135621   3.382   1.894   0.570  0.8663  0.1969  0.6946
 8054SOL    HW235622   3.389   1.833   0.433  1.2262 -0.2113  0.7537
 8055SOL     OW35623   1.517   3.129   4.134  0.4231  0.6605  0.0056
 8055SOL    HW135624   1.499   3.036   4.140  0.0390  0.6586 -1.2943
 8055SOL    HW235625   1.459   3.157   4.063 -0.6777  2.4376  1.5834
 8056SOL     OW35626   0.459   1.229   7.741  0.3594 -0.5003  0.1333
 8056SOL    HW135627   0.466   1.214   7.836  0.4527  2.1017  0.5294
 8056SOL    HW235628   0.410   1.311   7.743  1.7751  0.3493 -0.5124
 8057SOL     OW35629   0.869   2.627   8.871  0.6116 -0.3424 -0.3284
 8057SOL    HW135630   0.796   2.569   8.892  0.7312  0.4431  2.2296
 8057SOL    HW235631   0.833   2.709   8.906  1.0135 -1.1611  1.9271
 8058SOL     OW35632   3.093   3.570   9.146  0.4930 -0.3295  0.2547
 8058SOL    HW135633   3.074   3.558   9.053 -0.2336 -0.9492  0.4866
 8058SOL    HW235634   3.060   3.501   9.203  1.0895 -1.3382 -0.6278
 8059SOL     OW35635   2.080   2.034   4.396 -0.0954  0.0909  0.1269
 8059SOL    HW135636   2.086   2.061   4.488  0.0316  0.4078  0.0281
 8059SOL    HW235637   2.003   2.086   4.371 -0.1566 -0.0375  0.0489
 8060SOL     OW35638   4.244   3.938  11.484 -0.1386  0.4661  0.0485
 8060SOL    HW135639   4.258   3.868  11.420 -3.0706 -1.1045  1.1398
 8060SOL    HW235640   4.150   3.954  11.489  0.0043  2.0840 -2.4937
 8061SOL     OW35641   0.141   0.987   4.724 -0.1480  0.1316 -0.1155
 8061SOL    HW135642   0.189   0.981   4.806 -1.2386  1.5777  0.6326
 8061SOL    HW235643   0.176   0.918   4.667 -0.9689 -1.1252  0.8939
 8062SOL     OW35644   0.318   1.805   7.676  0.0900 -0.1702  0.8107
 8062SOL    HW135645   0.363   1.871   7.623 -1.4258 -0.1312 -0.4017
 8062SOL    HW235646   0.247   1.850   7.722 -1.1338  0.2203 -1.4729
 8063SOL     OW35647   4.111   2.897   2.714 -0.0853 -0.0575 -0.0370
 8063SOL    HW135648   4.079   2.880   2.803  1.3947 -1.2445  0.2532
 8063SOL    HW235649   4.165   2.819   2.702 -0.8925 -0.6633  0.2444
 8064SOL     OW35650   3.204   4.257   0.289  0.2108  0.0224  0.2982
 8064SOL    HW135651   3.232   4.176   0.247 -0.5530 -1.7057  3.0864
 8064SOL    HW235652   3.235   4.236   0.378  0.8441  0.7013  0.2415
 8065SOL     OW35653   1.318   3.309  12.513  0.9042 -0.4489 -0.2295
 8065SOL    HW135654   1.354   3.295  12.601  0.8409 -2.5676 -0.5514
 8065SOL    HW235655   1.257   3.236  12.503  2.0133 -1.2295 -1.2654
 8066SOL     OW35656   3.031   2.777   5.176  0.1087  0.1527  0.4834
 8066SOL    HW135657   2.944   2.818   5.174 -0.0791 -0.2212  1.0963
 8066SOL    HW235658   3.031   2.731   5.260 -2.4695  0.1412  0.4728
 8067SOL     OW35659   1.915   4.305   1.999 -0.2315  0.3044  0.3341
 8067SOL    HW135660   1.937   4.368   1.929 -3.6405 -0.5032 -1.4802
 8067SOL    HW235661   1.921   4.352   2.082 -1.5213 -0.1934  0.7191
 8068SOL     OW35662   1.675   1.335   6.420 -0.4335 -0.0278  0.4731
 8068SOL    HW135663   1.744   1.294   6.369  0.1304  0.9344  0.4502
 8068SOL    HW235664   1.653   1.263   6.478 -1.1617  0.9281  1.3840
 8069SOL     OW35665   3.260   4.506  11.115  0.0155  0.1865  0.0739
 8069SOL    HW135666   3.284   4.527  11.025 -0.2177  2.3094  0.4881
 8069SOL    HW235667   3.266   4.596  11.150 -0.4530  0.6079 -0.9316
 8070SOL     OW35668   1.435   2.065   4.094  0.2535 -0.1942  0.1082
 8070SOL    HW135669   1.348   2.089   4.126  0.1024 -0.7427  0.1129
 8070SOL    HW235670   1.423   1.971   4.078  0.8282 -0.2882  0.2553
 8071SOL     OW35671   3.767   3.369   7.429  0.0476  0.3619  0.1389
 8071SOL    HW135672   3.718   3.304   7.379 -0.0578  0.1733  0.4915
 8071SOL    HW235673   3.851   3.381   7.383  0.4473 -3.0352  0.0275
 8072SOL     OW35674   3.499   4.029   2.515  0.3305  0.1086 -0.2486
 8072SOL    HW135675   3.470   3.946   2.476  2.0963 -1.2943  1.4263
 8072SOL    HW235676   3.431   4.087   2.480 -0.5633 -1.4274 -1.0629
 8073SOL     OW35677   2.858   2.316   9.039  0.0258  0.1090  0.7894
 8073SOL    HW135678   2.772   2.338   9.074  1.2933  0.0186  3.9294
 8073SOL    HW235679   2.910   2.348   9.113 -0.8331  2.3920  0.4229
 8074SOL     OW35680   1.585   4.349   2.399  0.2120 -0.4185 -0.2211
 8074SOL    HW135681   1.680   4.354   2.404  0.3056 -0.7932 -1.6155
 8074SOL    HW235682   1.572   4.355   2.305 -0.3212 -3.7718 -0.3596
 8075SOL     OW35683   4.558   2.318  16.826  0.7751 -0.2046 -0.7619
 8075SOL    HW135684   4.463   2.304  16.817  1.0339 -2.0142 -0.7415
 8075SOL    HW235685   4.588   2.228  16.813  1.9403  0.2431 -1.1325
 8076SOL     OW35686   2.254   3.105   2.632  0.7239 -0.7680 -0.4750
 8076SOL    HW135687   2.343   3.130   2.608  0.3660  0.1496 -0.8556
 8076SOL    HW235688   2.198   3.125   2.557  1.0712  1.6586 -0.0805
 8077SOL     OW35689   3.548   0.064   8.769  0.4518  0.0898 -0.0448
 8077SOL    HW135690   3.566   4.695   8.777 -0.5792 -0.0127  1.0665
 8077SOL    HW235691   3.482   0.057   8.701 -2.1244 -0.6160  2.5226
 8078SOL     OW35692   1.572   3.377   6.483 -0.1844 -0.1077 -0.5358
 8078SOL    HW135693   1.522   3.455   6.458 -0.1817 -0.7165 -2.4285
 8078SOL    HW235694   1.649   3.420   6.521 -1.5146  1.0726  0.8266
 8079SOL     OW35695   3.100   2.129  16.057  0.0976 -0.3336 -0.0218
 8079SOL    HW135696   3.101   2.167  16.145  0.4376  1.5708 -0.8375
 8079SOL    HW235697   3.021   2.075  16.053  1.5811 -2.4818 -0.4506
 8080SOL     OW35698   2.856   1.915   6.450 -0.3664  0.6367  0.5032
 8080SOL    HW135699   2.836   1.860   6.374 -1.1849 -0.3250  1.3951
 8080SOL    HW235700   2.824   2.002   6.428 -1.8368  0.3524  1.4956
 8081SOL     OW35701   1.781   3.020   7.365  0.1162  0.1896  0.7876
 8081SOL    HW135702   1.704   2.995   7.416  0.3245 -2.1862 -0.0950
 8081SOL    HW235703   1.853   2.975   7.410  1.3138 -1.9907 -3.3052
 8082SOL     OW35704   1.368   3.665   5.744 -0.0910  0.3217  0.2193
 8082SOL    HW135705   1.290   3.716   5.766  0.9980  2.6638 -1.3516
 8082SOL    HW235706   1.325   3.591   5.702  0.6390 -0.6735  1.2065
 8083SOL     OW35707   4.444   1.767   3.614 -0.7286  0.7993 -0.1376
 8083SOL    HW135708   4.510   1.738   3.551 -0.6648  0.8294 -0.0847
 8083SOL    HW235709   4.375   1.711   3.579  1.2759 -1.2056 -0.8634
 8084SOL     OW35710   1.775   2.136  11.117  0.5041  0.3067 -0.1615
 8084SOL    HW135711   1.697   2.097  11.155 -0.5638  1.5397 -1.0751
 8084SOL    HW235712   1.735   2.217  11.084 -0.6943  0.1467  0.9269
 8085SOL     OW35713   0.639   2.578  10.458 -0.2697 -0.0005 -0.2264
 8085SOL    HW135714   0.545   2.580  10.473 -0.7211 -0.4442 -3.0757
 8085SOL    HW235715   0.677   2.605  10.542 -0.3385  0.3668 -0.3151
 8086SOL     OW35716   0.335   0.046   2.471  0.3924  0.7653 -0.0462
 8086SOL    HW135717   0.265   0.109   2.489 -1.2527 -1.2344  0.5480
 8086SOL    HW235718   0.365   0.064   2.382  2.1042 -0.1255  0.3600
 8087SOL     OW35719   0.108   3.883  10.153 -0.6508  0.4572 -0.1840
 8087SOL    HW135720   0.158   3.809  10.186 -1.7334  1.5568  3.8461
 8087SOL    HW235721   0.175   3.941  10.117 -0.4240  1.2997  1.6371
 8088SOL     OW35722   2.572   4.245   9.426 -0.1272 -0.0472  0.1709
 8088SOL    HW135723   2.532   4.158   9.416 -0.6203  0.1852  0.1071
 8088SOL    HW235724   2.496   4.301   9.413 -0.8327 -0.7154  1.3205
 8089SOL     OW35725   0.583   4.175   3.120 -0.1245  0.0647 -0.1260
 8089SOL    HW135726   0.526   4.252   3.122 -0.4214 -0.1471 -0.3694
 8089SOL    HW235727   0.536   4.116   3.061  1.6184  1.0463 -2.5001
 8090SOL     OW35728   1.543   1.938   8.454  0.1097 -0.6319  0.5832
 8090SOL    HW135729   1.494   1.968   8.377  2.5991  0.1122 -0.7178
 8090SOL    HW235730   1.551   1.845   8.433  0.4191 -0.4515 -0.1313
 8091SOL     OW35731   3.673   4.286   3.795  0.5867 -0.2006 -0.7117
 8091SOL    HW135732   3.668   4.191   3.803 -0.6132  0.0360  1.5616
 8091SOL    HW235733   3.768   4.295   3.796  0.5115  0.4749  1.6010
 8092SOL     OW35734   1.912   4.499   4.222  0.3045 -0.4948  0.5037
 8092SOL    HW135735   1.957   4.578   4.191 -0.9126 -0.5335 -1.3823
 8092SOL    HW235736   1.923   4.441   4.146 -2.1464  1.6237 -1.4586
 8093SOL     OW35737   0.647   3.701   7.731 -0.3107  0.3398 -0.6698
 8093SOL    HW135738   0.716   3.703   7.797 -0.1059  4.0273 -1.0219
 8093SOL    HW235739   0.585   3.765   7.766  0.5953  0.9188 -0.1385
 8094SOL     OW35740   3.591   2.124  12.358  0.2984  1.0449 -0.1028
 8094SOL    HW135741   3.677   2.102  12.322  0.4091  0.6023  0.4261
 8094SOL    HW235742   3.609   2.209  12.397  0.4837  0.7880  0.3794
 8095SOL     OW35743   0.773   4.547   4.598  0.0483  0.1120 -0.1745
 8095SOL    HW135744   0.868   4.558   4.600 -0.1743  1.7545  1.5333
 8095SOL    HW235745   0.750   4.598   4.520 -1.9393 -2.5898 -1.3647
 8096SOL     OW35746   1.586   3.050  15.627 -0.5277 -0.0586 -0.2627
 8096SOL    HW135747   1.660   3.111  15.627 -0.7225  0.2020 -3.4678
 8096SOL    HW235748   1.631   2.966  15.628  0.7285  0.5842 -1.7292
 8097SOL     OW35749   3.372   3.989   6.982 -0.0902 -0.3235  0.4471
 8097SOL    HW135750   3.415   4.069   7.014  1.0179 -0.2683 -1.1735
 8097SOL    HW235751   3.423   3.921   7.025  2.7632  1.9130  0.5962
 8098SOL     OW35752   4.549   3.681   4.147 -0.3909 -0.2642  0.2407
 8098SOL    HW135753   4.510   3.599   4.114 -1.7189  0.4912 -0.0755
 8098SOL    HW235754   4.495   3.701   4.223 -1.2985  2.5262 -1.1457
 8099SOL     OW35755   0.637   1.493   2.268  0.0420  0.0736 -0.2444
 8099SOL    HW135756   0.572   1.428   2.294 -0.9279  1.0183 -0.2948
 8099SOL    HW235757   0.614   1.516   2.178 -1.6591 -1.2515 -0.1385
 8100SOL     OW35758   2.225   0.265   3.669 -0.4407 -0.4811  0.6576
 8100SOL    HW135759   2.165   0.323   3.624  2.6101  2.3909  0.2637
 8100SOL    HW235760   2.259   0.325   3.736  0.3267 -2.1645  1.7923
 8101SOL     OW35761   3.482   2.578   7.878 -0.0564 -0.4588  0.2734
 8101SOL    HW135762   3.460   2.564   7.971 -2.3631 -0.2477 -0.2455
 8101SOL    HW235763   3.576   2.596   7.890 -0.3285 -0.6718  2.8038
 8102SOL     OW35764   1.590   3.446  10.075  0.0775 -0.3336 -0.3145
 8102SOL    HW135765   1.537   3.474  10.000 -0.9600  1.6519  1.1431
 8102SOL    HW235766   1.675   3.486  10.057 -1.4753  2.5405 -1.3370
 8103SOL     OW35767   3.224   1.134   3.257 -0.3717  0.6312 -0.4122
 8103SOL    HW135768   3.143   1.184   3.257 -0.9201 -0.2392 -0.1644
 8103SOL    HW235769   3.205   1.059   3.201 -0.5187  1.3282 -1.2831
 8104SOL     OW35770   4.316   0.784   6.163 -0.0937  0.0694  0.4566
 8104SOL    HW135771   4.316   0.765   6.257 -1.0974 -1.4404  0.1473
 8104SOL    HW235772   4.408   0.785   6.137  0.3647 -0.8359  2.0372
 8105SOL     OW35773   1.038   0.136  14.274  0.2637 -0.3502  0.1162
 8105SOL    HW135774   1.126   0.172  14.263 -0.1355  0.2680 -1.0611
 8105SOL    HW235775   1.022   0.190  14.351 -1.5781 -0.2213 -0.3573
 8106SOL     OW35776   2.423   0.734   6.678  0.2333  0.1080 -0.2991
 8106SOL    HW135777   2.445   0.784   6.599 -2.1277  2.0250  0.2723
 8106SOL    HW235778   2.423   0.807   6.739  0.3303  0.4066 -0.6520
 8107SOL     OW35779   1.174   3.643   2.305  0.3134  0.1452 -0.4576
 8107SOL    HW135780   1.241   3.649   2.237  0.3470 -0.0167 -0.4388
 8107SOL    HW235781   1.114   3.578   2.269 -1.0891  2.4049 -2.1972
 8108SOL     OW35782   1.782   2.823  14.946 -0.3236 -0.1021  0.0692
 8108SOL    HW135783   1.850   2.768  14.908 -2.3650 -2.3892 -0.2388
 8108SOL    HW235784   1.785   2.798  15.039  0.9581  1.4991  0.4578
 8109SOL     OW35785   0.719   2.832  11.905 -0.2286 -0.3128 -0.3607
 8109SOL    HW135786   0.750   2.795  11.822 -2.4721 -2.9457 -0.0282
 8109SOL    HW235787   0.661   2.902  11.874 -0.0445  0.6731  1.5742
 8110SOL     OW35788   1.588   4.702   3.317 -0.4881  0.3546  0.7718
 8110SOL    HW135789   1.540   0.060   3.313 -0.8013  0.2362  2.0703
 8110SOL    HW235790   1.537   4.649   3.256 -1.5236  2.4375 -0.1489
 8111SOL     OW35791   2.065   1.240  11.305  0.6185  0.3039  0.1876
 8111SOL    HW135792   2.065   1.163  11.248  2.5617  0.9121 -0.6344
 8111SOL    HW235793   2.147   1.281  11.277 -0.7628  2.3606 -0.8567
 8112SOL     OW35794   3.652   4.693   5.819  0.6380 -0.0903 -0.0127
 8112SOL    HW135795   3.674   0.007   5.735 -3.1980  3.0081  0.4519
 8112SOL    HW235796   3.662   4.597   5.813 -0.7480 -0.1237 -1.7384
 8113SOL     OW35797   0.764   4.058   5.058  0.1195  0.2924  0.0656
 8113SOL    HW135798   0.722   4.071   5.143  1.5872 -1.5536  1.0674
 8113SOL    HW235799   0.813   4.141   5.061  1.3670 -0.4049 -1.2844
 8114SOL     OW35800   2.421   4.690   4.853 -0.3934 -0.5008  0.2425
 8114SOL    HW135801   2.500   4.676   4.905 -0.6656  0.2870  0.8569
 8114SOL    HW235802   2.445   4.678   4.761 -1.0829 -2.2058  0.2817
 8115SOL     OW35803   1.096   4.664   8.421  0.2649 -0.3178  0.1514
 8115SOL    HW135804   1.069   4.586   8.469  2.4453  0.6475  2.9841
 8115SOL    HW235805   1.191   4.670   8.430  0.2526 -2.4956  1.7325
 8116SOL     OW35806   3.897   3.468   1.765  0.7715 -0.1063 -0.3203
 8116SOL    HW135807   3.870   3.504   1.850  2.1649  0.9172 -0.2977
 8116SOL    HW235808   3.983   3.437   1.793  0.7668  2.3196  2.4604
 8117SOL     OW35809   1.982   4.176  14.354  0.5201  0.1983 -0.1231
 8117SOL    HW135810   1.980   4.235  14.430  1.7900  0.9108 -0.6350
 8117SOL    HW235811   1.909   4.116  14.370  0.4914  0.3024  0.1314
 8118SOL     OW35812   0.959   1.328   4.785 -0.0108  0.4018  0.4555
 8118SOL    HW135813   0.993   1.404   4.738 -0.7110  0.8622  0.7023
 8118SOL    HW235814   1.031   1.268   4.767 -0.3532  0.4084 -0.9329
 8119SOL     OW35815   2.941   1.008   1.620  0.0209  0.2155  0.2523
 8119SOL    HW135816   2.988   0.948   1.562  0.2047 -1.0062  1.6951
 8119SOL    HW235817   2.867   0.952   1.643 -1.8789  2.2218 -0.9878
 8120SOL     OW35818   0.787   2.674  12.101  0.3425  0.0617 -0.2606
 8120SOL    HW135819   0.729   2.723  12.159  0.4512  0.3964 -0.4379
 8120SOL    HW235820   0.772   2.734  12.028 -1.0137 -1.2591 -1.0584
 8121SOL     OW35821   2.923   2.859   2.171  0.2329  0.6437 -0.1373
 8121SOL    HW135822   2.961   2.773   2.192 -0.3701  0.4849  0.2958
 8121SOL    HW235823   2.924   2.862   2.075 -0.1357  0.4553 -0.1477
 8122SOL     OW35824   2.453   3.422  16.213  0.8191  0.4845 -0.2450
 8122SOL    HW135825   2.401   3.429  16.133  0.7333 -1.1057 -0.3173
 8122SOL    HW235826   2.465   3.514  16.235 -2.2488  0.9775 -0.7135
 8123SOL     OW35827   1.733   2.453   7.709  0.1452 -0.0579  0.2882
 8123SOL    HW135828   1.773   2.367   7.707  0.4412  0.0708  0.7461
 8123SOL    HW235829   1.765   2.486   7.625  2.5976 -1.8213  0.5331
 8124SOL     OW35830   1.937   2.387   9.098 -0.0157  0.1684 -0.2887
 8124SOL    HW135831   1.924   2.482   9.095 -1.9516 -0.0511  1.5771
 8124SOL    HW235832   2.033   2.392   9.106 -0.1019  0.3136  0.6059
 8125SOL     OW35833   4.041   3.740  15.504 -0.2561  0.2657  0.3141
 8125SOL    HW135834   4.105   3.725  15.434 -0.5375 -1.3617  0.4180
 8125SOL    HW235835   3.962   3.775  15.463 -0.5658 -0.9995 -0.1589
 8126SOL     OW35836   2.399   3.316   5.800 -0.2742 -0.0396  0.1285
 8126SOL    HW135837   2.370   3.227   5.822 -0.9896  0.6288  1.9292
 8126SOL    HW235838   2.427   3.278   5.716 -1.0040 -2.2508  0.8773
 8127SOL     OW35839   0.554   0.816   7.731 -0.0041 -0.4364 -0.6929
 8127SOL    HW135840   0.593   0.891   7.774  0.6318 -0.6333 -0.9305
 8127SOL    HW235841   0.572   0.838   7.639 -0.2431  0.4391 -0.5247
 8128SOL     OW35842   4.723   3.164   6.947  0.0275 -0.4482  0.1588
 8128SOL    HW135843   0.030   3.235   7.002 -1.1633  0.7788 -0.7221
 8128SOL    HW235844   4.632   3.149   6.974  0.2372  1.7090  1.9677
 8129SOL     OW35845   1.839   2.105   4.741 -0.0167  0.0064 -0.1787
 8129SOL    HW135846   1.808   2.022   4.705  1.0503 -0.9995  1.2238
 8129SOL    HW235847   1.759   2.147   4.772  0.8255  0.9680  0.6773
 8130SOL     OW35848   4.270   1.734  17.476 -0.8709  0.5464 -0.8503
 8130SOL    HW135849   4.240   1.681  17.549  1.0986 -1.0377 -1.2073
 8130SOL    HW235850   4.188   1.721  17.428 -1.9086  2.8428  0.2683
 8131SOL     OW35851   3.942   3.090  16.539  0.3341  0.1393  0.2297
 8131SOL    HW135852   3.985   3.071  16.456 -0.2393 -0.3658  0.0522
 8131SOL    HW235853   4.020   3.102  16.593 -1.8101 -2.5078  3.9172
 8132SOL     OW35854   3.920   3.958   6.960  0.0250  0.0897  0.5850
 8132SOL    HW135855   3.966   3.909   6.892  2.3346  0.4535  1.8725
 8132SOL    HW235856   3.969   4.041   6.965  2.7301 -1.6452  3.1940
 8133SOL     OW35857   2.407   0.752   4.712 -0.4427  0.1764 -0.4169
 8133SOL    HW135858   2.368   0.668   4.689 -0.1799 -0.0592  0.0015
 8133SOL    HW235859   2.498   0.729   4.729 -0.9214 -1.0574  0.5252
 8134SOL     OW35860   0.313   0.231   7.697 -0.5766 -0.5949  0.2375
 8134SOL    HW135861   0.321   0.294   7.768 -0.5266 -2.1111  1.5689
 8134SOL    HW235862   0.396   0.226   7.649  1.3354 -1.1363  3.6144
 8135SOL     OW35863   0.367   1.140   8.679 -0.2452  0.2695  0.4795
 8135SOL    HW135864   0.296   1.153   8.742 -1.2915 -1.2663 -0.3922
 8135SOL    HW235865   0.374   1.229   8.646  0.0825 -0.9528 -2.7409
 8136SOL     OW35866   0.580   4.104   1.245 -0.5097  0.3644 -0.1413
 8136SOL    HW135867   0.563   4.010   1.247  0.6447  0.1161 -1.7696
 8136SOL    HW235868   0.673   4.102   1.225 -0.9296 -0.5756 -2.0443
 8137SOL     OW35869   3.529   0.107   3.595 -0.0722 -0.1407  0.0546
 8137SOL    HW135870   3.603   0.046   3.588 -0.2521 -0.7163  2.8640
 8137SOL    HW235871   3.506   0.131   3.506  0.3201 -1.0012 -0.2799
 8138SOL     OW35872   4.395   3.188   1.873  0.8758  0.0405  0.2594
 8138SOL    HW135873   4.399   3.253   1.942 -1.7299 -2.0204  2.3643
 8138SOL    HW235874   4.466   3.132   1.905  0.8804  1.2198  2.2884
 8139SOL     OW35875   2.929   1.052   6.940  0.0636  0.1062 -0.4797
 8139SOL    HW135876   2.968   0.997   7.008  0.9080 -1.5409 -2.3304
 8139SOL    HW235877   2.990   1.041   6.867 -0.2968 -0.9691 -0.6170
 8140SOL     OW35878   4.666   1.103  15.957 -0.1231 -0.1270  0.0268
 8140SOL    HW135879   4.686   1.192  15.987 -0.6455 -0.6612  1.9852
 8140SOL    HW235880   0.030   1.073  15.980  0.2502  0.3793 -0.7338
 8141SOL     OW35881   2.601   0.002   4.651 -0.7149 -0.4953 -0.2896
 8141SOL    HW135882   2.650   4.646   4.635 -4.4806 -2.5462 -1.4337
 8141SOL    HW235883   2.629   0.021   4.741 -1.6366  0.3888 -0.1879
 8142SOL     OW35884   2.662   4.371   2.624  0.3101  0.0150 -0.5230
 8142SOL    HW135885   2.685   4.320   2.702  1.2521  1.1110 -0.0823
 8142SOL    HW235886   2.635   4.310   2.555  1.4996 -1.0726 -0.0247
 8143SOL     OW35887   4.136   3.692  15.209  0.1738  0.2754  0.3669
 8143SOL    HW135888   4.225   3.705  15.177  0.2534 -1.5935 -0.2039
 8143SOL    HW235889   4.126   3.600  15.184 -5.2098  0.9228  0.2479
 8144SOL     OW35890   3.531   1.709   3.803  0.5501 -0.2966  0.8243
 8144SOL    HW135891   3.503   1.754   3.883  1.2060  2.4368 -0.4761
 8144SOL    HW235892   3.538   1.789   3.751 -0.3234 -0.7301  0.0459
 8145SOL     OW35893   0.286   1.315   7.975  0.5995  0.7408  0.0980
 8145SOL    HW135894   0.231   1.370   8.031 -1.6149 -0.8179 -0.5480
 8145SOL    HW235895   0.227   1.257   7.928  1.2894  0.8086 -0.8627
 8146SOL     OW35896   3.410   4.076  11.405 -0.1625 -0.5347 -0.3066
 8146SOL    HW135897   3.439   3.985  11.403 -0.8284 -0.7326 -1.1644
 8146SOL    HW235898   3.449   4.103  11.488 -0.4173  1.2664 -0.7597
 8147SOL     OW35899   0.745   3.816  12.019  0.8781 -0.4079 -0.0711
 8147SOL    HW135900   0.789   3.759  12.082 -1.4346 -0.5953  1.3712
 8147SOL    HW235901   0.808   3.887  12.019  1.5971 -1.0414  0.0131
 8148SOL     OW35902   4.216   1.363  10.517 -0.5108  0.5984  0.6469
 8148SOL    HW135903   4.280   1.417  10.472 -0.6091  1.4925  1.5796
 8148SOL    HW235904   4.161   1.330  10.446 -0.7742  0.2595  1.0112
 8149SOL     OW35905   0.776   0.000   9.909 -0.0751 -0.2380 -0.0151
 8149SOL    HW135906   0.702   4.699   9.854 -0.3336 -0.6824  0.5382
 8149SOL    HW235907   0.753   4.696   9.998 -0.5999 -1.4997 -0.5672
 8150SOL     OW35908   0.825   4.450   3.894 -0.7340  0.1883 -0.7374
 8150SOL    HW135909   0.780   4.467   3.977  1.8526 -1.1297  0.9347
 8150SOL    HW235910   0.876   4.373   3.917  0.0801  1.0060  0.1936
 8151SOL     OW35911   3.894   3.831   7.275  0.0598 -0.1152 -0.3484
 8151SOL    HW135912   3.842   3.912   7.270 -0.9261 -0.6673  1.0378
 8151SOL    HW235913   3.975   3.878   7.252 -0.5203 -0.1237 -2.4517
 8152SOL     OW35914   2.308   2.209   8.610 -0.9274  0.5960 -0.3770
 8152SOL    HW135915   2.381   2.199   8.549 -0.8810 -0.6911 -0.1154
 8152SOL    HW235916   2.314   2.297   8.646 -1.1548  1.2358 -1.9045
 8153SOL     OW35917   4.489   0.211   3.348 -0.3691 -0.6279 -0.4436
 8153SOL    HW135918   4.420   0.190   3.285 -2.8121  1.3634  1.5615
 8153SOL    HW235919   4.551   0.263   3.298 -1.2513 -0.2778 -1.1729
 8154SOL     OW35920   1.803   0.288   6.788  0.1084  0.0699 -0.2440
 8154SOL    HW135921   1.708   0.297   6.775  0.0578 -0.7706 -0.4526
 8154SOL    HW235922   1.819   0.208   6.837 -0.9804 -0.3516 -0.5649
 8155SOL     OW35923   2.357   1.731   5.882 -0.1244  0.0654  0.0397
 8155SOL    HW135924   2.283   1.723   5.822 -0.3908  3.2997 -0.0411
 8155SOL    HW235925   2.399   1.811   5.849  1.0918 -0.0991  1.1864
 8156SOL     OW35926   1.406   3.683   7.149  0.3069  0.2783 -0.1537
 8156SOL    HW135927   1.371   3.768   7.121 -0.7039 -1.0736 -2.9772
 8156SOL    HW235928   1.472   3.702   7.215  0.5081 -0.3562 -0.1737
 8157SOL     OW35929   4.527   3.385   5.420  0.0269  0.3829 -0.4360
 8157SOL    HW135930   4.508   3.435   5.340 -2.6642  0.1991  0.0990
 8157SOL    HW235931   4.614   3.420   5.443 -2.0435  3.1994  3.0636
 8158SOL     OW35932   3.411   1.021   7.674  0.0469 -0.2259 -0.0367
 8158SOL    HW135933   3.404   1.095   7.736  0.4876  1.1419 -1.6158
 8158SOL    HW235934   3.385   0.953   7.736  0.1608  0.8479  1.2101
 8159SOL     OW35935   4.699   1.856   0.340 -0.1906 -0.4763  0.2792
 8159SOL    HW135936   0.031   1.785   0.308  0.3861  1.0066 -2.0380
 8159SOL    HW235937   4.621   1.809   0.368 -0.1262 -0.8842 -0.2152
 8160SOL     OW35938   3.641   2.276  16.556  0.2402  0.1348 -0.3025
 8160SOL    HW135939   3.589   2.196  16.566  0.8250 -0.1084  0.8925
 8160SOL    HW235940   3.673   2.271  16.466  1.3824 -0.8777  0.1682
 8161SOL     OW35941   4.136   3.027  16.756  0.1958 -0.0204  0.0374
 8161SOL    HW135942   4.126   2.999  16.846  0.6812  0.1786  0.1556
 8161SOL    HW235943   4.226   3.061  16.754 -0.4248  1.5947 -1.8901
 8162SOL     OW35944   3.346   3.444  17.357  0.3643 -0.3197  0.6614
 8162SOL    HW135945   3.378   3.429  17.268 -4.2903 -1.3545 -0.8738
 8162SOL    HW235946   3.358   3.353  17.387  0.2617 -0.6953 -0.4528
 8163SOL     OW35947   3.323   1.068  11.904  0.2340 -0.5094 -0.2275
 8163SOL    HW135948   3.346   0.988  11.952 -3.4539 -1.8308 -0.6574
 8163SOL    HW235949   3.232   1.043  11.890  0.1772 -1.0104  1.0542
 8164SOL     OW35950   0.694   4.430   7.614  0.4459  0.0203 -0.4836
 8164SOL    HW135951   0.740   4.492   7.557 -0.9201  0.5952 -0.9713
 8164SOL    HW235952   0.610   4.476   7.620  0.5898  0.4185 -1.4609
 8165SOL     OW35953   0.110   0.336   8.315 -0.0406 -0.3303 -0.6181
 8165SOL    HW135954   0.112   0.390   8.236 -2.2871 -1.5369 -1.4983
 8165SOL    HW235955   0.179   0.378   8.366 -1.6344  0.9729  0.4856
 8166SOL     OW35956   2.714   3.073   6.981 -0.0498  0.1911  0.2171
 8166SOL    HW135957   2.674   3.135   6.919  0.3345  0.0079 -0.2193
 8166SOL    HW235958   2.725   3.132   7.055  1.5505 -2.0958  1.7607
 8167SOL     OW35959   1.850   3.993   2.768  0.0064  0.1354  0.2239
 8167SOL    HW135960   1.861   3.965   2.677 -1.6924  0.2881 -0.0344
 8167SOL    HW235961   1.797   3.922   2.803  1.2436 -0.5109  0.7602
 8168SOL     OW35962   2.947   4.394  10.720 -0.3427 -0.2725  0.3368
 8168SOL    HW135963   2.868   4.348  10.746 -0.9586  1.8444  2.1940
 8168SOL    HW235964   2.985   4.413  10.806 -0.9286  1.8216  0.1458
 8169SOL     OW35965   2.992   2.593   8.705 -0.3995  1.0254 -0.2581
 8169SOL    HW135966   2.949   2.651   8.767 -1.2053  1.0602 -0.8606
 8169SOL    HW235967   2.956   2.513   8.743 -0.4241  1.3695  0.4420
 8170SOL     OW35968   1.286   0.269  14.300  0.6397  0.1874 -0.3335
 8170SOL    HW135969   1.294   0.294  14.392  0.5097 -0.5627 -0.1184
 8170SOL    HW235970   1.377   0.280  14.272  0.1642  1.0563 -1.5817
 8171SOL     OW35971   0.938   3.480   8.954 -0.6543 -0.5606 -0.4069
 8171SOL    HW135972   0.995   3.557   8.958 -1.8708  0.4108 -1.7871
 8171SOL    HW235973   0.987   3.440   8.882 -0.4127 -2.2401  0.6848
 8172SOL     OW35974   3.226   4.091   2.904  0.2105  0.2244 -0.4640
 8172SOL    HW135975   3.267   4.031   2.965 -1.0966  2.3133  2.4783
 8172SOL    HW235976   3.249   4.055   2.818  2.7045 -0.4386  0.4900
 8173SOL     OW35977   4.391   0.748   4.666  0.2225  0.7151  0.3449
 8173SOL    HW135978   4.460   0.812   4.645  0.6198  0.4075  0.7026
 8173SOL    HW235979   4.313   0.786   4.628 -2.0843 -2.5310  1.8011
 8174SOL     OW35980   2.051   1.606   4.334 -0.1772  0.0786  0.6158
 8174SOL    HW135981   1.963   1.609   4.295  1.1546 -0.7327 -2.4026
 8174SOL    HW235982   2.071   1.699   4.347  0.8328 -0.3973  2.3549
 8175SOL     OW35983   1.614   1.446   2.255 -0.0996  0.0953 -0.2553
 8175SOL    HW135984   1.678   1.409   2.193 -1.3410 -2.3579 -0.0633
 8175SOL    HW235985   1.562   1.370   2.280  0.9762 -1.2874 -2.1611
 8176SOL     OW35986   3.543   2.418  17.205  0.1251  0.3656  0.0048
 8176SOL    HW135987   3.627   2.376  17.189 -0.1543 -1.1760  2.5195
 8176SOL    HW235988   3.550   2.471  17.126  0.4460  1.1377  0.5616
 8177SOL     OW35989   1.637   2.616  15.587 -0.8736  0.4374 -0.7763
 8177SOL    HW135990   1.558   2.612  15.641 -0.6808 -1.4133 -0.6096
 8177SOL    HW235991   1.616   2.545  15.526 -2.6003 -1.4040  1.9397
 8178SOL     OW35992   0.154   1.197   2.271 -0.2822 -0.3432 -0.3235
 8178SOL    HW135993   0.248   1.180   2.276 -0.1198  0.2986 -1.1705
 8178SOL    HW235994   0.121   1.164   2.354 -0.4868  2.5438  0.7178
 8179SOL     OW35995   0.758   0.294   5.349  0.0149 -0.6868 -0.7986
 8179SOL    HW135996   0.757   0.351   5.272  0.8551 -0.0256 -0.3205
 8179SOL    HW235997   0.847   0.260   5.342  0.4115  0.3309 -0.7446
 8180SOL     OW35998   3.782   1.621   9.438 -0.1086 -0.2655  0.0233
 8180SOL    HW135999   3.688   1.605   9.444 -0.1218  0.1344  0.8297
 8180SOL    HW236000   3.798   1.600   9.346  0.8858  2.0553 -0.3567
 8181SOL     OW36001   2.589   2.995   7.682 -0.3861  0.0240 -0.0779
 8181SOL    HW136002   2.639   2.946   7.746 -0.9415 -0.1581  0.2150
 8181SOL    HW236003   2.497   2.991   7.711  0.3201  0.4322  2.2135
 8182SOL     OW36004   0.783   1.097   8.890  1.0065  0.1131 -0.0644
 8182SOL    HW136005   0.802   1.096   8.796 -0.0279 -0.9701 -0.2742
 8182SOL    HW236006   0.729   1.017   8.889 -0.1299  0.8769  0.7952
 8183SOL     OW36007   4.162   1.368   5.531  0.2761 -0.4436 -0.1182
 8183SOL    HW136008   4.151   1.422   5.453  0.5489  0.2872  0.3502
 8183SOL    HW236009   4.101   1.295   5.521 -0.3960  0.2644 -1.2616
 8184SOL     OW36010   1.750   1.213   4.370 -0.5851 -0.2575  0.3507
 8184SOL    HW136011   1.816   1.158   4.328 -0.4779  0.7242 -0.7863
 8184SOL    HW236012   1.674   1.158   4.357 -1.1280  0.9575 -1.7028
 8185SOL     OW36013   3.690   2.119   2.511 -0.4961  0.1098  0.1172
 8185SOL    HW136014   3.767   2.137   2.457  0.9878 -4.0688  0.8788
 8185SOL    HW236015   3.679   2.026   2.494  0.2382 -0.1474  1.0231
 8186SOL     OW36016   4.018   3.106   8.356 -0.0782  0.1473 -0.8266
 8186SOL    HW136017   3.969   3.039   8.404  0.2617  0.4329 -0.0859
 8186SOL    HW236018   3.962   3.178   8.387  0.7779  0.3251  0.2839
 8187SOL     OW36019   3.402   1.996  14.987  0.1569  0.0321  0.2848
 8187SOL    HW136020   3.322   2.016  14.937  0.1036 -0.1174  0.3118
 8187SOL    HW236021   3.356   1.933  15.042  0.4713 -0.5971 -0.1763
 8188SOL     OW36022   1.498   4.043   0.144 -0.5752  0.4628  0.3385
 8188SOL    HW136023   1.473   3.974   0.206  0.1356  0.4882  0.6514
 8188SOL    HW236024   1.557   4.104   0.188  1.7387 -0.7431 -1.0463
 8189SOL     OW36025   3.640   2.967   4.588  0.3657  0.7465 -0.0857
 8189SOL    HW136026   3.646   2.882   4.546 -0.8758  0.4110  0.4107
 8189SOL    HW236027   3.580   2.946   4.659 -1.3358  1.0940 -1.4241
 8190SOL     OW36028   2.024   0.398  17.679 -0.2973  0.4446  0.3715
 8190SOL    HW136029   2.015   0.318   0.032  1.8003  2.4847  3.9206
 8190SOL    HW236030   2.019   0.368  17.588 -0.9545 -1.8991  1.1772
 8191SOL     OW36031   0.081   0.560   5.271  0.0518 -0.0511 -0.1026
 8191SOL    HW136032   0.069   0.467   5.291  0.9610 -0.2923 -0.6457
 8191SOL    HW236033   0.081   0.606   5.355  1.6962  0.5049 -0.4079
 8192SOL     OW36034   0.564   4.243   7.842  0.3125  0.2653 -0.3076
 8192SOL    HW136035   0.646   4.286   7.817  1.0443 -0.8168  0.2184
 8192SOL    HW236036   0.562   4.261   7.936 -0.1067 -3.7055  0.4519
 8193SOL     OW36037   4.167   1.336   9.551  0.0100 -0.0350  0.3929
 8193SOL    HW136038   4.094   1.380   9.594  0.5288 -1.0249  2.2868
 8193SOL    HW236039   4.190   1.413   9.499 -0.6383 -1.3223 -1.8108
 8194SOL     OW36040   2.080   2.568   6.075  0.2647  1.0633  0.3431
 8194SOL    HW136041   2.064   2.641   6.135 -1.1354  0.8815  0.1827
 8194SOL    HW236042   2.007   2.515   6.105  1.8842  0.4820  3.3149
 8195SOL     OW36043   0.826   3.206   5.177  0.2847  0.0084  0.2669
 8195SOL    HW136044   0.834   3.117   5.141  0.1185  0.1921 -0.2267
 8195SOL    HW236045   0.738   3.197   5.212 -1.3343  0.1375 -3.7286
 8196SOL     OW36046   1.674   3.357   3.855 -0.3994  0.1388  0.2442
 8196SOL    HW136047   1.651   3.408   3.778  1.1019  2.6625  1.4510
 8196SOL    HW236048   1.668   3.429   3.917 -0.4659  0.5900 -0.2885
 8197SOL     OW36049   1.355   4.060   4.912  0.0308  0.1911 -0.3517
 8197SOL    HW136050   1.402   4.019   4.839 -1.3642 -1.2160 -0.4663
 8197SOL    HW236051   1.309   3.986   4.953  0.2265 -0.7665 -1.8315
 8198SOL     OW36052   2.337   1.905   3.370  0.0318 -0.2778 -0.4470
 8198SOL    HW136053   2.269   1.965   3.401  1.5377  1.0678  0.2526
 8198SOL    HW236054   2.364   1.947   3.288 -0.8688  2.0203  0.4470
 8199SOL     OW36055   2.026   2.392   2.079  0.2689  0.2756  0.1593
 8199SOL    HW136056   2.050   2.451   2.150 -0.7500 -0.3805  1.0491
 8199SOL    HW236057   1.997   2.315   2.129 -0.7732 -1.1483 -2.6546
 8200SOL     OW36058   1.261   1.214   3.051  0.4239  0.0705  0.0813
 8200SOL    HW136059   1.337   1.191   3.104  0.1074  0.4241  0.6882
 8200SOL    HW236060   1.194   1.207   3.118  0.4833  0.6736  0.2011
 8201SOL     OW36061   4.460   4.164   4.523 -0.8194  0.4955  0.1890
 8201SOL    HW136062   4.509   4.244   4.505  1.7018 -0.6947  1.7979
 8201SOL    HW236063   4.390   4.193   4.464 -2.0413  1.0627  1.9102
 8202SOL     OW36064   4.227   1.263  17.192 -0.5989  0.3298  0.0746
 8202SOL    HW136065   4.178   1.205  17.134 -1.2765 -0.0599  1.0492
 8202SOL    HW236066   4.231   1.344  17.140  0.4111 -0.3947 -0.9718
 8203SOL     OW36067   2.974   1.952   7.650  0.6185  0.4233  0.1950
 8203SOL    HW136068   3.005   1.932   7.738 -0.6486  0.6025  0.6798
 8203SOL    HW236069   2.978   1.871   7.600  0.3577 -0.5441  1.7644
 8204SOL     OW36070   3.375   1.352   9.945  0.4032  0.3930  0.1810
 8204SOL    HW136071   3.462   1.360   9.906 -0.1720  1.2450 -0.9259
 8204SOL    HW236072   3.327   1.317   9.870  0.3097 -2.0861  1.3954
 8205SOL     OW36073   1.810   4.248   1.442  0.4074  0.1243 -0.0187
 8205SOL    HW136074   1.780   4.325   1.490  0.6134 -0.1687  0.5835
 8205SOL    HW236075   1.888   4.279   1.396 -0.2094 -1.0808 -1.8596
 8206SOL     OW36076   3.588   4.547   1.376 -0.1986 -0.2942 -0.6452
 8206SOL    HW136077   3.513   4.577   1.324  0.4525  0.9205 -0.8782
 8206SOL    HW236078   3.636   4.507   1.303 -3.1248 -1.7270 -1.7727
 8207SOL     OW36079   3.516   0.544   6.509 -0.3148 -0.8629 -0.6660
 8207SOL    HW136080   3.499   0.534   6.415  0.7753 -3.1577 -0.6413
 8207SOL    HW236081   3.551   0.632   6.516  2.2544 -1.7680 -2.0339
 8208SOL     OW36082   2.798   1.496   6.805  0.2090  0.1579 -0.4868
 8208SOL    HW136083   2.803   1.590   6.820  0.4388  0.4090 -2.1373
 8208SOL    HW236084   2.758   1.503   6.718 -1.7636 -2.6151  0.1605
 8209SOL     OW36085   3.145   0.013   1.070 -0.1466  0.2718  0.0049
 8209SOL    HW136086   3.073   0.004   1.133  0.1631  0.9205  0.4580
 8209SOL    HW236087   3.163   0.107   1.079 -1.3994  0.3913  1.2304
 8210SOL     OW36088   3.181   1.717   0.832  0.3818  0.6655 -0.2566
 8210SOL    HW136089   3.111   1.780   0.816 -0.3521  0.2300  1.2399
 8210SOL    HW236090   3.250   1.780   0.854  0.1834  0.3013  1.4083
 8211SOL     OW36091   3.338   1.280   4.688 -0.6357 -0.4623 -0.3266
 8211SOL    HW136092   3.314   1.187   4.690 -1.3696 -0.2463  1.2113
 8211SOL    HW236093   3.254   1.311   4.654  0.6000  0.9872 -2.0719
 8212SOL     OW36094   1.183   0.140   9.879 -0.0257  0.3265  0.0339
 8212SOL    HW136095   1.151   0.210   9.822 -2.2707  0.4440  1.4319
 8212SOL    HW236096   1.275   0.157   9.900 -0.9555  3.3649  1.6259
 8213SOL     OW36097   0.846   4.139   4.582 -0.1798  0.5403 -0.1306
 8213SOL    HW136098   0.826   4.060   4.632 -1.1798  1.1910  0.4849
 8213SOL    HW236099   0.819   4.210   4.640  1.5777  0.6136  0.5819
 8214SOL     OW36100   1.937   3.300   4.284 -0.4676 -0.2230 -0.0430
 8214SOL    HW136101   1.893   3.330   4.204  1.1945 -1.5021 -1.4497
 8214SOL    HW236102   1.886   3.219   4.292 -0.3495 -0.3895 -0.8699
 8215SOL     OW36103   0.128   3.694  14.637  0.3717 -0.6978  0.5699
 8215SOL    HW136104   0.166   3.757  14.699  2.1091 -0.4427 -0.7572
 8215SOL    HW236105   0.034   3.700  14.656  0.2925 -0.8973  0.2275
 8216SOL     OW36106   2.953   1.313   1.148  0.5391  0.6025  0.4516
 8216SOL    HW136107   2.918   1.231   1.113 -0.6758  0.7501  1.2919
 8216SOL    HW236108   2.967   1.372   1.074 -1.9322 -0.1927 -0.6374
 8217SOL     OW36109   4.188   4.091  13.419  0.6258 -0.0354 -0.1382
 8217SOL    HW136110   4.094   4.073  13.412  0.6445 -0.3738  0.4760
 8217SOL    HW236111   4.220   4.009  13.380  1.5768 -0.9052  2.5017
 8218SOL     OW36112   1.976   4.681   5.166  0.2932 -0.4004 -0.2181
 8218SOL    HW136113   2.034   4.689   5.091 -0.2708 -2.4137 -0.8672
 8218SOL    HW236114   2.031   4.717   5.236  0.8870  0.7114 -1.2647
 8219SOL     OW36115   0.403   1.545   3.378  0.0299 -0.3834 -0.2813
 8219SOL    HW136116   0.325   1.527   3.431  1.2967 -0.3805  1.6001
 8219SOL    HW236117   0.436   1.455   3.382  1.0204  0.0553  1.2948
 8220SOL     OW36118   2.479   0.921   0.988  0.4189  0.2854  0.4662
 8220SOL    HW136119   2.498   0.901   1.080  0.5491  0.0336  0.3842
 8220SOL    HW236120   2.486   0.838   0.942 -2.2001  1.9043 -2.8844
 8221SOL     OW36121   3.577   3.434   7.044 -0.0827 -0.3645  0.0683
 8221SOL    HW136122   3.590   3.378   7.120 -0.2397  0.9127  1.0251
 8221SOL    HW236123   3.649   3.416   6.984  0.5411  0.8582  0.4435
 8222SOL     OW36124   2.208   1.302   1.917  1.3800 -0.0108 -0.1937
 8222SOL    HW136125   2.252   1.219   1.900  1.8989  0.2088  0.0787
 8222SOL    HW236126   2.216   1.346   1.833 -1.5450  1.1223  0.1252
 8223SOL     OW36127   0.375   4.275   2.085  0.2063  0.1752 -0.2573
 8223SOL    HW136128   0.346   4.365   2.069 -0.7018  0.0732  0.8536
 8223SOL    HW236129   0.470   4.287   2.091  0.0661  1.3226 -0.2615
 8224SOL     OW36130   2.152   0.604   2.558  0.1658  0.0854  0.5747
 8224SOL    HW136131   2.247   0.593   2.564  0.3352  1.8949  0.9697
 8224SOL    HW236132   2.136   0.523   2.508  1.5888 -0.4014  0.9103
 8225SOL     OW36133   2.177   2.563   1.663  0.2155  0.7626 -0.4135
 8225SOL    HW136134   2.085   2.558   1.639  0.3325  2.8397 -1.3373
 8225SOL    HW236135   2.215   2.614   1.592 -1.4747  0.7565 -1.3237
 8226SOL     OW36136   2.443   1.166   2.792  0.1718 -0.3855  0.1749
 8226SOL    HW136137   2.457   1.076   2.822 -1.9160 -1.7580 -2.9874
 8226SOL    HW236138   2.485   1.165   2.706  1.3891  1.3872  0.7341
 8227SOL     OW36139   3.944   0.018   1.396 -0.2558 -0.7901 -0.9281
 8227SOL    HW136140   4.002   4.695   1.456 -1.6351 -0.5806  0.5825
 8227SOL    HW236141   4.006   0.079   1.357 -0.3604 -0.1337 -0.0629
 8228SOL     OW36142   3.294   3.841  13.989 -0.4454  0.2849  0.0600
 8228SOL    HW136143   3.340   3.925  13.993 -1.2862  0.7836 -0.6728
 8228SOL    HW236144   3.203   3.872  13.994 -1.1111 -1.7357  0.3055
 8229SOL     OW36145   1.440   1.605  11.330  0.2077  0.2669  0.3912
 8229SOL    HW136146   1.526   1.577  11.361  0.1469  0.5996  0.8554
 8229SOL    HW236147   1.397   1.619  11.414 -0.1747  1.8366 -0.0713
 8230SOL     OW36148   3.200   3.573   2.231 -0.0672  0.3934 -0.3150
 8230SOL    HW136149   3.208   3.536   2.318  1.1459 -2.1438 -1.5153
 8230SOL    HW236150   3.109   3.548   2.213 -0.4335  0.0073  2.0970
 8231SOL     OW36151   4.582   3.527  14.962  0.2133  0.0467 -0.1637
 8231SOL    HW136152   4.572   3.598  14.899  0.1998  0.5860  0.4505
 8231SOL    HW236153   4.574   3.455  14.899  2.3206  0.9966 -1.5351
 8232SOL     OW36154   0.854   2.663   5.622 -0.1198  0.1216 -0.2344
 8232SOL    HW136155   0.914   2.593   5.595 -0.8100 -1.3297  1.9565
 8232SOL    HW236156   0.857   2.663   5.718  2.3713 -0.1129 -0.3224
 8233SOL     OW36157   2.359   1.786   1.755  0.0556 -0.2362  0.3302
 8233SOL    HW136158   2.332   1.833   1.834 -1.4518 -2.2581  1.0086
 8233SOL    HW236159   2.436   1.744   1.794  0.0242  1.1938  1.9625
 8234SOL     OW36160   1.527   1.319   0.504  0.2453 -0.0191 -0.0558
 8234SOL    HW136161   1.568   1.291   0.422  1.1570  0.7732  0.1307
 8234SOL    HW236162   1.497   1.234   0.537 -1.7535  1.5644  2.2403
 8235SOL     OW36163   1.859   0.211  11.404  0.2392 -0.1586 -0.4224
 8235SOL    HW136164   1.766   0.215  11.383 -0.0138 -0.4451  0.6541
 8235SOL    HW236165   1.853   0.149  11.477 -2.4600 -0.9885 -1.3522
 8236SOL     OW36166   2.845   1.515  10.338 -0.6825  0.3547  0.0312
 8236SOL    HW136167   2.765   1.566  10.322 -0.2030  1.7800  2.1797
 8236SOL    HW236168   2.822   1.488  10.427 -0.8888 -0.0696 -0.1519
 8237SOL     OW36169   4.309   0.916   7.435 -0.0660 -0.4534  0.0435
 8237SOL    HW136170   4.248   0.864   7.384 -3.5769  3.2945  0.3912
 8237SOL    HW236171   4.394   0.873   7.426 -0.5562 -1.5960  0.8180
 8238SOL     OW36172   0.588   2.179   4.572  0.4759  0.7716  0.5365
 8238SOL    HW136173   0.630   2.205   4.654 -0.1410  0.4020  0.9687
 8238SOL    HW236174   0.641   2.221   4.504 -0.7817  3.0257  0.9594
 8239SOL     OW36175   4.224   4.475  15.096 -0.1859  0.0425  0.3871
 8239SOL    HW136176   4.231   4.553  15.152 -0.4023  0.3323  0.0138
 8239SOL    HW236177   4.131   4.452  15.107 -0.7640  1.8755 -0.6471
 8240SOL     OW36178   1.411   4.069  13.654  0.5012 -0.0011  0.3491
 8240SOL    HW136179   1.430   4.161  13.637  0.5433 -0.2113 -0.7408
 8240SOL    HW236180   1.316   4.066  13.647  0.6426 -1.4557 -0.9197
 8241SOL     OW36181   4.285   4.420   6.608  0.0325  0.0157  0.4323
 8241SOL    HW136182   4.335   4.502   6.611 -1.2711  0.8424 -0.2549
 8241SOL    HW236183   4.239   4.430   6.524 -2.2484 -0.9190  1.5862
 8242SOL     OW36184   2.222   1.764   4.062 -0.0120  0.2732 -0.2493
 8242SOL    HW136185   2.295   1.806   4.107 -1.2869 -0.5589  2.5650
 8242SOL    HW236186   2.146   1.810   4.096 -0.0398 -0.0557  0.1295
 8243SOL     OW36187   3.769   3.633  15.766 -0.3685  0.5216  0.4073
 8243SOL    HW136188   3.769   3.657  15.674  2.3209 -2.3541 -0.3352
 8243SOL    HW236189   3.750   3.714  15.814 -1.0907  2.3308 -2.9541
 8244SOL     OW36190   2.670   3.190   3.670  0.2015 -0.0440  0.1727
 8244SOL    HW136191   2.694   3.108   3.715  1.5215  0.5686  0.5767
 8244SOL    HW236192   2.737   3.243   3.712  0.6153  0.6168 -1.3352
 8245SOL     OW36193   0.752   1.680   5.866 -0.1521  0.3285  0.0718
 8245SOL    HW136194   0.807   1.659   5.790 -0.7564  0.3291 -0.3714
 8245SOL    HW236195   0.768   1.593   5.904  0.1649  1.1026  1.7072
 8246SOL     OW36196   3.710   2.112  16.116 -0.4280 -0.0437 -0.5197
 8246SOL    HW136197   3.801   2.083  16.111 -0.3997 -0.0637  0.0374
 8246SOL    HW236198   3.656   2.049  16.068  0.7498 -0.7156 -0.9749
 8247SOL     OW36199   1.336   1.849  11.220 -0.0184  0.0155 -0.4409
 8247SOL    HW136200   1.244   1.866  11.240 -0.2028 -1.6231  0.1048
 8247SOL    HW236201   1.357   1.757  11.236  1.9820  0.5505  0.0014
 8248SOL     OW36202   3.000   4.374   3.625 -0.2363  0.2893  0.1856
 8248SOL    HW136203   3.044   4.330   3.697  0.5807 -3.4116 -2.5927
 8248SOL    HW236204   3.079   4.417   3.593 -0.0532  0.6134  1.1060
 8249SOL     OW36205   1.204   0.058  12.774  0.1615 -0.7989 -0.0766
 8249SOL    HW136206   1.170   0.056  12.863 -0.1630 -1.7766 -0.2186
 8249SOL    HW236207   1.180   4.699  12.733 -1.3621 -0.6134  0.4517
 8250SOL     OW36208   0.303   3.662   8.074 -0.1905  0.5041  0.2836
 8250SOL    HW136209   0.373   3.627   8.129 -0.2240  1.9019  1.2104
 8250SOL    HW236210   0.272   3.587   8.023 -1.2930  1.2021 -0.0794
 8251SOL     OW36211   2.260   2.108  11.664  0.1022 -0.0951  0.2382
 8251SOL    HW136212   2.292   2.137  11.750  2.4806  1.1480 -1.0605
 8251SOL    HW236213   2.191   2.046  11.688  2.1897 -2.7510 -0.5689
 8252SOL     OW36214   4.495   4.055   2.666  0.0893 -0.6394 -0.3895
 8252SOL    HW136215   4.436   4.052   2.590 -0.1330 -1.1930 -0.1925
 8252SOL    HW236216   4.530   4.142   2.647  0.5574 -1.1486 -1.8457
 8253SOL     OW36217   3.136   1.332   8.675 -0.1334  0.5905  0.1190
 8253SOL    HW136218   3.178   1.417   8.686  2.0501 -0.8088  2.5650
 8253SOL    HW236219   3.046   1.355   8.696 -0.0199  1.5281 -0.4398
 8254SOL     OW36220   3.291   0.331   4.440  0.0264  0.2989 -0.4842
 8254SOL    HW136221   3.328   0.281   4.513  0.4915  3.6153  1.5451
 8254SOL    HW236222   3.287   0.271   4.365  0.3446  1.8722 -1.7631
 8255SOL     OW36223   1.761   4.296  16.593  0.1118 -0.4039  0.4546
 8255SOL    HW136224   1.747   4.207  16.625 -0.3118 -1.3303 -2.3251
 8255SOL    HW236225   1.753   4.280  16.499  0.8077 -1.2826  0.5509
 8256SOL     OW36226   3.247   2.219   8.679  0.3832 -0.1303 -0.3023
 8256SOL    HW136227   3.246   2.288   8.745 -2.2990 -0.6853  0.2630
 8256SOL    HW236228   3.339   2.195   8.680  0.6373  0.9265  0.9042
 8257SOL     OW36229   0.530   3.964   7.878 -0.2463 -0.1653 -0.4385
 8257SOL    HW136230   0.539   4.059   7.871 -1.9600  0.1516  1.6094
 8257SOL    HW236231   0.540   3.940   7.970 -1.2289 -1.2313 -0.6092
 8258SOL     OW36232   3.244   2.638   0.165 -0.8780 -0.4571  0.6197
 8258SOL    HW136233   3.231   2.619   0.072 -2.9843  3.6305  0.0520
 8258SOL    HW236234   3.160   2.612   0.203 -1.6654 -0.0893 -0.8743
 8259SOL     OW36235   2.399   2.477   1.992 -0.2959  0.2714  0.3213
 8259SOL    HW136236   2.394   2.423   1.913 -0.8647  0.1453  0.4476
 8259SOL    HW236237   2.431   2.559   1.955 -0.0280 -0.4742 -1.1211
 8260SOL     OW36238   3.416   4.555   6.955  0.3726 -0.1129  0.0085
 8260SOL    HW136239   3.454   4.524   6.873 -2.0768  0.4848 -1.3731
 8260SOL    HW236240   3.437   4.490   7.021 -0.4014  2.5211  2.8406
 8261SOL     OW36241   4.293   0.941  12.655  0.0455  0.3850 -0.5577
 8261SOL    HW136242   4.252   0.866  12.697 -0.2648  0.3591 -0.9099
 8261SOL    HW236243   4.278   0.933  12.561  0.7861 -2.1209 -0.4484
 8262SOL     OW36244   2.420   3.803   7.652 -0.0662  0.5242 -0.1706
 8262SOL    HW136245   2.451   3.891   7.673 -0.0971  0.5313 -0.1547
 8262SOL    HW236246   2.427   3.747   7.729 -0.8917  2.3607  1.2427
 8263SOL     OW36247   4.525   3.176  11.149 -0.0797 -0.0117  0.2624
 8263SOL    HW136248   4.567   3.260  11.168  1.4608 -0.7046 -0.0530
 8263SOL    HW236249   4.514   3.207  11.059  1.1514 -1.9740 -0.5560
 8264SOL     OW36250   0.877   0.530   6.294  0.4372 -0.1487  0.2978
 8264SOL    HW136251   0.824   0.564   6.366 -0.2906  0.8275 -0.7118
 8264SOL    HW236252   0.808   0.494   6.240  0.2797 -1.1667  1.1797
 8265SOL     OW36253   2.746   1.314   1.768  0.3439 -0.2542  0.0367
 8265SOL    HW136254   2.839   1.335   1.770  0.3697 -0.4324  0.8492
 8265SOL    HW236255   2.740   1.273   1.855 -0.7861 -1.2494 -0.5190
 8266SOL     OW36256   2.815   3.603   7.371  0.3832 -0.2152 -0.1241
 8266SOL    HW136257   2.754   3.675   7.391 -0.5171 -1.6848  2.3930
 8266SOL    HW236258   2.809   3.557   7.454  0.4117 -2.2965 -1.2893
 8267SOL     OW36259   2.094   2.956   4.057 -0.2897  0.0430  0.0092
 8267SOL    HW136260   2.087   2.942   4.152  3.2853 -1.9166 -0.0198
 8267SOL    HW236261   2.129   3.044   4.060  1.7084 -0.7242 -1.5296
 8268SOL     OW36262   1.925   1.328   9.802 -0.2939 -0.0409 -0.3808
 8268SOL    HW136263   1.909   1.417   9.833  1.1609 -0.7043  2.2855
 8268SOL    HW236264   1.892   1.339   9.713  2.4361  0.5878 -1.3100
 8269SOL     OW36265   1.235   0.804   1.935  0.2436 -0.1783  0.6898
 8269SOL    HW136266   1.277   0.732   1.981 -1.1452 -1.8672 -0.6797
 8269SOL    HW236267   1.145   0.773   1.923  0.4413 -2.0187  3.8398
 8270SOL     OW36268   4.480   2.400  14.553  0.0920 -0.1106 -0.4988
 8270SOL    HW136269   4.555   2.460  14.558 -0.9241  0.9454  1.8963
 8270SOL    HW236270   4.405   2.444  14.591  0.1341 -0.6287  0.1780
 8271SOL     OW36271   2.719   2.991   8.308  0.3646  0.2782 -0.0173
 8271SOL    HW136272   2.735   2.896   8.312 -1.5441 -0.1487 -2.0608
 8271SOL    HW236273   2.639   2.990   8.256 -0.0320 -0.6793  0.6042
 8272SOL     OW36274   3.309   1.942   8.857 -0.7553  0.1393 -0.0449
 8272SOL    HW136275   3.366   1.968   8.785 -0.7654  2.1226  0.6598
 8272SOL    HW236276   3.339   1.851   8.855  0.5542  0.5809 -0.2521
 8273SOL     OW36277   4.284   3.271   6.930  0.1400 -0.1560  0.0055
 8273SOL    HW136278   4.341   3.284   6.855  0.0497  0.1673 -0.0070
 8273SOL    HW236279   4.353   3.248   6.992  1.2581  0.2682 -1.0996
 8274SOL     OW36280   3.190   1.875   5.717  0.0444 -0.1472 -0.3394
 8274SOL    HW136281   3.165   1.831   5.636  0.0090 -0.8864  0.0698
 8274SOL    HW236282   3.283   1.860   5.703  0.2655 -1.2978  2.2783
 8275SOL     OW36283   2.519   2.238  11.337 -0.0859  0.4260  0.5392
 8275SOL    HW136284   2.521   2.278  11.424 -0.9733 -2.8762  2.0974
 8275SOL    HW236285   2.426   2.214  11.334  0.3013 -0.9074 -0.5744
 8276SOL     OW36286   4.167   1.499  11.766 -0.1705 -0.2088 -0.3911
 8276SOL    HW136287   4.133   1.517  11.678  0.0660 -0.7940 -0.6038
 8276SOL    HW236288   4.121   1.564  11.818  0.3173 -0.2148  0.0434
 8277SOL     OW36289   0.815   3.959  11.072 -0.0335 -0.1994  0.2935
 8277SOL    HW136290   0.788   3.884  11.019 -0.2303 -0.4592  0.7578
 8277SOL    HW236291   0.882   3.915  11.125  0.6922  0.9451  0.3077
 8278SOL     OW36292   4.708   3.960   1.358 -0.4192  0.8386  0.3365
 8278SOL    HW136293   0.024   4.045   1.377 -0.7080  0.6037  2.0642
 8278SOL    HW236294   4.616   3.988   1.353 -0.4367  0.7922  0.3934
 8279SOL     OW36295   1.228   3.949   6.972  0.4065 -0.0996 -0.1868
 8279SOL    HW136296   1.170   4.025   6.967 -0.8805 -0.9758  1.2658
 8279SOL    HW236297   1.287   3.984   7.039  1.4929 -1.9408 -0.1813
 8280SOL     OW36298   1.307   2.522  14.215  0.2475 -0.4217  0.2688
 8280SOL    HW136299   1.376   2.460  14.194  0.5349 -0.0313  0.0585
 8280SOL    HW236300   1.230   2.479  14.178  0.5540  0.5005 -1.4869
 8281SOL     OW36301   1.779   4.330   1.138 -0.1245 -0.1613 -0.0903
 8281SOL    HW136302   1.731   4.287   1.209  1.0146 -1.2293  0.0541
 8281SOL    HW236303   1.859   4.356   1.184 -1.2623 -0.8868  2.3149
 8282SOL     OW36304   2.677   1.599   5.881  0.3312  0.1903  0.3067
 8282SOL    HW136305   2.737   1.547   5.935 -1.5391 -0.4696  1.7393
 8282SOL    HW236306   2.636   1.536   5.821 -0.2276  0.3029  0.5730
 8283SOL     OW36307   1.404   2.726   8.487 -0.6412  0.2486  0.2211
 8283SOL    HW136308   1.311   2.706   8.498 -0.7437  1.7364  2.0579
 8283SOL    HW236309   1.419   2.819   8.468  0.1029 -0.3841 -2.2834
 8284SOL     OW36310   0.914   0.206   9.956  0.0011  0.2580 -0.0077
 8284SOL    HW136311   0.857   0.136   9.924  0.0146  0.7068 -1.0013
 8284SOL    HW236312   0.994   0.158   9.977  0.7832  2.8511  2.9761
 8285SOL     OW36313   1.333   0.886  11.988  0.3420 -0.4230  0.3535
 8285SOL    HW136314   1.241   0.884  11.962  0.0025 -0.7983  1.5866
 8285SOL    HW236315   1.322   0.909  12.080  0.7983 -0.0743  0.3199
 8286SOL     OW36316   1.923   0.065  11.629  0.1613 -0.1071  0.0857
 8286SOL    HW136317   1.855   0.002  11.649 -2.1231  1.9724 -1.2362
 8286SOL    HW236318   2.000   0.017  11.660  0.2948 -0.3490 -0.6209
 8287SOL     OW36319   1.313   2.382   2.953 -0.6099 -0.2850  0.6543
 8287SOL    HW136320   1.349   2.294   2.966 -0.5051 -0.3524 -0.0761
 8287SOL    HW236321   1.231   2.368   2.906  0.2300  0.1385 -0.9403
 8288SOL     OW36322   2.138   2.547   5.360  0.6848  0.3345  0.3264
 8288SOL    HW136323   2.166   2.580   5.446 -1.3508  1.4791  0.5427
 8288SOL    HW236324   2.175   2.620   5.311  0.2643  0.2115 -0.1667
 8289SOL     OW36325   1.864   2.442   4.677 -0.4506  0.1224 -0.6475
 8289SOL    HW136326   1.902   2.354   4.674 -0.3005  0.0950  2.5374
 8289SOL    HW236327   1.918   2.504   4.629  1.2846 -0.6952  0.2324
 8290SOL     OW36328   3.476   3.656  16.852  0.2243 -0.3685  0.2448
 8290SOL    HW136329   3.457   3.668  16.759 -2.2194 -0.6959  0.6851
 8290SOL    HW236330   3.545   3.589  16.848 -0.5100 -1.0670 -1.0311
 8291SOL     OW36331   0.596   3.514  11.762 -0.7373 -0.9678  0.0979
 8291SOL    HW136332   0.548   3.556  11.833 -1.3424  2.4990 -2.3572
 8291SOL    HW236333   0.521   3.510  11.704 -2.7372 -1.8998  2.7743
 8292SOL     OW36334   2.269   2.255  10.807 -0.1589 -0.8122  1.1253
 8292SOL    HW136335   2.351   2.250  10.756 -1.0171 -1.1272 -0.2336
 8292SOL    HW236336   2.270   2.349  10.825  1.0011 -0.2800 -1.6864
 8293SOL     OW36337   3.585   4.406   3.520 -0.0046  0.2788  0.3085
 8293SOL    HW136338   3.504   4.357   3.504  0.6675 -0.5604 -0.4902
 8293SOL    HW236339   3.578   4.445   3.607 -3.3650 -0.0785  0.2191
 8294SOL     OW36340   2.181   4.241  11.569 -0.1019 -0.7230  0.6689
 8294SOL    HW136341   2.160   4.150  11.589 -0.2964 -0.5284  1.3630
 8294SOL    HW236342   2.276   4.240  11.558 -0.3599  2.8496 -1.7288
 8295SOL     OW36343   0.552   2.766  14.217  0.9982  0.3238 -0.1966
 8295SOL    HW136344   0.517   2.798  14.300  1.1605 -1.5725  0.5856
 8295SOL    HW236345   0.633   2.816  14.209  1.0926  0.5107  2.0560
 8296SOL     OW36346   0.303   3.441   2.208 -0.5396  0.9289  0.2996
 8296SOL    HW136347   0.333   3.351   2.218  0.6167  1.0494 -2.1204
 8296SOL    HW236348   0.379   3.482   2.167  0.4643 -0.6177  0.6280
 8297SOL     OW36349   2.048   4.521  13.632 -0.2075 -0.0280 -0.1030
 8297SOL    HW136350   2.132   4.550  13.595  0.1607 -0.3806  0.4572
 8297SOL    HW236351   2.063   4.437  13.676 -1.4956 -0.4736 -0.5226
 8298SOL     OW36352   2.546   0.065   8.168 -0.2269 -0.4257  0.3281
 8298SOL    HW136353   2.636   0.083   8.139  0.2456  0.9111  2.6249
 8298SOL    HW236354   2.556   4.715   8.226  0.2044 -0.3076  0.4074
 8299SOL     OW36355   0.418   3.987   8.656 -0.2791  0.1445 -0.2052
 8299SOL    HW136356   0.400   3.893   8.662 -1.9083  0.5371  1.0243
 8299SOL    HW236357   0.411   4.014   8.747 -3.3430 -1.1182 -0.0807
 8300SOL     OW36358   1.083   0.535   5.985  0.2898  0.1880  0.2808
 8300SOL    HW136359   1.030   0.614   5.979  0.8907  0.3233 -3.0603
 8300SOL    HW236360   1.064   0.490   5.903  0.6706 -2.3305  1.5696
 8301SOL     OW36361   2.303   3.617  15.276  0.3554  0.0811 -0.1083
 8301SOL    HW136362   2.212   3.588  15.262 -0.0882  1.4384  0.0184
 8301SOL    HW236363   2.349   3.545  15.318 -2.1645 -1.7991 -0.4995
 8302SOL     OW36364   4.543   0.958   4.559 -0.1201  0.5097  0.1329
 8302SOL    HW136365   4.579   0.963   4.470  0.8611  1.5025  0.5868
 8302SOL    HW236366   4.482   1.032   4.553 -0.7377 -0.0015  0.0285
 8303SOL     OW36367   4.076   4.258   8.248 -0.9460  0.1591 -0.0073
 8303SOL    HW136368   4.117   4.318   8.186  0.3423  0.0415  0.7336
 8303SOL    HW236369   4.135   4.183   8.251 -1.1710 -0.0468 -0.8970
 8304SOL     OW36370   3.485   0.513   6.773 -0.3259  0.1149 -0.0039
 8304SOL    HW136371   3.497   0.419   6.784 -3.0005 -0.4442 -1.8491
 8304SOL    HW236372   3.484   0.524   6.678 -1.5836  2.5281  0.2809
 8305SOL     OW36373   0.200   2.579   8.733  0.5223  0.2214 -0.2786
 8305SOL    HW136374   0.234   2.523   8.803 -0.1201  0.6898  0.3973
 8305SOL    HW236375   0.197   2.657   8.788 -0.9634 -0.5003  0.6908
 8306SOL     OW36376   4.325   0.405  14.939 -0.1939 -0.4113  0.2079
 8306SOL    HW136377   4.288   0.493  14.934 -0.4042 -0.6206 -1.9281
 8306SOL    HW236378   4.326   0.385  14.846 -0.4637 -1.9542  0.5318
 8307SOL     OW36379   3.440   1.582   0.767 -0.1250  0.0043  0.1749
 8307SOL    HW136380   3.530   1.608   0.748  1.4244 -2.9756  3.4913
 8307SOL    HW236381   3.426   1.626   0.851 -1.1251 -0.9157  0.5016
 8308SOL     OW36382   0.044   3.407   2.053  0.2025 -0.0692 -0.0936
 8308SOL    HW136383   0.055   3.315   2.027 -1.1223  0.3910 -2.2302
 8308SOL    HW236384   0.125   3.422   2.102 -0.5596 -1.1167  1.5184
 8309SOL     OW36385   3.339   2.852  16.042 -0.1430  0.2946  0.1505
 8309SOL    HW136386   3.251   2.815  16.047  0.0102  0.3045  2.8823
 8309SOL    HW236387   3.326   2.936  16.086 -2.5007 -0.9073  1.7459
 8310SOL     OW36388   0.758   0.602   4.221 -0.1338  0.4391  0.1882
 8310SOL    HW136389   0.684   0.621   4.163 -0.3539 -0.1020  0.2876
 8310SOL    HW236390   0.801   0.533   4.170 -1.0699  0.6864 -0.9522
 8311SOL     OW36391   1.949   2.786   7.465 -0.1265  0.7557 -0.8579
 8311SOL    HW136392   2.030   2.818   7.503  1.0627  0.1099 -2.8727
 8311SOL    HW236393   1.890   2.782   7.541 -1.6737  1.3544 -2.0131
 8312SOL     OW36394   4.077   1.758   3.286 -0.2865 -0.5413 -0.0015
 8312SOL    HW136395   4.114   1.827   3.341  0.2306 -0.6035 -0.2686
 8312SOL    HW236396   4.129   1.679   3.301  1.7922  1.0809  1.2352
 8313SOL     OW36397   1.698   1.088   2.523 -0.6501  0.0622  0.5169
 8313SOL    HW136398   1.678   1.076   2.616  1.7038 -1.8472  0.7729
 8313SOL    HW236399   1.741   1.004   2.512 -0.2124  0.2804  0.5420
 8314SOL     OW36400   1.145   4.207   5.977 -0.3024 -0.5921  0.0421
 8314SOL    HW136401   1.188   4.186   6.060  1.2132 -1.5761 -1.0022
 8314SOL    HW236402   1.144   4.303   5.984 -3.1919 -0.6512  0.2785
 8315SOL     OW36403   1.389   3.499  15.746  0.1554  0.7166 -0.1365
 8315SOL    HW136404   1.416   3.409  15.725 -1.3745  0.5696 -1.4483
 8315SOL    HW236405   1.353   3.473  15.831 -0.4498  1.1789 -0.2508
 8316SOL     OW36406   2.329   1.472   7.877 -0.3826  0.1098  0.5257
 8316SOL    HW136407   2.320   1.451   7.784 -0.3937  0.6240  0.4107
 8316SOL    HW236408   2.304   1.563   7.895 -3.4658 -0.6576  0.0520
 8317SOL     OW36409   2.997   1.928   5.357 -0.0434  0.4493  0.0904
 8317SOL    HW136410   3.027   1.858   5.415  1.4568  0.7791 -0.2895
 8317SOL    HW236411   3.024   1.890   5.274  1.8240  2.3607 -0.2004
 8318SOL     OW36412   2.113   2.016  16.057 -0.8387 -0.3021 -0.1568
 8318SOL    HW136413   2.145   2.090  16.005 -3.1228  1.2848  0.7107
 8318SOL    HW236414   2.020   2.035  16.048 -0.3560  2.0733 -0.2646
 8319SOL     OW36415   1.930   1.427   6.999  0.6458  0.4634  0.2310
 8319SOL    HW136416   1.989   1.499   6.974  0.5400  0.0887 -1.0814
 8319SOL    HW236417   1.989   1.360   7.033  1.8498  1.0447 -0.7299
 8320SOL     OW36418   1.138   2.324   4.102  0.4348 -0.1028 -0.6085
 8320SOL    HW136419   1.133   2.417   4.079  0.3324 -0.2109 -1.0221
 8320SOL    HW236420   1.103   2.287   4.021  0.5096  1.8583 -1.5534
 8321SOL     OW36421   3.064   1.145  10.294  0.0091 -0.2607 -0.7894
 8321SOL    HW136422   3.037   1.140  10.386  3.1550  0.5779  0.1848
 8321SOL    HW236423   3.009   1.074  10.261 -2.1453  1.6165 -1.2701
 8322SOL     OW36424   4.130   1.664   7.250 -0.3652  0.6765 -0.4944
 8322SOL    HW136425   4.181   1.682   7.171 -1.2356 -1.4464 -1.5332
 8322SOL    HW236426   4.207   1.670   7.305 -1.3523  0.9803  0.8520
 8323SOL     OW36427   4.675   2.434   4.862  0.4472 -0.3589  0.1563
 8323SOL    HW136428   4.652   2.444   4.770 -1.7889 -0.4090  0.6983
 8323SOL    HW236429   4.601   2.476   4.906 -0.9744 -1.8558 -0.7937
 8324SOL     OW36430   0.995   0.179   8.450 -0.5292 -0.2377  0.0232
 8324SOL    HW136431   1.032   0.095   8.425  0.4350  0.1939  0.0104
 8324SOL    HW236432   0.969   0.176   8.542  0.8507  0.4818  0.4350
 8325SOL     OW36433   4.281   2.835   8.262  0.3148 -0.0340 -0.4435
 8325SOL    HW136434   4.339   2.908   8.282  0.8595 -0.2978 -1.0710
 8325SOL    HW236435   4.337   2.791   8.198  2.3980  0.5300  0.9962
 8326SOL     OW36436   4.615   2.374   2.201  0.0070 -0.5800  0.3513
 8326SOL    HW136437   4.637   2.293   2.156  1.6279  0.4841 -0.8053
 8326SOL    HW236438   4.667   2.440   2.154 -0.0478 -1.3734 -0.8410
 8327SOL     OW36439   4.294   1.938   3.420  0.5537 -0.0285  0.4892
 8327SOL    HW136440   4.282   2.022   3.465 -1.6395 -0.6219  0.9747
 8327SOL    HW236441   4.308   1.886   3.499 -0.3222  0.2384  0.8195
 8328SOL     OW36442   0.255   2.490   5.720 -0.1894  0.5807 -0.7353
 8328SOL    HW136443   0.207   2.419   5.761  0.5571 -0.2020 -1.2104
 8328SOL    HW236444   0.191   2.561   5.711 -0.0820  0.9765  1.5707
 8329SOL     OW36445   1.316   2.149  15.360  0.1564  0.1988  0.3242
 8329SOL    HW136446   1.356   2.137  15.446 -1.5189 -3.0269  0.6602
 8329SOL    HW236447   1.332   2.075  15.302  1.8552  1.6643 -1.0785
 8330SOL     OW36448   3.214   4.147  15.811  0.1801 -0.2522  0.3010
 8330SOL    HW136449   3.250   4.170  15.726  2.4392  0.9278  1.5640
 8330SOL    HW236450   3.285   4.178  15.868 -0.2942  0.1803  0.6598
 8331SOL     OW36451   1.772   3.805  13.788 -0.4960 -0.3009 -0.1003
 8331SOL    HW136452   1.800   3.848  13.707 -1.1770 -0.7710 -0.5775
 8331SOL    HW236453   1.825   3.859  13.847  0.5480 -0.9830 -0.4099
 8332SOL     OW36454   0.856   4.070   2.305  0.3112 -0.2640 -0.0728
 8332SOL    HW136455   0.766   4.100   2.319  0.5877  0.0234  1.1201
 8332SOL    HW236456   0.861   4.020   2.387 -0.5661  1.4402  1.0131
 8333SOL     OW36457   0.840   1.226   7.279  0.8144 -0.4306 -0.1847
 8333SOL    HW136458   0.792   1.309   7.278  0.2039 -0.7889 -0.9181
 8333SOL    HW236459   0.778   1.167   7.236  2.2842 -1.3130 -1.1006
 8334SOL     OW36460   1.279   3.999  11.443  0.3987 -0.3354  0.0853
 8334SOL    HW136461   1.251   3.953  11.364 -0.6496  0.7715 -0.1841
 8334SOL    HW236462   1.344   4.055  11.402 -0.3501  2.3512  2.5621
 8335SOL     OW36463   1.081   0.398   7.220 -0.3456 -0.0965 -0.8563
 8335SOL    HW136464   1.058   0.468   7.281 -1.0920  0.0978 -1.3535
 8335SOL    HW236465   1.171   0.413   7.191  1.3619  0.6626  4.8835
 8336SOL     OW36466   2.621   2.919   2.516 -0.0682 -0.3606 -0.3474
 8336SOL    HW136467   2.656   2.941   2.602  0.7521  0.6205 -0.9365
 8336SOL    HW236468   2.583   2.832   2.525 -1.0237 -0.0029 -0.8026
 8337SOL     OW36469   2.197   3.420  13.704  0.0663 -0.2597  0.0657
 8337SOL    HW136470   2.166   3.493  13.757 -0.9944 -0.8247  0.2334
 8337SOL    HW236471   2.124   3.413  13.642  1.4119 -0.8114 -1.4448
 8338SOL     OW36472   1.807   0.846   2.498 -0.4853  0.4606 -0.5139
 8338SOL    HW136473   1.832   0.855   2.589  0.3877 -1.0615 -0.6002
 8338SOL    HW236474   1.834   0.759   2.467 -1.6911  0.4669 -1.6171
 8339SOL     OW36475   3.672   0.985   5.998 -0.2235  0.1643  0.3229
 8339SOL    HW136476   3.682   1.080   6.009  0.8270 -0.1170  1.8791
 8339SOL    HW236477   3.746   0.956   6.052  0.3437 -1.6901 -1.4436
 8340SOL     OW36478   0.262   1.585   3.983  0.1186  0.8656  0.2655
 8340SOL    HW136479   0.267   1.655   4.048  1.4725  0.4296  0.6271
 8340SOL    HW236480   0.176   1.608   3.946  0.1727  0.7804  0.0862
 8341SOL     OW36481   3.669   1.554  16.127  0.1585  0.5417  0.0522
 8341SOL    HW136482   3.683   1.506  16.209 -1.9265  2.6584  1.6537
 8341SOL    HW236483   3.686   1.644  16.156  1.7107  0.1556  0.3279
 8342SOL     OW36484   2.599   0.148  15.008  0.3181  0.5655  0.5003
 8342SOL    HW136485   2.558   0.154  15.094 -0.8121  0.8108 -0.0591
 8342SOL    HW236486   2.689   0.147  15.042  0.3191  0.5228  0.4966
 8343SOL     OW36487   3.765   0.456   8.497  0.4688 -0.2995  0.1637
 8343SOL    HW136488   3.711   0.381   8.522 -0.7559  0.6493  0.3713
 8343SOL    HW236489   3.830   0.418   8.438 -0.6109  2.3278 -2.7275
 8344SOL     OW36490   3.842   4.295   5.623  0.2030 -0.3030  0.0223
 8344SOL    HW136491   3.880   4.207   5.614 -1.1640 -1.0037  1.1152
 8344SOL    HW236492   3.757   4.274   5.586 -0.5459  0.4427  1.3435
 8345SOL     OW36493   0.710   0.801   1.552 -0.0466  0.0808 -0.4685
 8345SOL    HW136494   0.649   0.861   1.509 -0.6800 -0.1284  0.1239
 8345SOL    HW236495   0.781   0.860   1.576 -0.1805  0.3891 -0.8358
 8346SOL     OW36496   1.437   4.170   8.060  0.3423  0.0783 -0.3465
 8346SOL    HW136497   1.491   4.092   8.062  3.1392  2.0095 -0.5740
 8346SOL    HW236498   1.359   4.135   8.018 -0.2912  1.3793 -0.2696
 8347SOL     OW36499   1.383   3.781  14.416 -0.4862 -0.2099  0.1348
 8347SOL    HW136500   1.372   3.761  14.509  0.1445  2.3539  0.7613
 8347SOL    HW236501   1.342   3.711  14.366 -0.5031 -1.2303  1.5846
 8348SOL     OW36502   0.986   3.755   5.567 -0.1546 -0.0017 -0.1578
 8348SOL    HW136503   1.054   3.801   5.617  0.1773 -0.7615  0.0914
 8348SOL    HW236504   0.920   3.739   5.634 -1.0667 -1.7315 -1.4782
 8349SOL     OW36505   4.170   3.263   1.673 -0.0812 -0.4369 -0.6904
 8349SOL    HW136506   4.126   3.268   1.588  1.3284 -2.1063 -1.5184
 8349SOL    HW236507   4.261   3.275   1.645 -0.7007 -1.7938 -3.2812
 8350SOL     OW36508   4.640   0.690   5.697  0.1416 -0.6485 -0.0185
 8350SOL    HW136509   4.578   0.628   5.657  1.6634 -2.3875  0.3441
 8350SOL    HW236510   4.580   0.737   5.755  3.1659  1.7513  1.1252
 8351SOL     OW36511   3.328   1.423   5.694  0.2886  0.1086  0.5805
 8351SOL    HW136512   3.253   1.477   5.669  1.0332  1.5477  1.4021
 8351SOL    HW236513   3.401   1.473   5.658  0.4596  1.4348  2.7397
 8352SOL     OW36514   1.247   1.394  12.308 -0.3811 -0.2586 -0.2657
 8352SOL    HW136515   1.200   1.311  12.319 -1.1601  0.5532  2.6815
 8352SOL    HW236516   1.201   1.447  12.244 -0.7071  0.3086  0.4492
 8353SOL     OW36517   1.559   1.049  15.428  0.1447  0.0589  0.9507
 8353SOL    HW136518   1.530   1.010  15.510 -0.0852 -0.3174  0.6961
 8353SOL    HW236519   1.547   1.142  15.445  2.7311  0.4629  0.4546
 8354SOL     OW36520   0.721   2.362   6.504 -0.2326  0.1989  0.1609
 8354SOL    HW136521   0.735   2.429   6.437  2.7521  0.8250  1.3790
 8354SOL    HW236522   0.799   2.307   6.494 -0.4614  0.0551 -0.8382
 8355SOL     OW36523   0.169   2.284   5.464  0.1115  0.0722  0.2459
 8355SOL    HW136524   0.185   2.237   5.382 -1.6105 -1.3636  0.7324
 8355SOL    HW236525   0.181   2.216   5.530  2.7245 -0.0464 -0.3816
 8356SOL     OW36526   1.176   4.278   4.897 -0.0558 -0.6187  0.5721
 8356SOL    HW136527   1.121   4.200   4.893 -1.8760  0.6646  0.2192
 8356SOL    HW236528   1.256   4.229   4.880 -0.4520 -1.5323  1.3577
 8357SOL     OW36529   2.928   0.564   8.244  0.1301 -0.3648  0.5810
 8357SOL    HW136530   2.968   0.545   8.329 -1.7563 -2.4214  1.0115
 8357SOL    HW236531   2.893   0.479   8.218 -1.9487  0.5204  0.4559
 8358SOL     OW36532   1.830   3.857   6.779 -0.3375  0.1892 -0.7149
 8358SOL    HW136533   1.774   3.912   6.834  3.9786  1.6850  2.1739
 8358SOL    HW236534   1.878   3.816   6.850  1.3886  2.6772 -0.4625
 8359SOL     OW36535   1.239   1.742   1.770  0.1909 -0.9988  0.1606
 8359SOL    HW136536   1.155   1.783   1.747  0.6639  1.0737  2.0938
 8359SOL    HW236537   1.292   1.790   1.706 -0.7359 -0.0581  0.0989
 8360SOL     OW36538   2.909   3.258   4.049  0.0931  0.5809  0.0519
 8360SOL    HW136539   2.814   3.255   4.063  0.3869  2.2599  2.2624
 8360SOL    HW236540   2.940   3.214   4.128 -1.9575 -1.1484 -0.0881
 8361SOL     OW36541   0.913   1.036  12.338  0.3827  0.1298 -0.5711
 8361SOL    HW136542   0.941   0.946  12.323 -0.0061 -0.1657  0.5363
 8361SOL    HW236543   0.832   1.020  12.386 -0.3196  0.0251 -1.7811
 8362SOL     OW36544   4.433   3.299   6.646 -0.2452 -0.3488  0.7769
 8362SOL    HW136545   4.392   3.230   6.593  2.4879 -0.4320 -1.2193
 8362SOL    HW236546   4.522   3.278   6.619 -0.1803 -0.6351  1.2114
 8363SOL     OW36547   3.999   3.383   7.293  0.0936 -0.4562  0.2129
 8363SOL    HW136548   4.057   3.456   7.273 -0.0850 -0.4582 -0.3314
 8363SOL    HW236549   3.996   3.348   7.204 -1.4612 -0.4639  0.2646
 8364SOL     OW36550   3.956   2.846  10.819  0.3792  0.5237  0.5218
 8364SOL    HW136551   3.957   2.858  10.914  1.5951 -0.8353  0.6833
 8364SOL    HW236552   4.043   2.874  10.789  0.0552  0.0391 -0.8553
 8365SOL     OW36553   3.867   0.642   3.239 -0.0422 -0.1562  0.1270
 8365SOL    HW136554   3.917   0.564   3.216  0.1854 -0.1904  0.7349
 8365SOL    HW236555   3.786   0.624   3.191  1.1881 -0.6997 -1.7493
 8366SOL     OW36556   3.595   0.106   6.427 -0.3065 -0.1972 -0.3580
 8366SOL    HW136557   3.543   0.036   6.387  1.5353 -2.9280  2.0510
 8366SOL    HW236558   3.533   0.178   6.412 -0.0249  0.2281  0.5207
 8367SOL     OW36559   0.088   2.382   9.829  0.1340 -0.2515  0.4670
 8367SOL    HW136560   0.144   2.348   9.900  1.2451  1.9446  0.6440
 8367SOL    HW236561   0.053   2.466   9.858 -0.7558 -0.0003 -1.3560
 8368SOL     OW36562   1.055   2.205   3.886  0.4419  0.4214  0.0366
 8368SOL    HW136563   0.984   2.142   3.874 -1.6760  3.2939 -2.4700
 8368SOL    HW236564   1.115   2.187   3.814 -1.0815  2.0693 -1.6648
 8369SOL     OW36565   0.278   1.055   7.399  0.0194  0.3511 -0.2748
 8369SOL    HW136566   0.256   0.962   7.394  1.1920  0.0667 -0.1030
 8369SOL    HW236567   0.252   1.075   7.489 -0.9866 -4.4987  0.4637
 8370SOL     OW36568   0.769   1.689   8.176  0.1034 -0.3479 -0.3364
 8370SOL    HW136569   0.815   1.768   8.147 -0.7665  0.7570  1.3119
 8370SOL    HW236570   0.779   1.631   8.100 -0.1226 -0.5741 -0.1893
 8371SOL     OW36571   3.322   0.397  12.016 -0.1659 -0.0129 -0.7792
 8371SOL    HW136572   3.253   0.463  12.010  1.4423  1.8748  1.6310
 8371SOL    HW236573   3.343   0.409  12.109 -2.3398  0.8491 -0.4042
 8372SOL     OW36574   4.107   4.678   5.346 -0.1964  0.3863  0.2288
 8372SOL    HW136575   4.099   4.617   5.419 -1.4409  2.3206  1.7047
 8372SOL    HW236576   4.056   4.625   5.284 -1.2035  1.3607  0.2273
 8373SOL     OW36577   2.412   0.157   8.398 -0.6524  0.2756 -0.4658
 8373SOL    HW136578   2.462   0.133   8.320 -1.7234 -1.7278 -0.5138
 8373SOL    HW236579   2.459   0.121   8.473  1.5251  0.2599 -1.8208
 8374SOL     OW36580   1.794   3.518   0.019 -0.6817 -0.3907  0.0669
 8374SOL    HW136581   1.716   3.487  17.672 -0.5618 -1.9215  0.8910
 8374SOL    HW236582   1.824   3.433   0.052 -0.0638 -0.8137 -1.5794
 8375SOL     OW36583   4.627   0.487   7.221  0.4471 -0.0183  0.1053
 8375SOL    HW136584   4.577   0.560   7.258 -0.2374 -0.3016 -0.2799
 8375SOL    HW236585   4.587   0.469   7.137 -1.1672  1.3057  0.5885
 8376SOL     OW36586   3.412   1.865   4.520  0.1629 -0.1621 -0.2916
 8376SOL    HW136587   3.385   1.774   4.506  0.9409 -0.2664 -1.0899
 8376SOL    HW236588   3.473   1.887   4.450 -0.0069  2.0112  0.2498
 8377SOL     OW36589   4.470   0.604  15.230 -0.2430 -0.4804 -0.5932
 8377SOL    HW136590   4.562   0.620  15.209  0.5324 -0.8243  2.4758
 8377SOL    HW236591   4.487   0.552  15.308  0.6459 -1.7957 -1.6762
 8378SOL     OW36592   2.081   3.880   0.703 -0.2142 -0.0244 -0.0878
 8378SOL    HW136593   2.018   3.808   0.717 -1.1653  0.2909 -2.7521
 8378SOL    HW236594   2.110   3.873   0.612 -2.3877 -0.3925 -0.7522
 8379SOL     OW36595   1.803   4.279  11.543  1.0032  0.3956  0.2452
 8379SOL    HW136596   1.796   4.206  11.604  1.7495  0.4276  0.3716
 8379SOL    HW236597   1.792   4.345  11.612  0.1058 -0.1689  0.6324
 8380SOL     OW36598   2.432   1.190  17.619 -0.2796  0.8695  0.2591
 8380SOL    HW136599   2.527   1.175  17.626 -0.4162 -0.6653 -1.2539
 8380SOL    HW236600   2.421   1.234   0.004  2.8847  3.1336 -0.5114
 8381SOL     OW36601   3.118   1.755   9.477 -0.5562  0.9661  0.5059
 8381SOL    HW136602   3.050   1.801   9.526 -0.8396  1.0449  0.0479
 8381SOL    HW236603   3.127   1.681   9.536 -1.6486 -0.0401 -0.5958
 8382SOL     OW36604   4.244   1.836   7.436 -0.0098 -0.1466  0.6338
 8382SOL    HW136605   4.248   1.928   7.409  0.1210 -0.4055 -0.2275
 8382SOL    HW236606   4.298   1.846   7.514  0.8741 -0.7180  0.0914
 8383SOL     OW36607   0.114   0.384   2.123 -0.4961  0.1555  0.1801
 8383SOL    HW136608   0.191   0.377   2.179  0.1139  0.6416 -0.5938
 8383SOL    HW236609   0.133   0.454   2.061 -1.1705  0.1861  0.0015
 8384SOL     OW36610   3.066   1.011  11.828  0.1716 -0.3667  0.5692
 8384SOL    HW136611   3.012   1.078  11.869  0.2554  0.0244  0.0419
 8384SOL    HW236612   3.036   0.929  11.868 -0.1457 -0.3937  0.2757
 8385SOL     OW36613   0.822   2.385   3.500  0.0169 -0.4419  0.3849
 8385SOL    HW136614   0.896   2.326   3.516  0.4437  0.1346  0.5552
 8385SOL    HW236615   0.755   2.363   3.565  0.0517 -0.7931  0.3002
 8386SOL     OW36616   2.726   0.350   4.875 -0.2004 -0.0913 -0.8576
 8386SOL    HW136617   2.727   0.255   4.887  0.7940 -0.2156 -1.9678
 8386SOL    HW236618   2.820   0.367   4.881 -0.1723 -0.4058 -0.4077
 8387SOL     OW36619   4.011   0.811   4.736 -0.1390 -0.1634 -0.1254
 8387SOL    HW136620   4.056   0.805   4.652 -0.1579  1.2279 -0.2243
 8387SOL    HW236621   4.058   0.889   4.764 -1.5204  1.1150 -1.3629
 8388SOL     OW36622   4.433   3.496   5.649  0.3715  0.1841 -0.5307
 8388SOL    HW136623   4.518   3.464   5.681  0.6011  0.9614 -0.3651
 8388SOL    HW236624   4.440   3.467   5.558  2.2224 -0.4149 -0.2022
 8389SOL     OW36625   2.283   1.814   8.998  0.3755  0.3077  0.0897
 8389SOL    HW136626   2.378   1.806   9.000  0.4059  0.9264  0.9497
 8389SOL    HW236627   2.264   1.857   9.081  4.7478 -0.2949  1.3869
 8390SOL     OW36628   2.018   2.462   3.267 -0.4093 -0.1124  0.5409
 8390SOL    HW136629   1.930   2.448   3.302 -0.4367  0.5237  0.7182
 8390SOL    HW236630   2.068   2.463   3.349 -1.7467 -1.5084  1.3830
 8391SOL     OW36631   0.587   0.233   0.081 -0.1674 -0.4367  0.4823
 8391SOL    HW136632   0.534   0.225   0.002  1.6618  0.5303 -0.8589
 8391SOL    HW236633   0.524   0.253   0.151 -0.4339  1.0428 -0.1861
 8392SOL     OW36634   3.295   1.107   8.807 -0.3482 -0.3271  0.4718
 8392SOL    HW136635   3.222   1.105   8.746  1.0799  0.2135 -1.2544
 8392SOL    HW236636   3.298   1.202   8.819 -0.6968 -0.5843  2.6501
 8393SOL     OW36637   0.216   2.818   3.335  0.0753 -0.4238 -0.3006
 8393SOL    HW136638   0.254   2.743   3.289  0.4543 -0.1819 -0.3714
 8393SOL    HW236639   0.201   2.780   3.422  0.2002 -1.7595 -0.8599
 8394SOL     OW36640   4.065   2.871  13.983 -0.4258  0.6355 -0.1090
 8394SOL    HW136641   4.128   2.877  13.911  1.1793  1.3933  1.3374
 8394SOL    HW236642   3.987   2.899  13.936 -1.9052 -3.5611 -0.1101
 8395SOL     OW36643   4.672   1.359   2.180 -0.3293 -0.1374  0.0182
 8395SOL    HW136644   4.653   1.411   2.259  0.2891  1.8041 -1.1174
 8395SOL    HW236645   0.024   1.310   2.210  1.6931  2.3430 -1.0734
 8396SOL     OW36646   2.593   4.042  14.186  0.1465 -0.2028 -0.4702
 8396SOL    HW136647   2.642   4.062  14.266  0.8124 -0.5230 -0.7973
 8396SOL    HW236648   2.501   4.055  14.207  0.1701  0.5280 -0.8016
 8397SOL     OW36649   1.533   3.462   0.217  0.0381  0.7148  0.5659
 8397SOL    HW136650   1.520   3.442   0.124 -0.3391  2.6469  0.1898
 8397SOL    HW236651   1.626   3.486   0.218 -0.1782  1.6573 -0.8496
 8398SOL     OW36652   1.362   1.130   7.388 -0.1177  0.5413  0.0282
 8398SOL    HW136653   1.433   1.083   7.434  0.0004  1.8576  1.2089
 8398SOL    HW236654   1.412   1.178   7.322  0.2958 -0.3435 -0.2944
 8399SOL     OW36655   4.610   2.055   3.171 -0.1539  0.1341  0.1240
 8399SOL    HW136656   4.632   2.061   3.078 -1.7514 -0.0756 -0.2683
 8399SOL    HW236657   4.653   1.975   3.200 -0.3980 -1.3491 -3.6632
 8400SOL     OW36658   1.916   1.054   8.297  0.7833 -0.0771  0.6521
 8400SOL    HW136659   1.851   1.071   8.366  1.9322  0.3340  1.6246
 8400SOL    HW236660   1.935   1.143   8.266 -0.2478  0.1321  0.6094
 8401SOL     OW36661   0.909   2.914   6.210 -0.3870  0.5223  0.0793
 8401SOL    HW136662   0.905   3.001   6.172 -0.5059  1.2827  1.8323
 8401SOL    HW236663   0.847   2.871   6.150 -0.1378  0.0885  0.1305
 8402SOL     OW36664   1.781   2.691   7.819 -0.8201 -0.2349 -0.3474
 8402SOL    HW136665   1.771   2.598   7.796 -0.8693  0.2544 -2.3024
 8402SOL    HW236666   1.746   2.687   7.908 -1.7087 -1.0842 -0.7365
 8403SOL     OW36667   2.333   3.208  16.665  0.1203 -0.5734  0.7887
 8403SOL    HW136668   2.408   3.238  16.717 -0.2657  0.2371  0.8817
 8403SOL    HW236669   2.255   3.216  16.720  1.4007  0.1998  2.5240
 8404SOL     OW36670   3.509   3.369  12.621  0.0772 -0.6878 -0.3275
 8404SOL    HW136671   3.419   3.341  12.607 -0.4357  0.9727 -0.3509
 8404SOL    HW236672   3.510   3.446  12.564 -0.5115 -0.4586 -0.0194
 8405SOL     OW36673   1.364   4.396   6.000  0.4392  0.0169 -0.0136
 8405SOL    HW136674   1.361   4.477   6.051 -0.2394  0.2412 -0.4012
 8405SOL    HW236675   1.430   4.354   6.055  1.2758 -0.8617 -1.7004
 8406SOL     OW36676   3.026   3.977  15.861 -0.0436 -0.0206  0.3197
 8406SOL    HW136677   3.096   4.041  15.867  1.2638 -1.4572  0.3255
 8406SOL    HW236678   3.008   3.988  15.767  0.9621 -0.4657  0.0766
 8407SOL     OW36679   3.998   2.008   7.159  0.7060 -0.1218 -0.0570
 8407SOL    HW136680   3.970   1.917   7.172  0.8414  0.0377  1.2712
 8407SOL    HW236681   3.966   2.046   7.240  0.3865 -0.6359  0.0567
 8408SOL     OW36682   0.123   1.657   8.481 -0.1493 -0.5941  0.1321
 8408SOL    HW136683   0.052   1.593   8.485 -0.4140 -0.2716  0.4566
 8408SOL    HW236684   0.094   1.721   8.545  3.8534  0.5511  0.8209
 8409SOL     OW36685   0.912   1.462   3.936 -0.1597  0.5939  0.2846
 8409SOL    HW136686   0.971   1.393   3.967  0.1571  1.0763  0.7613
 8409SOL    HW236687   0.887   1.418   3.855 -0.1674  1.3571 -0.1269
 8410SOL     OW36688   3.260   0.932  12.928 -0.3546  0.4192 -0.3367
 8410SOL    HW136689   3.337   0.876  12.937  0.5549  1.8970  1.1167
 8410SOL    HW236690   3.197   0.872  12.889  0.3343 -0.7551  0.3543
 8411SOL     OW36691   3.750   2.094   8.829 -0.1006  0.2598  0.0600
 8411SOL    HW136692   3.686   2.089   8.900 -0.8809 -1.0633 -0.7348
 8411SOL    HW236693   3.826   2.134   8.870 -0.9153  3.1524 -1.2062
 8412SOL     OW36694   1.959   2.484   1.560 -0.0166  0.2877  0.1592
 8412SOL    HW136695   1.923   2.553   1.503  0.8843 -0.7322 -1.6563
 8412SOL    HW236696   2.013   2.430   1.503 -2.6252 -0.7548 -1.3473
 8413SOL     OW36697   4.633   4.549   3.967  0.1815  0.4626  0.5735
 8413SOL    HW136698   4.707   4.512   4.016  0.5756  0.9384  0.3437
 8413SOL    HW236699   4.674   4.575   3.884  2.2027  0.4469  1.5601
 8414SOL     OW36700   0.740   3.565   8.166 -0.1695 -0.0121 -0.3611
 8414SOL    HW136701   0.817   3.509   8.156 -0.0905 -0.3941  2.2240
 8414SOL    HW236702   0.763   3.640   8.111 -1.1991  0.7399  0.2149
 8415SOL     OW36703   3.071   3.992   8.601  0.0281  0.2679  0.7504
 8415SOL    HW136704   3.161   3.965   8.618  0.8323  1.5991 -1.3835
 8415SOL    HW236705   3.024   3.946   8.670 -5.3408  1.3236 -2.1527
 8416SOL     OW36706   3.629   2.972  11.832  0.2600 -0.4512  0.3261
 8416SOL    HW136707   3.690   2.909  11.794  0.3904 -0.0621 -0.1203
 8416SOL    HW236708   3.569   2.921  11.885 -1.9621 -1.1267 -2.7917
 8417SOL     OW36709   2.456   3.896   4.865  0.7489  0.0544  0.1430
 8417SOL    HW136710   2.448   3.964   4.933 -0.2815  1.6390 -1.5736
 8417SOL    HW236711   2.414   3.948   4.796  0.6602  0.8749  0.8104
 8418SOL     OW36712   1.501   2.357  10.036  0.0419 -0.1178 -0.0473
 8418SOL    HW136713   1.583   2.328   9.994  0.8543  1.1971  0.6269
 8418SOL    HW236714   1.446   2.363   9.958  0.1589 -0.6023 -0.1669
 8419SOL     OW36715   3.992   4.359  15.893  0.3675  0.1769  0.0134
 8419SOL    HW136716   4.028   4.437  15.935  0.6306  0.1125 -0.0935
 8419SOL    HW236717   4.071   4.326  15.850 -0.0467 -1.8275  0.7825
 8420SOL     OW36718   2.095   2.817  10.302  0.0402  0.1247 -0.5237
 8420SOL    HW136719   2.165   2.757  10.276  0.5999  1.6091 -2.4265
 8420SOL    HW236720   2.138   2.883  10.356 -1.2806  1.7467 -1.4881
 8421SOL     OW36721   2.291   1.696   8.746 -0.0025 -0.0222 -0.0115
 8421SOL    HW136722   2.198   1.679   8.734  0.0919 -1.4198  1.2397
 8421SOL    HW236723   2.301   1.733   8.834  1.2888  1.0857 -0.6229
 8422SOL     OW36724   0.815   3.269   2.226 -0.6694 -0.2934 -0.2640
 8422SOL    HW136725   0.835   3.298   2.137 -4.8052 -0.7612 -1.3388
 8422SOL    HW236726   0.897   3.223   2.245 -0.3186 -0.1286 -1.3993
 8423SOL     OW36727   2.988   4.141   1.700 -0.8574 -0.4851 -0.1666
 8423SOL    HW136728   3.027   4.141   1.787 -0.0933 -1.6043 -0.5092
 8423SOL    HW236729   2.897   4.168   1.711 -0.6447  0.3017 -0.2942
 8424SOL     OW36730   1.683   4.575   8.883  0.2861  0.2055  0.1726
 8424SOL    HW136731   1.637   4.639   8.938  1.2353 -0.2168  1.4624
 8424SOL    HW236732   1.730   4.626   8.816 -0.2098  0.5315  0.0739
 8425SOL     OW36733   0.177   1.670  14.215  0.0195 -0.0903 -0.2329
 8425SOL    HW136734   0.148   1.695  14.303  0.0871  0.3863 -0.3452
 8425SOL    HW236735   0.220   1.747  14.178  0.1557  1.1060  2.4238
 8426SOL     OW36736   4.073   3.717   4.378 -0.1894 -0.2858 -0.1289
 8426SOL    HW136737   4.163   3.690   4.359 -1.1606 -1.9939 -2.3161
 8426SOL    HW236738   4.083   3.737   4.471  1.9121  0.3494 -0.4916
 8427SOL     OW36739   3.222   3.058  13.493  0.0022  0.4749  0.5138
 8427SOL    HW136740   3.222   3.153  13.485 -0.6852  0.2508 -2.3482
 8427SOL    HW236741   3.224   3.035  13.586 -2.9602  2.4146  1.0699
 8428SOL     OW36742   4.350   1.834   8.314  0.0734 -0.4344 -0.0557
 8428SOL    HW136743   4.277   1.894   8.299  0.8949  0.0777 -1.9655
 8428SOL    HW236744   4.349   1.808   8.406  1.6710 -1.9715 -0.4832
 8429SOL     OW36745   0.597   2.058   3.660  0.5583  0.4634  0.9317
 8429SOL    HW136746   0.600   2.145   3.621 -0.3541  1.7892  3.8704
 8429SOL    HW236747   0.517   2.056   3.711  1.0521  1.8575  1.7735
 8430SOL     OW36748   3.570   1.986   9.645 -0.3207  0.5144  0.7034
 8430SOL    HW136749   3.565   1.892   9.660 -0.3319  0.6124  1.2845
 8430SOL    HW236750   3.489   2.014   9.687 -0.5450 -0.9963  1.2612
 8431SOL     OW36751   2.382   1.823   7.117 -0.2998  0.1134 -0.1556
 8431SOL    HW136752   2.399   1.754   7.182 -3.0424  1.3008  1.8090
 8431SOL    HW236753   2.428   1.895   7.160 -1.0732  0.4228  0.1402
 8432SOL     OW36754   1.106   1.886   4.060  0.2537 -0.0772  0.1718
 8432SOL    HW136755   1.050   1.963   4.067 -0.3542 -0.3431 -1.7171
 8432SOL    HW236756   1.151   1.881   4.144 -1.6275 -1.3636  1.0985
 8433SOL     OW36757   2.131   0.377   2.099  0.2886  0.0039  0.2365
 8433SOL    HW136758   2.075   0.385   2.176  0.0202  1.5861 -0.1305
 8433SOL    HW236759   2.107   0.458   2.053 -0.6772  0.0967  0.9144
 8434SOL     OW36760   3.900   0.533   6.610  0.3771  0.4749 -0.4922
 8434SOL    HW136761   3.833   0.568   6.670 -1.0749  0.8146 -2.3267
 8434SOL    HW236762   3.945   0.456   6.643  0.4355  1.1859  1.1276
 8435SOL     OW36763   3.709   4.600   0.295  0.2067  0.3693  0.6971
 8435SOL    HW136764   3.704   4.522   0.240 -1.3178  1.1098 -0.2032
 8435SOL    HW236765   3.742   4.564   0.378  1.5206  0.7757  0.3467
 8436SOL     OW36766   1.111   3.266   7.531  0.1880 -0.1575 -0.2616
 8436SOL    HW136767   1.166   3.206   7.479  0.8173  0.0519  0.1524
 8436SOL    HW236768   1.053   3.204   7.575  1.5998 -0.4523  1.2160
 8437SOL     OW36769   1.862   1.894   7.962 -0.6159 -0.1818 -0.1943
 8437SOL    HW136770   1.864   1.866   8.054 -0.2935  0.6611  0.0558
 8437SOL    HW236771   1.804   1.834   7.915  0.1636  0.6355 -2.1767
 8438SOL     OW36772   0.763   1.881  14.628  0.1866  0.5727  0.1331
 8438SOL    HW136773   0.780   1.796  14.586 -1.9774  1.2768 -2.2260
 8438SOL    HW236774   0.798   1.866  14.716 -2.2453 -3.0609  0.4646
 8439SOL     OW36775   3.746   0.746   5.288  0.0510  0.3792  0.9660
 8439SOL    HW136776   3.786   0.716   5.370 -0.1511 -3.6056 -0.3770
 8439SOL    HW236777   3.754   0.667   5.234 -0.6473  0.3208  0.9476
 8440SOL     OW36778   1.670   2.686   8.542 -0.5874  0.1747 -0.0520
 8440SOL    HW136779   1.577   2.705   8.526 -0.4506  1.5689  0.8453
 8440SOL    HW236780   1.708   2.762   8.499  0.6600 -1.2513 -1.4860
 8441SOL     OW36781   4.251   1.654   6.611 -0.2513  0.3167 -0.0702
 8441SOL    HW136782   4.202   1.587   6.563  0.3479  0.6014 -1.0645
 8441SOL    HW236783   4.218   1.737   6.578 -0.9402 -0.1527 -0.5648
 8442SOL     OW36784   3.430   0.037  11.404 -0.3405 -0.0477  0.1444
 8442SOL    HW136785   3.373   0.108  11.434 -0.0716 -1.3814  3.8069
 8442SOL    HW236786   3.425   0.047  11.309  1.0365 -3.1025 -0.2385
 8443SOL     OW36787   3.552   1.499   6.068 -0.3212  0.3613  0.5468
 8443SOL    HW136788   3.490   1.546   6.013  1.0718  1.1634 -0.3534
 8443SOL    HW236789   3.630   1.555   6.060 -0.4153  0.5984  1.3151
 8444SOL     OW36790   1.265   4.152   6.215 -0.5944  0.4759  0.1736
 8444SOL    HW136791   1.345   4.120   6.254 -0.4612  1.0703  0.3854
 8444SOL    HW236792   1.241   4.229   6.267 -1.0065  1.0550 -0.8551
 8445SOL     OW36793   3.134   4.398  11.392 -0.7204  0.1481  0.3738
 8445SOL    HW136794   3.059   4.399  11.451 -0.5214 -0.1702  0.6338
 8445SOL    HW236795   3.123   4.316  11.344  0.6855 -0.5945  1.3171
 8446SOL     OW36796   2.498   0.895   7.570  0.2305  0.0873 -0.6146
 8446SOL    HW136797   2.565   0.892   7.638 -1.4502 -1.6865  0.9799
 8446SOL    HW236798   2.505   0.804   7.540 -1.2961 -0.5555  0.9451
 8447SOL     OW36799   3.951   0.123   2.927  0.3057 -0.1711  0.1593
 8447SOL    HW136800   3.984   0.140   2.839  1.0428 -0.1352  0.4384
 8447SOL    HW236801   3.924   0.031   2.915  1.5391 -0.3652 -1.1931
 8448SOL     OW36802   1.823   0.172   7.118  0.1000  0.2825 -0.1021
 8448SOL    HW136803   1.786   0.131   7.040  1.9662  1.3808 -1.5709
 8448SOL    HW236804   1.807   0.105   7.184 -3.1273  0.4116 -0.7660
 8449SOL     OW36805   0.545   0.361   3.815  0.6214 -0.0334 -0.0299
 8449SOL    HW136806   0.539   0.444   3.768  0.2526 -0.0533 -0.0198
 8449SOL    HW236807   0.453   0.333   3.817  1.3251 -2.4429 -1.3786
 8450SOL     OW36808   2.267   3.264   4.605  0.4075 -0.4279  0.0709
 8450SOL    HW136809   2.308   3.197   4.550 -0.9752 -1.6958  0.5590
 8450SOL    HW236810   2.236   3.312   4.529 -2.1851 -3.2336 -0.6826
 8451SOL     OW36811   4.215   4.255  10.661 -0.3432  0.1119  0.2678
 8451SOL    HW136812   4.143   4.196  10.638  0.0012 -0.4676  0.6970
 8451SOL    HW236813   4.169   4.332  10.695  0.1386  0.4115  0.2404
 8452SOL     OW36814   0.273   0.043  14.101  0.3200  0.2033 -0.3411
 8452SOL    HW136815   0.352   0.095  14.111  0.6916 -0.6356  1.0908
 8452SOL    HW236816   0.211   0.089  14.045 -0.1991  0.2514  0.2749
 8453SOL     OW36817   2.321   4.338   5.727 -0.3505  0.4286  0.0533
 8453SOL    HW136818   2.315   4.264   5.666 -1.1647  1.2769 -0.8936
 8453SOL    HW236819   2.411   4.369   5.728 -0.3327  0.3202  1.7009
 8454SOL     OW36820   3.943   1.862   9.477  0.0547 -0.6174  0.3388
 8454SOL    HW136821   3.881   1.791   9.466 -0.1371 -0.2089 -1.2557
 8454SOL    HW236822   4.020   1.815   9.507 -0.2368 -1.1809  0.1937
 8455SOL     OW36823   0.549   1.394   5.756 -0.0444  0.5858  0.2676
 8455SOL    HW136824   0.620   1.364   5.811  0.2100  0.3124 -0.2121
 8455SOL    HW236825   0.595   1.390   5.672 -1.1444  1.1202 -0.3652
 8456SOL     OW36826   2.525   3.177   5.597 -0.0152 -0.1304 -0.0258
 8456SOL    HW136827   2.534   3.251   5.537  0.1998  0.4316  0.7089
 8456SOL    HW236828   2.603   3.122   5.594 -0.3814 -0.5477 -2.5628
 8457SOL     OW36829   2.488   2.675   5.675 -0.4423 -0.3886  0.1641
 8457SOL    HW136830   2.499   2.768   5.655 -1.1603 -0.7200 -1.7009
 8457SOL    HW236831   2.393   2.665   5.668 -0.5624  1.0289 -0.1586
 8458SOL     OW36832   4.367   4.508   8.948  0.6867  0.3799  0.0230
 8458SOL    HW136833   4.456   4.476   8.963  0.7920  0.6696  0.0063
 8458SOL    HW236834   4.313   4.452   9.005  0.3233  1.0743  0.3540
 8459SOL     OW36835   0.059   4.398   0.917  0.2771  0.3965 -0.2051
 8459SOL    HW136836   4.693   4.403   0.886 -0.1627 -1.6537  0.7089
 8459SOL    HW236837   0.060   4.476   0.972 -0.0466  1.1329 -1.2677
 8460SOL     OW36838   1.218   0.818   2.689  0.1508  0.3487  0.0154
 8460SOL    HW136839   1.294   0.850   2.641  0.3841  1.5244  1.1531
 8460SOL    HW236840   1.262   0.813   2.774 -0.1041 -4.8119 -0.1685
 8461SOL     OW36841   2.609   0.050   4.248 -0.2060  0.2874  0.2961
 8461SOL    HW136842   2.690   0.038   4.298 -0.1668  1.5205  0.5207
 8461SOL    HW236843   2.634   0.106   4.174  3.3428 -1.2699  0.3138
 8462SOL     OW36844   1.868   2.679   7.025  0.1250 -0.2742 -0.5625
 8462SOL    HW136845   1.794   2.618   7.031 -0.1120  0.1289  0.6736
 8462SOL    HW236846   1.930   2.633   7.082 -0.3597  0.6654  0.7468
 8463SOL     OW36847   4.606   3.810   7.952  0.5221 -0.1559 -0.1144
 8463SOL    HW136848   4.567   3.897   7.948 -0.8900 -0.7767  0.2552
 8463SOL    HW236849   4.690   3.832   7.992  0.4432  0.9541 -0.5734
 8464SOL     OW36850   4.132   3.309   9.872 -0.1212 -0.0657  0.6012
 8464SOL    HW136851   4.158   3.349   9.954 -0.5300 -1.1324  1.2596
 8464SOL    HW236852   4.207   3.328   9.816 -0.2392 -2.7323 -0.4998
 8465SOL     OW36853   4.237   3.041   9.900  0.0332  0.3372  0.1682
 8465SOL    HW136854   4.222   3.020   9.808 -1.6350 -1.2695  0.7993
 8465SOL    HW236855   4.166   3.103   9.915 -0.7420 -0.1799 -1.3755
 8466SOL     OW36856   2.911   3.533   8.127  0.1538  0.0802  0.3595
 8466SOL    HW136857   2.978   3.482   8.173 -0.7047 -2.9651 -1.7139
 8466SOL    HW236858   2.963   3.599   8.082 -0.5181  0.8436  0.7161
 8467SOL     OW36859   4.461   3.330   9.171  0.1927  0.5764  0.2296
 8467SOL    HW136860   4.448   3.412   9.219  1.7450  0.7200  0.4240
 8467SOL    HW236861   4.557   3.326   9.162  0.2141 -1.7613  1.3414
 8468SOL     OW36862   2.253   3.620   5.106 -0.6991 -0.1246 -0.2279
 8468SOL    HW136863   2.193   3.617   5.031 -0.1520 -0.6535 -0.6374
 8468SOL    HW236864   2.209   3.679   5.167  0.7867  1.3649 -0.5819
 8469SOL     OW36865   3.368   2.573   4.664  0.4042 -0.1405 -0.1889
 8469SOL    HW136866   3.438   2.615   4.614  1.0645 -0.1599  0.7222
 8469SOL    HW236867   3.418   2.496   4.693 -1.8972 -0.7514  2.1780
 8470SOL     OW36868   3.297   0.423   0.996  0.0156  0.0013  0.2186
 8470SOL    HW136869   3.379   0.470   0.979 -0.5334  1.2892  1.1337
 8470SOL    HW236870   3.243   0.500   0.982 -2.7378 -2.1817 -1.1707
 8471SOL     OW36871   0.284   3.900  16.869  0.2804  0.7745  0.2044
 8471SOL    HW136872   0.225   3.862  16.804  1.8702  1.1270 -1.4512
 8471SOL    HW236873   0.236   3.982  16.859 -1.0885 -0.1149 -0.5195
 8472SOL     OW36874   3.583   1.584   4.246 -0.1116  0.4391  0.1939
 8472SOL    HW136875   3.638   1.659   4.226  0.8266 -0.0016  1.0878
 8472SOL    HW236876   3.602   1.531   4.169 -0.5855 -1.1348  1.1527
 8473SOL     OW36877   0.774   3.570  14.802  0.5774  0.1331  0.0957
 8473SOL    HW136878   0.841   3.638  14.807  1.3605 -0.6281 -0.0919
 8473SOL    HW236879   0.773   3.550  14.708  1.2408  0.0293  0.1143
 8474SOL     OW36880   1.036   4.139  11.184 -0.3175  0.1676 -0.0965
 8474SOL    HW136881   1.079   4.054  11.183 -0.8576 -0.1126  1.2664
 8474SOL    HW236882   0.952   4.113  11.147 -0.9208 -1.3678  2.3687
 8475SOL     OW36883   3.393   4.410   7.284 -0.1959 -0.2806 -0.6515
 8475SOL    HW136884   3.405   4.491   7.333 -0.8073  0.1641 -1.2331
 8475SOL    HW236885   3.298   4.410   7.267 -0.5181 -3.9357  1.0847
 8476SOL     OW36886   2.793   0.698  10.546  0.2008  0.1577 -0.0476
 8476SOL    HW136887   2.730   0.652  10.601 -0.1820 -0.5055 -1.0410
 8476SOL    HW236888   2.868   0.644  10.572 -0.8903 -0.8363  1.0080
 8477SOL     OW36889   1.866   3.861  13.531  0.1670 -0.1375 -0.1847
 8477SOL    HW136890   1.922   3.909  13.471 -0.0241  0.1271 -0.1490
 8477SOL    HW236891   1.778   3.886  13.504  0.1377 -0.3742 -0.3159
 8478SOL     OW36892   1.207   3.065  12.535  0.2810  0.2042  0.1913
 8478SOL    HW136893   1.113   3.080  12.548 -0.3511 -1.8208 -2.1957
 8478SOL    HW236894   1.237   3.042  12.623  1.4431  0.5068 -0.1257
 8479SOL     OW36895   3.907   4.014   5.604 -0.1619  0.4758  0.7668
 8479SOL    HW136896   3.844   3.952   5.567 -0.3690  0.7985  0.5803
 8479SOL    HW236897   3.978   3.952   5.622  0.8212  1.5023  0.4341
 8480SOL     OW36898   0.219   2.659   3.580  0.0966  0.3427  0.1759
 8480SOL    HW136899   0.293   2.615   3.623  0.4839  1.4201  0.5985
 8480SOL    HW236900   0.207   2.736   3.635 -0.7322  0.3091  0.0429
 8481SOL     OW36901   0.267   2.141   4.351 -0.5909  0.2610  0.2236
 8481SOL    HW136902   0.263   2.215   4.290  0.7001 -0.9354 -1.3232
 8481SOL    HW236903   0.173   2.131   4.363 -0.7629  1.4843 -0.0591
 8482SOL     OW36904   0.747   3.826  11.395 -0.3070  0.1447  0.7386
 8482SOL    HW136905   0.696   3.753  11.362  0.6809 -0.6823  1.0345
 8482SOL    HW236906   0.684   3.896  11.375 -0.7674 -0.9720 -1.6142
 8483SOL     OW36907   4.450   2.086   7.563  0.3028 -0.1825  0.2898
 8483SOL    HW136908   4.529   2.078   7.508 -0.2385 -0.4527 -0.4487
 8483SOL    HW236909   4.384   2.098   7.494 -1.1760 -0.2666  1.6987
 8484SOL     OW36910   3.056   2.268   3.695  0.3858  0.0342 -0.5493
 8484SOL    HW136911   3.021   2.197   3.641  0.7923 -0.4020 -0.2390
 8484SOL    HW236912   3.009   2.346   3.666  0.4827 -0.8281 -2.9696
 8485SOL     OW36913   3.925   3.667   3.136  0.2240 -0.2356 -0.0072
 8485SOL    HW136914   4.012   3.698   3.111 -0.6905  0.4166 -2.3194
 8485SOL    HW236915   3.866   3.724   3.088 -0.6526 -0.8242  0.3690
 8486SOL     OW36916   0.418   3.711   6.529  0.1727 -0.0042 -0.5276
 8486SOL    HW136917   0.499   3.755   6.503  1.0325 -0.5358  1.1915
 8486SOL    HW236918   0.350   3.731   6.465 -0.1054  0.1405 -0.1896
 8487SOL     OW36919   2.640   1.817   1.862 -0.3258 -0.0069 -0.0630
 8487SOL    HW136920   2.686   1.877   1.802  3.4687  0.0256  2.8700
 8487SOL    HW236921   2.639   1.734   1.815  2.0701 -1.0170  1.6865
 8488SOL     OW36922   3.340   3.524   9.231 -0.0542 -0.4739  0.2102
 8488SOL    HW136923   3.282   3.578   9.176  1.5357  1.1006  0.0700
 8488SOL    HW236924   3.394   3.591   9.274 -0.2758 -1.5626  2.1490
 8489SOL     OW36925   4.442   1.415   4.383  0.2556  0.7546  0.0518
 8489SOL    HW136926   4.420   1.425   4.476  0.0052 -1.8832  0.2709
 8489SOL    HW236927   4.532   1.447   4.382  0.6032 -0.2679 -1.0697
 8490SOL     OW36928   3.371   3.746   9.687  0.0250 -0.4907  0.8108
 8490SOL    HW136929   3.313   3.817   9.660  1.0021 -0.9998 -2.6717
 8490SOL    HW236930   3.420   3.775   9.764  1.2650  1.0975 -0.5680
 8491SOL     OW36931   0.292   1.876  14.407  0.5881 -0.5698  0.3166
 8491SOL    HW136932   0.255   1.964  14.416  1.5596 -0.3454  2.1820
 8491SOL    HW236933   0.233   1.819  14.456  0.0137 -1.1310 -1.0323
 8492SOL     OW36934   2.882   0.731  10.912 -0.3539  0.1735  0.7568
 8492SOL    HW136935   2.930   0.749  10.993  0.2507  2.7851 -0.1795
 8492SOL    HW236936   2.880   0.636  10.916  1.4023  0.0544 -1.6163
 8493SOL     OW36937   0.110   2.770   2.923 -0.1112 -0.8589 -0.0198
 8493SOL    HW136938   0.020   2.766   2.891 -0.9328  1.2301  1.9695
 8493SOL    HW236939   0.150   2.753   2.837  1.4698  0.6973  0.4117
 8494SOL     OW36940   0.920   3.611   7.063  0.3621  0.3051 -0.2230
 8494SOL    HW136941   0.878   3.689   7.100 -1.2263 -0.8491  0.4687
 8494SOL    HW236942   1.005   3.615   7.106  0.8983  1.3449 -1.4066
 8495SOL     OW36943   4.076   0.889   6.115  0.3403 -0.4258  0.1412
 8495SOL    HW136944   4.059   0.955   6.181  1.3579 -0.4665  0.4328
 8495SOL    HW236945   4.166   0.859   6.130  1.5827  3.4721  0.3611
 8496SOL     OW36946   3.040   4.127   8.100 -0.2050  0.1441  0.2516
 8496SOL    HW136947   3.028   4.184   8.176 -2.3739  1.8441 -1.3670
 8496SOL    HW236948   2.965   4.067   8.103  0.8787 -1.2918 -1.3308
 8497SOL     OW36949   1.071   3.683   8.089 -0.4178  0.2062  0.2084
 8497SOL    HW136950   1.125   3.638   8.025 -0.1534 -0.5561  0.9771
 8497SOL    HW236951   1.110   3.771   8.086  0.9152 -0.4422 -1.0625
 8498SOL     OW36952   0.628   4.140   5.319  0.4420 -0.1954 -0.3422
 8498SOL    HW136953   0.660   4.092   5.396 -0.1095 -0.7390 -0.4529
 8498SOL    HW236954   0.577   4.214   5.354  2.4115  0.5745  0.9673
 8499SOL     OW36955   1.308   0.286  11.621 -0.6591 -0.2694 -0.0153
 8499SOL    HW136956   1.344   0.295  11.533  0.0141 -1.3025  0.1580
 8499SOL    HW236957   1.387   0.278  11.674 -0.6276  0.9301  0.1241
 8500SOL     OW36958   0.211   2.112  15.650 -0.3299 -0.2202  0.3158
 8500SOL    HW136959   0.267   2.189  15.640  0.9057 -1.2403 -0.6413
 8500SOL    HW236960   0.141   2.138  15.710 -0.1189  0.1327  0.4058
 8501SOL     OW36961   2.097   2.894   0.330  0.1823  0.0397  0.3575
 8501SOL    HW136962   2.060   2.823   0.383 -1.0283  0.0174 -0.5107
 8501SOL    HW236963   2.036   2.964   0.349  0.2396 -0.6850  3.2222
 8502SOL     OW36964   3.108   3.548   5.035  0.5440  0.4863 -0.4409
 8502SOL    HW136965   3.149   3.464   5.014  0.0507  0.2641 -0.5378
 8502SOL    HW236966   3.166   3.576   5.105 -1.7908  1.6590  1.0235
 8503SOL     OW36967   3.616   2.394   2.068 -0.1925 -0.3561 -0.5327
 8503SOL    HW136968   3.628   2.309   2.110 -0.2394 -1.1387 -2.0735
 8503SOL    HW236969   3.702   2.432   2.085  0.4029 -2.1024  0.3407
 8504SOL     OW36970   0.428   3.131  16.952 -0.5784  0.0263 -0.3343
 8504SOL    HW136971   0.407   3.199  16.888  0.3462 -1.1235 -1.8810
 8504SOL    HW236972   0.390   3.150  17.037  1.2182  3.4328 -0.3013
 8505SOL     OW36973   3.078   2.338   2.538  0.3560 -0.1836  0.6906
 8505SOL    HW136974   3.067   2.361   2.446  0.1490 -1.2323  0.4590
 8505SOL    HW236975   3.167   2.304   2.553 -0.2974 -2.5595 -0.9528
 8506SOL     OW36976   3.260   3.040   1.146 -0.2347 -0.7514  0.3374
 8506SOL    HW136977   3.296   3.098   1.213 -1.7610  1.5377 -0.8382
 8506SOL    HW236978   3.229   3.110   1.089  0.9002 -0.2470  0.3412
 8507SOL     OW36979   3.002   3.345   7.611 -0.0973 -0.6041  0.5530
 8507SOL    HW136980   2.913   3.379   7.599  0.1656  1.2109  3.9395
 8507SOL    HW236981   2.979   3.254   7.629  0.0856 -0.7383  0.1218
 8508SOL     OW36982   0.580   1.160   7.156 -0.6737  0.7896 -0.3038
 8508SOL    HW136983   0.499   1.208   7.137 -2.0805 -1.3270  0.3941
 8508SOL    HW236984   0.555   1.139   7.246 -0.4329 -1.6408 -0.8057
 8509SOL     OW36985   3.566   2.629   7.523 -0.1224 -0.5279  0.4627
 8509SOL    HW136986   3.625   2.553   7.521  1.1608  0.4978 -0.4150
 8509SOL    HW236987   3.633   2.695   7.504 -0.2137  0.1477  2.4852
 8510SOL     OW36988   1.249   1.904   2.645  0.4143 -0.2871  0.3713
 8510SOL    HW136989   1.194   1.946   2.580  1.8820 -0.0555 -0.7249
 8510SOL    HW236990   1.229   1.813   2.624  0.5556  0.5154 -3.2638
 8511SOL     OW36991   0.413   0.225   6.811 -0.2742  0.1111  1.0039
 8511SOL    HW136992   0.361   0.158   6.853 -3.2974  1.7975 -0.0385
 8511SOL    HW236993   0.501   0.218   6.849 -0.1806  0.4029  0.8453
 8512SOL     OW36994   0.606   1.561   3.935 -0.4099  0.0530 -0.2717
 8512SOL    HW136995   0.576   1.486   3.883  0.1988 -1.0536  0.9743
 8512SOL    HW236996   0.533   1.566   3.997  1.3868 -1.3306  1.9373
 8513SOL     OW36997   4.520   3.135   5.628  0.2498 -0.8047 -0.0486
 8513SOL    HW136998   4.555   3.205   5.574 -0.9870  1.0508  1.5576
 8513SOL    HW236999   4.603   3.093   5.649  0.2750 -0.3663  0.7512
 8514SOL     OW37000   2.165   4.034   2.879  0.1886 -0.3265  0.6540
 8514SOL    HW137001   2.153   4.043   2.974 -0.8253 -3.3631  0.8084
 8514SOL    HW237002   2.245   3.981   2.879 -0.6342 -1.5697  0.3317
 8515SOL     OW37003   1.461   1.294   0.233  0.2373 -0.0520 -0.1131
 8515SOL    HW137004   1.393   1.240   0.272  0.8558 -1.9066 -1.6279
 8515SOL    HW237005   1.403   1.347   0.177 -0.3678 -0.4445  0.1417
 8516SOL     OW37006   3.169   3.354   4.025  0.1553 -0.6361  0.3349
 8516SOL    HW137007   3.132   3.429   4.071  0.2009 -0.4940  0.1359
 8516SOL    HW237008   3.104   3.288   4.049 -0.5785 -0.3524 -0.8918
 8517SOL     OW37009   0.601   1.123   2.388  0.0225 -0.0329 -0.7148
 8517SOL    HW137010   0.632   1.067   2.317 -0.3883 -0.8619 -0.2373
 8517SOL    HW237011   0.511   1.091   2.396  0.5019 -0.6069  2.1336
 8518SOL     OW37012   4.267   4.531   2.831  0.5653  0.6008  0.1028
 8518SOL    HW137013   4.332   4.509   2.764 -0.0652  1.2719 -0.7419
 8518SOL    HW237014   4.291   4.622   2.852 -0.6626  1.1079 -0.7053
 8519SOL     OW37015   2.743   3.399   7.592  0.4106 -0.3120  0.1033
 8519SOL    HW137016   2.695   3.393   7.674  1.2680  2.4268  0.8134
 8519SOL    HW237017   2.735   3.308   7.563  1.1604  0.4619 -2.5404
 8520SOL     OW37018   0.409   0.514   0.607  0.5093  0.3047  0.3229
 8520SOL    HW137019   0.367   0.594   0.577  0.8516 -0.3770 -2.0048
 8520SOL    HW237020   0.383   0.515   0.699  0.8056 -1.7986  0.4385
 8521SOL     OW37021   2.950   2.765   2.447 -0.1227 -0.4892  0.2035
 8521SOL    HW137022   2.909   2.828   2.387 -0.4769 -1.7525 -0.8770
 8521SOL    HW237023   2.873   2.723   2.484  0.7773 -3.1519 -0.9696
 8522SOL     OW37024   4.512   1.954  16.482  0.0716  0.3479 -0.0788
 8522SOL    HW137025   4.520   1.866  16.520  0.5078  0.4307  0.0250
 8522SOL    HW237026   4.549   1.943  16.395  0.6430  0.8499  0.0985
 8523SOL     OW37027   0.230   4.355   7.907  0.1087 -0.0908 -0.1307
 8523SOL    HW137028   0.186   4.291   7.963 -1.8648 -0.0632 -1.6572
 8523SOL    HW237029   0.320   4.349   7.939 -1.1529 -1.4464  3.1326
 8524SOL     OW37030   2.964   3.123  10.995 -0.7214 -0.2508 -0.0350
 8524SOL    HW137031   2.930   3.048  10.946  0.7901 -0.3577 -0.9276
 8524SOL    HW237032   2.894   3.183  10.966  0.1550  0.5719 -0.4460
 8525SOL     OW37033   1.157   0.158   1.413 -0.9912 -0.1021  0.0560
 8525SOL    HW137034   1.132   0.110   1.333  0.5757  1.6329 -1.4875
 8525SOL    HW237035   1.106   0.112   1.479 -1.7592  1.9092  0.8761
 8526SOL     OW37036   0.285   1.976  14.076  0.7001 -0.3056  0.1575
 8526SOL    HW137037   0.222   1.923  14.027  1.0832 -0.4996 -0.1323
 8526SOL    HW237038   0.263   2.059  14.034  2.4608 -0.1423 -0.4452
 8527SOL     OW37039   0.994   0.301   4.389 -0.8763  0.1107 -0.3197
 8527SOL    HW137040   0.928   0.243   4.351 -1.5334  0.8172 -0.2452
 8527SOL    HW237041   0.951   0.346   4.461  0.3611  0.1151  0.4082
 8528SOL     OW37042   4.471   4.544  17.489  0.3658  0.4954  0.1866
 8528SOL    HW137043   4.539   4.483  17.517 -0.0815 -1.1507 -2.3363
 8528SOL    HW237044   4.400   4.495  17.446  0.1513  1.0719 -0.1067
 8529SOL     OW37045   0.904   0.689  17.511 -0.2387  0.1940 -0.3088
 8529SOL    HW137046   0.907   0.643  17.427  0.4310  1.6341 -1.0815
 8529SOL    HW237047   0.837   0.636  17.553 -0.5701  1.9040  1.2833
 8530SOL     OW37048   2.048   3.922  17.238 -0.1092 -0.0599 -0.2463
 8530SOL    HW137049   1.958   3.926  17.205  0.4499  0.5652 -1.6940
 8530SOL    HW237050   2.087   3.879  17.162 -1.7660  0.1347 -1.2157
 8531SOL     OW37051   1.025   2.706   8.386 -0.3733  0.5298 -0.1651
 8531SOL    HW137052   1.072   2.711   8.303 -2.6185 -0.6704 -1.5023
 8531SOL    HW237053   0.971   2.628   8.374 -0.0596  0.4827 -1.2370
 8532SOL     OW37054   4.377   3.470   4.048 -0.3703 -0.3721 -0.6948
 8532SOL    HW137055   4.307   3.439   4.105 -0.4594 -0.7128 -0.9889
 8532SOL    HW237056   4.437   3.395   4.052 -1.8862 -1.4200  2.5681
 8533SOL     OW37057   2.820   3.530   9.279  0.5770  0.0076  0.5241
 8533SOL    HW137058   2.770   3.611   9.280  1.8190  0.7825 -0.7737
 8533SOL    HW237059   2.767   3.482   9.343 -2.1941 -1.2008 -2.6549
 8534SOL     OW37060   2.611   3.620   5.329  0.1258  0.3382  0.3071
 8534SOL    HW137061   2.610   3.715   5.317  2.8942  0.2956 -0.0679
 8534SOL    HW237062   2.634   3.596   5.240 -0.5621  0.1016  0.1961
 8535SOL     OW37063   0.680   0.697   3.436 -0.0439  0.5230  0.0044
 8535SOL    HW137064   0.703   0.654   3.353  1.4318 -0.4954  0.9449
 8535SOL    HW237065   0.648   0.782   3.405 -2.3019 -0.3912 -0.2166
 8536SOL     OW37066   2.705   4.686  12.800  0.5598  0.1301 -0.2002
 8536SOL    HW137067   2.712   4.667  12.893  0.4161  0.8728 -0.0402
 8536SOL    HW237068   2.630   4.632  12.777  0.2214 -0.3457  2.0894
 8537SOL     OW37069   2.911   2.224   5.926  0.0233 -0.1456 -0.0758
 8537SOL    HW137070   2.987   2.175   5.895  0.1038  0.9620 -1.6256
 8537SOL    HW237071   2.889   2.264   5.842 -2.5433 -1.6457 -0.1233
 8538SOL     OW37072   3.897   2.489  10.483  0.1530  0.2121  0.0750
 8538SOL    HW137073   3.973   2.530  10.524 -1.7537  1.7707  2.0674
 8538SOL    HW237074   3.922   2.477  10.392 -1.3826  1.5006 -0.5188
 8539SOL     OW37075   1.284   1.480   0.528 -0.5477 -0.3166  0.0412
 8539SOL    HW137076   1.331   1.537   0.466  1.0727 -0.9403  0.7010
 8539SOL    HW237077   1.347   1.410   0.545 -0.9979 -0.1684  2.2918
 8540SOL     OW37078   2.894   0.548  11.765  0.0484  0.2518  0.8274
 8540SOL    HW137079   2.851   0.498  11.696  0.9563 -1.0143  1.1765
 8540SOL    HW237080   2.981   0.507  11.766  0.6300  1.4011 -2.0757
 8541SOL     OW37081   3.903   0.696   2.909 -0.2228 -0.5400  0.4036
 8541SOL    HW137082   3.972   0.684   2.843  2.0864  0.5763  2.6167
 8541SOL    HW237083   3.948   0.668   2.989 -2.1212 -0.3357  1.5358
 8542SOL     OW37084   2.277   1.464   2.127 -0.3864 -0.0596 -0.0585
 8542SOL    HW137085   2.263   1.400   2.057 -1.3926  0.2408 -0.1235
 8542SOL    HW237086   2.364   1.493   2.100  0.6827 -1.0207  2.3377
 8543SOL     OW37087   0.986   0.180   3.769  0.3442 -0.5294  0.1223
 8543SOL    HW137088   1.024   0.186   3.857  0.0066 -1.7043  0.3554
 8543SOL    HW237089   0.921   0.110   3.780 -1.5859  1.3466  0.6440
 8544SOL     OW37090   0.972   1.449  11.682  0.3234 -0.4030 -0.3940
 8544SOL    HW137091   0.884   1.424  11.656 -0.7845  1.6786  1.3598
 8544SOL    HW237092   0.979   1.388  11.755 -0.7009 -0.4102 -0.3124
 8545SOL     OW37093   2.862   0.587   0.166 -0.0200  0.0294  0.0657
 8545SOL    HW137094   2.783   0.538   0.145  0.5263 -0.7371 -0.2221
 8545SOL    HW237095   2.926   0.516   0.162  0.1825  0.2391 -0.4564
 8546SOL     OW37096   2.676   2.129   6.398  0.2371 -0.6740 -0.7868
 8546SOL    HW137097   2.603   2.186   6.420 -1.2630 -2.6276 -0.7046
 8546SOL    HW237098   2.636   2.088   6.322  1.7417  1.4301 -2.7146
 8547SOL     OW37099   0.331   3.261   6.803  0.1700 -0.2912  0.1044
 8547SOL    HW137100   0.245   3.220   6.805  0.4258 -0.8940 -1.2122
 8547SOL    HW237101   0.318   3.332   6.866 -1.7126 -2.0740  1.7090
 8548SOL     OW37102   2.428   4.312   6.201  0.4717 -0.0488 -0.3217
 8548SOL    HW137103   2.371   4.306   6.278 -0.1520  1.1683 -0.6821
 8548SOL    HW237104   2.485   4.388   6.214 -0.0425 -0.1238  2.3677
 8549SOL     OW37105   0.007   1.932   6.198  0.2296  0.4449 -0.6388
 8549SOL    HW137106   4.699   1.935   6.289 -1.4171  0.6178 -1.2213
 8549SOL    HW237107   0.082   1.879   6.225 -1.1483 -1.3442 -0.3308
 8550SOL     OW37108   2.839   1.961   4.512 -0.3826  0.7844  0.0141
 8550SOL    HW137109   2.849   1.996   4.423  0.7626 -1.2411 -0.6601
 8550SOL    HW237110   2.827   1.867   4.503  1.9432  0.3000  2.0148
 8551SOL     OW37111   2.441   4.305   4.720 -0.2506 -0.0681 -0.3042
 8551SOL    HW137112   2.357   4.260   4.735 -0.5243  0.2502 -0.8718
 8551SOL    HW237113   2.415   4.384   4.673  0.1742 -0.0945 -0.5788
 8552SOL     OW37114   4.267   4.280   4.349 -0.5021 -0.4064  0.0037
 8552SOL    HW137115   4.346   4.286   4.295 -0.1978  0.0191  0.4934
 8552SOL    HW237116   4.204   4.345   4.317  1.2335  0.6458 -1.3032
 8553SOL     OW37117   2.337   3.574   0.684 -0.1586 -0.1119  0.6495
 8553SOL    HW137118   2.243   3.591   0.679  0.1260  1.1073 -0.4504
 8553SOL    HW237119   2.347   3.493   0.633 -1.9695 -0.9512  1.6181
 8554SOL     OW37120   1.559   2.547  16.077 -0.1839 -0.2543  0.4037
 8554SOL    HW137121   1.505   2.516  16.150 -1.8735 -0.0329 -0.7499
 8554SOL    HW237122   1.606   2.612  16.130  0.9932 -0.0964 -0.8464
 8555SOL     OW37123   3.903   4.294   2.399  0.2615 -0.3105  0.2615
 8555SOL    HW137124   3.833   4.346   2.359  0.0445 -1.6567 -1.1288
 8555SOL    HW237125   3.874   4.282   2.489 -1.2252 -2.2653 -0.5034
 8556SOL     OW37126   4.696   1.327  15.109 -0.0782  0.4107  0.5660
 8556SOL    HW137127   4.683   1.329  15.014 -0.0865 -1.0948  0.5248
 8556SOL    HW237128   4.710   1.420  15.125  0.3280  0.3696  0.4406
 8557SOL     OW37129   2.206   4.103   2.603  0.5805 -0.0674 -0.0716
 8557SOL    HW137130   2.178   4.039   2.668  1.9325  0.4205  1.0026
 8557SOL    HW237131   2.174   4.180   2.650 -0.4997  0.0312 -0.9867
 8558SOL     OW37132   3.860   0.032   6.439 -0.3927  0.1109 -0.2223
 8558SOL    HW137133   3.768   0.055   6.453 -0.1098  1.5451 -0.6930
 8558SOL    HW237134   3.876   0.070   6.353 -1.3627 -0.9989 -0.8942
 8559SOL     OW37135   0.276   0.879   2.742  0.1924  0.7973  0.2578
 8559SOL    HW137136   0.252   0.964   2.704 -1.3882 -0.1467 -0.8520
 8559SOL    HW237137   0.370   0.895   2.755  0.3265 -1.3595  1.9226
 8560SOL     OW37138   0.007   0.017   5.972  0.1569  0.1279 -0.4472
 8560SOL    HW137139   0.069   0.004   6.044 -0.5420 -0.2379  0.0837
 8560SOL    HW237140   4.691   0.098   6.003  0.1769  0.5514 -1.5183
 8561SOL     OW37141   1.836   1.486   3.704  0.0149  0.0667 -0.5393
 8561SOL    HW137142   1.758   1.445   3.741  0.1052 -0.1951 -0.6379
 8561SOL    HW237143   1.903   1.421   3.723 -1.0885 -0.9210 -0.0396
 8562SOL     OW37144   1.388   1.705   8.964 -0.1680 -0.2625  0.4192
 8562SOL    HW137145   1.420   1.794   8.952  3.1670 -1.5335 -0.3572
 8562SOL    HW237146   1.450   1.685   9.034  0.1046  1.9787  0.8194
 8563SOL     OW37147   1.915   1.007   3.046 -0.0583 -0.7319  0.1906
 8563SOL    HW137148   1.966   1.085   3.026  0.7937 -1.3789 -0.1276
 8563SOL    HW237149   1.977   0.935   3.059 -0.6499 -1.6277 -1.8443
 8564SOL     OW37150   0.516   3.454   6.511  0.2420  0.2737  0.9749
 8564SOL    HW137151   0.444   3.517   6.508  0.4240  0.2551 -3.6394
 8564SOL    HW237152   0.589   3.510   6.538 -0.1616  1.4200 -0.3653
 8565SOL     OW37153   2.008   3.973  10.610  0.4809 -0.2793 -0.4744
 8565SOL    HW137154   1.981   3.947  10.698  1.3613 -0.6265 -0.3047
 8565SOL    HW237155   2.087   4.026  10.620 -0.0022  0.2752  0.4554
 8566SOL     OW37156   0.166   3.171  10.074  0.1402 -0.3415 -0.4022
 8566SOL    HW137157   0.240   3.116  10.047  0.5217  0.2419 -0.5516
 8566SOL    HW237158   0.110   3.175   9.996 -1.2010  2.0065  0.6833
 8567SOL     OW37159   2.753   4.024   5.628  0.3112  0.2452  0.4044
 8567SOL    HW137160   2.837   3.992   5.593  0.8277  3.1762 -1.0207
 8567SOL    HW237161   2.769   4.054   5.717 -2.7009 -0.1657  1.0818
 8568SOL     OW37162   1.005   3.559  16.237  0.0081  0.4628 -0.3286
 8568SOL    HW137163   0.910   3.547  16.243  0.0704  0.4732  0.6081
 8568SOL    HW237164   1.015   3.646  16.274 -1.4906  1.0536 -1.3160
 8569SOL     OW37165   2.206   2.668   4.718  0.7821 -0.6053 -0.5565
 8569SOL    HW137166   2.205   2.592   4.776  2.7723 -2.1663 -2.6054
 8569SOL    HW237167   2.137   2.721   4.758 -0.4123 -2.7777  0.2562
 8570SOL     OW37168   0.795   0.665  15.915 -0.1210 -0.1667  0.3242
 8570SOL    HW137169   0.725   0.730  15.916  0.1049  0.0660  2.3676
 8570SOL    HW237170   0.854   0.704  15.851  1.4557 -1.8131  0.7612
 8571SOL     OW37171   1.505   2.806   6.373  0.0483 -0.6699  0.0570
 8571SOL    HW137172   1.538   2.849   6.294 -0.3934 -0.2967  0.0751
 8571SOL    HW237173   1.561   2.729   6.383  0.8947 -0.1187 -0.4727
 8572SOL     OW37174   2.572   1.656  10.283 -0.5661 -0.5576 -0.0450
 8572SOL    HW137175   2.507   1.710  10.239  0.3089  0.0279 -0.6121
 8572SOL    HW237176   2.597   1.727  10.343  1.7391 -0.1312 -1.4965
 8573SOL     OW37177   1.713   3.818   1.685  0.0976  0.2970 -0.6156
 8573SOL    HW137178   1.691   3.845   1.595 -0.7947  3.7533  0.6199
 8573SOL    HW237179   1.629   3.787   1.718  0.6526 -0.0980  0.3952
 8574SOL     OW37180   3.554   2.457  10.545  0.2509  0.5058  0.1100
 8574SOL    HW137181   3.536   2.415  10.630 -0.2181  2.3279  0.9219
 8574SOL    HW237182   3.622   2.523  10.556 -1.1394  1.8742  0.6125
 8575SOL     OW37183   0.948   2.052  10.605  0.3867 -0.1110 -0.3310
 8575SOL    HW137184   1.044   2.044  10.606  0.5048  1.2889 -0.7582
 8575SOL    HW237185   0.941   2.020  10.515 -1.0802 -1.8272  0.4015
 8576SOL     OW37186   0.055   1.223   8.265  0.1510  0.0381  0.0841
 8576SOL    HW137187   0.083   1.307   8.227 -1.2316 -0.3882 -1.8645
 8576SOL    HW237188   0.117   1.162   8.225 -0.2784  0.8325 -1.8507
 8577SOL     OW37189   0.209   2.106   9.441  0.3244 -0.3938 -0.0100
 8577SOL    HW137190   0.233   2.019   9.409 -0.6653 -0.5290 -0.3853
 8577SOL    HW237191   0.294   2.128   9.478  0.6230  1.4773 -1.7519
 8578SOL     OW37192   4.214   2.037   4.326 -0.4039  0.0064 -0.5698
 8578SOL    HW137193   4.295   2.087   4.327  0.5645 -1.4688 -3.6210
 8578SOL    HW237194   4.151   2.109   4.320 -0.9033 -0.5675 -2.4608
 8579SOL     OW37195   2.104   1.274   4.730  0.5050 -0.4209 -0.2491
 8579SOL    HW137196   2.115   1.366   4.706 -2.1987  0.2356  1.0298
 8579SOL    HW237197   2.136   1.243   4.646  1.2847  0.3265 -0.2271
 8580SOL     OW37198   4.127   3.220   7.846  0.2279  0.0126  0.2826
 8580SOL    HW137199   4.125   3.180   7.933  2.2057 -0.8066 -0.0488
 8580SOL    HW237200   4.187   3.295   7.849  0.3944 -0.2530  3.6889
 8581SOL     OW37201   1.693   0.575   0.426 -0.3623 -0.5450 -0.3045
 8581SOL    HW137202   1.669   0.649   0.371  2.7921  0.9783  0.3950
 8581SOL    HW237203   1.609   0.530   0.425  0.0655 -1.3626  0.7134
 8582SOL     OW37204   1.173   1.142   3.768  0.3643 -0.4123 -0.3023
 8582SOL    HW137205   1.113   1.134   3.694 -0.7569  1.2003  0.4418
 8582SOL    HW237206   1.215   1.056   3.759 -0.4076 -0.5933 -2.1169
 8583SOL     OW37207   4.481   4.345  10.060  0.5388  0.1443 -0.1533
 8583SOL    HW137208   4.534   4.323  10.136  0.6800 -0.3230 -0.3890
 8583SOL    HW237209   4.485   4.441  10.062  1.3081  0.1354 -1.6830
 8584SOL     OW37210   1.810   0.574   3.877 -0.3637 -0.1803 -0.3173
 8584SOL    HW137211   1.839   0.589   3.787 -0.8612  1.9242 -0.1228
 8584SOL    HW237212   1.851   0.643   3.930  0.0375  0.5484 -1.5863
 8585SOL     OW37213   0.920   1.274   9.046 -0.1003 -0.2577 -0.6409
 8585SOL    HW137214   0.870   1.224   8.980 -1.2899 -1.7597  1.3941
 8585SOL    HW237215   0.998   1.221   9.034 -0.2461 -0.9274  1.3356
 8586SOL     OW37216   1.626   1.002   6.281 -0.6128 -0.1708  0.2561
 8586SOL    HW137217   1.573   1.029   6.206  1.9828  1.9222 -0.8316
 8586SOL    HW237218   1.708   1.039   6.249 -0.8009 -1.4669 -1.7113
 8587SOL     OW37219   3.578   2.232   6.420 -0.6363  0.3158  0.7404
 8587SOL    HW137220   3.602   2.254   6.330 -2.6286 -0.3595  0.0513
 8587SOL    HW237221   3.483   2.244   6.420 -0.6990 -0.2964 -1.5963
 8588SOL     OW37222   3.973   4.388   1.643 -0.1302 -0.3109  0.0460
 8588SOL    HW137223   3.889   4.342   1.648  1.5834 -3.2916  1.0408
 8588SOL    HW237224   4.029   4.326   1.596 -0.1696 -0.3424  0.0409
 8589SOL     OW37225   2.582   3.527  10.214  0.5012  0.4169  0.4100
 8589SOL    HW137226   2.511   3.465  10.230  1.5308 -0.1486  2.7988
 8589SOL    HW237227   2.654   3.501  10.271  2.1375  0.1375 -1.8157
 8590SOL     OW37228   4.695   2.173   8.461  1.1960  0.8427 -0.3171
 8590SOL    HW137229   4.712   2.227   8.384  0.5053  0.4228 -0.7682
 8590SOL    HW237230   4.701   2.083   8.428 -0.8854  0.8422 -0.7055
 8591SOL     OW37231   1.636   4.147  16.967 -0.3517  0.0680  0.3376
 8591SOL    HW137232   1.543   4.159  16.986 -0.3894 -1.5282  1.1924
 8591SOL    HW237233   1.652   4.231  16.924  0.2277  0.8991  2.2002
 8592SOL     OW37234   3.110   2.293   8.103 -0.6367 -0.5282 -0.1876
 8592SOL    HW137235   3.167   2.218   8.120 -0.3658  0.0287  1.3431
 8592SOL    HW237236   3.058   2.267   8.027 -1.2688  3.7548 -1.2063
 8593SOL     OW37237   2.154   2.455   5.826  0.2220 -0.5004  0.4319
 8593SOL    HW137238   2.229   2.397   5.835 -0.4007 -0.8365  3.3720
 8593SOL    HW237239   2.142   2.497   5.911 -0.6571  0.3328 -0.0930
 8594SOL     OW37240   3.816   2.910   9.265  0.3088 -0.0731  0.1226
 8594SOL    HW137241   3.739   2.947   9.222  0.6091  0.8705  0.4143
 8594SOL    HW237242   3.878   2.982   9.266  0.0731  0.1216  0.6819
 8595SOL     OW37243   4.325   1.278   6.407 -0.1182  0.3370  0.3168
 8595SOL    HW137244   4.277   1.361   6.408 -1.0569 -0.2048  0.1876
 8595SOL    HW237245   4.305   1.256   6.316  2.4617  1.2095 -0.4635
 8596SOL     OW37246   2.352   3.476   2.504  0.5199  0.0447 -0.4441
 8596SOL    HW137247   2.353   3.510   2.414 -1.9324 -1.9131 -1.1898
 8596SOL    HW237248   2.340   3.557   2.554 -0.3581 -0.3050 -0.0879
 8597SOL     OW37249   0.080   2.110  11.851  0.2876  0.4208 -0.6985
 8597SOL    HW137250   0.133   2.181  11.886 -1.5723  0.9008  1.2011
 8597SOL    HW237251   0.087   2.123  11.756 -0.5571  0.3641 -0.7756
 8598SOL     OW37252   2.771   2.390   6.948 -0.1906  0.2061 -0.6232
 8598SOL    HW137253   2.762   2.485   6.940  2.4404  0.6804  2.1295
 8598SOL    HW237254   2.726   2.362   6.868  1.3490 -1.3268 -0.9526
 8599SOL     OW37255   1.361   2.847  15.789  0.0434  0.2026 -0.0035
 8599SOL    HW137256   1.418   2.772  15.769  0.4482  1.0264 -1.9416
 8599SOL    HW237257   1.390   2.909  15.722 -1.4905  1.4494  0.5120
 8600SOL     OW37258   0.597   2.187   5.929  0.1666  0.1152  0.2130
 8600SOL    HW137259   0.525   2.144   5.882  0.1684  1.1048 -0.7086
 8600SOL    HW237260   0.568   2.181   6.020  0.2325 -1.3651  0.1397
 8601SOL     OW37261   3.317   4.540   2.625 -0.5078 -0.1842  0.1180
 8601SOL    HW137262   3.235   4.507   2.663 -1.5334 -0.5387 -2.3848
 8601SOL    HW237263   3.382   4.500   2.683  1.8074 -1.0639 -3.0735
 8602SOL     OW37264   3.366   3.232   2.040 -0.1779 -0.0693 -0.0572
 8602SOL    HW137265   3.396   3.315   2.076 -0.8942  0.7452 -1.3360
 8602SOL    HW237266   3.278   3.252   2.006 -0.6315 -0.3275  0.9652
 8603SOL     OW37267   1.365   3.607   2.854  0.0173  0.1095  0.9751
 8603SOL    HW137268   1.420   3.579   2.782 -0.2756  0.2341  0.7007
 8603SOL    HW237269   1.382   3.534   2.914 -0.3751 -2.4354 -2.0259
 8604SOL     OW37270   4.410   2.397   5.574  0.4097 -1.1800 -0.0483
 8604SOL    HW137271   4.408   2.486   5.541  1.1064 -0.8923  0.6893
 8604SOL    HW237272   4.337   2.359   5.524 -0.2501 -0.0164  0.0492
 8605SOL     OW37273   2.934   3.331   5.954  0.3034  0.4386 -0.0478
 8605SOL    HW137274   2.857   3.386   5.963  0.4259  0.5850  0.1060
 8605SOL    HW237275   2.925   3.279   6.034  2.6597 -2.7564 -1.8437
 8606SOL     OW37276   4.433   3.809   5.590 -0.0359 -0.0901 -0.1149
 8606SOL    HW137277   4.412   3.722   5.624  1.3673 -0.1418  0.5931
 8606SOL    HW237278   4.526   3.797   5.570  0.4906 -0.3364  2.5362
 8607SOL     OW37279   2.320   4.706   1.964  0.0178  0.3065 -0.5394
 8607SOL    HW137280   2.261   4.643   2.006  0.4892  2.1689  2.8739
 8607SOL    HW237281   2.282   0.067   1.982 -0.8230 -0.1159 -0.3252
 8608SOL     OW37282   1.035   0.972  12.632 -0.1949  0.5244 -0.0309
 8608SOL    HW137283   0.973   1.044  12.629 -0.3692  0.2713 -2.1670
 8608SOL    HW237284   0.976   0.896  12.633  0.2687  0.1614 -0.2182
 8609SOL     OW37285   2.186   1.528   3.555  0.0793  0.3633  0.4337
 8609SOL    HW137286   2.111   1.586   3.543 -0.6935 -0.2593  2.1461
 8609SOL    HW237287   2.151   1.441   3.578  0.6564 -0.2526 -1.0558
 8610SOL     OW37288   2.227   1.423   1.689  0.0598 -0.2506  0.4918
 8610SOL    HW137289   2.155   1.444   1.629  0.4058 -2.1285 -0.5470
 8610SOL    HW237290   2.277   1.505   1.689 -1.3132  0.6007  0.0528
 8611SOL     OW37291   0.742   2.808   4.107 -0.5186 -0.3648 -0.5099
 8611SOL    HW137292   0.806   2.747   4.070 -0.4056 -0.6962  0.2326
 8611SOL    HW237293   0.666   2.762   4.070 -2.5215  0.6880  2.3300
 8612SOL     OW37294   2.621   3.161  15.994  0.6035  0.4564 -0.0265
 8612SOL    HW137295   2.649   3.253  15.998 -2.2140  1.3801 -1.4847
 8612SOL    HW237296   2.703   3.120  16.023 -0.4881 -0.7499  1.2936
 8613SOL     OW37297   0.363   0.767   5.866 -0.0293 -0.1815 -0.3470
 8613SOL    HW137298   0.320   0.822   5.931  1.0270  2.6873 -2.0690
 8613SOL    HW237299   0.294   0.705   5.840  1.6279 -2.9773  1.9555
 8614SOL     OW37300   1.144   3.932   7.463  0.2594  0.1032 -0.2549
 8614SOL    HW137301   1.062   3.933   7.413  0.5202  2.3647 -0.6384
 8614SOL    HW237302   1.188   3.996   7.408 -0.5979 -0.0640 -1.1469
 8615SOL     OW37303   1.679   2.607  14.270  0.0083 -0.4659  0.1546
 8615SOL    HW137304   1.714   2.558  14.196 -2.0459  0.7649 -1.6297
 8615SOL    HW237305   1.613   2.660  14.224 -0.6247 -0.6012  0.9015
 8616SOL     OW37306   0.516   0.740   8.552 -0.1489  0.8627 -0.5144
 8616SOL    HW137307   0.546   0.675   8.488  1.3662  0.1373  0.9318
 8616SOL    HW237308   0.452   0.683   8.594 -0.3308  0.1850 -1.6991
 8617SOL     OW37309   0.779   3.798   3.262  0.4622  0.0389 -0.1337
 8617SOL    HW137310   0.837   3.722   3.266  0.0910 -0.2264  0.1686
 8617SOL    HW237311   0.829   3.855   3.321  0.6233 -0.4550  0.2054
 8618SOL     OW37312   2.658   4.276   4.529 -0.2199 -0.7919  0.1437
 8618SOL    HW137313   2.585   4.326   4.565 -0.1501 -1.3028  0.9841
 8618SOL    HW237314   2.634   4.189   4.563 -1.5097  0.3852  2.2078
 8619SOL     OW37315   0.289   4.128   1.847 -0.5437  0.3754 -0.5168
 8619SOL    HW137316   0.213   4.071   1.860  0.6538 -1.3310 -1.0709
 8619SOL    HW237317   0.312   4.150   1.938  0.8724 -0.5568 -0.6587
 8620SOL     OW37318   1.045   3.135   2.842 -0.0370 -0.4436 -0.2394
 8620SOL    HW137319   0.990   3.060   2.868  1.1225 -1.9486 -2.1263
 8620SOL    HW237320   1.133   3.098   2.854  0.3894  0.3123 -1.0895
 8621SOL     OW37321   3.959   2.193  12.862  0.6194  0.2599  0.4214
 8621SOL    HW137322   3.913   2.260  12.811 -0.6625 -0.6428  0.3893
 8621SOL    HW237323   3.965   2.244  12.943 -1.6876 -0.9004  1.3197
 8622SOL     OW37324   0.534   3.907  14.996 -0.1041 -0.7704 -0.1259
 8622SOL    HW137325   0.585   3.844  15.048 -0.8911 -0.9562  0.4203
 8622SOL    HW237326   0.523   3.862  14.913  0.7881 -2.1248  0.4905
 8623SOL     OW37327   4.325   1.465   0.221  0.3621 -0.1117  0.0186
 8623SOL    HW137328   4.352   1.454   0.130 -2.1035 -0.9482 -0.6063
 8623SOL    HW237329   4.331   1.374   0.249  1.3086 -0.3312 -0.8822
 8624SOL     OW37330   0.828   0.404   3.748  0.0652 -0.1535 -0.1812
 8624SOL    HW137331   0.735   0.383   3.741  0.6785 -2.6751 -0.8546
 8624SOL    HW237332   0.868   0.319   3.727  0.6465  0.1424 -0.2880
 8625SOL     OW37333   0.051   1.828   5.094 -0.4251  0.2462  0.6037
 8625SOL    HW137334   0.128   1.770   5.094 -0.1631  0.5911  0.0731
 8625SOL    HW237335   0.007   1.792   5.172 -3.0204  1.9108 -0.1117
 8626SOL     OW37336   3.535   4.497   3.857  0.8790 -0.2595  0.3224
 8626SOL    HW137337   3.589   4.420   3.837  0.6618  0.3509 -2.6945
 8626SOL    HW237338   3.593   4.537   3.922  0.4415  0.2583  0.3897
 8627SOL     OW37339   1.434   1.936   8.809  0.1098  0.1357  0.1133
 8627SOL    HW137340   1.459   2.024   8.838 -0.3979  0.9332 -1.8439
 8627SOL    HW237341   1.352   1.956   8.764 -0.6168 -0.5944  1.0964
 8628SOL     OW37342   4.543   1.213   4.175  0.2524  0.5432 -0.6601
 8628SOL    HW137343   4.526   1.293   4.224  2.2031  0.5791 -0.0262
 8628SOL    HW237344   4.476   1.205   4.108 -0.8379  0.0730  0.4745
 8629SOL     OW37345   2.273   1.288   8.092 -0.1721 -0.4123  0.1033
 8629SOL    HW137346   2.307   1.350   8.027  0.5014 -1.5817 -0.6628
 8629SOL    HW237347   2.305   1.328   8.172  0.7193 -0.7490 -0.0876
 8630SOL     OW37348   0.091   0.611  14.884  1.0027  0.3036  0.2955
 8630SOL    HW137349   0.083   0.574  14.972  0.0491  1.0881  0.5382
 8630SOL    HW237350   0.022   0.677  14.884  1.2444  0.5544 -0.0558
 8631SOL     OW37351   1.566   4.408   4.247  0.9664  0.1677 -0.0444
 8631SOL    HW137352   1.533   4.324   4.281 -1.9152  1.9357  1.5027
 8631SOL    HW237353   1.657   4.390   4.227  1.1250  1.7123 -0.6958
 8632SOL     OW37354   0.465   2.124   6.175  0.1772 -0.6654 -0.2987
 8632SOL    HW137355   0.500   2.081   6.253 -0.6248  0.6502  0.7841
 8632SOL    HW237356   0.418   2.046   6.147  3.4281 -2.2415 -1.3092
 8633SOL     OW37357   4.663   1.129  14.594 -0.0807 -0.0759 -0.2921
 8633SOL    HW137358   4.625   1.181  14.523 -0.3204 -0.6004 -0.5508
 8633SOL    HW237359   4.675   1.042  14.556 -2.7976 -0.2240 -0.8603
 8634SOL     OW37360   2.845   1.710   4.449 -0.2514 -0.1205 -0.2141
 8634SOL    HW137361   2.776   1.665   4.401  0.0010 -0.9063  0.1602
 8634SOL    HW237362   2.922   1.689   4.396 -0.2366  2.4127 -1.2146
 8635SOL     OW37363   1.147   2.576  13.798 -0.3340 -0.5854  0.4930
 8635SOL    HW137364   1.203   2.615  13.865  0.0194 -0.6710  0.2462
 8635SOL    HW237365   1.059   2.583  13.835 -0.8613 -1.4803 -0.6164
 8636SOL     OW37366   1.666   2.730   4.513 -0.2488  0.1476  0.0627
 8636SOL    HW137367   1.755   2.750   4.482 -0.5632  0.5783 -0.5556
 8636SOL    HW237368   1.661   2.639   4.484  0.9841  0.2976 -0.6323
 8637SOL     OW37369   1.617   2.019   7.383 -0.2598  0.6894 -0.3545
 8637SOL    HW137370   1.554   1.948   7.393  0.4744 -0.1238 -1.5024
 8637SOL    HW237371   1.690   1.969   7.345 -0.7099 -0.0458 -0.2347
 8638SOL     OW37372   0.642   3.277   5.771  0.3571 -0.4673  0.0988
 8638SOL    HW137373   0.641   3.278   5.867  1.8346 -1.9105  0.1158
 8638SOL    HW237374   0.715   3.224   5.739 -0.8396 -2.1574  0.1665
 8639SOL     OW37375   0.676   0.597  14.817  0.0626 -0.2194  0.2842
 8639SOL    HW137376   0.752   0.635  14.773  0.7258  0.1470  1.7559
 8639SOL    HW237377   0.665   0.646  14.898  1.2372  4.0482 -2.1192
 8640SOL     OW37378   1.333   2.130  13.970  0.1658 -0.2967  0.0882
 8640SOL    HW137379   1.272   2.065  14.006  0.9585 -1.7832 -1.3090
 8640SOL    HW237380   1.304   2.207  14.019  0.5064  0.2569 -0.5731
 8641SOL     OW37381   2.241   3.255   2.373  1.3604  0.1573 -0.0976
 8641SOL    HW137382   2.315   3.249   2.312  0.0628  0.6195 -1.7060
 8641SOL    HW237383   2.265   3.345   2.394 -0.0596  0.3129  0.8329
 8642SOL     OW37384   2.042   4.086   0.867  0.0864 -0.2428 -0.0529
 8642SOL    HW137385   2.120   4.045   0.905  0.4955 -1.2721 -2.0157
 8642SOL    HW237386   2.023   4.024   0.797 -0.4766  1.6398 -1.5572
 8643SOL     OW37387   4.545   4.603   7.434  0.4855  0.2102 -0.6766
 8643SOL    HW137388   4.512   4.685   7.472 -0.2574 -0.8615  0.9883
 8643SOL    HW237389   4.594   4.573   7.510  2.1409  1.8428 -1.0703
 8644SOL     OW37390   3.194   3.702  11.730 -0.0238  0.1698 -0.1274
 8644SOL    HW137391   3.200   3.651  11.810 -0.0265  1.0458  0.4372
 8644SOL    HW237392   3.257   3.669  11.666  1.8768  0.6838  1.5037
 8645SOL     OW37393   4.717   4.569  10.332  0.2313 -0.3845  0.0604
 8645SOL    HW137394   0.077   4.535  10.360 -0.4642 -0.6530  1.7792
 8645SOL    HW237395   4.664   4.546  10.407 -0.1232 -1.5200 -0.5424
 8646SOL     OW37396   3.931   4.099   7.926  0.3481 -0.1645  0.3047
 8646SOL    HW137397   3.900   4.029   7.869 -0.1307 -0.6071  1.1059
 8646SOL    HW237398   4.026   4.090   7.913  0.1316  0.1930 -1.5800
 8647SOL     OW37399   2.260   2.667   0.366  0.0001 -0.3593  0.5311
 8647SOL    HW137400   2.219   2.594   0.412  0.1218 -0.9529 -0.3017
 8647SOL    HW237401   2.196   2.737   0.378 -1.8593 -1.9179 -0.3867
 8648SOL     OW37402   3.611   1.658  17.448  0.0634  0.1399  0.7024
 8648SOL    HW137403   3.562   1.599  17.391  1.2495  0.5370 -0.6960
 8648SOL    HW237404   3.546   1.715  17.490  1.9993  1.9887  1.1893
 8649SOL     OW37405   2.669   0.305  12.436 -0.1175 -0.2489 -0.2789
 8649SOL    HW137406   2.670   0.213  12.413 -0.6251 -0.3548  0.1103
 8649SOL    HW237407   2.619   0.351  12.369 -0.1611  0.2329  0.0754
 8650SOL     OW37408   2.698   3.598   8.282 -0.0979  0.2842  0.1052
 8650SOL    HW137409   2.732   3.563   8.199 -0.6946 -1.5893  0.6529
 8650SOL    HW237410   2.727   3.540   8.352  0.4499  2.1396  1.4031
 8651SOL     OW37411   2.556   2.634  13.943 -0.6776  0.0858 -0.6771
 8651SOL    HW137412   2.501   2.706  13.913  0.6344  0.6192 -1.8061
 8651SOL    HW237413   2.590   2.608  13.857  0.5472  0.5376 -0.3246
 8652SOL     OW37414   3.000   1.964  13.012 -0.2966 -0.0875  0.0103
 8652SOL    HW137415   2.946   2.034  12.974  1.1561  0.3811 -1.1724
 8652SOL    HW237416   3.032   2.002  13.094  0.6329  0.2529 -0.5124
 8653SOL     OW37417   1.751   1.472   7.923 -0.4691 -0.8073 -0.1368
 8653SOL    HW137418   1.722   1.429   8.004  0.3863  1.3235  1.2901
 8653SOL    HW237419   1.805   1.406   7.881  1.1583  1.5672 -1.7658
 8654SOL     OW37420   3.617   2.544   0.733  0.5761  0.1202  0.4429
 8654SOL    HW137421   3.616   2.521   0.640  1.7995 -0.9749  0.7083
 8654SOL    HW237422   3.559   2.472   0.755  1.2122 -0.1917  1.0819
 8655SOL     OW37423   0.744   2.666   4.636  0.0874 -0.4438 -0.4615
 8655SOL    HW137424   0.803   2.712   4.576 -2.2736 -0.9028 -3.1107
 8655SOL    HW237425   0.687   2.738   4.662  1.1678  0.2899 -0.1089
 8656SOL     OW37426   4.174   2.529   1.897  0.0180 -0.1277  0.1645
 8656SOL    HW137427   4.230   2.465   1.941  1.3145  0.5646 -0.4782
 8656SOL    HW237428   4.244   2.593   1.885 -0.0312 -0.0354  0.3819
 8657SOL     OW37429   4.406   0.618   7.374 -0.4623 -0.6151  0.3375
 8657SOL    HW137430   4.326   0.607   7.323 -0.5141  2.4264 -0.2776
 8657SOL    HW237431   4.410   0.543   7.433  0.8091 -1.2566 -0.5808
 8658SOL     OW37432   0.133   3.389   6.496  0.8359 -0.0676  0.4675
 8658SOL    HW137433   0.229   3.388   6.495  0.8333  1.1428 -0.7511
 8658SOL    HW237434   0.122   3.433   6.580  1.3072  1.2318 -0.1542
 8659SOL     OW37435   2.607   3.255   7.775  0.0913 -0.2106  0.1964
 8659SOL    HW137436   2.661   3.258   7.854  0.7017  4.0616 -0.4040
 8659SOL    HW237437   2.589   3.162   7.765  0.4764 -0.2320 -0.2762
 8660SOL     OW37438   2.853   4.703   4.376  0.4218 -0.4841  0.3326
 8660SOL    HW137439   2.819   4.636   4.436 -1.0462  0.1097  0.1531
 8660SOL    HW237440   2.941   4.708   4.414 -0.0529 -1.8150  1.6253
 8661SOL     OW37441   4.419   1.271   4.879 -0.3574 -0.1090  0.0434
 8661SOL    HW137442   4.378   1.299   4.797  0.4260  0.4208 -0.1670
 8661SOL    HW237443   4.347   1.288   4.940  0.6257  0.5467  1.0449
 8662SOL     OW37444   1.018   0.217   5.400 -0.5247  0.3763 -0.2035
 8662SOL    HW137445   1.007   0.138   5.453 -3.1684  0.1727 -1.0269
 8662SOL    HW237446   1.111   0.232   5.415 -0.2863 -1.9228  0.5751
 8663SOL     OW37447   3.879   4.002   4.040 -0.5027  0.1432  0.4481
 8663SOL    HW137448   3.867   3.909   4.056 -1.9959 -0.0277 -1.5539
 8663SOL    HW237449   3.927   4.008   3.957  0.3811 -0.4216  0.9209
 8664SOL     OW37450   3.302   2.259   2.824 -0.0009  0.8136 -0.8073
 8664SOL    HW137451   3.393   2.282   2.840  0.0781 -0.8276  1.0522
 8664SOL    HW237452   3.293   2.252   2.729  0.5208 -2.1448 -0.6419
 8665SOL     OW37453   4.534   3.606   8.663  0.1225  0.4764 -0.3018
 8665SOL    HW137454   4.629   3.592   8.662 -0.0148 -0.5606  1.0852
 8665SOL    HW237455   4.513   3.617   8.571 -0.9145 -0.0531 -0.1249
 8666SOL     OW37456   1.712   3.827   2.964  0.0888  0.0883  0.1099
 8666SOL    HW137457   1.659   3.904   2.947 -1.5106 -1.0623 -0.0669
 8666SOL    HW237458   1.699   3.822   3.059 -1.4724 -0.5297 -0.1430
 8667SOL     OW37459   1.461   4.218   4.657 -0.0562 -0.0513 -0.5562
 8667SOL    HW137460   1.542   4.222   4.606  0.4701  0.3149  0.3008
 8667SOL    HW237461   1.496   4.200   4.745  0.2502 -0.0946 -0.6888
 8668SOL     OW37462   3.085   0.264   7.455  0.1580 -0.4556 -0.3083
 8668SOL    HW137463   3.050   0.281   7.367  1.1069  2.8009 -0.0699
 8668SOL    HW237464   3.037   0.327   7.509 -1.2353 -2.4516  0.7582
 8669SOL     OW37465   1.798   1.912   6.941 -0.1673 -0.3291  0.4366
 8669SOL    HW137466   1.731   1.974   6.968  0.0037 -0.1542  0.4631
 8669SOL    HW237467   1.809   1.868   7.025  0.5994 -1.6302 -0.3503
 8670SOL     OW37468   3.479   1.738   5.801 -0.8048  0.0148 -0.6573
 8670SOL    HW137469   3.451   1.792   5.875  0.9358 -1.5056  1.0861
 8670SOL    HW237470   3.566   1.778   5.792 -1.1753  1.0753  0.4408
 8671SOL     OW37471   3.931   4.530   3.682  0.3605  0.8560 -0.3878
 8671SOL    HW137472   4.004   4.565   3.733  1.2960  0.6354 -1.5559
 8671SOL    HW237473   3.936   4.437   3.702 -0.8306  0.9764  0.4645
 8672SOL     OW37474   4.409   3.134   1.598  0.3411  0.5572  0.6090
 8672SOL    HW137475   4.365   3.058   1.559  1.0859  0.7956 -0.6917
 8672SOL    HW237476   4.398   3.119   1.692 -0.4921  1.6609  0.7014
 8673SOL     OW37477   4.228   2.381   7.457  0.1977 -0.3186  0.2457
 8673SOL    HW137478   4.236   2.357   7.549  0.3138 -1.5805 -0.0911
 8673SOL    HW237479   4.158   2.446   7.470  0.6770  0.4464 -1.0560
 8674SOL     OW37480   0.486   3.917  11.148 -0.3882 -0.1793  0.0421
 8674SOL    HW137481   0.459   4.006  11.123  2.6066  0.8535  0.4317
 8674SOL    HW237482   0.545   3.949  11.217 -0.0715 -0.8946  0.1017
 8675SOL     OW37483   1.192   3.899   0.901  0.4029 -0.4159  0.3891
 8675SOL    HW137484   1.285   3.898   0.925  0.0620  1.4451  1.7717
 8675SOL    HW237485   1.191   3.828   0.836 -1.0148 -0.5588  0.5613
 8676SOL     OW37486   2.330   3.848   5.426 -0.1875  0.0227  0.0334
 8676SOL    HW137487   2.252   3.814   5.382 -0.3104 -1.4243  1.3505
 8676SOL    HW237488   2.352   3.774   5.482 -1.4471  0.1684  0.7251
 8677SOL     OW37489   2.222   3.319   8.437  0.2396 -0.1320  0.2508
 8677SOL    HW137490   2.179   3.404   8.439  2.7850  1.2006 -2.4886
 8677SOL    HW237491   2.311   3.340   8.409  0.6577 -1.3986  0.6166
 8678SOL     OW37492   2.259   1.796  15.970 -0.6463 -0.6110 -0.1847
 8678SOL    HW137493   2.325   1.832  15.910  0.2232 -2.6554 -0.4532
 8678SOL    HW237494   2.201   1.867  15.997  2.9184  1.6021  1.7328
 8679SOL     OW37495   1.244   2.113   8.032 -0.2193  0.4552  0.2027
 8679SOL    HW137496   1.239   2.175   8.105 -1.5338  0.8051 -0.1874
 8679SOL    HW237497   1.227   2.164   7.954  0.8937 -0.3571 -0.5600
 8680SOL     OW37498   0.280   1.604   0.628  0.3051  0.4938  0.4270
 8680SOL    HW137499   0.220   1.563   0.565  0.7867  1.7167 -0.8201
 8680SOL    HW237500   0.363   1.582   0.587 -0.2812 -1.4282  0.2924
 8681SOL     OW37501   4.107   1.115  12.103 -0.8551 -0.0830  0.0496
 8681SOL    HW137502   4.061   1.062  12.169 -0.3224 -0.6483 -0.0336
 8681SOL    HW237503   4.131   1.043  12.044 -0.3874 -0.0226  0.1709
 8682SOL     OW37504   1.037   3.230   0.825 -0.2057  0.0840  0.1726
 8682SOL    HW137505   1.015   3.258   0.736 -0.5191  0.5828  0.4032
 8682SOL    HW237506   1.119   3.183   0.810 -0.4458  0.1688 -1.3553
 8683SOL     OW37507   4.212   2.289  13.589  0.0084  0.7285  0.1680
 8683SOL    HW137508   4.170   2.370  13.619 -0.8496  1.1029 -2.0360
 8683SOL    HW237509   4.252   2.328  13.512 -0.3016 -0.6436 -0.6887
 8684SOL     OW37510   2.695   0.214  11.853  0.2092 -0.5964  0.2988
 8684SOL    HW137511   2.713   0.237  11.944  0.4821  0.4691 -0.0218
 8684SOL    HW237512   2.766   0.152  11.834  0.4547 -0.2811  0.1916
 8685SOL     OW37513   0.023   0.141   8.165 -0.5385 -0.1857 -0.0939
 8685SOL    HW137514   0.091   0.074   8.173  0.3620  0.8324  0.7809
 8685SOL    HW237515   0.057   0.209   8.223  1.1624  0.4436 -1.8431
 8686SOL     OW37516   1.777   0.648   6.805  0.0153 -0.1527 -0.2496
 8686SOL    HW137517   1.710   0.601   6.756 -0.6983  1.0000 -0.3928
 8686SOL    HW237518   1.724   0.677   6.879 -1.2344 -0.5524 -0.9874
 8687SOL     OW37519   1.035   0.396   7.962  0.5981 -0.1182 -0.4557
 8687SOL    HW137520   0.966   0.344   8.004  0.3149 -1.2619 -2.3456
 8687SOL    HW237521   1.055   0.465   8.026  1.7841 -0.9259  0.0527
 8688SOL     OW37522   0.531   1.507  12.372 -0.2458 -0.4066  0.0122
 8688SOL    HW137523   0.535   1.505  12.276  0.9968  1.4880  0.0399
 8688SOL    HW237524   0.442   1.542  12.379  0.7773  2.3211 -0.5254
 8689SOL     OW37525   2.625   3.076   2.267 -0.6485  0.3829  0.6182
 8689SOL    HW137526   2.553   3.130   2.235 -0.1099  0.7284 -0.0241
 8689SOL    HW237527   2.588   3.027   2.340 -2.9588 -2.0726 -2.1993
 8690SOL     OW37528   0.006   1.469  14.154  0.1571  0.2610  0.5601
 8690SOL    HW137529   0.062   1.394  14.173  0.5345  0.7612  1.4315
 8690SOL    HW237530   0.067   1.540  14.173 -1.1555  1.2787  0.9930
 8691SOL     OW37531   2.022   1.875  15.130  0.2254 -0.0343 -0.1540
 8691SOL    HW137532   2.113   1.851  15.112 -0.2165 -2.0946  0.3112
 8691SOL    HW237533   1.998   1.845  15.218  0.1625 -0.8044 -0.4393
 8692SOL     OW37534   2.193   0.265   5.626 -0.2225 -0.3876 -0.1281
 8692SOL    HW137535   2.207   0.337   5.687  0.8116 -0.3434 -0.4153
 8692SOL    HW237536   2.102   0.277   5.600  0.1126 -1.0092 -1.5975
 8693SOL     OW37537   3.670   3.104   5.945  0.2662 -0.3901 -0.5077
 8693SOL    HW137538   3.725   3.102   6.024 -1.7103 -0.2762  0.8771
 8693SOL    HW237539   3.655   3.198   5.949  1.1721 -0.2028 -1.5835
 8694SOL     OW37540   1.730   2.201   2.468 -0.4343 -0.1813  0.3222
 8694SOL    HW137541   1.724   2.105   2.467  2.3500 -0.3353 -1.1351
 8694SOL    HW237542   1.691   2.228   2.385  0.3926 -0.5543 -0.1983
 8695SOL     OW37543   0.485   4.105  10.322  0.2332  0.0969 -0.2290
 8695SOL    HW137544   0.415   4.166  10.342  0.9452  0.7619  0.2009
 8695SOL    HW237545   0.542   4.103  10.399 -1.0701  0.1231  0.7376
 8696SOL     OW37546   3.942   3.626   2.707  0.2786  0.4170 -0.3676
 8696SOL    HW137547   4.010   3.684   2.742 -1.5242  1.2924  1.6697
 8696SOL    HW237548   3.985   3.540   2.714 -1.6478 -0.5212 -0.1665
 8697SOL     OW37549   1.151   2.922  13.356 -0.0212 -0.2914 -0.0403
 8697SOL    HW137550   1.136   2.924  13.261  0.2520 -0.9179 -0.0966
 8697SOL    HW237551   1.085   2.983  13.389  2.2562  2.7109 -1.0384
 8698SOL     OW37552   3.638   3.095  10.413 -0.1026 -0.3659  0.1025
 8698SOL    HW137553   3.575   3.152  10.367  2.1779  0.8971 -1.4639
 8698SOL    HW237554   3.628   3.128  10.502 -0.9593  4.2939 -1.6979
 8699SOL     OW37555   3.075   0.470   4.362  0.4756  0.0861 -0.0623
 8699SOL    HW137556   3.031   0.510   4.437  0.8221 -1.2743  0.8667
 8699SOL    HW237557   3.136   0.414   4.410  1.5008  0.4673 -0.9330
 8700SOL     OW37558   3.999   3.177   8.891  0.0786 -0.6886 -0.6689
 8700SOL    HW137559   3.935   3.232   8.846 -0.6952  0.1812  1.4548
 8700SOL    HW237560   4.081   3.220   8.868 -2.4046  2.7300 -3.1084
 8701SOL     OW37561   1.912   3.639   6.453 -0.3578 -0.5609  0.4576
 8701SOL    HW137562   1.895   3.718   6.504 -2.2077 -0.8391  0.2697
 8701SOL    HW237563   1.883   3.572   6.515 -1.2323 -0.7747 -0.1904
 8702SOL     OW37564   0.998   3.079   3.239 -0.3128 -1.0742 -0.9892
 8702SOL    HW137565   1.052   3.074   3.318  1.6566 -0.7242 -2.3274
 8702SOL    HW237566   1.020   3.165   3.205 -0.1791 -0.4502  0.6934
 8703SOL     OW37567   4.104   0.685   2.729  0.3108  0.2160  0.4096
 8703SOL    HW137568   4.129   0.621   2.663 -1.2950 -0.0353  0.0462
 8703SOL    HW237569   4.183   0.740   2.728  0.1743  0.4225  0.7973
 8704SOL     OW37570   1.914   1.657   3.504 -0.0481  0.5962  0.8777
 8704SOL    HW137571   1.894   1.584   3.562  0.1740 -0.6795 -0.6572
 8704SOL    HW237572   1.828   1.663   3.460 -0.7232  2.9273  2.4832
 8705SOL     OW37573   4.692   3.194   5.284  0.3067 -0.5340 -0.0254
 8705SOL    HW137574   4.616   3.233   5.328  0.8805  0.2588  0.2674
 8705SOL    HW237575   4.660   3.107   5.261 -1.3578 -0.2624  1.2349
 8706SOL     OW37576   2.268   0.639   1.037 -0.3075  0.1043  0.0756
 8706SOL    HW137577   2.255   0.721   0.991  0.8745  0.6447  0.7128
 8706SOL    HW237578   2.358   0.625   1.008 -0.1621 -1.7579  1.3560
 8707SOL     OW37579   1.702   0.240   0.052 -0.0037 -0.3657 -0.6021
 8707SOL    HW137580   1.712   0.307  17.684 -1.0617  1.3020  0.9163
 8707SOL    HW237581   1.608   0.222   0.045 -0.0426 -0.1155 -0.7002
 8708SOL     OW37582   3.019   1.714   3.799  0.1751 -0.5961  0.0540
 8708SOL    HW137583   3.077   1.712   3.723  1.6947 -1.2132  1.2285
 8708SOL    HW237584   2.963   1.783   3.765 -0.5644 -0.3539  1.7950
 8709SOL     OW37585   1.789   3.478   2.604 -0.8087 -0.6120  0.7932
 8709SOL    HW137586   1.829   3.553   2.562 -0.7342 -0.6597  0.7795
 8709SOL    HW237587   1.838   3.407   2.563 -1.9728 -1.3501  0.6560
 8710SOL     OW37588   3.483   0.186  12.339 -0.0188 -0.1238 -0.2998
 8710SOL    HW137589   3.459   0.278  12.327  0.1355  0.0689  0.8260
 8710SOL    HW237590   3.453   0.161  12.427 -0.8673 -0.2541 -0.6227
 8711SOL     OW37591   0.522   0.513   5.312 -0.3728 -0.8064 -0.4851
 8711SOL    HW137592   0.435   0.530   5.277 -0.5151  1.9926  1.2259
 8711SOL    HW237593   0.493   0.469   5.392 -0.3994  0.9764  0.4788
 8712SOL     OW37594   3.690   1.263   6.206 -0.0118  0.2544 -0.4446
 8712SOL    HW137595   3.647   1.321   6.144 -0.8808 -0.4576 -0.5173
 8712SOL    HW237596   3.677   1.311   6.288 -0.9616 -0.0405 -0.4251
 8713SOL     OW37597   3.708   4.201   5.222  0.0938 -0.4513 -0.5260
 8713SOL    HW137598   3.642   4.195   5.153  0.3580 -1.9327 -0.6620
 8713SOL    HW237599   3.657   4.184   5.302 -2.2726  0.7312 -1.7927
 8714SOL     OW37600   4.139   3.396  15.116 -0.1072  0.5177  0.4201
 8714SOL    HW137601   4.128   3.313  15.162  1.6600 -0.7811 -1.4791
 8714SOL    HW237602   4.207   3.373  15.052  0.2239  0.8337  0.6638
 8715SOL     OW37603   2.497   0.966   9.264 -1.0652 -0.0721  0.0883
 8715SOL    HW137604   2.579   1.013   9.250 -0.5462 -1.3547 -1.2352
 8715SOL    HW237605   2.494   0.965   9.360  0.0981  2.2539  0.1406
 8716SOL     OW37606   3.144   3.717   4.741  0.1710 -0.5346  0.8322
 8716SOL    HW137607   3.060   3.681   4.713  0.4418 -1.1168  0.7582
 8716SOL    HW237608   3.186   3.726   4.655  0.6800  0.1387  1.1509
 8717SOL     OW37609   3.327   0.371   2.871  0.1840 -0.0786 -0.0018
 8717SOL    HW137610   3.398   0.330   2.920  0.0083  0.2180  0.5129
 8717SOL    HW237611   3.337   0.325   2.788  3.7066 -2.0036  1.4775
 8718SOL     OW37612   1.118   4.251   3.103 -0.4298 -0.4521 -0.3057
 8718SOL    HW137613   1.138   4.317   3.168  0.3978 -0.9780 -0.0204
 8718SOL    HW237614   1.029   4.223   3.123  0.6459 -2.2450  1.9851
 8719SOL     OW37615   3.357   2.209   3.669  0.2228  0.4596  0.1507
 8719SOL    HW137616   3.359   2.257   3.587  0.1821  1.0834  0.5142
 8719SOL    HW237617   3.265   2.223   3.695 -0.4101 -1.1518 -1.2337
 8720SOL     OW37618   3.001   4.426  15.288 -0.5012 -0.0694 -0.4205
 8720SOL    HW137619   3.041   4.349  15.249  0.5606  0.7297 -0.9239
 8720SOL    HW237620   2.923   4.384  15.322  0.6325 -0.6243  1.5003
 8721SOL     OW37621   3.369   3.322   5.325  0.0759  0.1501  0.2640
 8721SOL    HW137622   3.406   3.362   5.404  2.3573  1.3066 -1.3820
 8721SOL    HW237623   3.375   3.229   5.346  2.9937  0.4594  0.8539
 8722SOL     OW37624   0.253   0.085  14.847  0.0601  0.4395  0.0737
 8722SOL    HW137625   0.301   0.108  14.767  1.4838 -0.9403  0.5197
 8722SOL    HW237626   0.171   0.094  14.799 -0.0596  0.2149  0.2384
 8723SOL     OW37627   3.834   0.842   8.754  0.1569 -0.0255 -0.0354
 8723SOL    HW137628   3.751   0.860   8.710 -0.2980 -0.3938  0.6763
 8723SOL    HW237629   3.827   0.867   8.846 -1.9566 -2.9132  0.5656
 8724SOL     OW37630   0.008   2.450   8.561 -0.2140 -0.0992  0.2570
 8724SOL    HW137631   0.011   2.363   8.601 -0.2720 -0.7233 -1.1051
 8724SOL    HW237632   0.055   2.500   8.628  1.7888 -3.1141  1.1386
 8725SOL     OW37633   1.555   2.299  13.802  0.0624 -0.3914  0.3046
 8725SOL    HW137634   1.631   2.242  13.799  2.7101  3.1713  0.1582
 8725SOL    HW237635   1.590   2.378  13.761 -0.7907 -0.4511 -0.5443
 8726SOL     OW37636   4.167   3.001  17.039 -0.2624  0.4848  0.1554
 8726SOL    HW137637   4.226   3.070  17.069 -0.2225 -0.4682  2.2146
 8726SOL    HW237638   4.087   3.019  17.089  0.7266  2.2017  1.1222
 8727SOL     OW37639   3.395   1.033   7.403  0.6430  0.3360  0.0281
 8727SOL    HW137640   3.426   1.035   7.493 -0.5877 -2.0098  0.4786
 8727SOL    HW237641   3.323   1.095   7.408 -0.7299 -1.2899  0.2481
 8728SOL     OW37642   4.260   1.029  15.117 -0.2469 -0.3165 -0.5554
 8728SOL    HW137643   4.273   0.935  15.107 -0.0541 -0.2582 -0.8731
 8728SOL    HW237644   4.330   1.060  15.060 -1.0090  0.9673 -0.7923
 8729SOL     OW37645   0.487   0.466  17.006 -0.0326 -0.0602  0.1331
 8729SOL    HW137646   0.548   0.407  16.962  1.3842  0.4473  1.4437
 8729SOL    HW237647   0.457   0.516  16.929  0.7454 -0.5893 -0.5106
 8730SOL     OW37648   2.999   4.218  12.513  0.3370 -0.0023  0.0415
 8730SOL    HW137649   2.946   4.168  12.451 -0.6667  1.1753 -0.0365
 8730SOL    HW237650   3.086   4.197  12.479  1.5631  1.4821  2.2623
 8731SOL     OW37651   2.374   2.459   2.514 -0.2929  0.3984  0.5422
 8731SOL    HW137652   2.280   2.457   2.531 -0.2996 -1.7782  0.2420
 8731SOL    HW237653   2.374   2.489   2.423 -1.9573  2.6859  1.2774
 8732SOL     OW37654   0.764   4.424  17.235  0.0825  0.1604  0.0463
 8732SOL    HW137655   0.795   4.510  17.264 -0.1023  1.1720 -2.7110
 8732SOL    HW237656   0.693   4.398  17.294  0.9075 -1.7804  0.1870
 8733SOL     OW37657   2.988   1.493   4.906 -0.4872 -0.1681  0.4672
 8733SOL    HW137658   3.080   1.474   4.922  0.0812 -1.1851 -3.8880
 8733SOL    HW237659   2.998   1.493   4.811 -0.9570 -1.4805  0.4243
 8734SOL     OW37660   2.899   0.271   7.230 -0.3408 -0.1053 -0.1301
 8734SOL    HW137661   2.875   0.188   7.190  1.2054  0.1418 -1.5963
 8734SOL    HW237662   2.947   0.301   7.153 -1.4002 -2.2257 -1.6111
 8735SOL     OW37663   0.523   0.558   3.618 -0.1755  0.1905 -0.3573
 8735SOL    HW137664   0.580   0.625   3.580  0.7581  0.7498  2.0237
 8735SOL    HW237665   0.541   0.488   3.556 -0.9530  0.0210 -0.3972
 8736SOL     OW37666   1.717   4.248  10.397  0.0357  0.2903  0.7138
 8736SOL    HW137667   1.676   4.164  10.379  1.3406  0.3874 -2.7348
 8736SOL    HW237668   1.690   4.261  10.488  2.7075  3.0211  1.1410
 8737SOL     OW37669   2.664   1.281   5.083  0.1161 -0.2541 -0.4787
 8737SOL    HW137670   2.647   1.339   5.009 -0.0017 -0.4597 -0.6137
 8737SOL    HW237671   2.589   1.298   5.140  2.5783 -0.6310  2.8551
 8738SOL     OW37672   0.374   3.159   5.757  0.1507 -0.4155  0.2390
 8738SOL    HW137673   0.395   3.085   5.701  0.4871  0.2958 -0.5892
 8738SOL    HW237674   0.461   3.190   5.782 -0.0089 -0.5489  0.9554
 8739SOL     OW37675   1.814   1.910   8.886  0.0567  0.4700 -0.5617
 8739SOL    HW137676   1.780   1.956   8.808 -1.4149  1.6215  0.7581
 8739SOL    HW237677   1.851   1.980   8.940 -0.6283  1.5524 -1.4769
 8740SOL     OW37678   3.740   4.170   9.195 -0.2568 -0.0260 -0.0410
 8740SOL    HW137679   3.706   4.248   9.151  2.3225  0.5139 -1.1116
 8740SOL    HW237680   3.658   4.132   9.226  0.6965 -0.9663  1.3259
 8741SOL     OW37681   1.637   2.487  11.720  0.6486  0.5802  0.7893
 8741SOL    HW137682   1.702   2.549  11.752  1.1249  0.4684  0.0508
 8741SOL    HW237683   1.681   2.405  11.742  1.4386  0.9383  0.5570
 8742SOL     OW37684   4.666   3.872  11.123 -0.1624  0.0395 -0.0398
 8742SOL    HW137685   0.031   3.893  11.096 -0.3888 -2.4261 -2.7184
 8742SOL    HW237686   4.662   3.784  11.085 -1.1230 -1.0724  2.6983
 8743SOL     OW37687   3.205   1.211   7.426 -0.1722  0.2499  0.1685
 8743SOL    HW137688   3.168   1.225   7.513 -2.3657  1.3084 -0.9224
 8743SOL    HW237689   3.256   1.290   7.408 -0.8856  1.3477  2.9950
 8744SOL     OW37690   3.406   3.320   6.424  0.1038  0.2075  0.2604
 8744SOL    HW137691   3.400   3.410   6.455  2.0144  1.2130 -2.2530
 8744SOL    HW237692   3.450   3.339   6.341  1.5932  2.7753  1.6382
 8745SOL     OW37693   1.704   1.848  10.533  0.0172  0.3864  0.4770
 8745SOL    HW137694   1.789   1.806  10.543  0.0241  0.4060  0.5016
 8745SOL    HW237695   1.684   1.814  10.446  2.2963  4.2487 -1.5855
 8746SOL     OW37696   4.293   2.982   8.967  0.1810  0.3206  0.4002
 8746SOL    HW137697   4.253   3.066   8.992  1.8919  1.3031 -0.2179
 8746SOL    HW237698   4.335   2.948   9.046 -1.6613 -0.8902  0.8798
 8747SOL     OW37699   4.059   1.647   3.798  0.3318  0.3909 -0.4170
 8747SOL    HW137700   4.121   1.610   3.861  0.5402  0.6661 -0.4631
 8747SOL    HW237701   3.992   1.577   3.797  0.5470  0.1906 -0.8329
 8748SOL     OW37702   4.018   4.098   4.258  0.7208 -0.1026  0.0629
 8748SOL    HW137703   3.998   4.055   4.175  0.4105  3.1907 -1.5492
 8748SOL    HW237704   4.112   4.091   4.241 -0.1961 -1.8901 -4.4105
 8749SOL     OW37705   4.416   3.758   4.935 -0.3445 -0.8301  0.1592
 8749SOL    HW137706   4.393   3.844   4.901  0.6521 -1.3990 -1.9213
 8749SOL    HW237707   4.336   3.740   4.984 -1.8084  1.3946 -1.4342
 8750SOL     OW37708   1.263   2.785   4.754 -0.2552  0.0872 -0.4523
 8750SOL    HW137709   1.215   2.856   4.797  0.7165  0.8928 -0.6929
 8750SOL    HW237710   1.351   2.803   4.789  0.8325 -3.8865 -1.1583
 8751SOL     OW37711   2.484   4.614  16.473 -0.4877  0.3119  0.8784
 8751SOL    HW137712   2.510   4.706  16.475  0.5293  0.0956 -2.2195
 8751SOL    HW237713   2.474   4.608  16.378 -1.2812 -0.8669  1.0428
 8752SOL     OW37714   4.322   3.608   5.903 -0.5201 -0.3335 -0.3101
 8752SOL    HW137715   4.384   3.559   5.850  2.4197  0.1064  2.7491
 8752SOL    HW237716   4.374   3.677   5.944 -0.7535 -0.9298  1.0003
 8753SOL     OW37717   1.305   3.108   1.701  0.1192 -0.2002 -0.0787
 8753SOL    HW137718   1.385   3.087   1.653  1.2804  1.1190  1.2862
 8753SOL    HW237719   1.295   3.022   1.742  0.2466  0.0070  0.3869
 8754SOL     OW37720   2.092   1.839  12.615 -0.3542  0.0505 -0.3145
 8754SOL    HW137721   2.172   1.866  12.660  0.1890 -3.9624  1.1417
 8754SOL    HW237722   2.061   1.920  12.575 -0.9253 -0.5268 -1.0496
 8755SOL     OW37723   0.967   3.544   0.845 -0.5038  0.4100 -0.1170
 8755SOL    HW137724   1.027   3.475   0.816 -0.2872 -0.5551  2.6176
 8755SOL    HW237725   0.883   3.512   0.810  0.3047 -1.3435 -0.4431
 8756SOL     OW37726   4.514   2.962  14.168  0.3937  0.4262 -0.0208
 8756SOL    HW137727   4.519   2.979  14.262  0.9258 -1.3587  0.2812
 8756SOL    HW237728   4.567   3.025  14.120 -0.0464 -1.3393 -2.8734
 8757SOL     OW37729   2.664   3.435  13.514  0.1165 -0.5215  0.5299
 8757SOL    HW137730   2.759   3.426  13.501 -0.0379 -1.5403  0.0743
 8757SOL    HW237731   2.660   3.435  13.610 -1.4398 -0.9324  0.4691
 8758SOL     OW37732   1.985   3.670   1.807 -0.1475  0.2702  0.2866
 8758SOL    HW137733   2.074   3.645   1.831 -0.3267 -1.2834 -0.6946
 8758SOL    HW237734   1.990   3.763   1.830  2.1946  0.0640  0.6352
 8759SOL     OW37735   2.851   2.082   8.600  0.2708  0.3428  0.1918
 8759SOL    HW137736   2.921   2.030   8.639  2.8231  1.9601 -2.2483
 8759SOL    HW237737   2.897   2.117   8.523  3.1214  1.0220  2.2179
 8760SOL     OW37738   4.092   2.891   7.194  0.5295 -0.2830  0.7795
 8760SOL    HW137739   4.098   2.959   7.128  0.4590 -2.0140 -0.9986
 8760SOL    HW237740   4.137   2.817   7.154  0.4624  0.7346 -1.1815
 8761SOL     OW37741   1.898   0.484   8.947  0.2354  0.0115 -0.5873
 8761SOL    HW137742   1.929   0.397   8.971  3.3006  1.1101 -0.4806
 8761SOL    HW237743   1.947   0.541   9.006  0.6791 -0.0181 -0.9239
 8762SOL     OW37744   1.543   4.720   6.066 -0.4117 -0.5607  0.6304
 8762SOL    HW137745   1.555   4.700   5.973  1.9292  1.9603  0.3859
 8762SOL    HW237746   1.485   4.650   6.096 -3.1392  0.5569 -2.0378
 8763SOL     OW37747   3.096   0.107   5.049 -0.7418 -0.1867 -0.5031
 8763SOL    HW137748   3.050   0.094   5.132  0.3004 -0.8197 -0.0211
 8763SOL    HW237749   3.116   0.199   5.064  2.5558 -0.7912 -1.1413
 8764SOL     OW37750   1.944   3.931   1.857 -0.7313 -0.5462 -1.0506
 8764SOL    HW137751   1.966   3.987   1.783 -1.3479 -0.2300 -0.9848
 8764SOL    HW237752   1.849   3.921   1.858 -0.8260  0.5156 -0.3608
 8765SOL     OW37753   4.018   4.509   7.285 -0.2141 -0.2205  0.0704
 8765SOL    HW137754   4.015   4.541   7.195 -1.4945  0.9499  0.5349
 8765SOL    HW237755   4.098   4.545   7.324 -1.1051 -0.1892  1.8604
 8766SOL     OW37756   1.689   0.627  14.283 -0.1416 -0.2885  0.3880
 8766SOL    HW137757   1.653   0.620  14.195 -0.5902  0.3850  0.5224
 8766SOL    HW237758   1.610   0.608  14.333 -0.9771 -1.6277 -1.4254
 8767SOL     OW37759   0.949   3.600  16.918 -0.1763 -0.4699  0.0239
 8767SOL    HW137760   0.874   3.658  16.904  0.3057  0.8515  2.7196
 8767SOL    HW237761   0.913   3.530  16.972 -1.7549  1.9147  2.1366
 8768SOL     OW37762   3.776   2.053   3.996  0.8218  0.0843 -0.0544
 8768SOL    HW137763   3.708   1.999   3.956  0.7572 -0.4929  0.8264
 8768SOL    HW237764   3.746   2.143   4.007  0.2932 -0.2949  1.5754
 8769SOL     OW37765   2.139   3.360  13.275  0.2942  0.1518 -0.7666
 8769SOL    HW137766   2.081   3.312  13.214 -3.7186  3.5290  0.4126
 8769SOL    HW237767   2.219   3.374  13.224  0.2190 -1.4385 -1.3429
 8770SOL     OW37768   3.328   0.981  16.484  0.1553  0.6124 -0.2217
 8770SOL    HW137769   3.346   0.996  16.391 -1.0520  0.8105 -0.4136
 8770SOL    HW237770   3.323   0.886  16.495  0.5560  0.7049  0.7694
 8771SOL     OW37771   1.197   3.779   0.005 -0.2042  0.2916 -0.1561
 8771SOL    HW137772   1.205   3.858  17.650 -1.5443  0.5926  0.0969
 8771SOL    HW237773   1.184   3.812   0.093  1.0051 -1.4793  0.6853
 8772SOL     OW37774   4.438   0.463   7.029  0.2018  0.4537 -0.1661
 8772SOL    HW137775   4.450   0.554   7.004 -0.5943  0.6260  0.0846
 8772SOL    HW237776   4.489   0.420   6.961  2.1609  1.7666  0.4859
 8773SOL     OW37777   0.267   2.706   7.303 -0.0618 -0.1813 -0.1720
 8773SOL    HW137778   0.219   2.636   7.258  0.9910 -1.6781  1.0530
 8773SOL    HW237779   0.226   2.785   7.267  0.3231  0.5592  0.9933
 8774SOL     OW37780   1.128   3.981   9.261  0.1131  0.3526 -0.0064
 8774SOL    HW137781   1.137   4.032   9.342  1.5720 -1.4661  0.9681
 8774SOL    HW237782   1.033   3.965   9.265 -0.0498  1.4768  0.7555
 8775SOL     OW37783   0.752   2.007  12.311 -0.8596 -0.5310 -0.2375
 8775SOL    HW137784   0.746   2.100  12.292  0.2986 -0.3809  0.1165
 8775SOL    HW237785   0.837   2.007  12.356 -0.5217 -1.9236 -0.8734
 8776SOL     OW37786   0.268   3.197   3.555 -0.6638  0.0500  0.0696
 8776SOL    HW137787   0.260   3.162   3.467  0.0160  2.8663 -1.1122
 8776SOL    HW237788   0.361   3.182   3.574 -0.1798  1.4586 -1.2108
 8777SOL     OW37789   1.037   3.690  14.988 -0.1038 -0.3697  0.0081
 8777SOL    HW137790   1.058   3.632  14.915  3.6615  0.3645  0.5134
 8777SOL    HW237791   0.986   3.755  14.938 -0.0585  1.1044  1.8753
 8778SOL     OW37792   1.283   2.848   3.125  0.0180 -0.2397  0.6713
 8778SOL    HW137793   1.276   2.752   3.123  0.7200 -0.2382 -1.4451
 8778SOL    HW237794   1.360   2.851   3.069 -1.1142 -0.9184 -0.8997
 8779SOL     OW37795   2.365   0.548   5.537 -0.4625 -0.2084 -0.2681
 8779SOL    HW137796   2.339   0.612   5.471  1.6974 -1.6876 -2.5359
 8779SOL    HW237797   2.458   0.533   5.520 -0.4560 -0.9645  0.3993
 8780SOL     OW37798   4.502   1.257   9.875 -0.4107 -0.0443 -0.5510
 8780SOL    HW137799   4.432   1.223   9.820  0.1214 -1.1560 -0.5339
 8780SOL    HW237800   4.500   1.352   9.864 -0.0766 -0.0665 -0.7918
 8781SOL     OW37801   4.352   0.148   2.251  0.0519 -0.2336 -0.3710
 8781SOL    HW137802   4.333   0.060   2.220  2.4358 -0.0681 -2.3938
 8781SOL    HW237803   4.269   0.195   2.242 -0.1569 -0.5253  0.0627
 8782SOL     OW37804   3.384   4.148   8.110  0.2783  0.3008  0.0063
 8782SOL    HW137805   3.474   4.152   8.140  0.5409  1.0706 -0.8618
 8782SOL    HW237806   3.336   4.218   8.154  0.3198  0.6993 -0.5795
 8783SOL     OW37807   0.338   2.630   8.488 -0.5610  0.2443  0.0619
 8783SOL    HW137808   0.290   2.620   8.571 -1.6154  1.5878 -0.3927
 8783SOL    HW237809   0.301   2.559   8.435 -0.6485  1.2867 -1.2735
 8784SOL     OW37810   2.831   3.836   2.094  0.0964 -0.1257 -0.7382
 8784SOL    HW137811   2.785   3.756   2.067  0.7174 -1.3907  1.9990
 8784SOL    HW237812   2.755   3.893   2.105  1.5957  2.3645 -3.2131
 8785SOL     OW37813   3.537   2.593   2.727  0.2238  0.5531  0.3040
 8785SOL    HW137814   3.561   2.504   2.755 -1.9424 -0.2932 -0.4521
 8785SOL    HW237815   3.621   2.622   2.694  0.3925 -1.7616 -1.3163
 8786SOL     OW37816   3.873   0.497  11.573 -0.7309 -0.0231 -0.6689
 8786SOL    HW137817   3.800   0.519  11.514 -0.1834  4.1504  0.2581
 8786SOL    HW237818   3.855   0.410  11.609 -0.7094  0.6768  1.0051
 8787SOL     OW37819   3.034   2.471   3.069 -0.8354 -0.0148 -0.4538
 8787SOL    HW137820   3.050   2.383   3.034 -2.8940 -0.8415  0.6681
 8787SOL    HW237821   3.113   2.490   3.119 -0.1912 -4.3031  0.1766
 8788SOL     OW37822   3.041   1.737   7.478 -0.3049 -0.2819  0.4145
 8788SOL    HW137823   3.129   1.765   7.503  0.5876 -1.7777 -1.0743
 8788SOL    HW237824   3.057   1.652   7.438  0.2974 -0.5034  1.1455
 8789SOL     OW37825   1.192   1.401   2.524 -0.2560  0.6097  0.0885
 8789SOL    HW137826   1.277   1.446   2.530 -0.5588  0.7248  3.9740
 8789SOL    HW237827   1.196   1.379   2.617  1.6938  1.5442  0.2380
 8790SOL     OW37828   1.165   0.886   5.904  0.1733 -0.1367 -0.0994
 8790SOL    HW137829   1.211   0.858   5.824 -0.2453 -3.2613  0.7502
 8790SOL    HW237830   1.076   0.851   5.902  0.6092 -1.2832  0.4612
 8791SOL     OW37831   2.307   1.126   7.868  0.0832 -0.5575  0.5252
 8791SOL    HW137832   2.218   1.147   7.839  0.8878 -1.5235 -2.6620
 8791SOL    HW237833   2.296   1.164   7.955  1.0491  1.7207 -0.3555
 8792SOL     OW37834   1.456   3.290   8.261  0.8374 -0.3198  0.0666
 8792SOL    HW137835   1.550   3.295   8.281  0.5258  0.6929  1.2701
 8792SOL    HW237836   1.415   3.285   8.347 -2.3315  1.4021 -1.3546
 8793SOL     OW37837   1.674   1.640   7.118 -0.3528  0.2174  0.0855
 8793SOL    HW137838   1.727   1.564   7.142 -0.5176  0.0359 -0.1289
 8793SOL    HW237839   1.593   1.597   7.092 -1.2086  2.1608 -0.4499
 8794SOL     OW37840   3.192   0.304   0.718  0.4189  0.1707  0.2596
 8794SOL    HW137841   3.278   0.260   0.718  0.7680  0.8401 -1.3334
 8794SOL    HW237842   3.188   0.332   0.810 -0.4755 -0.3475  0.3796
 8795SOL     OW37843   1.665   1.623   5.105 -0.5192  0.6663 -0.3005
 8795SOL    HW137844   1.660   1.710   5.064 -0.4091  0.3404 -0.9946
 8795SOL    HW237845   1.658   1.571   5.025 -1.0293 -0.7073  0.6396
 8796SOL     OW37846   1.348   3.350   9.044 -0.4070  0.1453 -0.2405
 8796SOL    HW137847   1.358   3.326   8.952  1.4496 -0.4306  0.0943
 8796SOL    HW237848   1.437   3.380   9.064 -0.2937 -1.0108  0.9919
 8797SOL     OW37849   0.558   3.863   7.395 -0.1741 -0.7739 -0.3040
 8797SOL    HW137850   0.524   3.773   7.403 -1.1912 -0.5580 -2.0592
 8797SOL    HW237851   0.537   3.909   7.477 -2.6558 -1.0151 -0.7832
 8798SOL     OW37852   4.713   1.434   3.134 -0.7426  0.1249 -0.0723
 8798SOL    HW137853   0.039   1.373   3.188 -1.2971  0.3803  0.7364
 8798SOL    HW237854   0.058   1.466   3.076 -2.1431 -0.0419 -1.8103
 8799SOL     OW37855   2.741   3.457   2.447 -0.4783 -0.2638  0.7136
 8799SOL    HW137856   2.671   3.432   2.387 -1.2532  0.1694  1.4429
 8799SOL    HW237857   2.757   3.370   2.484 -1.5064  0.5073  2.9587
 8800SOL     OW37858   1.615   4.439  16.875  0.3004 -0.8448 -0.1900
 8800SOL    HW137859   1.671   4.494  16.821 -0.2550 -0.9688 -0.9017
 8800SOL    HW237860   1.536   4.493  16.881  2.1355  1.7047  0.7360
 8801SOL     OW37861   3.326   0.763  12.645  0.3417  0.2888 -0.1451
 8801SOL    HW137862   3.257   0.825  12.667  1.2660  1.5905 -0.9774
 8801SOL    HW237863   3.352   0.728  12.731  1.3180  0.2760 -0.4447
 8802SOL     OW37864   0.897   3.286   8.210  0.1623  0.3058 -0.1651
 8802SOL    HW137865   0.868   3.309   8.122  1.5893 -0.1831 -0.7721
 8802SOL    HW237866   0.993   3.281   8.201  0.2617  2.0806 -0.1214
 8803SOL     OW37867   0.491   1.585   6.948 -0.1680 -0.4768 -0.4286
 8803SOL    HW137868   0.565   1.528   6.970 -0.7949 -0.9864  0.3907
 8803SOL    HW237869   0.519   1.632   6.870  2.6287 -1.1521  0.1372
 8804SOL     OW37870   1.527   4.608   4.800  0.3516 -0.9227  0.3957
 8804SOL    HW137871   1.598   4.544   4.806  0.2154 -1.2081 -0.9626
 8804SOL    HW237872   1.503   4.588   4.710  1.1143 -1.3529  0.2842
 8805SOL     OW37873   1.614   4.515   1.022  0.3377 -0.1538 -0.0825
 8805SOL    HW137874   1.591   4.529   1.113 -2.0495  4.9233 -1.4452
 8805SOL    HW237875   1.686   4.454   1.039  0.2029  0.0030  1.0503
 8806SOL     OW37876   3.788   1.653   2.177 -0.1493  0.3462 -0.6158
 8806SOL    HW137877   3.706   1.702   2.186  1.7079  3.0745  1.4784
 8806SOL    HW237878   3.822   1.702   2.103  1.4447  0.6433  0.3078
 8807SOL     OW37879   3.127   0.225   4.022  0.6331  0.2604 -0.5956
 8807SOL    HW137880   3.203   0.249   3.969  0.3439 -1.3101 -1.7311
 8807SOL    HW237881   3.103   0.136   3.998 -1.8499  0.8080 -0.1819
 8808SOL     OW37882   1.455   2.367   2.279  0.2630 -0.4739  0.0097
 8808SOL    HW137883   1.361   2.375   2.266  0.2078 -0.4119  0.4439
 8808SOL    HW237884   1.469   2.414   2.361  0.7114 -0.9188  0.1869
 8809SOL     OW37885   4.144   0.999   3.158 -0.0746  0.2799  0.0797
 8809SOL    HW137886   4.071   1.060   3.151 -0.3092  0.2511  2.2631
 8809SOL    HW237887   4.113   0.942   3.229  1.3234  0.5147  0.8781
 8810SOL     OW37888   1.975   0.247  14.634 -0.3782  0.2270 -0.0409
 8810SOL    HW137889   2.024   0.183  14.582 -0.9327 -1.2218  1.2155
 8810SOL    HW237890   1.960   0.319  14.573  0.4338  0.5179  0.1038
 8811SOL     OW37891   3.319   0.001  13.484  0.1033  0.3415 -0.1514
 8811SOL    HW137892   3.385   4.661  13.459 -0.4766 -0.5694  0.6556
 8811SOL    HW237893   3.363   0.038  13.560 -1.9305  0.0701  1.1805
 8812SOL     OW37894   3.433   1.044   9.035 -0.2392 -0.6583 -0.4543
 8812SOL    HW137895   3.385   1.115   9.078  3.5766  1.9846 -0.5595
 8812SOL    HW237896   3.389   1.035   8.950  0.1871  0.1809 -0.7675
 8813SOL     OW37897   0.264   2.146   1.689  0.2041  0.1083  0.5175
 8813SOL    HW137898   0.248   2.213   1.756 -0.2969  1.7092 -1.1842
 8813SOL    HW237899   0.308   2.084   1.747  1.1832 -0.6998 -1.0986
 8814SOL     OW37900   3.299   4.091  11.026  0.3461  0.0095  0.3639
 8814SOL    HW137901   3.339   4.120  10.944  0.9013  0.1372  0.6846
 8814SOL    HW237902   3.301   3.997  11.011  1.8912  0.1672 -0.4345
 8815SOL     OW37903   4.181   4.241   6.235 -0.1078  0.0713  0.5251
 8815SOL    HW137904   4.270   4.214   6.256 -0.1719  0.1624  0.9202
 8815SOL    HW237905   4.159   4.268   6.324 -1.4090 -2.7048  1.0578
 8816SOL     OW37906   2.066   4.028   2.075  0.1687 -0.1147  0.0817
 8816SOL    HW137907   2.022   3.986   2.001  0.2405 -1.3734  0.7540
 8816SOL    HW237908   2.119   4.093   2.028  0.8966 -1.1700 -0.5475
 8817SOL     OW37909   2.964   3.384   9.610 -0.3960 -0.0272  0.2840
 8817SOL    HW137910   3.006   3.359   9.528 -0.0626 -1.4865  0.8904
 8817SOL    HW237911   3.029   3.360   9.675 -0.7133 -2.0397 -0.1297
 8818SOL     OW37912   3.735   2.550   8.368  0.0512  0.0644  0.6962
 8818SOL    HW137913   3.676   2.607   8.320 -2.3023 -1.9797  1.1788
 8818SOL    HW237914   3.771   2.617   8.426 -0.2784  0.5011  0.3862
 8819SOL     OW37915   1.917   3.014   4.456  0.5746  0.2257 -0.5485
 8819SOL    HW137916   1.850   3.029   4.390  0.7863 -0.7271 -0.9753
 8819SOL    HW237917   1.874   3.057   4.530 -0.2041  0.1474 -0.9570
 8820SOL     OW37918   0.439   1.083   5.540 -0.2030  0.0572  0.2961
 8820SOL    HW137919   0.496   1.046   5.472  0.3593  1.2675  0.1035
 8820SOL    HW237920   0.503   1.108   5.606 -0.1446  2.2203 -0.5726
 8821SOL     OW37921   0.293   3.392  14.094  0.2044  0.0759 -0.1702
 8821SOL    HW137922   0.323   3.323  14.154 -2.0081 -0.3245  0.5071
 8821SOL    HW237923   0.216   3.424  14.142 -0.8165 -2.6616  0.0167
 8822SOL     OW37924   0.561   2.055   9.295  0.2475  0.2359 -0.5245
 8822SOL    HW137925   0.483   2.036   9.243  0.9762 -1.6414 -0.9627
 8822SOL    HW237926   0.602   1.968   9.300 -1.1466 -0.3022  1.8287
 8823SOL     OW37927   2.594   0.107   9.726  0.4182  0.0349 -0.1645
 8823SOL    HW137928   2.633   0.193   9.711 -0.1285  0.7926  2.7979
 8823SOL    HW237929   2.655   0.064   9.786 -1.3264  0.2558  1.7825
 8824SOL     OW37930   4.371   3.210   2.799  0.2003  0.1681  0.4727
 8824SOL    HW137931   4.308   3.168   2.741  0.3067 -1.6898  1.6957
 8824SOL    HW237932   4.451   3.196   2.748 -0.8037 -0.7291 -0.8590
 8825SOL     OW37933   1.244   4.544   1.216 -0.2059 -0.2416  0.3698
 8825SOL    HW137934   1.321   4.530   1.271  1.3431  0.7494 -1.5155
 8825SOL    HW237935   1.269   4.507   1.131 -1.0598 -2.3231  1.0452
 8826SOL     OW37936   0.727   2.608   6.903 -0.3614 -0.1042 -0.5146
 8826SOL    HW137937   0.812   2.567   6.914 -0.2994  0.6248  1.5893
 8826SOL    HW237938   0.739   2.674   6.971 -2.3881  0.1140 -0.3711
 8827SOL     OW37939   0.884   1.833   6.535 -0.1187 -0.4236  0.6490
 8827SOL    HW137940   0.906   1.739   6.530  2.9491  0.2533  1.2631
 8827SOL    HW237941   0.878   1.859   6.443  2.3398 -1.8011  0.0844
 8828SOL     OW37942   2.434   0.771   2.553 -0.6407  0.4392 -0.2407
 8828SOL    HW137943   2.451   0.697   2.612 -1.8935  1.0646  0.9147
 8828SOL    HW237944   2.503   0.832   2.578  0.4233 -0.6986 -0.3867
 8829SOL     OW37945   2.006   3.476   4.502 -0.0018  0.3907  0.0397
 8829SOL    HW137946   2.006   3.445   4.411 -0.7692  0.7705 -0.0843
 8829SOL    HW237947   1.912   3.488   4.511 -0.3216 -0.8116 -1.5257
 8830SOL     OW37948   3.958   0.680   8.225 -0.3553  0.2421 -0.6385
 8830SOL    HW137949   4.036   0.633   8.256 -0.3267  0.5995 -0.1769
 8830SOL    HW237950   3.920   0.608   8.174  0.4096  0.2075 -1.1725
 8831SOL     OW37951   4.250   0.761   5.793  0.1472  0.2557  0.7093
 8831SOL    HW137952   4.250   0.846   5.836  0.3562  0.4691  0.2878
 8831SOL    HW237953   4.270   0.784   5.702  0.8809  0.0094  0.8038
 8832SOL     OW37954   0.009   3.349   3.098 -0.0161  0.8110  0.1708
 8832SOL    HW137955   4.665   3.283   3.087  0.5592  0.6415 -2.4010
 8832SOL    HW237956   0.044   3.367   3.011 -0.0842 -0.6664 -0.1594
 8833SOL     OW37957   0.437   4.360   5.342  0.0076  0.6674  0.1266
 8833SOL    HW137958   0.433   4.360   5.438  0.7034 -1.7861  0.1779
 8833SOL    HW237959   0.454   4.448   5.310 -0.6735  0.5835 -0.4586
 8834SOL     OW37960   3.674   0.834   2.568  0.0539 -0.1135  0.1581
 8834SOL    HW137961   3.586   0.807   2.544 -0.5286  0.9950  1.0464
 8834SOL    HW237962   3.665   0.829   2.663  1.5861  1.8008  0.4265
 8835SOL     OW37963   1.084   3.711   8.945 -0.4757  0.2666 -0.3221
 8835SOL    HW137964   1.078   3.750   8.858 -1.2267 -0.6710 -0.6862
 8835SOL    HW237965   1.167   3.741   8.983  0.0311  0.5261 -1.6505
 8836SOL     OW37966   2.347   2.345   0.873 -0.5288 -0.1270  0.3865
 8836SOL    HW137967   2.258   2.311   0.881 -0.4455 -0.4090  0.1253
 8836SOL    HW237968   2.355   2.341   0.777 -0.1837  0.0960  0.4076
 8837SOL     OW37969   3.596   2.734   3.095  0.1168 -0.0851  0.0258
 8837SOL    HW137970   3.592   2.701   3.185  2.4160 -0.3907  0.0105
 8837SOL    HW237971   3.673   2.788   3.117  1.9870 -3.1219  0.9050
 8838SOL     OW37972   1.647   3.230   1.400 -0.1354 -0.4784  0.6424
 8838SOL    HW137973   1.571   3.181   1.429 -1.7161  2.8620  2.1071
 8838SOL    HW237974   1.716   3.163   1.400  0.5683  0.2337 -1.9915
 8839SOL     OW37975   0.990   0.019   4.850  0.0285  0.3456 -0.2068
 8839SOL    HW137976   1.001   0.107   4.815 -2.1283  0.3454 -0.8668
 8839SOL    HW237977   0.991   0.039   4.944  1.3572 -1.0739  0.0917
 8840SOL     OW37978   1.089   1.603   6.083 -0.5244 -0.9089  0.1963
 8840SOL    HW137979   1.067   1.510   6.073 -0.3957 -0.7623 -1.3939
 8840SOL    HW237980   1.181   1.615   6.107 -0.2233  2.1407 -2.5255
 8841SOL     OW37981   4.207   1.389   5.078 -0.1884 -0.2380 -0.1272
 8841SOL    HW137982   4.119   1.353   5.092  0.5018 -1.0156  2.1699
 8841SOL    HW237983   4.192   1.448   5.004 -0.8063 -2.1874 -1.5915
 8842SOL     OW37984   1.168   0.907   5.470  0.6068 -0.2021  0.3959
 8842SOL    HW137985   1.227   0.858   5.527 -1.9161 -0.8799  2.4240
 8842SOL    HW237986   1.093   0.849   5.460  1.1843 -1.3388  2.8557
 8843SOL     OW37987   2.009   2.184   6.813  0.5211  0.3683  0.4335
 8843SOL    HW137988   2.032   2.239   6.738 -2.2870  0.1010 -0.6254
 8843SOL    HW237989   2.001   2.103   6.763 -2.9865  1.5858 -0.9926
 8844SOL     OW37990   0.789   0.579   6.550 -0.1793  0.2276  0.0648
 8844SOL    HW137991   0.826   0.544   6.631  2.2547 -2.1641 -2.0755
 8844SOL    HW237992   0.702   0.541   6.550 -0.5570  1.0817 -0.3464
 8845SOL     OW37993   3.809   0.084   0.990  0.1690  0.3758  0.0426
 8845SOL    HW137994   3.882   0.133   0.953  0.1782  0.3181 -0.0159
 8845SOL    HW237995   3.848   4.721   0.992  1.5960  1.0189  0.4925
 8846SOL     OW37996   4.190   2.638   1.306 -0.5456 -0.3534 -0.1346
 8846SOL    HW137997   4.193   2.707   1.240 -1.9447 -1.2394 -1.1341
 8846SOL    HW237998   4.276   2.598   1.308  0.4893  1.7968 -2.2315
 8847SOL     OW37999   2.071   3.856   7.440  0.4153 -0.2304 -0.1997
 8847SOL    HW138000   2.035   3.767   7.446  0.9758 -0.3141  2.0690
 8847SOL    HW238001   2.024   3.890   7.364 -0.3400 -1.5334 -0.3222
 8848SOL     OW38002   3.180   4.441   4.863  0.2789 -0.0719  0.1538
 8848SOL    HW138003   3.138   4.419   4.946  0.0026 -0.4930 -0.0990
 8848SOL    HW238004   3.255   4.487   4.899 -0.7151  1.0660  0.7309
 8849SOL     OW38005   0.475   1.076  12.385 -0.4283 -0.0392 -0.0962
 8849SOL    HW138006   0.532   1.119  12.321 -0.9065  0.8405  0.0671
 8849SOL    HW238007   0.465   1.145  12.450 -0.6831 -1.6302  1.5423
 8850SOL     OW38008   0.671   1.804   3.592 -0.2145  0.1663  0.3406
 8850SOL    HW138009   0.626   1.823   3.674  0.8811  0.8080  0.8004
 8850SOL    HW238010   0.701   1.890   3.563 -4.6020  1.2092 -0.9996
 8851SOL     OW38011   0.361   0.806   0.582  0.1643  0.6280 -0.5902
 8851SOL    HW138012   0.419   0.796   0.658  0.0501  1.5729 -0.3797
 8851SOL    HW238013   0.301   0.874   0.615  1.6077  1.8778 -0.5305
 8852SOL     OW38014   3.896   3.258  13.282 -0.2144 -0.5871 -0.4876
 8852SOL    HW138015   3.884   3.249  13.376 -2.8492  0.8842 -0.6554
 8852SOL    HW238016   3.809   3.293  13.259 -1.1993 -1.8448  1.3172
 8853SOL     OW38017   1.766   1.709   2.639  0.3506 -0.2115 -0.0848
 8853SOL    HW138018   1.725   1.623   2.644  1.1238 -0.6141 -0.5463
 8853SOL    HW238019   1.843   1.694   2.584 -0.8757 -1.0156 -1.5681
 8854SOL     OW38020   1.293   0.107   2.228  0.2330 -0.0052  0.0979
 8854SOL    HW138021   1.315   0.018   2.256  2.0549  0.8971  1.5359
 8854SOL    HW238022   1.251   0.096   2.143  0.7427  1.1525 -0.3038
 8855SOL     OW38023   1.455   2.429   8.616  0.1241 -0.0673  0.3964
 8855SOL    HW138024   1.372   2.454   8.574 -0.2934 -0.5339  0.9364
 8855SOL    HW238025   1.436   2.412   8.708  0.0961 -1.1354  0.1953
 8856SOL     OW38026   4.519   0.871   1.568  0.1361 -0.0470  0.1741
 8856SOL    HW138027   4.485   0.782   1.557 -0.8304  0.1864  1.2521
 8856SOL    HW238028   4.458   0.923   1.515  1.5204 -1.1771 -2.5222
 8857SOL     OW38029   4.030   1.280  10.336 -0.0156  0.2164 -0.3400
 8857SOL    HW138030   4.078   1.238  10.266 -0.9495 -0.1313 -0.7748
 8857SOL    HW238031   3.943   1.241  10.331  1.1428 -2.1941 -1.4882
 8858SOL     OW38032   1.091   3.823   7.719  0.2238  0.0125  0.3122
 8858SOL    HW138033   1.079   3.847   7.628  0.9278  0.4615  0.3336
 8858SOL    HW238034   1.004   3.784   7.727  1.5728 -2.5703  2.4512
 8859SOL     OW38035   1.819   2.777   3.087 -0.0943  0.1096  0.4301
 8859SOL    HW138036   1.904   2.795   3.127  0.1099  0.2412 -0.0688
 8859SOL    HW238037   1.841   2.746   2.999 -1.3337  1.9704 -0.5193
 8860SOL     OW38038   1.203   2.089  13.338 -0.1796 -0.4632  0.3780
 8860SOL    HW138039   1.278   2.148  13.327 -0.5606  0.2009  1.3325
 8860SOL    HW238040   1.226   2.040  13.416 -0.2488 -2.2809 -0.7331
 8861SOL     OW38041   4.081   2.466   9.030  0.4513  0.3509 -0.2346
 8861SOL    HW138042   4.111   2.557   9.029  0.7082  0.2253 -2.7762
 8861SOL    HW238043   4.103   2.446   9.121 -0.2446  1.4579  0.1735
 8862SOL     OW38044   1.187   4.188   1.156  0.2843 -0.2612  0.2903
 8862SOL    HW138045   1.256   4.127   1.131 -0.1687 -0.7411  0.2091
 8862SOL    HW238046   1.196   4.262   1.095  0.8598 -0.8461 -0.3292
 8863SOL     OW38047   3.741   2.635   8.024 -0.2556  0.6778 -0.1094
 8863SOL    HW138048   3.695   2.663   8.103 -2.5231  0.2386 -1.2569
 8863SOL    HW238049   3.831   2.634   8.054 -0.6579 -3.3723  0.9102
 8864SOL     OW38050   3.206   2.459   5.111  0.2656 -0.4469  0.0010
 8864SOL    HW138051   3.159   2.537   5.082  0.1986 -0.0159  1.2886
 8864SOL    HW238052   3.197   2.405   5.032 -0.6681  1.9369 -1.5249
 8865SOL     OW38053   1.953   0.197   8.261  0.5268  0.2873 -0.5698
 8865SOL    HW138054   1.967   0.287   8.291 -0.8804 -0.0680  1.1943
 8865SOL    HW238055   2.007   0.196   8.183  0.4430 -1.6320 -0.5953
 8866SOL     OW38056   3.044   4.633   6.874 -0.5966 -0.6503 -0.1269
 8866SOL    HW138057   3.029   4.553   6.925  0.5140 -1.0251 -0.3729
 8866SOL    HW238058   2.998   4.612   6.793 -0.9298  0.6583 -0.2654
 8867SOL     OW38059   1.814   0.531   8.445 -0.0933 -0.3310  0.0527
 8867SOL    HW138060   1.849   0.484   8.520  1.8211  0.6351 -0.2464
 8867SOL    HW238061   1.899   0.554   8.407 -0.2870 -0.3409 -0.3852
 8868SOL     OW38062   4.179   2.519   3.894 -0.1310 -0.4598 -0.2015
 8868SOL    HW138063   4.159   2.611   3.910 -1.6834 -0.7166 -0.6493
 8868SOL    HW238064   4.119   2.492   3.824 -0.0706 -0.5710 -0.2102
 8869SOL     OW38065   3.446   3.334  15.885 -0.5526  0.5274 -0.1395
 8869SOL    HW138066   3.378   3.328  15.952 -0.5875  0.7069 -0.1570
 8869SOL    HW238067   3.501   3.264  15.921 -0.0592  1.2144  0.4618
 8870SOL     OW38068   1.852   4.321   4.988 -0.0465 -0.3134  0.4748
 8870SOL    HW138069   1.943   4.324   5.019 -0.6779 -0.0768  2.3170
 8870SOL    HW238070   1.853   4.385   4.917 -0.8097 -0.2344  0.5312
 8871SOL     OW38071   1.461   2.065   2.655  0.1479  0.4245 -0.2969
 8871SOL    HW138072   1.378   2.018   2.659  1.0634 -1.2363 -0.8515
 8871SOL    HW238073   1.503   2.023   2.580 -2.1445 -0.8022 -0.8807
 8872SOL     OW38074   1.428   0.078   0.439 -0.5249 -0.0838  0.2771
 8872SOL    HW138075   1.503   0.131   0.411 -0.4514 -0.6740 -0.6564
 8872SOL    HW238076   1.430   0.071   0.534  0.0616  0.6143  0.3175
 8873SOL     OW38077   0.688   2.889   4.360 -0.0996  0.0222 -0.6172
 8873SOL    HW138078   0.749   2.961   4.376  0.6935 -0.9018  0.5048
 8873SOL    HW238079   0.720   2.872   4.272 -2.0589 -0.7456 -1.1977
 8874SOL     OW38080   3.302   1.322   6.164  0.3454 -0.0552 -0.1575
 8874SOL    HW138081   3.321   1.375   6.086  0.9892 -0.2497 -0.1295
 8874SOL    HW238082   3.376   1.340   6.222  0.3575  0.9932 -0.4983
 8875SOL     OW38083   0.083   4.119   9.615  0.4086 -1.1183 -0.4278
 8875SOL    HW138084   0.125   4.064   9.548  2.0145  0.0545 -0.3947
 8875SOL    HW238085   0.110   4.206   9.586  0.0780 -1.1151 -0.7209
 8876SOL     OW38086   3.918   4.046  12.199  0.1702 -0.7447  0.2988
 8876SOL    HW138087   3.944   4.124  12.248  1.2877 -1.7415  1.3123
 8876SOL    HW238088   4.007   4.014  12.184 -0.2291 -1.9537  0.4884
 8877SOL     OW38089   0.339   1.308   4.330 -0.3710 -0.2912  0.7940
 8877SOL    HW138090   0.391   1.316   4.410 -0.1846 -0.1903  0.6615
 8877SOL    HW238091   0.304   1.219   4.328 -2.9010  0.8057 -3.6404
 8878SOL     OW38092   2.046   1.300  15.050  0.3555 -0.0052  0.3321
 8878SOL    HW138093   2.008   1.221  15.088 -1.7127  0.2678 -1.2162
 8878SOL    HW238094   2.105   1.316  15.124 -0.2306 -0.5343  0.9151
 8879SOL     OW38095   2.242   4.451   2.729 -0.1881  0.1392 -0.5977
 8879SOL    HW138096   2.183   4.382   2.760  1.5467 -1.5557 -1.1235
 8879SOL    HW238097   2.225   4.517   2.796  2.5308  0.8426 -0.6325
 8880SOL     OW38098   0.034   2.623   9.926 -0.6049  0.2943  0.5375
 8880SOL    HW138099   0.037   2.601  10.019 -2.4304  1.8336  0.9834
 8880SOL    HW238100   0.047   2.717   9.940  0.2589  0.0756  1.2168
 8881SOL     OW38101   1.034   0.451   0.028  0.2200 -0.2559  0.3085
 8881SOL    HW138102   0.946   0.422   0.003  0.0738  0.8797 -0.4935
 8881SOL    HW238103   1.059   0.389   0.097 -1.1418 -1.8628 -0.6522
 8882SOL     OW38104   2.495   2.445  14.095 -0.0069 -0.4834 -0.5030
 8882SOL    HW138105   2.533   2.504  14.030 -1.4293 -0.1974 -1.0724
 8882SOL    HW238106   2.563   2.404  14.149 -0.7378 -0.6985  0.2590
 8883SOL     OW38107   2.534   3.378  15.130 -0.5263  0.0348 -0.2635
 8883SOL    HW138108   2.525   3.463  15.087 -2.2793  0.0379  0.1049
 8883SOL    HW238109   2.443   3.353  15.113 -0.7080  0.1557  0.5401
 8884SOL     OW38110   3.148   0.302   9.702  0.0275 -0.1082  0.2948
 8884SOL    HW138111   3.142   0.361   9.777  0.4977  0.7592 -0.3442
 8884SOL    HW238112   3.170   0.214   9.732 -1.3146 -1.4198 -2.6107
 8885SOL     OW38113   0.005   2.247   7.455  0.1356  0.5036  0.3283
 8885SOL    HW138114   4.677   2.284   7.384  0.8488  0.8814  0.0082
 8885SOL    HW238115   0.086   2.295   7.442 -0.2041  1.1501  0.6220
 8886SOL     OW38116   3.348   3.767   9.411  0.0527 -0.3110 -0.5444
 8886SOL    HW138117   3.435   3.742   9.380  0.6383 -0.7154  1.4137
 8886SOL    HW238118   3.358   3.762   9.506  2.3297  0.2871 -0.7560
 8887SOL     OW38119   3.742   1.373  10.728  0.0369  0.3375  0.4010
 8887SOL    HW138120   3.732   1.336  10.640  1.0268 -0.9250  0.8379
 8887SOL    HW238121   3.832   1.345  10.743  0.3815  0.8863 -0.6417
 8888SOL     OW38122   4.467   2.053   2.091  0.1933  0.5812 -0.2804
 8888SOL    HW138123   4.545   2.087   2.050  0.0823 -0.6093 -1.4868
 8888SOL    HW238124   4.498   1.965   2.114 -0.0638  0.3801 -0.6914
 8889SOL     OW38125   1.436   2.037   6.780  0.5313 -0.3557  0.3418
 8889SOL    HW138126   1.459   2.130   6.787 -1.8840  0.1986  0.6656
 8889SOL    HW238127   1.511   1.998   6.734 -0.3862  1.1101 -2.3776
 8890SOL     OW38128   4.399   2.834  14.681  0.1070  0.5301 -0.3339
 8890SOL    HW138129   4.370   2.867  14.766 -0.1586  0.2230 -0.3067
 8890SOL    HW238130   4.465   2.902  14.666  1.1662 -0.3340  0.3961
 8891SOL     OW38131   0.443   2.527   8.977 -0.0229 -0.8172 -0.3897
 8891SOL    HW138132   0.408   2.562   9.058  1.0704  2.1456 -1.1987
 8891SOL    HW238133   0.376   2.464   8.951 -1.6906  1.3629 -1.3944
 8892SOL     OW38134   2.308   3.005   9.959  0.3947 -0.2480 -0.5388
 8892SOL    HW138135   2.371   2.936   9.983 -0.9417 -1.3504 -0.1833
 8892SOL    HW238136   2.356   3.082   9.990  1.7009 -0.6785 -1.4651
 8893SOL     OW38137   1.542   4.698   1.719  0.0215  0.3475  0.3332
 8893SOL    HW138138   1.557   4.625   1.659  1.9734  1.4458 -0.4913
 8893SOL    HW238139   1.467   4.659   1.764 -0.9880 -0.0447 -1.7015
 8894SOL     OW38140   2.447   3.717   2.616 -0.5881 -0.9571  0.3571
 8894SOL    HW138141   2.538   3.687   2.618 -1.0339 -2.3347 -1.0417
 8894SOL    HW238142   2.452   3.777   2.542 -0.3770  1.3425  2.2145
 8895SOL     OW38143   3.627   2.037   4.944 -0.0315 -0.2110 -0.7438
 8895SOL    HW138144   3.555   2.096   4.969 -0.8381 -1.9744  1.1678
 8895SOL    HW238145   3.668   2.038   5.031 -0.7243  1.9573 -0.4394
 8896SOL     OW38146   3.753   0.281   4.210 -0.4761 -0.2039 -0.1624
 8896SOL    HW138147   3.723   0.326   4.131 -0.4288 -0.8030 -0.5194
 8896SOL    HW238148   3.695   0.205   4.210  0.0366 -0.5982  0.7565
 8897SOL     OW38149   0.555   3.673   6.229 -0.2852 -0.8544 -0.4954
 8897SOL    HW138150   0.484   3.620   6.266  0.4864 -0.7055  1.2489
 8897SOL    HW238151   0.619   3.672   6.300 -1.5590 -1.1470  0.6549
 8898SOL     OW38152   0.221   2.823   6.942  0.5768 -0.0774  0.0481
 8898SOL    HW138153   0.144   2.855   6.989  0.2615 -1.5893  0.5679
 8898SOL    HW238154   0.179   2.740   6.920 -0.6010  0.2452  1.0778
 8899SOL     OW38155   2.878   0.236   0.781 -0.3731 -0.0787  0.4733
 8899SOL    HW138156   2.846   0.148   0.802 -3.0677  1.0158  0.9449
 8899SOL    HW238157   2.973   0.227   0.781 -0.2204  1.7173 -3.4026
 8900SOL     OW38158   0.956   0.870   7.426  0.1697 -0.6424  0.1307
 8900SOL    HW138159   0.986   0.961   7.430  0.4256 -0.5206 -4.2210
 8900SOL    HW238160   0.967   0.856   7.332 -1.6920  2.6358 -0.5790
 8901SOL     OW38161   3.435   2.738  13.823  0.1272 -0.2869  0.3372
 8901SOL    HW138162   3.445   2.643  13.820  1.7861 -0.0962 -0.3446
 8901SOL    HW238163   3.366   2.743  13.890 -1.1022  2.9203 -1.1780
 8902SOL     OW38164   0.805   2.920   5.093  0.5368  0.2331 -0.2144
 8902SOL    HW138165   0.843   2.832   5.094 -1.5917 -0.6537  1.2901
 8902SOL    HW238166   0.717   2.908   5.127  0.7318 -1.2365 -0.2386
 8903SOL     OW38167   1.750   0.162   6.109  0.0223  0.6577 -0.3234
 8903SOL    HW138168   1.675   0.105   6.092  1.4198 -0.9597 -1.0549
 8903SOL    HW238169   1.756   0.163   6.205 -0.1128  0.9467 -0.3171
 8904SOL     OW38170   0.281   4.676   9.811 -0.4022  0.2576  0.7096
 8904SOL    HW138171   0.242   0.035   9.840  1.2247  2.4824 -3.4590
 8904SOL    HW238172   0.208   4.632   9.768  0.2735 -0.4278  0.2772
 8905SOL     OW38173   4.629   1.183   0.784 -0.9136 -0.8214 -0.1014
 8905SOL    HW138174   4.703   1.224   0.740 -1.6600  1.7246  1.0005
 8905SOL    HW238175   4.552   1.225   0.746  0.7675 -0.3136 -2.9828
 8906SOL     OW38176   0.633   2.993   8.822 -0.5872 -0.4810  0.1707
 8906SOL    HW138177   0.582   3.004   8.742  0.1792  1.1850 -0.0834
 8906SOL    HW238178   0.615   2.900   8.836  0.7871 -0.5178  1.6286
 8907SOL     OW38179   3.976   2.682   5.737 -0.0902  0.0361  0.2043
 8907SOL    HW138180   4.003   2.773   5.726  1.2166 -0.3176  0.4468
 8907SOL    HW238181   3.965   2.661   5.644  0.2173  2.7297 -0.4297
 8908SOL     OW38182   3.203   1.476   0.135  0.0358 -1.4572  0.1059
 8908SOL    HW138183   3.217   1.562   0.095 -1.0579 -0.5798  1.6050
 8908SOL    HW238184   3.126   1.510   0.180 -1.3876 -4.1927 -0.2842
 8909SOL     OW38185   0.668   0.416   8.165  0.3051 -1.0650 -0.1581
 8909SOL    HW138186   0.759   0.389   8.156  0.3483 -0.4111 -1.8069
 8909SOL    HW238187   0.624   0.331   8.167 -0.2273 -0.8410 -2.0870
 8910SOL     OW38188   0.860   4.331   7.936  0.0292  0.2040 -0.6921
 8910SOL    HW138189   0.882   4.343   8.028  1.8407 -1.8592 -0.8756
 8910SOL    HW238190   0.840   4.423   7.920 -2.0065  0.1048  1.1640
 8911SOL     OW38191   4.521   1.984   7.005  0.3531  0.3366  0.2621
 8911SOL    HW138192   4.563   1.922   6.945  0.0521 -0.3074  0.7103
 8911SOL    HW238193   4.593   2.036   7.040  1.2816 -0.1807 -0.8562
 8912SOL     OW38194   0.934   0.233   8.191  0.4779  0.4441  0.0271
 8912SOL    HW138195   0.959   0.215   8.281  0.6371 -0.0905 -0.1245
 8912SOL    HW238196   0.993   0.176   8.141  2.7790  1.9710  1.0156
 8913SOL     OW38197   1.392   0.259  11.358  0.7541  0.1154 -0.9405
 8913SOL    HW138198   1.344   0.241  11.277  2.0530  0.6126 -1.8081
 8913SOL    HW238199   1.478   0.222  11.343  0.5705 -0.8583  0.4119
 8914SOL     OW38200   0.857   2.482   8.296  0.0601  0.1905 -0.3509
 8914SOL    HW138201   0.790   2.470   8.363 -0.0932  0.5830 -0.4366
 8914SOL    HW238202   0.817   2.544   8.236  0.7527  0.4934 -0.5019
 8915SOL     OW38203   3.307   2.991  14.750 -0.1372 -0.4241 -0.4203
 8915SOL    HW138204   3.225   3.030  14.720 -0.5963  0.3583  1.9082
 8915SOL    HW238205   3.271   2.904  14.770 -2.5563  0.8223  0.6134
 8916SOL     OW38206   2.873   2.076   4.250  0.0221 -0.1327  0.4220
 8916SOL    HW138207   2.779   2.086   4.232 -0.2993 -2.7684  0.5940
 8916SOL    HW238208   2.885   2.152   4.307 -1.2056  1.2269 -1.1337
 8917SOL     OW38209   1.959   1.659  15.004  0.2518  0.4916  0.4002
 8917SOL    HW138210   1.991   1.748  15.022 -1.4255  1.3502 -0.7885
 8917SOL    HW238211   2.021   1.613  15.059  2.1214 -0.0044 -2.1632
 8918SOL     OW38212   3.739   2.111   7.617  0.1939 -0.3608  0.4070
 8918SOL    HW138213   3.811   2.120   7.680  0.3773  1.8051 -0.1223
 8918SOL    HW238214   3.692   2.041   7.663 -0.6789 -0.6196 -0.8909
 8919SOL     OW38215   4.190   3.777   2.363 -0.6334  0.8344 -0.0292
 8919SOL    HW138216   4.123   3.844   2.374 -3.0252 -1.5306 -0.2072
 8919SOL    HW238217   4.234   3.782   2.448 -0.0406  2.7692 -0.4449
 8920SOL     OW38218   3.224   1.209   8.361  0.1448 -0.1086 -0.4698
 8920SOL    HW138219   3.191   1.268   8.429  1.1450  1.5816 -1.4625
 8920SOL    HW238220   3.311   1.243   8.342  0.5050 -0.6078  0.2638
 8921SOL     OW38221   1.082   2.292   6.809  0.1826 -0.1802 -0.0313
 8921SOL    HW138222   1.080   2.211   6.860 -0.3387 -0.1225  0.0378
 8921SOL    HW238223   1.124   2.352   6.872  1.2735 -1.1612  0.1714
 8922SOL     OW38224   4.322   3.121   6.474 -0.0690 -0.0835  0.4664
 8922SOL    HW138225   4.342   3.115   6.380  0.3239  0.1665  0.5359
 8922SOL    HW238226   4.239   3.170   6.467 -0.2485 -0.6477 -1.5539
 8923SOL     OW38227   1.853   0.302   4.929 -0.4519 -0.0553  0.2707
 8923SOL    HW138228   1.865   0.296   5.023 -0.0653 -0.2870  0.2068
 8923SOL    HW238229   1.761   0.279   4.920 -0.1560 -1.1736  0.0152
 8924SOL     OW38230   4.348   3.718  16.939  0.1148  0.3663  0.5441
 8924SOL    HW138231   4.382   3.649  16.882 -0.0585  1.2028 -0.5451
 8924SOL    HW238232   4.392   3.686  17.019 -0.4133 -0.3046  0.5645
 8925SOL     OW38233   2.826   3.375   3.821 -0.4933  0.1081  0.4140
 8925SOL    HW138234   2.865   3.331   3.897  1.9608  0.8707 -0.3816
 8925SOL    HW238235   2.895   3.348   3.760  0.0936  1.7416  0.3595
 8926SOL     OW38236   0.356   0.105  10.314  0.1694 -0.3901  0.2327
 8926SOL    HW138237   0.299   0.166  10.359 -0.5292 -1.3399  0.6379
 8926SOL    HW238238   0.332   0.122  10.223 -0.2814 -0.0060  0.4260
 8927SOL     OW38239   3.349   2.892   4.173  0.4363 -0.2626 -0.1109
 8927SOL    HW138240   3.340   2.947   4.095  3.1822  0.4131  0.0588
 8927SOL    HW238241   3.302   2.817   4.136 -0.8881 -0.2553  1.5650
 8928SOL     OW38242   2.945   2.348  17.306  0.2550  0.1338  0.1282
 8928SOL    HW138243   2.938   2.303  17.222 -1.0061 -1.4556  1.0847
 8928SOL    HW238244   3.018   2.300  17.344 -0.3756 -1.5274 -0.7408
 8929SOL     OW38245   0.063   1.923   8.356  0.0617 -0.2227  0.5699
 8929SOL    HW138246   0.136   1.944   8.299 -1.5750  2.5990 -0.4616
 8929SOL    HW238247   0.081   1.835   8.390 -0.2148 -1.2556 -2.0051
 8930SOL     OW38248   2.757   1.233   7.589 -0.0200 -0.3781  0.3471
 8930SOL    HW138249   2.707   1.204   7.666 -2.0506 -1.2146 -1.2639
 8930SOL    HW238250   2.749   1.152   7.538  3.5915  0.4903 -1.5902
 8931SOL     OW38251   2.128   4.120   0.417 -0.4251 -0.0125 -0.3219
 8931SOL    HW138252   2.214   4.095   0.453 -1.1903  3.5381  3.8661
 8931SOL    HW238253   2.125   4.074   0.333  1.2135  0.0821 -0.4378
 8932SOL     OW38254   0.401   0.662  16.467 -0.3767  0.5165 -0.4053
 8932SOL    HW138255   0.430   0.628  16.382  2.0413 -1.5522  1.2434
 8932SOL    HW238256   0.447   0.746  16.461 -0.9726  0.9367  1.0424
 8933SOL     OW38257   1.462   2.587  15.793  0.0896  0.2624  0.7186
 8933SOL    HW138258   1.442   2.496  15.772  1.8372  0.5300 -2.0250
 8933SOL    HW238259   1.493   2.582  15.884 -1.6243  2.8767  1.4600
 8934SOL     OW38260   3.349   1.481   0.422 -0.0847 -0.0900  0.2804
 8934SOL    HW138261   3.270   1.470   0.370 -0.1756 -0.8037  0.5602
 8934SOL    HW238262   3.419   1.451   0.363  0.2586 -0.3951  0.8406
 8935SOL     OW38263   2.950   0.377   5.930 -0.4001 -0.4339 -0.1403
 8935SOL    HW138264   3.046   0.380   5.926 -0.5141  0.5617 -2.0518
 8935SOL    HW238265   2.937   0.397   6.022  1.7646 -1.8477  0.4958
 8936SOL     OW38266   3.919   1.172   9.766 -0.4131 -0.3686 -0.1166
 8936SOL    HW138267   3.915   1.253   9.716  0.5039  1.2109  2.3539
 8936SOL    HW238268   3.914   1.099   9.705  2.1844 -0.3148 -0.3703
 8937SOL     OW38269   1.318   3.305   3.577  0.2585 -0.3215 -0.0944
 8937SOL    HW138270   1.368   3.268   3.649 -0.8990 -1.4032  0.1448
 8937SOL    HW238271   1.275   3.232   3.534  0.0645  0.3853 -1.1129
 8938SOL     OW38272   3.770   2.874   6.161  0.0611  0.2249 -0.4819
 8938SOL    HW138273   3.791   2.881   6.254 -0.3991  1.1879 -0.4464
 8938SOL    HW238274   3.719   2.794   6.150 -0.0892  0.3484 -0.6767
 8939SOL     OW38275   3.037   2.163   3.030 -0.0799 -0.3790 -0.3829
 8939SOL    HW138276   3.068   2.131   2.945 -0.6330 -0.0185 -0.7277
 8939SOL    HW238277   2.955   2.205   3.003 -0.3279 -1.7844 -1.8356
 8940SOL     OW38278   0.695   1.093   2.022  0.1308  0.0835 -0.0336
 8940SOL    HW138279   0.756   1.165   2.041  0.0282  0.7774 -2.4216
 8940SOL    HW238280   0.732   1.057   1.941 -4.3541  0.9262 -2.4479
 8941SOL     OW38281   4.041   2.535   4.251  0.1902  0.3377  0.5436
 8941SOL    HW138282   4.079   2.605   4.198  1.2619 -0.8732 -0.2847
 8941SOL    HW238283   4.106   2.538   4.320 -1.4264 -1.6030  2.1682
 8942SOL     OW38284   2.764   4.379   2.096  0.1126  0.2117 -0.3017
 8942SOL    HW138285   2.758   4.333   2.012 -1.8998  0.5874 -0.3546
 8942SOL    HW238286   2.854   4.354   2.117 -0.3525 -2.4245 -1.4655
 8943SOL     OW38287   0.260   0.539  15.907 -0.2068 -0.0552 -0.5491
 8943SOL    HW138288   0.307   0.502  15.981  0.0616  0.7622 -0.3146
 8943SOL    HW238289   0.323   0.529  15.835  1.3917  0.8729  0.7356
 8944SOL     OW38290   2.784   2.027   5.091 -0.3326 -0.2878 -0.2283
 8944SOL    HW138291   2.814   2.091   5.026 -0.3481 -3.5634 -3.4545
 8944SOL    HW238292   2.856   1.963   5.089  1.4937  1.7442  0.2391
 8945SOL     OW38293   2.488   3.634   9.542  0.2867  0.8434 -0.0097
 8945SOL    HW138294   2.484   3.649   9.636 -4.0512 -1.4877  0.1703
 8945SOL    HW238295   2.492   3.539   9.547 -0.5076  0.9965  3.2755
 8946SOL     OW38296   0.262   1.100   0.569 -0.3721  0.0291 -0.0126
 8946SOL    HW138297   0.203   1.063   0.504  1.3496 -0.2212 -1.4431
 8946SOL    HW238298   0.207   1.156   0.625 -1.0428  0.4687 -1.1040
 8947SOL     OW38299   1.082   3.520  14.779  0.7175  0.6266 -0.4319
 8947SOL    HW138300   1.176   3.502  14.769  0.2944 -1.5597 -0.5126
 8947SOL    HW238301   1.048   3.437  14.746  2.1069 -0.0024 -0.2892
 8948SOL     OW38302   4.507   1.068   8.678  0.3609  0.2945  0.4182
 8948SOL    HW138303   4.455   0.989   8.692 -2.5162  2.0012 -0.4818
 8948SOL    HW238304   4.528   1.093   8.768  1.4681  0.2728  0.1680
 8949SOL     OW38305   2.479   2.763   9.407 -0.3255  0.0644  0.2745
 8949SOL    HW138306   2.561   2.808   9.424  0.9975 -0.7046 -3.9178
 8949SOL    HW238307   2.428   2.844   9.411 -0.3569  0.1268 -1.3905
 8950SOL     OW38308   0.529   1.215   0.579 -0.3841 -0.2066 -0.1144
 8950SOL    HW138309   0.525   1.256   0.665  1.9961  0.4197 -0.3066
 8950SOL    HW238310   0.448   1.164   0.575 -0.1551 -0.8565  3.5728
 8951SOL     OW38311   0.591   3.654   4.972 -0.7832 -0.3077  0.3006
 8951SOL    HW138312   0.681   3.652   4.938 -0.8075 -2.0686  0.3344
 8951SOL    HW238313   0.552   3.737   4.945  0.0707 -0.0104 -0.0312
 8952SOL     OW38314   4.028   4.133  14.111  0.1906 -0.0861  0.0044
 8952SOL    HW138315   4.020   4.126  14.016 -0.5190  2.1339 -0.1012
 8952SOL    HW238316   3.988   4.051  14.140 -0.2523 -0.3011 -1.2300
 8953SOL     OW38317   2.094   0.809  17.656 -0.2011  0.6746 -0.1218
 8953SOL    HW138318   2.186   0.820  17.630  0.0449 -1.1493 -0.0002
 8953SOL    HW238319   2.058   0.817  17.567 -1.4396  1.4499  0.4426
 8954SOL     OW38320   0.401   2.100   7.108 -0.2609  0.1906  0.0484
 8954SOL    HW138321   0.398   2.159   7.183  2.0901  1.2853 -0.7286
 8954SOL    HW238322   0.349   2.029   7.144 -0.5330  0.4189  0.1006
 8955SOL     OW38323   4.478   4.091   6.050 -0.1409  0.1919  0.0457
 8955SOL    HW138324   4.464   4.137   6.133  0.7182  0.0930  0.2459
 8955SOL    HW238325   4.509   4.164   5.997  1.4930 -0.3271  0.2655
 8956SOL     OW38326   4.676   4.578   7.684 -0.3805  0.0950  0.1741
 8956SOL    HW138327   0.039   4.613   7.700 -0.7624  0.3179  1.7887
 8956SOL    HW238328   4.699   4.486   7.690 -0.2711 -0.0791 -3.2074
 8957SOL     OW38329   4.359   3.250   8.103 -0.3525 -0.0734 -0.2284
 8957SOL    HW138330   4.271   3.216   8.117 -0.5186 -0.2820 -1.8367
 8957SOL    HW238331   4.358   3.301   8.184 -0.4031  1.6300 -1.2972
 8958SOL     OW38332   0.545   2.957   7.917 -0.8486  0.1755 -0.1999
 8958SOL    HW138333   0.513   3.023   7.979  0.1305  2.6215 -2.2984
 8958SOL    HW238334   0.483   2.886   7.936  1.2633 -1.6151 -0.0922
 8959SOL     OW38335   0.892   0.170   6.067  0.5682  0.0085  0.4988
 8959SOL    HW138336   0.875   0.264   6.068 -1.5115 -0.3531 -1.3789
 8959SOL    HW238337   0.803   0.139   6.087  1.0453 -0.1412  2.4279
 8960SOL     OW38338   0.102   0.502  11.039  0.2372 -0.0628  0.1169
 8960SOL    HW138339   0.184   0.454  11.034  0.4538  0.0910  2.2611
 8960SOL    HW238340   0.118   0.582  10.989  0.4288 -1.9406 -2.8160
 8961SOL     OW38341   2.769   2.264  10.870 -0.3325 -0.3075 -0.0969
 8961SOL    HW138342   2.741   2.338  10.816 -1.2249 -0.4039  0.2479
 8961SOL    HW238343   2.708   2.249  10.942  1.9792 -0.3384  1.8618
 8962SOL     OW38344   2.160   3.193  11.547 -0.7044 -0.2091 -0.1325
 8962SOL    HW138345   2.129   3.208  11.637 -2.0510 -1.8434 -0.3408
 8962SOL    HW238346   2.103   3.255  11.502 -0.0403  0.2793 -0.3044
 8963SOL     OW38347   0.373   3.340  15.753 -0.2250 -0.2461  0.2952
 8963SOL    HW138348   0.396   3.390  15.675 -3.4017 -1.7272 -1.6215
 8963SOL    HW238349   0.449   3.282  15.758  1.7708  2.4140  1.0443
 8964SOL     OW38350   3.172   3.780  14.317 -0.1249  0.2795 -0.2878
 8964SOL    HW138351   3.252   3.796  14.367  0.5885 -1.9002 -0.7372
 8964SOL    HW238352   3.155   3.874  14.308  2.1608  0.9641  2.5084
 8965SOL     OW38353   3.369   1.910   4.094  0.1572  0.1751  0.5630
 8965SOL    HW138354   3.309   1.971   4.137  0.9180  0.3851  1.3226
 8965SOL    HW238355   3.303   1.847   4.065  0.5212  0.9448 -1.9702
 8966SOL     OW38356   1.446   3.954   1.374  0.2851  0.8941  0.5604
 8966SOL    HW138357   1.470   3.979   1.285  2.4409  0.3351  0.9823
 8966SOL    HW238358   1.514   3.889   1.396  0.4556  0.2780 -1.8040
 8967SOL     OW38359   3.269   0.077   9.779 -0.5601  0.3659  0.2156
 8967SOL    HW138360   3.287   0.126   9.860 -1.2718  0.2841  0.4251
 8967SOL    HW238361   3.321   4.723   9.794 -1.2915  0.1695  1.7103
 8968SOL     OW38362   1.870   1.257   5.211 -0.3195 -0.4417  0.2830
 8968SOL    HW138363   1.783   1.296   5.206  0.1250  0.3359 -1.2813
 8968SOL    HW238364   1.844   1.170   5.181 -0.0787  0.4758 -2.5626
 8969SOL     OW38365   3.368   4.507   8.123 -0.1014  0.3859 -0.0841
 8969SOL    HW138366   3.340   4.431   8.173  0.8184 -0.1383 -0.3488
 8969SOL    HW238367   3.463   4.494   8.118 -0.3869 -1.1101 -1.5425
 8970SOL     OW38368   3.308   2.618  14.701 -0.9149  0.5766  0.0697
 8970SOL    HW138369   3.235   2.560  14.678 -0.6621  0.1540  0.3387
 8970SOL    HW238370   3.340   2.641  14.614  0.2228  0.8933  0.5815
 8971SOL     OW38371   2.678   2.400  14.491 -0.5828 -0.0074 -0.4272
 8971SOL    HW138372   2.758   2.370  14.535 -1.0095 -0.0257  0.3439
 8971SOL    HW238373   2.705   2.475  14.438  0.0783 -0.7219 -1.0974
 8972SOL     OW38374   0.818   1.297   3.659 -0.0633 -0.2178  0.1216
 8972SOL    HW138375   0.729   1.316   3.628 -0.3196  0.5212  1.3070
 8972SOL    HW238376   0.858   1.382   3.639 -1.3946  0.3890  0.0347
 8973SOL     OW38377   3.035   1.541   2.091  0.2511 -0.5552 -0.0181
 8973SOL    HW138378   3.032   1.446   2.098 -0.2946 -0.7082 -2.5764
 8973SOL    HW238379   3.008   1.556   2.001  0.7373  0.7825  0.0559
 8974SOL     OW38380   0.134   2.000  16.657 -0.5244 -0.0234 -0.5801
 8974SOL    HW138381   0.051   1.955  16.646 -0.2861 -0.1518 -1.8562
 8974SOL    HW238382   0.189   1.933  16.697 -1.6817 -1.2629 -1.0880
 8975SOL     OW38383   0.192   0.331   2.578 -0.0430  0.0821 -0.0984
 8975SOL    HW138384   0.210   0.419   2.545  1.1091 -0.1489 -0.0908
 8975SOL    HW238385   0.100   0.310   2.565 -1.4713  5.3883  1.5234
 8976SOL     OW38386   1.067   3.395   2.849  0.0546 -0.2927  0.2938
 8976SOL    HW138387   1.068   3.301   2.829  1.2568  0.0021 -0.9954
 8976SOL    HW238388   1.161   3.408   2.850  0.0101  0.0332 -0.1273
 8977SOL     OW38389   1.153   0.071   0.415  0.0226 -0.5178 -0.1897
 8977SOL    HW138390   1.244   0.099   0.401 -0.4061  1.3196  0.6265
 8977SOL    HW238391   1.174   4.707   0.445  2.3138 -0.4739 -1.6510
 8978SOL     OW38392   0.958   4.263   5.248 -0.2396 -0.1668  0.1431
 8978SOL    HW138393   0.976   4.251   5.341 -1.4706  0.6993  0.4971
 8978SOL    HW238394   1.022   4.205   5.208 -0.6051 -1.3213  1.2476
 8979SOL     OW38395   2.259   2.211   2.344 -0.0934  0.2364 -0.6167
 8979SOL    HW138396   2.299   2.191   2.260 -1.1140  2.6193 -1.6594
 8979SOL    HW238397   2.343   2.218   2.389  0.9530  0.8980 -2.7038
 8980SOL     OW38398   1.173   4.669   5.255  0.0034 -0.5466  0.2332
 8980SOL    HW138399   1.247   4.685   5.314  0.2987  0.2394 -0.3560
 8980SOL    HW238400   1.207   4.599   5.199  0.8495  1.6184 -1.9460
 8981SOL     OW38401   3.686   0.885   9.914 -0.4836 -0.5113  0.4185
 8981SOL    HW138402   3.711   0.795   9.935  0.9541 -0.1730  0.1764
 8981SOL    HW238403   3.653   0.922   9.996 -0.5925 -1.8770  0.9853
 8982SOL     OW38404   0.905   2.634   5.890 -0.4683  0.2147  0.1986
 8982SOL    HW138405   0.993   2.654   5.920  0.5861 -2.0914 -1.4182
 8982SOL    HW238406   0.889   2.550   5.933 -0.8395 -0.7006 -1.7149
 8983SOL     OW38407   0.760   2.117   2.720 -0.3231  0.4646 -0.0395
 8983SOL    HW138408   0.730   2.183   2.657  2.5339  1.3651 -0.4889
 8983SOL    HW238409   0.855   2.123   2.711 -0.2253 -1.6072 -0.2790
 8984SOL     OW38410   1.093   3.548  17.618 -0.4631 -0.1577 -0.1113
 8984SOL    HW138411   1.046   3.533   0.001 -1.9107 -0.6989 -1.0423
 8984SOL    HW238412   1.136   3.627  17.650  1.8262 -1.2955 -0.3911
 8985SOL     OW38413   1.998   1.641   2.072  0.3252  0.5044 -0.2846
 8985SOL    HW138414   1.964   1.551   2.066  0.7487  0.2574  0.8930
 8985SOL    HW238415   2.085   1.616   2.103 -0.5585 -2.1681  0.0477
 8986SOL     OW38416   3.595   4.109  11.608  0.2175 -0.1165  0.0322
 8986SOL    HW138417   3.650   4.050  11.556  0.5784  0.2391  0.0130
 8986SOL    HW238418   3.588   4.073  11.697 -0.0559 -1.4984 -0.5469
 8987SOL     OW38419   2.368   4.663   6.256  0.0831 -0.3275 -0.8168
 8987SOL    HW138420   2.356   4.605   6.331 -1.7523  0.5575 -0.4211
 8987SOL    HW238421   2.416   4.615   6.189  2.6110 -0.0433  0.8043
 8988SOL     OW38422   3.182   1.192   8.105 -0.6980 -0.1783  0.3572
 8988SOL    HW138423   3.179   1.286   8.086 -0.4123 -0.4817 -1.2334
 8988SOL    HW238424   3.174   1.189   8.200  0.5251 -0.2533  0.4613
 8989SOL     OW38425   4.418   1.589   5.536 -0.4296 -0.5424 -0.1771
 8989SOL    HW138426   4.342   1.583   5.478  0.9955  1.1945 -2.2006
 8989SOL    HW238427   4.451   1.501   5.514  0.9845 -0.5503  2.0277
 8990SOL     OW38428   0.265   4.155   4.034  0.3970  0.4847 -0.2179
 8990SOL    HW138429   0.198   4.208   4.078  0.5709  0.8720 -0.4233
 8990SOL    HW238430   0.260   4.193   3.946  0.8223 -0.6794 -0.7530
 8991SOL     OW38431   2.887   2.504   3.605 -0.3668  0.1715  0.5684
 8991SOL    HW138432   2.877   2.426   3.549  2.2945  1.3590 -1.5914
 8991SOL    HW238433   2.938   2.557   3.543  0.2951  0.4041  1.3049
 8992SOL     OW38434   2.332   3.925   8.056  0.2208 -0.0442 -0.2863
 8992SOL    HW138435   2.346   3.866   7.981 -0.3743 -2.4646  1.4907
 8992SOL    HW238436   2.400   3.889   8.114  1.0621  1.1069 -0.5655
 8993SOL     OW38437   0.268   3.178   4.121  0.1731 -0.6077 -0.0952
 8993SOL    HW138438   0.336   3.126   4.163  0.0020  0.1514  1.1308
 8993SOL    HW238439   0.206   3.109   4.097 -1.0972 -0.4415  2.6018
 8994SOL     OW38440   2.195   1.051   3.686  0.1709  0.3772 -0.3736
 8994SOL    HW138441   2.237   0.969   3.658  1.1821  0.4575  0.8949
 8994SOL    HW238442   2.245   1.067   3.766  0.1270  4.3897 -1.1683
 8995SOL     OW38443   1.220   0.035   0.105  0.3823 -0.2175 -0.4485
 8995SOL    HW138444   1.147   0.015   0.164 -0.2676  0.4219 -1.0287
 8995SOL    HW238445   1.244   4.673   0.073  1.8887 -0.6561  1.9125
 8996SOL     OW38446   1.947   3.679   2.468  0.0878 -0.1515  0.3649
 8996SOL    HW138447   1.929   3.773   2.466  0.7175 -0.0719 -2.4451
 8996SOL    HW238448   1.908   3.650   2.385 -1.3418  0.8585  0.6796
 8997SOL     OW38449   2.419   2.865   6.471  0.8030 -0.0863  0.4689
 8997SOL    HW138450   2.441   2.822   6.553  1.1775 -0.2038  0.3084
 8997SOL    HW238451   2.497   2.837   6.422  1.7237 -0.6991  2.3117
 8998SOL     OW38452   2.780   4.561   1.470 -0.6127 -0.2932 -0.4821
 8998SOL    HW138453   2.849   4.570   1.537 -0.2369 -1.6355 -0.6969
 8998SOL    HW238454   2.834   4.528   1.399 -0.1593 -1.1838  0.2750
 8999SOL     OW38455   3.562   3.480   2.336 -0.2524 -0.2513 -0.2182
 8999SOL    HW138456   3.544   3.484   2.242  1.3906 -0.6437 -0.5460
 8999SOL    HW238457   3.647   3.437   2.348  0.6228  1.8085  0.9436
 9000SOL     OW38458   1.115   1.832   8.670  0.3929  0.7051 -0.1368
 9000SOL    HW138459   1.135   1.926   8.672 -2.1185  1.2226  0.4535
 9000SOL    HW238460   1.045   1.823   8.606 -0.8845  0.8313  1.2525
 9001SOL     OW38461   2.722   3.590   2.008  0.0776 -0.0074 -0.5610
 9001SOL    HW138462   2.758   3.550   1.929  1.3261 -1.7658  0.9039
 9001SOL    HW238463   2.778   3.547   2.073  1.3219  0.8870 -1.0481
 9002SOL     OW38464   3.083   2.269  13.437 -0.0372  0.3317  0.2650
 9002SOL    HW138465   3.046   2.355  13.419 -4.3770 -1.0041  2.7764
 9002SOL    HW238466   3.036   2.220  13.370 -2.2289 -0.3854  2.3272
 9003SOL     OW38467   1.857   2.077   1.079 -0.1659  0.4486 -0.3745
 9003SOL    HW138468   1.936   2.022   1.080 -0.0464  0.5601 -4.8240
 9003SOL    HW238469   1.867   2.121   0.994  1.9310  1.3254  0.3007
 9004SOL     OW38470   4.614   0.377  13.916  0.3093 -0.7111  0.0470
 9004SOL    HW138471   4.533   0.407  13.957 -0.6087 -1.1524 -1.4292
 9004SOL    HW238472   4.634   0.451  13.859  1.2235 -0.9926  0.0148
 9005SOL     OW38473   4.122   1.394  12.053  0.3987 -0.2319 -0.0961
 9005SOL    HW138474   4.121   1.299  12.068  1.9234 -0.0651  1.0117
 9005SOL    HW238475   4.043   1.392  11.999 -0.6480 -1.7997  1.4815
 9006SOL     OW38476   2.324   2.127  11.044 -0.3267  0.3205 -0.4143
 9006SOL    HW138477   2.232   2.118  11.069 -0.6669 -0.0738 -1.8383
 9006SOL    HW238478   2.309   2.148  10.952  0.2905  2.0992 -0.1024
 9007SOL     OW38479   1.597   4.548   8.064  0.4667 -0.4474 -0.6021
 9007SOL    HW138480   1.519   4.509   8.103  0.8050  1.7283  2.2829
 9007SOL    HW238481   1.566   4.596   7.988 -1.4157 -0.9830 -0.1752
 9008SOL     OW38482   3.083   2.917  11.162  0.0140 -0.0654  0.0539
 9008SOL    HW138483   3.051   2.951  11.078  0.3923 -2.3333 -1.0235
 9008SOL    HW238484   3.034   2.975  11.220  0.5419 -0.1384  0.5705
 9009SOL     OW38485   1.602   3.904  12.611 -0.3781  0.6071 -0.1527
 9009SOL    HW138486   1.657   3.869  12.681  1.5906 -0.7728 -2.4106
 9009SOL    HW238487   1.666   3.901  12.541  0.0012  0.4788  0.2000
 9010SOL     OW38488   1.411   4.523   7.854 -0.4073 -0.0785  0.2825
 9010SOL    HW138489   1.366   4.596   7.896 -0.8924 -0.5279  0.5387
 9010SOL    HW238490   1.336   4.475   7.819 -1.3795  0.6635  1.3453
 9011SOL     OW38491   1.961   2.830   4.666 -0.2005 -0.3502 -0.1952
 9011SOL    HW138492   1.959   2.898   4.599  2.4937 -2.1783 -2.0972
 9011SOL    HW238493   1.952   2.759   4.602 -0.7250 -1.4611  1.1139
 9012SOL     OW38494   1.372   3.380   2.269 -0.5644 -0.1284 -0.3270
 9012SOL    HW138495   1.311   3.441   2.310  0.7482  1.6877 -1.0767
 9012SOL    HW238496   1.381   3.407   2.178  0.1889  0.4872 -0.0729
 9013SOL     OW38497   0.274   3.270  12.531  0.5312 -0.5246 -0.4764
 9013SOL    HW138498   0.319   3.348  12.499 -1.0928  1.1484  1.2898
 9013SOL    HW238499   0.280   3.212  12.455  1.6785  1.4854 -1.9284
 9014SOL     OW38500   0.376   1.752   8.952  0.6686 -0.4153  0.2471
 9014SOL    HW138501   0.426   1.722   9.028  1.5861  0.6300  0.0612
 9014SOL    HW238502   0.285   1.745   8.981  0.2836 -0.7842 -1.0469
 9015SOL     OW38503   2.907   1.748   8.326 -0.2682 -0.2914 -0.1904
 9015SOL    HW138504   2.936   1.670   8.279  1.8799 -1.7049  3.4987
 9015SOL    HW238505   2.976   1.811   8.307  0.2775 -1.3719 -1.7928
 9016SOL     OW38506   1.084   0.072   0.824  0.3396  0.0503 -0.3733
 9016SOL    HW138507   1.054   0.163   0.816  0.3046  0.1516  0.8591
 9016SOL    HW238508   1.168   0.082   0.780  0.8087 -2.6347 -0.0522
 9017SOL     OW38509   2.537   2.652   5.388  0.5738  0.2196 -0.5612
 9017SOL    HW138510   2.594   2.715   5.431  1.4727  1.1926 -3.1761
 9017SOL    HW238511   2.451   2.686   5.414  0.0874 -1.3050 -0.1757
 9018SOL     OW38512   1.876   1.893   3.222  0.2495 -0.1906  0.0507
 9018SOL    HW138513   1.866   1.810   3.268  3.4245 -0.8993 -0.5848
 9018SOL    HW238514   1.785   1.897   3.193  0.0292  1.2381  0.9323
 9019SOL     OW38515   1.708   2.484  13.687 -0.4019  0.5505  0.0653
 9019SOL    HW138516   1.731   2.576  13.694  2.8323 -0.1184 -1.7351
 9019SOL    HW238517   1.721   2.468  13.593  1.5905 -2.7988  0.9056
 9020SOL     OW38518   2.751   0.167   5.867  0.0033 -0.0206  0.0202
 9020SOL    HW138519   2.813   0.232   5.902 -0.5728  0.1295  0.7850
 9020SOL    HW238520   2.745   0.105   5.940 -0.9101  0.6935  0.5595
 9021SOL     OW38521   3.032   4.091   1.980  0.3577 -0.1338 -0.2740
 9021SOL    HW138522   3.050   4.157   2.047  0.4005 -0.8126  0.3966
 9021SOL    HW238523   3.057   4.010   2.024  0.3286 -0.1641 -0.3130
 9022SOL     OW38524   0.537   0.590   7.880  0.2666  0.5421 -0.3889
 9022SOL    HW138525   0.531   0.678   7.843 -1.5125  1.5315  2.2417
 9022SOL    HW238526   0.600   0.611   7.949  0.0196  0.3807 -0.1145
 9023SOL     OW38527   2.305   1.383  11.274  0.0038  0.0158  0.6562
 9023SOL    HW138528   2.360   1.322  11.323  1.3240  0.0556 -0.7399
 9023SOL    HW238529   2.353   1.391  11.191  0.1450  1.6053  0.8905
 9024SOL     OW38530   4.140   0.460   2.540 -0.4303  0.4807  0.2127
 9024SOL    HW138531   4.100   0.461   2.452 -3.7014 -1.4390  1.6783
 9024SOL    HW238532   4.229   0.467   2.507 -0.1897  3.0912  1.3958
 9025SOL     OW38533   1.451   2.218   7.432 -0.2056 -0.1176 -0.0344
 9025SOL    HW138534   1.466   2.211   7.526  0.5015 -0.3999 -0.1706
 9025SOL    HW238535   1.510   2.155   7.391 -0.9014 -0.6647 -0.1976
 9026SOL     OW38536   3.404   0.078  14.803 -0.2810  0.0102  0.0682
 9026SOL    HW138537   3.451   0.142  14.857  1.8714 -1.1943 -0.3638
 9026SOL    HW238538   3.459   0.004  14.829 -1.1558 -0.4755  0.4986
 9027SOL     OW38539   0.926   0.912  14.061  0.3392 -0.0071 -0.5812
 9027SOL    HW138540   0.887   0.824  14.063  1.8751 -0.6993 -1.0431
 9027SOL    HW238541   0.990   0.910  14.132 -0.9350  0.0423  0.5760
 9028SOL     OW38542   1.668   2.198   3.204 -0.0868  0.0970 -0.7336
 9028SOL    HW138543   1.650   2.107   3.179 -1.5690  0.4515 -0.9595
 9028SOL    HW238544   1.761   2.203   3.180 -0.2762 -0.7325 -1.6301
 9029SOL     OW38545   1.957   0.041   1.708 -0.1937  0.4922 -0.3898
 9029SOL    HW138546   1.974   0.092   1.787 -1.4985  0.5742 -0.1692
 9029SOL    HW238547   2.016   0.084   1.646  1.4323 -0.4439  0.5090
 9030SOL     OW38548   2.813   1.956   5.634  0.0587 -0.0429  0.1001
 9030SOL    HW138549   2.729   1.916   5.659  2.0447 -3.5657  1.0550
 9030SOL    HW238550   2.873   1.892   5.672  0.7992  0.8188  0.3737
 9031SOL     OW38551   0.746   3.380   5.453 -0.2925 -0.2570 -0.0255
 9031SOL    HW138552   0.768   3.450   5.392 -2.4536  1.5738  1.2755
 9031SOL    HW238553   0.700   3.315   5.400 -2.1443 -0.3170  1.6370
 9032SOL     OW38554   0.907   2.626  14.773  0.3851 -0.0219  0.1930
 9032SOL    HW138555   0.827   2.675  14.755 -0.1511 -0.0653  2.3878
 9032SOL    HW238556   0.864   2.561  14.829 -0.1304 -0.3146 -0.5325
 9033SOL     OW38557   2.144   2.292   3.086  0.1978 -0.0918 -0.2797
 9033SOL    HW138558   2.111   2.206   3.061  1.1773  0.2761 -2.8694
 9033SOL    HW238559   2.070   2.336   3.128 -0.1190 -1.7820  0.9494
 9034SOL     OW38560   2.763   4.194   5.067  0.1641  0.1329 -1.0519
 9034SOL    HW138561   2.737   4.167   4.979  2.8115 -0.8263 -1.5278
 9034SOL    HW238562   2.854   4.163   5.065  0.2840  0.4508 -0.5091
 9035SOL     OW38563   0.170   1.372  14.550 -0.1611 -0.4561 -0.0105
 9035SOL    HW138564   0.200   1.283  14.535  2.6430  0.4128  0.4912
 9035SOL    HW238565   0.208   1.422  14.477  1.5425 -0.4874  0.8689
 9036SOL     OW38566   2.035   1.229   7.948  0.4703 -0.0986  0.1388
 9036SOL    HW138567   2.017   1.313   7.905  0.0211  0.0441  0.6209
 9036SOL    HW238568   2.075   1.252   8.031  0.2534 -1.3818  0.6007
 9037SOL     OW38569   2.860   4.089   5.879  0.1867  0.1690 -0.1559
 9037SOL    HW138570   2.878   4.156   5.946  0.4465  1.4960 -1.5511
 9037SOL    HW238571   2.843   4.013   5.935 -0.3091  1.1217  0.9989
 9038SOL     OW38572   0.726   2.954   1.116  0.0022  0.2494  0.4604
 9038SOL    HW138573   0.808   2.970   1.068 -1.8728 -1.9485 -3.4616
 9038SOL    HW238574   0.675   3.032   1.095 -0.4245 -0.3320 -0.6236
 9039SOL     OW38575   2.121   2.167   7.513  0.0875  0.4965  0.3230
 9039SOL    HW138576   2.147   2.207   7.596  1.0994 -1.8237  1.1475
 9039SOL    HW238577   2.178   2.090   7.515  0.7247  0.9516 -0.1223
 9040SOL     OW38578   2.783   4.144  16.529 -0.1045 -0.8742  0.0701
 9040SOL    HW138579   2.808   4.064  16.483 -0.2174  0.1423 -1.7815
 9040SOL    HW238580   2.842   4.207  16.486 -0.1620 -0.2341  0.9350
 9041SOL     OW38581   3.398   0.460  16.808 -0.2833 -0.3175  0.1046
 9041SOL    HW138582   3.318   0.458  16.755 -0.7791  0.2285  0.8505
 9041SOL    HW238583   3.465   0.455  16.739 -0.8280 -0.8517 -0.3903
 9042SOL     OW38584   2.330   4.425   3.383 -0.0757  0.2562  0.1675
 9042SOL    HW138585   2.349   4.463   3.298 -0.0275 -0.3919 -0.1129
 9042SOL    HW238586   2.395   4.355   3.389  3.0848  3.1994  0.2694
 9043SOL     OW38587   2.918   0.510  12.607  0.0391  0.1502  0.0739
 9043SOL    HW138588   2.944   0.492  12.697 -3.2672  1.5692  1.3441
 9043SOL    HW238589   2.851   0.578  12.620  1.1604  1.2332  0.2297
 9044SOL     OW38590   2.988   3.491  14.857 -0.1039 -0.3965  0.2050
 9044SOL    HW138591   2.997   3.402  14.891  0.6839 -0.2824  0.3056
 9044SOL    HW238592   2.942   3.479  14.774  2.3966  0.1961 -1.2782
 9045SOL     OW38593   3.443   1.811   6.659 -0.1144  0.0199 -0.2557
 9045SOL    HW138594   3.514   1.845   6.605  0.2385 -0.3925 -0.0577
 9045SOL    HW238595   3.459   1.717   6.669 -4.4604 -0.9372 -2.4805
 9046SOL     OW38596   0.563   3.964   6.904 -0.5668  0.2099 -0.3411
 9046SOL    HW138597   0.658   3.969   6.911 -0.4513 -2.5893 -0.1304
 9046SOL    HW238598   0.537   3.959   6.996 -0.0336 -2.3118 -0.3311
 9047SOL     OW38599   3.045   3.511   3.495 -0.1950  0.0511 -0.0245
 9047SOL    HW138600   3.065   3.554   3.578  0.4035  0.5426 -0.4210
 9047SOL    HW238601   3.084   3.424   3.509 -1.2154 -0.1803  1.3704
 9048SOL     OW38602   3.808   0.639   9.151  0.4536  0.2259  0.4767
 9048SOL    HW138603   3.761   0.624   9.069  1.6863 -0.3767 -0.1130
 9048SOL    HW238604   3.842   0.554   9.177  0.4135 -0.0292 -0.3180
 9049SOL     OW38605   0.053   2.151  17.532 -0.0803  0.0606  0.4794
 9049SOL    HW138606   0.137   2.197  17.525 -0.4950  1.1942  3.1521
 9049SOL    HW238607   0.080   2.082  17.593 -2.3869 -0.3130  1.0578
 9050SOL     OW38608   2.477   3.769   4.456  0.6788 -0.7317 -0.4639
 9050SOL    HW138609   2.512   3.682   4.434  1.6000  0.2302 -2.8520
 9050SOL    HW238610   2.422   3.792   4.380 -0.6900 -0.5251  0.5886
 9051SOL     OW38611   1.934   1.069   6.572  0.3160  0.2500 -0.2867
 9051SOL    HW138612   1.880   0.995   6.601 -0.1855 -0.0478 -1.9384
 9051SOL    HW238613   2.021   1.034   6.553 -0.1197 -0.1230 -1.5795
 9052SOL     OW38614   1.377   0.930   0.312 -0.4807  0.3872 -0.3749
 9052SOL    HW138615   1.407   0.878   0.387  0.4151 -0.3921 -1.2742
 9052SOL    HW238616   1.455   0.983   0.301 -1.7873  2.7578  1.6641
 9053SOL     OW38617   4.097   0.774   7.305 -0.0047  0.5726 -0.4592
 9053SOL    HW138618   4.136   0.699   7.260  1.3257  1.7142 -1.2115
 9053SOL    HW238619   4.028   0.736   7.360  0.6539 -2.7409 -1.9191
 9054SOL     OW38620   3.418   1.703   8.885 -0.2104  0.8004 -0.0842
 9054SOL    HW138621   3.512   1.705   8.905 -0.4709 -0.9475  1.3189
 9054SOL    HW238622   3.405   1.609   8.898 -0.2137  0.5247 -2.1259
 9055SOL     OW38623   2.266   0.956   5.892 -0.0335 -0.2863  0.0802
 9055SOL    HW138624   2.332   0.995   5.949  1.5427  0.1860 -2.0698
 9055SOL    HW238625   2.302   0.875   5.855  0.3316  0.2109 -0.6449
 9056SOL     OW38626   1.465   0.027  12.654 -0.4043 -0.2371 -0.1533
 9056SOL    HW138627   1.383   4.721  12.691  0.2136 -0.2167  1.2390
 9056SOL    HW238628   1.504   4.670  12.622  0.7899  0.8002 -1.3659
 9057SOL     OW38629   4.094   2.602   0.979  0.4490 -0.6659 -0.5013
 9057SOL    HW138630   4.045   2.675   0.939  1.0481  0.0718  0.1292
 9057SOL    HW238631   4.089   2.627   1.071  3.9862  1.6293 -0.9402
 9058SOL     OW38632   3.301   0.047  15.080 -0.0341 -0.2925 -0.3068
 9058SOL    HW138633   3.347   0.084  15.005 -1.7157  1.7561 -0.3081
 9058SOL    HW238634   3.256   4.698  15.037  0.6260 -1.1119  0.3866
 9059SOL     OW38635   0.352   1.291   8.326  0.2000  0.5230  0.4762
 9059SOL    HW138636   0.361   1.368   8.270 -1.0560  1.0022  0.9384
 9059SOL    HW238637   0.381   1.326   8.410 -1.3361  2.7249  0.0971
 9060SOL     OW38638   2.887   2.712   7.787  0.0441 -0.1455 -0.4853
 9060SOL    HW138639   2.969   2.735   7.829 -0.5780 -1.6998  1.6050
 9060SOL    HW238640   2.904   2.743   7.698 -0.6038 -2.7256 -1.5019
 9061SOL     OW38641   2.060   2.718  13.171  0.1952 -0.2381 -0.9990
 9061SOL    HW138642   2.149   2.737  13.201 -0.6444  1.2280  0.5117
 9061SOL    HW238643   2.029   2.667  13.246  0.2735 -1.1543 -1.5751
 9062SOL     OW38644   0.251   1.822  13.074 -0.3569 -0.2204 -0.2288
 9062SOL    HW138645   0.167   1.860  13.049 -0.5853  0.0947  1.0196
 9062SOL    HW238646   0.238   1.742  13.023  0.1745  0.0105 -0.7250
 9063SOL     OW38647   1.330   2.060   4.558  0.4155 -0.3454  0.4887
 9063SOL    HW138648   1.250   2.023   4.596 -1.2363  2.0548 -0.6580
 9063SOL    HW238649   1.326   2.154   4.573  1.7295 -0.2046 -0.0917
 9064SOL     OW38650   0.966   3.576  11.421  0.6829  0.0995  0.4237
 9064SOL    HW138651   0.902   3.537  11.362  0.7103 -0.8380  1.0159
 9064SOL    HW238652   0.926   3.562  11.508 -2.6846  1.4751 -0.9021
 9065SOL     OW38653   3.239   3.517  11.935 -0.4417 -0.6687  0.8613
 9065SOL    HW138654   3.244   3.422  11.940  0.0057 -0.6721  0.2639
 9065SOL    HW238655   3.197   3.523  12.021  0.8152 -0.7756  1.4681
 9066SOL     OW38656   1.637   0.504  13.375 -0.8766  0.0237 -0.2851
 9066SOL    HW138657   1.726   0.504  13.412 -0.5986 -2.5199 -0.9467
 9066SOL    HW238658   1.592   0.464  13.450  0.6758 -1.0199  0.1036
 9067SOL     OW38659   0.132   0.075   7.196 -0.2372 -0.2839 -0.1294
 9067SOL    HW138660   0.195   0.135   7.235 -1.2966 -0.4086  1.7383
 9067SOL    HW238661   0.054   0.102   7.244  0.2226 -2.0974  1.5955
 9068SOL     OW38662   0.740   0.853  14.343 -0.1906 -0.2155 -0.3034
 9068SOL    HW138663   0.713   0.942  14.321 -3.7845 -1.5746 -1.3455
 9068SOL    HW238664   0.835   0.842  14.339  0.0804  1.2026  2.2787
 9069SOL     OW38665   0.279   1.026   8.453 -0.5952 -0.3044  0.4580
 9069SOL    HW138666   0.328   1.044   8.534 -0.0462 -1.9571  0.4937
 9069SOL    HW238667   0.314   1.099   8.401 -0.3102 -0.4943  0.3814
 9070SOL     OW38668   3.647   0.087   4.878 -0.3494  0.0112  0.2928
 9070SOL    HW138669   3.581   0.133   4.930  1.3480  3.1921 -0.4228
 9070SOL    HW238670   3.719   0.149   4.876 -1.9799  1.9304  1.2251
 9071SOL     OW38671   2.285   3.093  12.165 -0.8041  0.6327  0.5102
 9071SOL    HW138672   2.380   3.082  12.166 -1.2376 -3.1392 -0.8771
 9071SOL    HW238673   2.262   3.112  12.256 -0.1504 -1.8073  1.1938
 9072SOL     OW38674   4.206   3.991  16.612  0.0410  0.0933 -0.1499
 9072SOL    HW138675   4.280   4.037  16.651  0.8813 -1.2778 -0.1496
 9072SOL    HW238676   4.180   3.936  16.686 -2.2548 -0.0708 -1.0601
 9073SOL     OW38677   1.135   2.546   4.653 -0.3295 -0.6162 -0.7740
 9073SOL    HW138678   1.189   2.621   4.680  1.3358 -1.6296 -1.2892
 9073SOL    HW238679   1.054   2.594   4.636 -0.6744 -0.4488  1.3731
 9074SOL     OW38680   3.033   1.216  11.362 -0.1365  0.3061 -0.1305
 9074SOL    HW138681   2.979   1.140  11.340 -0.8796  0.0716  2.4653
 9074SOL    HW238682   3.108   1.171  11.400  0.5042  1.3567 -0.1577
 9075SOL     OW38683   0.935   4.681   6.234  0.4205  0.0283  0.5665
 9075SOL    HW138684   0.922   0.046   6.202 -2.0819 -0.2754  0.7137
 9075SOL    HW238685   0.936   4.681   6.330  0.4043  2.4229  0.5877
 9076SOL     OW38686   3.085   2.837   8.592 -0.0264 -0.2940  0.0258
 9076SOL    HW138687   3.034   2.756   8.595 -3.3102  1.8890  2.4714
 9076SOL    HW238688   3.140   2.819   8.516  1.2407 -1.9635  1.3341
 9077SOL     OW38689   2.035   2.717   7.918  0.8738 -0.0208 -0.0968
 9077SOL    HW138690   2.030   2.806   7.951 -0.4623  0.1267 -0.6754
 9077SOL    HW238691   1.948   2.714   7.878  0.4638  0.7060  0.7550
 9078SOL     OW38692   0.951   3.872   8.349  0.9754  0.3156 -0.4792
 9078SOL    HW138693   1.043   3.852   8.364  0.5448 -1.5436 -0.3482
 9078SOL    HW238694   0.913   3.809   8.410 -0.2946  1.6446  0.0904
 9079SOL     OW38695   0.213   2.558   4.843 -0.6977  0.4681 -0.0079
 9079SOL    HW138696   0.275   2.498   4.801  0.8504  2.0344  0.0558
 9079SOL    HW238697   0.136   2.502   4.852 -2.3909  3.0987  1.7459
 9080SOL     OW38698   0.546   0.416  14.539  0.4288  0.1492 -0.3244
 9080SOL    HW138699   0.576   0.332  14.575 -0.2897 -0.4205 -1.0650
 9080SOL    HW238700   0.522   0.381  14.454 -1.7088 -0.7551  0.6345
 9081SOL     OW38701   4.554   1.931   5.980  0.1876  0.2780  0.1256
 9081SOL    HW138702   4.628   1.934   6.041 -0.6807  0.1074  1.1718
 9081SOL    HW238703   4.483   1.930   6.045  0.5656  1.9103  0.5623
 9082SOL     OW38704   3.550   1.428   4.575  0.3744  0.0696  0.4858
 9082SOL    HW138705   3.528   1.390   4.490 -2.4914  2.3475  0.1976
 9082SOL    HW238706   3.500   1.365   4.627 -1.1637  1.7177  0.9911
 9083SOL     OW38707   4.337   4.413   3.393  0.5544  0.2972 -0.1300
 9083SOL    HW138708   4.286   4.464   3.329  0.9338  3.6378  2.2406
 9083SOL    HW238709   4.277   4.345   3.423 -0.6841  1.1235 -0.7206
 9084SOL     OW38710   3.448   0.837   6.902  0.4358  0.4051 -0.1901
 9084SOL    HW138711   3.390   0.910   6.923  1.9036  1.3477  0.5929
 9084SOL    HW238712   3.529   0.887   6.896  1.2361 -1.0081 -1.2091
 9085SOL     OW38713   3.964   0.396   6.126  0.1180 -0.2573 -0.3205
 9085SOL    HW138714   4.014   0.404   6.045  2.4210  1.3304  1.2919
 9085SOL    HW238715   3.992   0.472   6.176  0.2444  0.7955 -1.9971
 9086SOL     OW38716   1.440   0.452   6.004 -0.2406 -0.5080  0.3085
 9086SOL    HW138717   1.525   0.410   6.015 -0.6610 -0.9455  1.9634
 9086SOL    HW238718   1.434   0.521   6.070 -0.1597  0.2170 -0.4481
 9087SOL     OW38719   2.015   2.271   4.115 -0.8760  0.2894  0.0071
 9087SOL    HW138720   1.931   2.228   4.129  0.7793 -1.9484  3.0106
 9087SOL    HW238721   1.983   2.354   4.080 -2.5127 -0.8288 -1.1808
 9088SOL     OW38722   2.666   1.547   8.132  0.3583 -0.0380 -0.0444
 9088SOL    HW138723   2.626   1.503   8.207 -0.8621  0.7758 -0.2280
 9088SOL    HW238724   2.757   1.517   8.140 -0.4790 -1.6357  3.5674
 9089SOL     OW38725   3.795   2.970   2.791 -0.2202 -0.4662  0.6983
 9089SOL    HW138726   3.862   2.912   2.826  1.4762  1.4112  0.5784
 9089SOL    HW238727   3.760   2.916   2.720  0.0537  1.4992 -0.9475
 9090SOL     OW38728   2.687   0.483   4.089 -0.1493 -0.0202  0.6707
 9090SOL    HW138729   2.770   0.437   4.104 -2.0768 -2.8222  2.7290
 9090SOL    HW238730   2.712   0.571   4.059 -1.4392 -0.8416 -2.7098
 9091SOL     OW38731   1.301   0.317  14.587 -0.9781  0.1875  0.0945
 9091SOL    HW138732   1.363   0.316  14.660 -0.0695 -1.9033 -0.7036
 9091SOL    HW238733   1.221   0.334  14.638 -0.0072 -1.9362  2.3667
 9092SOL     OW38734   3.998   0.920   5.344  0.3952 -0.0201 -0.4358
 9092SOL    HW138735   4.071   0.858   5.336  0.4582 -0.3036  2.2919
 9092SOL    HW238736   3.929   0.870   5.301  2.0869 -1.5181 -1.4459
 9093SOL     OW38737   4.038   1.858   7.609  0.1760 -0.0282 -0.2410
 9093SOL    HW138738   4.103   1.834   7.543  0.3001 -0.8007  0.1636
 9093SOL    HW238739   3.982   1.780   7.609  0.1626 -0.0103  4.6813
 9094SOL     OW38740   1.738   4.211   4.209 -0.3484  0.3084 -0.2055
 9094SOL    HW138741   1.833   4.204   4.198 -0.2190  1.2276  0.3214
 9094SOL    HW238742   1.690   4.170   4.137 -0.3896 -1.8658  1.0763
 9095SOL     OW38743   1.972   1.608   2.485  0.1898  0.1236  0.2807
 9095SOL    HW138744   1.988   1.528   2.436 -0.3473  1.1214 -1.5412
 9095SOL    HW238745   2.059   1.633   2.515 -0.1625  2.0601 -0.2931
 9096SOL     OW38746   1.410   0.672   3.874  0.0818 -0.2787  0.5317
 9096SOL    HW138747   1.462   0.613   3.820 -0.8153 -0.1097 -0.5118
 9096SOL    HW238748   1.370   0.613   3.938  1.0378 -0.6375  0.7932
 9097SOL     OW38749   1.972   1.284  12.091 -0.1889  0.4009  0.3986
 9097SOL    HW138750   1.891   1.289  12.040 -0.5665  2.0941  1.1531
 9097SOL    HW238751   1.987   1.189  12.086  0.0187  0.4189  0.7046
 9098SOL     OW38752   1.030   0.399   3.130 -0.3896 -0.2425  0.4357
 9098SOL    HW138753   0.976   0.321   3.134 -0.9989  0.2234  1.1312
 9098SOL    HW238754   1.075   0.385   3.046  0.3842 -1.4418  1.0476
 9099SOL     OW38755   0.891   1.306  11.926 -0.1141 -0.0947 -0.2093
 9099SOL    HW138756   0.809   1.259  11.935 -1.6477  2.6062 -0.0396
 9099SOL    HW238757   0.861   1.389  11.963  0.4253 -0.0243  0.0627
 9100SOL     OW38758   4.217   2.950   8.634  0.0873 -0.5521 -0.5223
 9100SOL    HW138759   4.235   3.037   8.670 -0.8289  0.4154 -2.3803
 9100SOL    HW238760   4.147   2.960   8.569  0.0824 -0.7357 -0.5458
 9101SOL     OW38761   3.316   4.322  17.688 -0.3459  0.0676 -0.2028
 9101SOL    HW138762   3.336   4.244   0.042 -0.7688  0.3109  0.3127
 9101SOL    HW238763   3.235   4.351   0.032  0.9108  1.0171  1.5157
 9102SOL     OW38764   1.378   3.528  10.436 -0.0155 -0.0810  0.1190
 9102SOL    HW138765   1.372   3.444  10.482 -1.3402 -0.8301 -1.3843
 9102SOL    HW238766   1.456   3.560  10.481  0.5719 -1.0142 -0.2457
 9103SOL     OW38767   2.415   3.323   9.949  0.4291 -0.3949  0.2515
 9103SOL    HW138768   2.400   3.321  10.043 -0.1246 -2.0599  0.1221
 9103SOL    HW238769   2.501   3.282   9.947  0.3757 -0.5805  2.1225
 9104SOL     OW38770   0.512   2.167   8.093  0.1119  0.2038 -0.0098
 9104SOL    HW138771   0.532   2.186   8.002  0.5009 -2.9117 -0.5618
 9104SOL    HW238772   0.512   2.072   8.088 -0.9003  0.1712  0.4547
 9105SOL     OW38773   0.203   3.259   5.185 -0.1404  0.5636  0.6931
 9105SOL    HW138774   0.113   3.236   5.207 -0.2645  0.6511  0.2880
 9105SOL    HW238775   0.184   3.332   5.126 -1.5706 -0.2116  0.1893
 9106SOL     OW38776   3.018   4.473   4.348 -0.4402 -0.1107  0.2904
 9106SOL    HW138777   3.083   4.409   4.378  2.2377  1.5355 -2.0170
 9106SOL    HW238778   2.960   4.409   4.306 -0.1379 -0.9126  1.0922
 9107SOL     OW38779   4.222   0.786   0.987  0.4066 -0.8366 -0.0764
 9107SOL    HW138780   4.282   0.730   1.038  3.1408 -0.4732 -2.8727
 9107SOL    HW238781   4.156   0.727   0.952 -0.6527  2.0228 -2.8957
 9108SOL     OW38782   3.838   2.071  16.767 -0.1949  0.0145  0.0564
 9108SOL    HW138783   3.789   2.063  16.684  0.8683 -0.9382 -0.4847
 9108SOL    HW238784   3.924   2.060  16.726  0.0757 -2.0192  1.1459
 9109SOL     OW38785   3.086   1.491   5.360 -0.2850  0.7939  0.0044
 9109SOL    HW138786   2.998   1.471   5.329 -0.4034 -1.1755  1.5713
 9109SOL    HW238787   3.142   1.442   5.300 -2.0978 -0.7665 -0.4184
 9110SOL     OW38788   4.303   2.716  14.477 -0.1318 -0.0317 -0.0363
 9110SOL    HW138789   4.332   2.768  14.552 -1.9078  1.8934 -0.6927
 9110SOL    HW238790   4.269   2.642  14.527  0.4803 -1.2798 -1.4865
 9111SOL     OW38791   1.631   3.671   2.225  0.4130  0.4976  0.5343
 9111SOL    HW138792   1.696   3.635   2.165 -0.2204 -1.8589  1.2669
 9111SOL    HW238793   1.610   3.753   2.180 -0.3223  0.7302  1.2842
 9112SOL     OW38794   3.428   2.852  11.961 -0.3224 -0.0561  0.9045
 9112SOL    HW138795   3.459   2.834  12.050  2.4409 -0.5312 -0.1630
 9112SOL    HW238796   3.335   2.853  11.984 -0.3586 -2.2569  0.8750
 9113SOL     OW38797   2.403   1.352   2.994 -0.5356  0.3002  0.0168
 9113SOL    HW138798   2.414   1.324   2.904  0.5597  3.0168 -0.7079
 9113SOL    HW238799   2.477   1.311   3.039 -0.1089  1.7338  0.6489
 9114SOL     OW38800   0.292   1.484   7.094  0.3358  0.7255  0.0351
 9114SOL    HW138801   0.328   1.397   7.106  0.1030  1.0246  2.7986
 9114SOL    HW238802   0.347   1.513   7.021 -1.2115 -0.5745 -1.6602
 9115SOL     OW38803   4.289   2.310   7.720  0.3771  0.0234 -0.3359
 9115SOL    HW138804   4.272   2.228   7.766  0.3193  0.5994  0.6653
 9115SOL    HW238805   4.309   2.372   7.790 -1.0202 -0.5392  0.5705
 9116SOL     OW38806   4.633   3.676   1.452  0.2950  0.1119 -0.0182
 9116SOL    HW138807   4.625   3.711   1.363 -0.1527 -0.2830 -0.1347
 9116SOL    HW238808   4.613   3.584   1.434 -0.6140  0.1966  0.5727
 9117SOL     OW38809   3.486   3.568   7.938 -0.2505 -0.1221  0.1470
 9117SOL    HW138810   3.537   3.638   7.979  2.5488 -1.3037 -1.2783
 9117SOL    HW238811   3.453   3.526   8.018  0.2495 -0.7515  0.0231
 9118SOL     OW38812   2.278   0.591   2.847  0.2859 -0.0070 -0.3084
 9118SOL    HW138813   2.200   0.605   2.902  0.8176  0.0484  0.4300
 9118SOL    HW238814   2.268   0.515   2.790  1.2255 -0.3767  0.0259
 9119SOL     OW38815   0.273   1.977   6.890 -0.0353 -0.1534  0.1997
 9119SOL    HW138816   0.295   2.021   6.971 -0.7248 -1.0032  0.8489
 9119SOL    HW238817   0.225   2.050   6.853  0.7995 -0.7283 -2.0275
 9120SOL     OW38818   0.962   4.500   2.967  0.3766  0.6300 -0.2123
 9120SOL    HW138819   1.039   4.452   2.998  0.5260  1.7366  1.1304
 9120SOL    HW238820   0.888   4.466   3.018  1.1603 -0.7822 -0.0011
 9121SOL     OW38821   0.900   1.079   5.060  0.0609 -0.2697  0.4479
 9121SOL    HW138822   0.971   1.138   5.086 -0.8350  0.8131  0.4431
 9121SOL    HW238823   0.934   1.041   4.980 -2.0057  0.2488 -0.6732
 9122SOL     OW38824   4.483   2.110   4.261 -0.1132 -0.4429  0.0431
 9122SOL    HW138825   4.519   2.029   4.225  0.2139 -0.2598 -0.0434
 9122SOL    HW238826   4.490   2.162   4.180 -0.4217 -0.3031  0.1052
 9123SOL     OW38827   1.362   1.894   4.876  0.0710  0.0334  0.2692
 9123SOL    HW138828   1.331   1.812   4.915  1.2820  0.2634  1.7286
 9123SOL    HW238829   1.453   1.904   4.905 -0.7894 -0.2156  3.0203
 9124SOL     OW38830   2.120   3.192   7.289  0.0026  0.4130 -0.0821
 9124SOL    HW138831   2.207   3.159   7.312  0.8025  1.4933 -1.5241
 9124SOL    HW238832   2.090   3.212   7.377  2.3924 -0.1522  0.8642
 9125SOL     OW38833   1.875   3.420   1.401 -0.3759 -0.4242 -0.4802
 9125SOL    HW138834   1.833   3.493   1.448 -0.7556 -1.5514  0.9512
 9125SOL    HW238835   1.807   3.366   1.360  0.4242 -1.3958 -0.5117
 9126SOL     OW38836   1.245   3.669   6.895 -0.3873  0.0887  0.0907
 9126SOL    HW138837   1.226   3.760   6.918  0.0533 -0.4392  2.5215
 9126SOL    HW238838   1.336   3.671   6.866 -0.7970  0.7226 -1.1655
 9127SOL     OW38839   1.840   1.549  12.212  0.3910  0.5690  0.1668
 9127SOL    HW138840   1.896   1.545  12.289 -0.1048 -1.2001  0.4314
 9127SOL    HW238841   1.838   1.643  12.193  0.6804  0.5873  0.2275
 9128SOL     OW38842   0.224   3.542  17.607  0.0081 -0.3332 -0.4274
 9128SOL    HW138843   0.158   3.549  17.675 -1.5438 -2.7280 -1.7206
 9128SOL    HW238844   0.244   3.449  17.615 -0.7425 -0.4498 -0.0085
 9129SOL     OW38845   0.636   0.580   2.850 -0.4227 -0.0969 -0.4678
 9129SOL    HW138846   0.626   0.496   2.896 -0.1979  0.8263  1.2609
 9129SOL    HW238847   0.547   0.592   2.818  0.0007  1.7480 -0.8916
 9130SOL     OW38848   0.985   0.104   5.120 -0.0561  0.1237 -0.3004
 9130SOL    HW138849   1.044   0.057   5.180  1.3243 -1.7010 -3.0666
 9130SOL    HW238850   0.906   0.051   5.127 -0.4688  0.5603 -1.7668
 9131SOL     OW38851   2.324   0.853   7.940  0.2567 -0.1304 -0.2083
 9131SOL    HW138852   2.303   0.935   7.896  0.5181  2.1914  4.0555
 9131SOL    HW238853   2.327   0.881   8.031 -0.3658  0.2049 -0.2906
 9132SOL     OW38854   4.220   4.122  14.299  0.0374 -0.2650 -0.2904
 9132SOL    HW138855   4.192   4.168  14.378  3.0429 -0.9678  1.1859
 9132SOL    HW238856   4.142   4.130  14.244 -1.1496 -0.4326  1.3674
 9133SOL     OW38857   3.917   1.434   9.592 -0.1148  0.3293  0.3156
 9133SOL    HW138858   3.867   1.515   9.604 -2.2056 -1.1045  1.1997
 9133SOL    HW238859   3.935   1.440   9.498  0.8295  2.4356  0.6269
 9134SOL     OW38860   1.074   2.414  10.054 -0.0278  0.0962  0.4763
 9134SOL    HW138861   1.071   2.325  10.019 -0.9988  0.5524 -0.6041
 9134SOL    HW238862   1.154   2.418  10.107  1.5559  2.2282 -2.0143
 9135SOL     OW38863   4.124   1.988   8.290 -0.2960  0.1937  0.3449
 9135SOL    HW138864   4.078   2.056   8.339  1.7834  0.7232  1.5373
 9135SOL    HW238865   4.052   1.950   8.239  0.7337  1.6957 -2.2118
 9136SOL     OW38866   0.773   1.695   2.767 -0.1154  0.0885 -0.3842
 9136SOL    HW138867   0.766   1.736   2.681  1.8033 -1.5866 -1.3527
 9136SOL    HW238868   0.710   1.626   2.746  0.5799 -0.5507 -0.3616
 9137SOL     OW38869   3.954   2.165  15.775  0.4239  0.6611  0.6436
 9137SOL    HW138870   3.917   2.125  15.853 -0.0407  0.3307  0.2555
 9137SOL    HW238871   3.922   2.116  15.699  1.7662  1.1875 -0.2529
 9138SOL     OW38872   1.838   4.240   2.434  0.3943  0.0566  0.1518
 9138SOL    HW138873   1.835   4.160   2.382  0.0162  0.9093 -1.1394
 9138SOL    HW238874   1.858   4.209   2.523  0.6454 -1.3357 -0.4008
 9139SOL     OW38875   2.680   3.296  12.264  0.0043  0.5169  0.1494
 9139SOL    HW138876   2.588   3.308  12.288 -0.9176 -1.3054 -2.4025
 9139SOL    HW238877   2.731   3.290  12.344  1.6126  0.3398 -0.8832
 9140SOL     OW38878   0.950   4.597   6.519  0.0560  0.0681 -0.4227
 9140SOL    HW138879   0.917   4.661   6.583 -1.6541  1.0804 -2.3188
 9140SOL    HW238880   1.045   4.608   6.517  0.1159 -0.7312 -1.8886
 9141SOL     OW38881   1.933   4.525   1.794  0.3738 -0.1094  0.2484
 9141SOL    HW138882   1.934   4.618   1.770 -0.6751 -0.9347 -3.0533
 9141SOL    HW238883   1.946   4.475   1.713  0.4532  0.1957  0.0704
 9142SOL     OW38884   4.414   4.614   8.043  0.4554 -0.1970  0.3680
 9142SOL    HW138885   4.382   4.699   8.011 -0.2198 -0.9561 -0.9729
 9142SOL    HW238886   4.409   4.631   8.137 -0.3959 -0.0063  0.2923
 9143SOL     OW38887   0.129   4.671   2.166 -0.1599 -0.5768 -0.5986
 9143SOL    HW138888   0.172   4.723   2.099  0.1131  2.4114  1.9150
 9143SOL    HW238889   0.174   4.586   2.161  1.2838  0.1044  0.9143
 9144SOL     OW38890   2.876   4.415  12.697  0.7871 -0.4049 -0.6580
 9144SOL    HW138891   2.903   4.349  12.633  2.0538  1.7948 -2.4052
 9144SOL    HW238892   2.796   4.378  12.735  2.0046 -1.9819  0.3348
 9145SOL     OW38893   3.263   3.022   1.867 -0.6056  0.5189 -0.3530
 9145SOL    HW138894   3.312   2.971   1.803 -1.6039  2.0652 -2.3701
 9145SOL    HW238895   3.333   3.085   1.886 -2.4917  2.2471  0.8883
 9146SOL     OW38896   1.659   1.020   5.259  0.3869  0.7181  0.3225
 9146SOL    HW138897   1.615   1.011   5.344  0.3511 -1.4700  0.0512
 9146SOL    HW238898   1.711   0.940   5.267  0.8720  1.0909  0.9134
 9147SOL     OW38899   0.092   1.772   9.032  0.6235  0.1105 -0.3443
 9147SOL    HW138900   0.071   1.864   9.019  0.2207 -0.5017 -4.0369
 9147SOL    HW238901   0.054   1.755   9.119 -0.6893  1.6427 -0.6216
 9148SOL     OW38902   4.151   3.585   6.427 -1.0440 -0.7504  0.8950
 9148SOL    HW138903   4.239   3.563   6.458  1.0709  1.6242 -3.4176
 9148SOL    HW238904   4.156   3.542   6.342  2.5730 -0.8709  1.1742
 9149SOL     OW38905   1.973   1.946   6.719 -0.1025 -0.1345  0.3069
 9149SOL    HW138906   1.900   1.958   6.779 -1.1662  0.9874 -1.2107
 9149SOL    HW238907   1.975   1.852   6.699  3.7669  0.3127 -1.3243
 9150SOL     OW38908   4.527   1.195   2.808  0.3749 -0.4910  0.0185
 9150SOL    HW138909   4.576   1.276   2.823  0.5344 -0.4512 -0.7599
 9150SOL    HW238910   4.450   1.231   2.853 -0.7418  0.1200 -2.4074
 9151SOL     OW38911   2.080   2.844   6.457  0.1613 -0.1141 -0.0675
 9151SOL    HW138912   2.042   2.931   6.449  1.4813  0.3317 -1.4473
 9151SOL    HW238913   2.128   2.846   6.540 -0.6770  1.0426  0.3809
 9152SOL     OW38914   2.985   1.518  16.574  0.1089 -0.1706 -0.2792
 9152SOL    HW138915   2.953   1.594  16.623  2.2856  0.7153 -0.2776
 9152SOL    HW238916   3.008   1.564  16.494  2.7209 -0.7551  0.1470
 9153SOL     OW38917   4.206   0.194   4.550 -0.0943  0.1854 -0.6143
 9153SOL    HW138918   4.265   0.231   4.484  2.5239  0.7085  2.0300
 9153SOL    HW238919   4.219   0.103   4.525 -0.4192  0.1514 -0.6639
 9154SOL     OW38920   0.915   0.247   2.066  0.4265  0.3855 -0.4152
 9154SOL    HW138921   0.965   0.294   2.133  0.3939 -0.1846  0.0102
 9154SOL    HW238922   0.841   0.306   2.081  2.4670  2.2894  2.1464
 9155SOL     OW38923   1.405   1.421   8.866 -0.0533 -0.3880  0.3871
 9155SOL    HW138924   1.360   1.382   8.941  1.2930  0.3666  1.5965
 9155SOL    HW238925   1.399   1.513   8.892 -2.9514 -0.1691 -1.0752
 9156SOL     OW38926   3.320   0.722  16.520 -0.1528 -0.0936  0.1153
 9156SOL    HW138927   3.388   0.679  16.469  0.6243  1.5480 -0.2477
 9156SOL    HW238928   3.242   0.667  16.513 -0.2719 -0.2283  2.2493
 9157SOL     OW38929   3.650   4.248   0.378 -0.0913  0.4287 -0.0134
 9157SOL    HW138930   3.599   4.295   0.313  1.3295  2.2846  0.1812
 9157SOL    HW238931   3.591   4.242   0.454 -0.2542 -3.2456 -0.4224
 9158SOL     OW38932   0.707   1.102   3.361  0.0480  0.1280  0.0156
 9158SOL    HW138933   0.798   1.091   3.334  0.4558  0.1366  1.3686
 9158SOL    HW238934   0.705   1.046   3.439  0.8746  0.0770 -0.0023
 9159SOL     OW38935   1.934   0.570   2.759 -0.1638 -0.2351  0.3396
 9159SOL    HW138936   1.893   0.494   2.717 -0.1147  0.0282 -0.1785
 9159SOL    HW238937   1.988   0.595   2.684  0.0255  1.1865  0.9549
 9160SOL     OW38938   0.962   1.824  12.362 -0.8762 -0.2240  0.0315
 9160SOL    HW138939   1.019   1.828  12.285  1.2927 -0.8923  1.6114
 9160SOL    HW238940   0.999   1.748  12.407  2.0729  0.1039 -1.8206
 9161SOL     OW38941   1.326   1.351   0.005 -0.1775  0.2373 -0.0602
 9161SOL    HW138942   1.231   1.357  17.693 -0.0447  0.0890 -1.2988
 9161SOL    HW238943   1.345   1.276  17.649 -1.4600 -0.3870  0.3514
 9162SOL     OW38944   4.503   4.186   7.507 -0.3018  0.3166 -0.1767
 9162SOL    HW138945   4.567   4.118   7.487 -0.6267 -0.4938  1.5453
 9162SOL    HW238946   4.471   4.196   7.418 -1.1204 -1.4505 -0.0734
 9163SOL     OW38947   2.374   1.075  12.486 -0.3765  0.0398 -0.2458
 9163SOL    HW138948   2.401   1.004  12.544  0.0930 -0.6168 -1.2672
 9163SOL    HW238949   2.303   1.032  12.440  0.2117 -1.0635 -0.1290
 9164SOL     OW38950   4.027   0.474  12.385 -0.0847  0.3892 -0.5704
 9164SOL    HW138951   4.066   0.389  12.363  1.6077  0.8493  0.6665
 9164SOL    HW238952   4.064   0.532  12.318  0.2721  2.7045  1.6531
 9165SOL     OW38953   3.593   4.490   7.804 -0.3234  0.3440 -0.0372
 9165SOL    HW138954   3.626   4.400   7.801  2.6025  1.3910  0.1947
 9165SOL    HW238955   3.640   4.519   7.882  0.2979  1.9069 -0.9973
 9166SOL     OW38956   0.376   4.562   2.087  0.1554  0.2964  0.3048
 9166SOL    HW138957   0.446   4.563   2.152 -0.3715 -0.8887  0.8760
 9166SOL    HW238958   0.416   4.598   2.007  0.4754  0.2029  0.4231
 9167SOL     OW38959   2.072   1.153   0.036  0.2209 -0.1046  0.1230
 9167SOL    HW138960   2.084   1.115   0.124  1.3458  0.0563  0.0429
 9167SOL    HW238961   2.054   1.246   0.051  1.1553  0.3538 -1.7030
 9168SOL     OW38962   2.693   3.292   4.780  0.1572 -0.3235  0.1724
 9168SOL    HW138963   2.657   3.358   4.721 -1.0557  0.4190  1.7331
 9168SOL    HW238964   2.620   3.256   4.831  0.2884 -0.9979 -0.1216
 9169SOL     OW38965   2.089   0.258   0.981  0.0932 -0.4375  0.5048
 9169SOL    HW138966   2.114   0.224   0.895  1.1373 -0.8353  0.9734
 9169SOL    HW238967   2.011   0.305   0.951  0.4826 -1.1701 -1.6661
 9170SOL     OW38968   1.388   1.591   3.708 -0.2103 -0.3792 -0.3640
 9170SOL    HW138969   1.398   1.517   3.648 -0.9690 -1.1075  0.4182
 9170SOL    HW238970   1.361   1.552   3.791 -1.4835  2.3501  0.5143
 9171SOL     OW38971   4.701   3.968   8.960  0.5770  0.2079  0.9004
 9171SOL    HW138972   0.043   4.032   8.983  0.1983  1.5154 -1.6813
 9171SOL    HW238973   4.664   4.001   8.878  0.4427  0.9204  1.2501
 9172SOL     OW38974   3.312   0.833  11.211 -0.2245 -0.3152 -0.2161
 9172SOL    HW138975   3.293   0.801  11.299  1.6666 -1.2489 -0.1394
 9172SOL    HW238976   3.349   0.918  11.232 -1.5585  0.6560 -1.7180
 9173SOL     OW38977   3.353   0.557   2.081 -0.5598  0.2035  0.1343
 9173SOL    HW138978   3.307   0.608   2.015 -1.9370 -0.4927  0.5547
 9173SOL    HW238979   3.429   0.612   2.103 -2.0505  2.5942 -0.7299
 9174SOL     OW38980   0.258   2.360   7.429 -0.3026  0.0431 -0.1564
 9174SOL    HW138981   0.348   2.386   7.411  0.1164 -0.2131  1.5670
 9174SOL    HW238982   0.264   2.337   7.522 -2.0108 -0.9024 -0.2839
 9175SOL     OW38983   2.760   2.945  10.874  0.1238 -0.3471  0.1858
 9175SOL    HW138984   2.703   2.985  10.809 -1.7341 -0.4414  1.7374
 9175SOL    HW238985   2.707   2.866  10.888 -4.5813  2.5169 -1.5033
 9176SOL     OW38986   1.184   3.265   1.900 -0.2058  0.6003 -0.2308
 9176SOL    HW138987   1.259   3.312   1.937 -0.9067 -0.4754  2.5469
 9176SOL    HW238988   1.218   3.221   1.822 -0.3887 -1.7151  1.0206
 9177SOL     OW38989   2.479   2.803   4.971 -0.2329 -0.3533 -0.2648
 9177SOL    HW138990   2.448   2.715   4.948 -0.0512 -0.1599 -1.2286
 9177SOL    HW238991   2.564   2.785   5.011 -1.0765 -0.9850  1.2325
 9178SOL     OW38992   1.948   3.245  16.599  0.4413  0.4231 -0.1547
 9178SOL    HW138993   1.984   3.170  16.646 -0.2063  0.6258  0.6698
 9178SOL    HW238994   1.980   3.241  16.509 -1.9193  0.6212 -1.0072
 9179SOL     OW38995   1.897   1.187   4.059 -0.0345  0.0157 -0.3294
 9179SOL    HW138996   1.823   1.162   4.003  0.3018 -0.7911 -0.4138
 9179SOL    HW238997   1.869   1.259   4.116  2.9841  1.2904 -0.4531
 9180SOL     OW38998   1.273   0.505   2.930 -0.3898 -0.2686 -0.2347
 9180SOL    HW138999   1.239   0.418   2.910  0.2543 -0.9385  1.6142
 9180SOL    HW239000   1.352   0.511   2.876  0.0146 -0.4166  0.3446
 9181SOL     OW39001   2.052   2.437  10.968 -0.1150  0.4254 -0.2139
 9181SOL    HW139002   2.098   2.416  11.049 -0.7537 -0.8794 -0.1990
 9181SOL    HW239003   2.119   2.493  10.929 -0.6522 -0.0867 -1.9098
 9182SOL     OW39004   3.398   0.214   2.593 -0.0095  0.3870  0.4278
 9182SOL    HW139005   3.320   0.226   2.538  1.0302 -0.3341 -1.2145
 9182SOL    HW239006   3.443   0.299   2.589 -1.3393  1.1210  0.8020
 9183SOL     OW39007   4.331   4.042  14.001 -0.1295 -0.0069 -0.5021
 9183SOL    HW139008   4.291   4.128  14.011 -0.9686 -0.5420  0.6992
 9183SOL    HW239009   4.406   4.060  14.058 -1.3609  0.6271  0.8994
 9184SOL     OW39010   0.580   3.278  14.350  0.2865 -0.1619 -0.1317
 9184SOL    HW139011   0.526   3.356  14.365  0.8257  0.0739  0.5584
 9184SOL    HW239012   0.522   3.224  14.297 -0.1208 -0.2700  0.4277
 9185SOL     OW39013   3.967   3.029  12.771  0.1020 -0.4058  0.1097
 9185SOL    HW139014   3.901   3.014  12.838 -3.0570 -0.4176 -2.9796
 9185SOL    HW239015   4.023   2.952  12.774 -0.7336 -1.0332 -0.3427
 9186SOL     OW39016   4.209   4.061  12.117 -0.2709  0.4177  0.1886
 9186SOL    HW139017   4.253   4.019  12.191 -0.6250 -1.8837 -0.9187
 9186SOL    HW239018   4.238   3.994  12.055 -1.6276  0.4150 -0.4494
 9187SOL     OW39019   1.469   0.069   1.473  0.9509 -0.3973 -0.0665
 9187SOL    HW139020   1.564   0.082   1.468  0.5726  2.0677 -0.7268
 9187SOL    HW239021   1.464   0.065   1.569  0.5412 -0.1578 -0.0816
 9188SOL     OW39022   1.744   2.811  10.634 -0.3798 -0.3316  0.1531
 9188SOL    HW139023   1.742   2.834  10.541 -0.3050  0.5883  0.3761
 9188SOL    HW239024   1.656   2.835  10.662  0.9665  1.4928  2.7756
 9189SOL     OW39025   1.658   0.707   2.878 -0.1032 -0.1531  0.2749
 9189SOL    HW139026   1.587   0.690   2.816  0.5153 -0.3099 -0.3946
 9189SOL    HW239027   1.682   0.617   2.897 -0.8711 -0.6675 -1.1726
 9190SOL     OW39028   1.990   3.634   3.229  0.3262 -0.1700 -0.1522
 9190SOL    HW139029   2.070   3.585   3.251  0.2847 -0.3850 -0.4839
 9190SOL    HW239030   1.964   3.651   3.319 -1.3412 -1.8041 -0.3319
 9191SOL     OW39031   1.043   1.302   7.062 -0.2432  0.2611 -0.4221
 9191SOL    HW139032   0.985   1.280   7.135 -1.7047  1.0955 -1.3250
 9191SOL    HW239033   1.055   1.223   7.009 -0.7659  0.2961 -0.5991
 9192SOL     OW39034   4.155   0.183   8.426  0.1219  0.4200 -0.1081
 9192SOL    HW139035   4.199   0.210   8.346 -1.4956  1.3379 -0.6879
 9192SOL    HW239036   4.231   0.200   8.482 -0.0010 -0.2322  0.2594
 9193SOL     OW39037   1.096   3.203   4.125  0.5491 -0.0631 -0.1813
 9193SOL    HW139038   1.057   3.136   4.069  0.4459  0.5575 -0.8400
 9193SOL    HW239039   1.168   3.231   4.069 -1.1219  0.7811 -1.8830
 9194SOL     OW39040   3.883   1.687   3.099 -0.4805 -0.0399 -0.1381
 9194SOL    HW139041   3.949   1.730   3.153 -0.7634 -0.7958  0.8137
 9194SOL    HW239042   3.890   1.749   3.027 -1.8340 -1.1703 -1.2344
 9195SOL     OW39043   1.732   2.312   6.535 -0.0503  0.1182  0.5625
 9195SOL    HW139044   1.817   2.287   6.496  0.3550 -0.6391  1.9538
 9195SOL    HW239045   1.755   2.400   6.566 -0.7458 -0.2024  1.9759
 9196SOL     OW39046   3.220   0.242   8.720 -0.2588  0.1978  0.2443
 9196SOL    HW139047   3.224   0.318   8.777 -0.9006  0.1609  0.3415
 9196SOL    HW239048   3.176   0.262   8.637 -1.3013  1.8105  1.2067
 9197SOL     OW39049   1.269   1.459   4.900  0.1670  0.4343 -0.1991
 9197SOL    HW139050   1.332   1.387   4.895 -1.3851 -1.1569  2.4377
 9197SOL    HW239051   1.271   1.493   4.811  1.0284  0.8331 -0.0236
 9198SOL     OW39052   3.940   3.715   4.963  0.4092  0.1794  0.1743
 9198SOL    HW139053   3.936   3.806   4.993  0.9952  0.0690  0.5809
 9198SOL    HW239054   3.872   3.709   4.896  1.0770 -1.2903 -0.3491
 9199SOL     OW39055   0.373   3.723   8.679 -0.6997 -0.6450 -0.4033
 9199SOL    HW139056   0.336   3.684   8.599  1.4037 -2.5818 -0.4183
 9199SOL    HW239057   0.391   3.650   8.738 -1.3978  1.4086  2.3669
 9200SOL     OW39058   0.534   3.918   1.913  0.6403  0.3704 -0.3811
 9200SOL    HW139059   0.545   3.966   1.831 -1.2296  0.4078 -0.6242
 9200SOL    HW239060   0.613   3.938   1.963  0.3802  1.2943 -0.3407
 9201SOL     OW39061   3.113   4.379  10.518  0.7348  0.5611  0.4324
 9201SOL    HW139062   3.118   4.283  10.517 -0.8114  0.4686  2.5538
 9201SOL    HW239063   3.063   4.394  10.599  1.0074 -0.0616  0.7131
 9202SOL     OW39064   2.244   0.424  10.826  0.3102 -0.2466  0.5180
 9202SOL    HW139065   2.151   0.444  10.822  0.0691 -1.3938  0.2874
 9202SOL    HW239066   2.286   0.497  10.780 -1.3032 -0.1154 -0.7267
 9203SOL     OW39067   2.015   4.683   2.121 -0.2968  0.1598 -0.1280
 9203SOL    HW139068   2.065   0.010   2.184  0.1639 -0.8986  0.3672
 9203SOL    HW239069   1.993   4.610   2.179  0.7985  0.4741  0.6966
 9204SOL     OW39070   2.288   2.629  10.168  0.3515 -0.4088 -0.3924
 9204SOL    HW139071   2.233   2.551  10.162 -1.3555  0.7575  0.3028
 9204SOL    HW239072   2.287   2.671  10.083  0.3339  0.8278  0.2228
 9205SOL     OW39073   4.406   4.031   3.353  0.5219  0.0701 -0.3092
 9205SOL    HW139074   4.354   4.076   3.287  1.4344  3.5921  1.3770
 9205SOL    HW239075   4.384   4.077   3.434  1.9346  3.7211 -2.0048
 9206SOL     OW39076   3.302   1.519   3.182 -0.5869  0.4742 -0.0280
 9206SOL    HW139077   3.212   1.492   3.194 -0.4407  1.0050  2.3750
 9206SOL    HW239078   3.328   1.441   3.133 -0.4308 -0.0738  0.9217
 9207SOL     OW39079   2.886   2.158  13.204  0.3205  0.4108 -0.4016
 9207SOL    HW139080   2.849   2.080  13.245  0.7614 -0.3350 -1.4350
 9207SOL    HW239081   2.815   2.217  13.231  0.6138  0.7200 -0.2993
 9208SOL     OW39082   3.288   4.119   4.814  0.0211 -0.4613 -0.0518
 9208SOL    HW139083   3.306   4.097   4.905 -0.5384 -1.2982 -0.1438
 9208SOL    HW239084   3.194   4.116   4.795 -0.1931  0.5423  0.8087
 9209SOL     OW39085   1.136   3.897  14.098  0.1325 -0.2346  0.1044
 9209SOL    HW139086   1.150   3.849  14.017  0.4459  0.1070 -0.0385
 9209SOL    HW239087   1.182   3.981  14.097 -0.3259  0.0234  0.5063
 9210SOL     OW39088   4.570   0.715   9.187  0.0829  0.3799  0.1536
 9210SOL    HW139089   4.497   0.774   9.170 -0.8365 -0.9779 -0.6194
 9210SOL    HW239090   4.631   0.730   9.115 -3.3206 -0.3289 -2.8749
 9211SOL     OW39091   2.559   0.325  10.005  0.1297 -0.0451 -0.2033
 9211SOL    HW139092   2.535   0.242  10.047  0.6908 -0.2477 -0.2847
 9211SOL    HW239093   2.654   0.324  10.022 -0.2915 -0.4241  2.0608
 9212SOL     OW39094   3.756   1.305  10.107 -0.1519 -0.3675 -0.6158
 9212SOL    HW139095   3.850   1.318  10.094 -0.0456 -0.9046 -0.3957
 9212SOL    HW239096   3.737   1.249  10.031 -1.8812  1.0715 -1.2355
 9213SOL     OW39097   0.946   3.066   7.722 -0.0385 -0.2952 -0.5754
 9213SOL    HW139098   0.851   3.077   7.721  0.1596  1.4070 -2.5601
 9213SOL    HW239099   0.952   2.993   7.661  0.0856 -0.0237 -0.8904
 9214SOL     OW39100   3.421   4.077   5.283 -0.3253  0.0154  0.2476
 9214SOL    HW139101   3.373   4.036   5.355 -2.3888  1.4951 -0.2777
 9214SOL    HW239102   3.423   4.166   5.320  0.2995  0.8745 -1.8461
 9215SOL     OW39103   0.598   1.898  15.995  0.1456 -0.1285  0.0848
 9215SOL    HW139104   0.550   1.902  15.912  1.8127 -0.4321 -0.9110
 9215SOL    HW239105   0.648   1.817  15.982  1.3955  0.8926 -1.5769
 9216SOL     OW39106   3.288   3.786   5.784  0.6558  0.7281  0.0928
 9216SOL    HW139107   3.337   3.717   5.829 -0.2836  1.3214  2.0197
 9216SOL    HW239108   3.221   3.803   5.850  0.1274 -1.7213  0.1977
 9217SOL     OW39109   1.693   0.769   4.460  0.0714  0.1150  0.0110
 9217SOL    HW139110   1.686   0.694   4.402  1.2927  0.3339 -0.4349
 9217SOL    HW239111   1.605   0.806   4.454 -0.3330 -0.9662 -0.6028
 9218SOL     OW39112   1.059   2.579   9.142 -0.0599  0.0696  0.4026
 9218SOL    HW139113   1.069   2.484   9.138 -0.2149  0.0075  1.4547
 9218SOL    HW239114   0.967   2.596   9.121  0.1473 -0.5226 -0.9669
 9219SOL     OW39115   4.094   0.213   5.183 -0.1868 -0.3658 -0.0446
 9219SOL    HW139116   4.083   0.155   5.258 -0.7070  0.0771  0.2236
 9219SOL    HW239117   4.179   0.252   5.202  1.2368 -3.1764 -0.7018
 9220SOL     OW39118   0.507   0.162   3.168  0.5531 -0.2043  0.2564
 9220SOL    HW139119   0.439   0.110   3.209  0.3346  0.3849  0.6498
 9220SOL    HW239120   0.589   0.147   3.216  1.2587 -1.2478 -1.2681
 9221SOL     OW39121   4.696   2.713   7.637 -0.5494  0.7649 -0.1626
 9221SOL    HW139122   4.632   2.648   7.608 -0.6290 -0.2948  2.4029
 9221SOL    HW239123   4.672   2.789   7.583  0.4535 -0.2449 -2.0451
 9222SOL     OW39124   0.229   1.154   3.500 -0.1728 -0.1173 -0.3488
 9222SOL    HW139125   0.146   1.182   3.538 -0.5129  0.9029 -1.8463
 9222SOL    HW239126   0.220   1.182   3.409  0.8147  0.6074 -0.2305
 9223SOL     OW39127   0.644   3.633   4.627  0.0580  0.4547  0.2817
 9223SOL    HW139128   0.706   3.642   4.554  1.6407 -0.8281  1.4673
 9223SOL    HW239129   0.693   3.574   4.684  0.4754 -0.6230 -1.1857
 9224SOL     OW39130   1.655   1.701   6.826  0.0829 -0.3865  0.3887
 9224SOL    HW139131   1.708   1.747   6.891  2.0227  1.3998 -2.4809
 9224SOL    HW239132   1.622   1.778   6.780 -0.2863 -0.1530  1.0389
 9225SOL     OW39133   3.587   1.424   0.282 -0.3714  0.4739  0.3110
 9225SOL    HW139134   3.616   1.336   0.304  0.3997  0.9955  1.3938
 9225SOL    HW239135   3.666   1.478   0.290  0.3694 -0.5611 -0.0697
 9226SOL     OW39136   2.819   2.326   2.322  0.1612  0.4343  0.4291
 9226SOL    HW139137   2.911   2.344   2.300 -0.0181  0.6444 -0.1522
 9226SOL    HW239138   2.776   2.368   2.248  1.9549 -0.8040 -1.3187
 9227SOL     OW39139   0.569   1.855   4.646 -0.6305 -0.1520  0.2423
 9227SOL    HW139140   0.595   1.947   4.636 -0.9636  0.2038  2.5843
 9227SOL    HW239141   0.648   1.806   4.626 -2.3676 -2.4818 -0.9567
 9228SOL     OW39142   2.787   2.859   4.035  0.5051  0.2199  0.0155
 9228SOL    HW139143   2.882   2.874   4.035  0.4260  0.6226 -2.6872
 9228SOL    HW239144   2.767   2.903   4.117 -1.7418 -1.6935  0.5032
 9229SOL     OW39145   1.491   3.850   6.610 -0.5125 -0.3513 -0.2485
 9229SOL    HW139146   1.586   3.838   6.604 -0.2911  0.7841  0.8816
 9229SOL    HW239147   1.473   3.810   6.696  0.4682  0.8085  0.4985
 9230SOL     OW39148   2.713   1.931   6.767 -0.4055  0.4783  0.1344
 9230SOL    HW139149   2.705   1.943   6.673  1.3000 -0.1694 -0.1030
 9230SOL    HW239150   2.688   2.016   6.803  1.5737  1.5773 -1.1075
 9231SOL     OW39151   1.492   4.420  11.270 -0.5442  0.0404 -0.1370
 9231SOL    HW139152   1.578   4.455  11.249 -0.1267 -1.5705 -1.1918
 9231SOL    HW239153   1.435   4.458  11.203  0.0424  1.7060  0.3249
 9232SOL     OW39154   0.379   2.624  15.636 -0.4970  0.3542 -0.3888
 9232SOL    HW139155   0.364   2.530  15.627  0.2400  0.3119 -1.2592
 9232SOL    HW239156   0.473   2.630  15.650 -0.3839  0.4675 -1.1688
 9233SOL     OW39157   0.490   0.209   2.237 -0.1016 -0.0767  0.1205
 9233SOL    HW139158   0.517   0.294   2.273 -0.3221  0.6260 -1.3528
 9233SOL    HW239159   0.574   0.166   2.250 -0.1930 -0.4890 -0.6597
 9234SOL     OW39160   1.388   1.264   9.475 -0.8136  0.0709  0.0041
 9234SOL    HW139161   1.302   1.236   9.443  0.1151 -3.1671  0.3464
 9234SOL    HW239162   1.418   1.179   9.507 -0.0939  0.6234  0.8065
 9235SOL     OW39163   0.737   3.922   1.535 -0.7655  0.1823 -0.3904
 9235SOL    HW139164   0.670   3.900   1.470  1.6931 -1.5588 -2.3671
 9235SOL    HW239165   0.681   3.982   1.585 -1.2680  1.0252 -1.9507
 9236SOL     OW39166   1.264   3.629   0.381 -0.6414 -0.3032  1.0254
 9236SOL    HW139167   1.187   3.594   0.336 -0.6120 -0.4772  1.1076
 9236SOL    HW239168   1.249   3.721   0.361  2.6915  0.1914  0.8236
 9237SOL     OW39169   1.930   4.132   3.758  0.2239 -0.6569 -0.2177
 9237SOL    HW139170   1.878   4.189   3.701 -0.9754 -0.4772  1.0291
 9237SOL    HW239171   1.918   4.185   3.837 -2.2324 -0.2179 -0.8807
 9238SOL     OW39172   3.233   1.400   0.683 -0.2223  0.5842 -0.3418
 9238SOL    HW139173   3.196   1.313   0.669  1.6947 -0.2614 -0.1901
 9238SOL    HW239174   3.323   1.379   0.707  0.2299  2.4609 -0.4371
 9239SOL     OW39175   0.514   0.187   5.437 -0.3330  0.6676 -0.5017
 9239SOL    HW139176   0.592   0.220   5.392  0.0659  0.1692 -0.1854
 9239SOL    HW239177   0.536   0.212   5.527  0.5870 -0.6782 -0.3526
 9240SOL     OW39178   2.457   3.120   2.959  0.6925 -0.3041  0.3795
 9240SOL    HW139179   2.484   3.142   2.870 -2.6070  0.4992 -0.4400
 9240SOL    HW239180   2.454   3.025   2.959 -0.9834 -0.2523  0.3992
 9241SOL     OW39181   2.321   1.349   6.833  0.5561  0.0570  0.0811
 9241SOL    HW139182   2.304   1.443   6.834  1.8359  0.2905  0.3601
 9241SOL    HW239183   2.416   1.360   6.844  0.5306 -0.1980  0.5297
 9242SOL     OW39184   0.269   4.612   7.442 -0.6069 -0.5116 -0.2900
 9242SOL    HW139185   0.192   4.636   7.390  2.5375  1.3636 -4.0117
 9242SOL    HW239186   0.256   4.517   7.439 -1.6804 -0.3820  0.3073
 9243SOL     OW39187   4.185   0.447   3.214 -0.4558  0.5730 -0.1626
 9243SOL    HW139188   4.268   0.467   3.169  0.4621  2.6475  2.4659
 9243SOL    HW239189   4.125   0.433   3.141  1.4764 -1.2974 -1.3840
 9244SOL     OW39190   3.543   3.182   2.430 -0.1277  0.0180 -0.7189
 9244SOL    HW139191   3.636   3.159   2.432  0.0687  0.8242 -0.3080
 9244SOL    HW239192   3.508   3.136   2.354  0.3891  1.8284 -2.0716
 9245SOL     OW39193   3.102   1.731  13.352 -0.3258  1.0185  0.1479
 9245SOL    HW139194   3.176   1.709  13.407 -1.4153 -0.6284  0.9462
 9245SOL    HW239195   3.034   1.672  13.386 -0.6735  2.9887  2.8606
 9246SOL     OW39196   2.564   3.641  13.828  0.3490 -0.3478  0.0982
 9246SOL    HW139197   2.483   3.603  13.863 -0.6649 -0.2012 -2.0802
 9246SOL    HW239198   2.581   3.710  13.892 -1.9317 -1.4895  1.9334
 9247SOL     OW39199   1.163   1.748  13.261 -0.2816  0.8241 -0.3396
 9247SOL    HW139200   1.138   1.772  13.351  1.1806 -1.7076  0.7255
 9247SOL    HW239201   1.177   1.654  13.267 -2.0833  0.5537 -0.1989
 9248SOL     OW39202   2.081   3.225   3.969  0.2040 -0.0393  0.2734
 9248SOL    HW139203   2.005   3.200   3.917 -1.3867  0.7261  2.2150
 9248SOL    HW239204   2.050   3.312   3.995  0.6958  0.7400 -1.7701
 9249SOL     OW39205   2.330   2.715  17.482  0.2809  0.5107  0.1473
 9249SOL    HW139206   2.351   2.677  17.567  0.7111  2.1027  0.7461
 9249SOL    HW239207   2.298   2.637  17.436  0.2127 -1.1141  2.9644
 9250SOL     OW39208   1.460   0.623  17.587 -0.4422  0.0397 -0.1851
 9250SOL    HW139209   1.436   0.716  17.587 -0.4428  0.0413 -0.5310
 9250SOL    HW239210   1.379   0.583  17.555 -1.1941  0.2056  1.5449
 9251SOL     OW39211   4.542   1.003   2.616 -0.5452 -0.0605  0.2165
 9251SOL    HW139212   4.540   1.067   2.687  0.1047  2.0362 -1.6741
 9251SOL    HW239213   4.584   0.933   2.666  0.9380  1.5142  1.1466
 9252SOL     OW39214   1.464   0.654   2.066 -0.1586  0.5706  0.3784
 9252SOL    HW139215   1.510   0.670   1.983 -1.2335 -0.5050 -0.4225
 9252SOL    HW239216   1.515   0.581   2.102 -0.2970  0.4777  0.3839
 9253SOL     OW39217   3.099   2.916   4.718  0.3390 -0.0350 -0.5869
 9253SOL    HW139218   3.090   2.821   4.720  0.3527  0.0476  3.0876
 9253SOL    HW239219   3.016   2.949   4.751  0.9911  0.7998  0.2311
 9254SOL     OW39220   3.399   4.291   2.416  0.7175 -0.5984  0.4113
 9254SOL    HW139221   3.374   4.369   2.466  1.5246  0.4023 -0.7161
 9254SOL    HW239222   3.314   4.246   2.420  1.4047 -1.9920 -1.0492
 9255SOL     OW39223   0.484   0.788   5.122 -0.0307  0.3011  0.5579
 9255SOL    HW139224   0.553   0.742   5.074  1.6046  2.2089  1.0958
 9255SOL    HW239225   0.527   0.819   5.201 -2.2708  3.4088  0.5389
 9256SOL     OW39226   0.875   2.844   7.549 -0.2704 -0.2062  0.6912
 9256SOL    HW139227   0.875   2.779   7.479  0.3829 -0.1446  0.6314
 9256SOL    HW239228   0.866   2.923   7.496 -1.1515 -0.2648  0.7614
 9257SOL     OW39229   0.933   3.298  13.760  0.4287  0.0388 -0.4656
 9257SOL    HW139230   0.846   3.335  13.774  1.1840  2.1378 -1.2279
 9257SOL    HW239231   0.979   3.376  13.793 -0.0193 -0.6030  1.7185
 9258SOL     OW39232   2.763   3.651   4.890  0.5431  0.0322  0.5130
 9258SOL    HW139233   2.732   3.590   4.822 -1.3777  1.3997  0.1756
 9258SOL    HW239234   2.751   3.732   4.841  0.4437  0.1008  0.6502
 9259SOL     OW39235   2.157   4.021   1.408 -0.2911 -0.0133 -0.5434
 9259SOL    HW139236   2.158   4.116   1.397 -0.7569 -0.0004 -0.5004
 9259SOL    HW239237   2.080   4.020   1.465 -0.6488 -1.6122 -1.0507
 9260SOL     OW39238   1.805   1.894   3.532  0.4953 -0.6595  0.2861
 9260SOL    HW139239   1.733   1.844   3.571 -0.1869 -0.7320 -1.0721
 9260SOL    HW239240   1.862   1.819   3.515 -0.5111 -1.7141  1.5578
 9261SOL     OW39241   0.480   4.645   5.352 -0.2707  0.1799 -0.3928
 9261SOL    HW139242   0.548   4.632   5.287  1.2283  0.3516  1.1256
 9261SOL    HW239243   0.503   4.724   5.402 -1.5730 -1.0657  2.1784
 9262SOL     OW39244   3.061   2.014  16.979 -0.1746 -0.3304  0.3998
 9262SOL    HW139245   3.040   2.080  17.046  0.2480  0.9471 -0.7265
 9262SOL    HW239246   2.988   1.955  16.997 -0.1388 -0.6653 -0.5515
 9263SOL     OW39247   4.368   2.535   1.613 -0.0314 -0.3830 -0.3239
 9263SOL    HW139248   4.391   2.482   1.537  0.5775  1.2972 -1.3177
 9263SOL    HW239249   4.447   2.590   1.608 -1.7302  2.1284  0.6132
 9264SOL     OW39250   2.566   0.642   7.491 -0.6266  0.2390 -0.2038
 9264SOL    HW139251   2.634   0.615   7.429  0.0749  2.7922 -0.5694
 9264SOL    HW239252   2.525   0.559   7.515  1.5296 -0.7439  0.1033
 9265SOL     OW39253   1.948   0.038  14.111 -0.1413  0.5217 -0.4407
 9265SOL    HW139254   1.913   0.108  14.166  0.2081  0.0485  0.3837
 9265SOL    HW239255   2.001   0.087  14.048  2.5370 -0.0676  1.3862
 9266SOL     OW39256   1.519   4.388   0.801  0.2751 -0.4414  0.4205
 9266SOL    HW139257   1.585   4.375   0.733 -0.8722 -0.1076 -0.7731
 9266SOL    HW239258   1.561   4.449   0.861 -0.1478 -0.0876  0.3636
 9267SOL     OW39259   0.718   1.889   4.213  0.1679  0.0659 -0.0995
 9267SOL    HW139260   0.646   1.951   4.210 -1.6463 -2.1693 -3.0321
 9267SOL    HW239261   0.678   1.820   4.266 -1.2686  0.1198 -1.1215
 9268SOL     OW39262   2.891   2.477  16.280  1.2159 -0.6069 -0.3334
 9268SOL    HW139263   2.933   2.553  16.321  1.0253 -1.3261  1.1791
 9268SOL    HW239264   2.898   2.493  16.185  2.1740 -1.7280 -0.4542
 9269SOL     OW39265   0.376   4.386   3.094  0.1743  0.0460  0.0939
 9269SOL    HW139266   0.374   4.477   3.064 -0.4277 -0.7757 -2.3103
 9269SOL    HW239267   0.296   4.354   3.052  0.7847  0.6584 -1.5416
 9270SOL     OW39268   3.048   3.081   7.632 -0.1551 -0.3022  0.0837
 9270SOL    HW139269   3.116   3.015   7.614  0.4609  0.6057 -0.9050
 9270SOL    HW239270   3.040   3.061   7.725 -3.2675 -1.8163 -0.4983
 9271SOL     OW39271   1.595   1.458  12.206 -0.1834 -0.2546 -1.0366
 9271SOL    HW139272   1.623   1.381  12.156 -2.5639 -0.5299 -1.9364
 9271SOL    HW239273   1.681   1.501  12.202  0.0154 -0.3922  2.1987
 9272SOL     OW39274   0.563   2.887  15.860 -0.5439 -0.0077  0.0352
 9272SOL    HW139275   0.601   2.826  15.797 -1.1584 -0.8282  0.4496
 9272SOL    HW239276   0.601   2.863  15.945 -1.0221 -0.6591  0.0653
 9273SOL     OW39277   3.933   1.372   5.059 -0.0608 -0.0174  0.0055
 9273SOL    HW139278   3.879   1.306   5.102 -1.6463  0.6696 -0.9680
 9273SOL    HW239279   3.910   1.354   4.968 -1.1836 -0.7720  0.4339
 9274SOL     OW39280   2.104   0.714  14.475 -0.1240  0.2569  0.1036
 9274SOL    HW139281   2.152   0.632  14.484  0.1888  0.4023 -0.2260
 9274SOL    HW239282   2.116   0.756  14.560 -0.7263 -1.5856  1.1069
 9275SOL     OW39283   2.226   2.376  14.159 -0.3956  0.6716  0.2706
 9275SOL    HW139284   2.223   2.291  14.116  0.5996  0.3441  0.8531
 9275SOL    HW239285   2.304   2.412  14.117 -0.1085 -0.6992 -0.3648
 9276SOL     OW39286   1.868   1.160   4.743 -0.0623  0.2519  0.1307
 9276SOL    HW139287   1.951   1.200   4.718 -0.2525 -0.0337 -0.9978
 9276SOL    HW239288   1.869   1.087   4.680  2.3910 -0.7168  1.3045
 9277SOL     OW39289   3.677   1.277   4.281  0.3788 -0.5504  0.3459
 9277SOL    HW139290   3.687   1.325   4.198 -2.4718 -0.9203 -0.2183
 9277SOL    HW239291   3.590   1.294   4.317  0.1965 -0.1328 -0.2797
 9278SOL     OW39292   2.267   0.846   4.168 -0.1891 -0.1256  0.0677
 9278SOL    HW139293   2.347   0.895   4.148  0.0279  0.4033  2.2999
 9278SOL    HW239294   2.196   0.910   4.162  2.4785  3.0595  2.3792
 9279SOL     OW39295   0.011   1.341   5.272 -0.1612  0.2060  0.1187
 9279SOL    HW139296   0.075   1.400   5.312 -0.3829  0.5338 -0.0111
 9279SOL    HW239297   0.044   1.257   5.303 -0.5504  0.5145  1.3794
 9280SOL     OW39298   2.855   4.687  12.471 -0.1495 -0.0029  0.1009
 9280SOL    HW139299   2.766   4.708  12.441 -0.0994  0.2811  0.1565
 9280SOL    HW239300   2.913   0.009  12.411 -1.0219 -0.9347 -1.4877
 9281SOL     OW39301   4.290   1.726   4.670 -0.1070 -0.2851 -0.1124
 9281SOL    HW139302   4.217   1.680   4.629  1.2171 -3.1261  0.7886
 9281SOL    HW239303   4.364   1.698   4.617  0.9974  0.2982  1.1115
 9282SOL     OW39304   0.959   0.995   7.104  0.0724 -0.2124  0.2353
 9282SOL    HW139305   1.032   1.022   7.160  1.7893  0.9065 -2.4718
 9282SOL    HW239306   1.009   1.010   7.023 -0.1639  2.1597  0.5277
 9283SOL     OW39307   3.904   4.403  16.330 -0.1359 -0.0096 -0.3192
 9283SOL    HW139308   3.955   4.325  16.309  0.8923  0.4565  0.4351
 9283SOL    HW239309   3.819   4.388  16.287  0.4131 -1.9259 -0.7516
 9284SOL     OW39310   3.591   1.511   2.927  0.1519 -1.1735 -0.0886
 9284SOL    HW139311   3.556   1.582   2.872 -1.3033 -1.4197  0.5092
 9284SOL    HW239312   3.555   1.438   2.877 -0.5285 -0.9454  0.0615
 9285SOL     OW39313   3.042   2.284  10.897 -0.1801  0.4706  0.5421
 9285SOL    HW139314   2.952   2.308  10.877 -0.3777  0.8518  1.8909
 9285SOL    HW239315   3.089   2.336  10.831 -0.9876  0.8611  0.2691
 9286SOL     OW39316   1.254   0.916   8.043  0.3630 -0.2985 -0.1945
 9286SOL    HW139317   1.196   0.959   7.980 -2.2024  1.2033  3.1958
 9286SOL    HW239318   1.192   0.919   8.116  1.2004  0.1452  0.5071
 9287SOL     OW39319   4.372   1.011  10.587 -0.0432 -0.5833  0.2972
 9287SOL    HW139320   4.315   0.963  10.646 -0.0658 -0.5395  0.3103
 9287SOL    HW239321   4.328   1.096  10.585 -0.7336 -0.9374  0.3767
 9288SOL     OW39322   4.642   2.617  14.652 -0.6273 -0.3469 -0.2528
 9288SOL    HW139323   4.709   2.628  14.719  0.1980 -0.6565 -1.0356
 9288SOL    HW239324   4.578   2.680  14.686 -0.4555 -0.3250  0.0271
 9289SOL     OW39325   4.606   3.219  12.598  0.1058  0.6788 -0.0835
 9289SOL    HW139326   4.544   3.205  12.527  1.1975  0.0892 -0.9232
 9289SOL    HW239327   4.541   3.241  12.665  1.4244  0.6240  1.2114
 9290SOL     OW39328   3.795   0.752  16.646  0.4989  0.0515 -0.0779
 9290SOL    HW139329   3.777   0.691  16.574  2.6439 -2.7062  1.7504
 9290SOL    HW239330   3.708   0.784  16.669  0.2272 -1.9117  1.6618
 9291SOL     OW39331   4.154   3.702   4.047  0.4489 -0.1206  0.2719
 9291SOL    HW139332   4.061   3.722   4.031  0.1301 -0.3629  1.8388
 9291SOL    HW239333   4.142   3.623   4.099  1.1266 -1.6838 -1.9363
 9292SOL     OW39334   2.127   3.119  13.593  0.1889  0.7628 -0.2411
 9292SOL    HW139335   2.190   3.171  13.644 -1.2750  1.1350  1.1888
 9292SOL    HW239336   2.163   3.100  13.506  0.6769 -1.0207  0.3707
 9293SOL     OW39337   3.141   3.694   5.486 -0.3862 -0.1146  0.5182
 9293SOL    HW139338   3.052   3.727   5.483 -0.7488 -1.2231 -0.9860
 9293SOL    HW239339   3.145   3.627   5.554  2.9957 -1.4323 -0.9609
 9294SOL     OW39340   2.831   3.478   5.449  0.0092  0.1375  0.0514
 9294SOL    HW139341   2.785   3.532   5.385  2.0605  0.5050 -1.1129
 9294SOL    HW239342   2.910   3.457   5.400 -0.8272 -0.0019 -1.2342
 9295SOL     OW39343   2.994   2.828   5.611 -1.3752  0.7573  0.6345
 9295SOL    HW139344   3.038   2.912   5.621  2.0945 -1.1188  0.9426
 9295SOL    HW239345   3.065   2.765   5.618 -0.4942  1.9126  2.3722
 9296SOL     OW39346   3.697   0.664  10.607  0.0997  1.0059 -0.2793
 9296SOL    HW139347   3.622   0.658  10.666 -0.6157  0.3690 -1.2541
 9296SOL    HW239348   3.757   0.605  10.652  0.2099  1.6685  0.4325
 9297SOL     OW39349   1.054   2.758   0.829 -0.2888  0.1142 -0.6562
 9297SOL    HW139350   1.117   2.711   0.883 -1.2399 -0.8110 -0.3618
 9297SOL    HW239351   1.113   2.772   0.755 -0.1908  2.4918 -0.1622
 9298SOL     OW39352   3.113   1.182   9.043  0.2270  0.1257  0.5997
 9298SOL    HW139353   3.122   1.269   9.005  0.2083 -0.7512 -1.3886
 9298SOL    HW239354   3.172   1.190   9.118  1.7873 -1.4748 -0.4664
 9299SOL     OW39355   2.102   0.067   1.159 -0.3391  0.8992 -0.1739
 9299SOL    HW139356   2.097   0.135   1.092  0.3841  0.0768 -1.0563
 9299SOL    HW239357   2.017   0.028   1.141 -0.3149  0.4159  0.7844
 9300SOL     OW39358   3.680   2.415   2.429 -0.1476 -0.2778 -0.2961
 9300SOL    HW139359   3.719   2.380   2.509 -1.1259 -0.1300  0.2422
 9300SOL    HW239360   3.751   2.405   2.365 -1.6584 -1.1948 -1.8257
 9301SOL     OW39361   1.316   1.923   5.953 -0.3032 -0.7273  0.3050
 9301SOL    HW139362   1.380   1.893   5.888 -0.1902  1.3166 -0.5116
 9301SOL    HW239363   1.235   1.884   5.919  0.0488  1.0922 -2.5804
 9302SOL     OW39364   2.843   2.833   6.731 -1.3755  0.0985  0.3646
 9302SOL    HW139365   2.762   2.881   6.714 -3.0543 -3.1835 -1.0291
 9302SOL    HW239366   2.869   2.788   6.650  0.2435 -0.6015  1.2687
 9303SOL     OW39367   4.347   2.749  11.891  0.4072  0.9591  0.2001
 9303SOL    HW139368   4.253   2.730  11.898  1.4154 -4.3414 -0.8915
 9303SOL    HW239369   4.358   2.689  11.817  3.0454 -1.1517  2.2962
 9304SOL     OW39370   1.647   0.457   4.350 -0.3464 -0.0850  0.0203
 9304SOL    HW139371   1.644   0.364   4.326  1.1855 -0.7312  2.3576
 9304SOL    HW239372   1.655   0.498   4.264 -0.3046 -0.4931 -0.1720
 9305SOL     OW39373   1.402   2.992  12.358 -0.1900 -0.1868  0.4698
 9305SOL    HW139374   1.336   3.025  12.418 -1.0115 -0.5212 -0.2531
 9305SOL    HW239375   1.369   3.034  12.278  1.0762  0.1077  0.0960
 9306SOL     OW39376   1.449   3.481   8.064  0.9495  0.3249  0.2381
 9306SOL    HW139377   1.433   3.430   8.144  0.1909 -2.7087 -1.8216
 9306SOL    HW239378   1.394   3.432   8.003  1.8347  1.8311 -1.7804
 9307SOL     OW39379   2.436   2.231   1.526 -0.1306 -0.1584 -0.2803
 9307SOL    HW139380   2.469   2.307   1.575  0.9276 -0.9902  0.3089
 9307SOL    HW239381   2.451   2.257   1.435 -0.9202  1.9302  0.1968
 9308SOL     OW39382   3.410   0.594   4.454  0.4756  0.7636  0.1160
 9308SOL    HW139383   3.374   0.506   4.455  0.4551  0.7728  0.2033
 9308SOL    HW239384   3.505   0.581   4.448  0.2061 -0.0715 -2.1033
 9309SOL     OW39385   0.474   0.729  16.162  0.0752 -0.0372  0.3646
 9309SOL    HW139386   0.479   0.809  16.214  0.3111 -0.8290  1.5942
 9309SOL    HW239387   0.487   0.757  16.072 -1.1648  4.5018  1.5894
 9310SOL     OW39388   4.003   4.586   4.459 -0.1239  0.2630  0.4638
 9310SOL    HW139389   4.032   4.557   4.546  0.3431 -0.9849 -0.1137
 9310SOL    HW239390   3.992   4.679   4.480  0.3310  0.1172  1.3582
 9311SOL     OW39391   2.693   2.418   2.102  0.2039  0.2191 -0.2639
 9311SOL    HW139392   2.730   2.463   2.026 -0.1107 -1.5732 -1.4780
 9311SOL    HW239393   2.598   2.435   2.102 -0.0783 -1.2171  2.8497
 9312SOL     OW39394   0.627   0.328  10.045  0.6390  0.2358  0.2763
 9312SOL    HW139395   0.556   0.301   9.987  1.1399 -0.1413 -0.1557
 9312SOL    HW239396   0.611   0.259  10.110  1.4622 -1.0099 -0.8558
 9313SOL     OW39397   4.319   0.612  10.392  0.5697 -0.1569 -0.4900
 9313SOL    HW139398   4.379   0.612  10.466  0.4780  0.6294 -0.4154
 9313SOL    HW239399   4.278   0.527  10.413  0.1123  0.2698  0.3576
 9314SOL     OW39400   2.831   0.486  11.025  0.6105 -0.1125  0.2256
 9314SOL    HW139401   2.892   0.512  11.094  0.1194 -0.3845  0.7690
 9314SOL    HW239402   2.757   0.460  11.080  0.4734 -1.3551 -0.5412
 9315SOL     OW39403   2.683   2.645   7.968  0.8792 -0.9168 -0.0328
 9315SOL    HW139404   2.600   2.682   7.938  1.3044  0.8440  0.9979
 9315SOL    HW239405   2.744   2.676   7.901 -2.9427  2.3680 -1.9855
 9316SOL     OW39406   3.836   4.574   7.056 -0.4812  0.0128 -0.7499
 9316SOL    HW139407   3.762   4.516   7.076  0.6122 -0.6979  1.2085
 9316SOL    HW239408   3.784   4.654   7.055 -0.8121 -0.1845  0.6929
 9317SOL     OW39409   1.160   1.369   5.553  0.4599 -0.4137  0.5501
 9317SOL    HW139410   1.169   1.296   5.614  0.5964  1.6912  3.0286
 9317SOL    HW239411   1.128   1.329   5.471 -1.5968 -0.8919  1.5799
 9318SOL     OW39412   2.526   1.877   3.609  0.4227  0.6353 -0.1585
 9318SOL    HW139413   2.504   1.970   3.615  0.2741  0.5010  1.5289
 9318SOL    HW239414   2.454   1.842   3.556  0.3170  0.0793  0.3508
 9319SOL     OW39415   3.244   2.691  17.383  0.1057  0.2165  0.2536
 9319SOL    HW139416   3.180   2.637  17.337  3.0272 -1.9799 -1.2233
 9319SOL    HW239417   3.318   2.631  17.387 -1.5738 -1.8317  0.3939
 9320SOL     OW39418   1.158   0.335  15.404  0.5703 -0.0154  0.0497
 9320SOL    HW139419   1.146   0.351  15.498  2.8205 -0.2833  0.3954
 9320SOL    HW239420   1.254   0.331  15.398  0.6665  0.2913  1.3306
 9321SOL     OW39421   2.728   3.668   2.619 -0.6671  0.7314  0.5308
 9321SOL    HW139422   2.737   3.587   2.568 -1.9643 -0.0041  1.4626
 9321SOL    HW239423   2.809   3.660   2.670 -1.2179 -1.2136  1.1158
 9322SOL     OW39424   2.815   2.745   3.333  0.0673 -0.3615  0.0215
 9322SOL    HW139425   2.773   2.660   3.341 -0.0492 -0.5066 -2.0019
 9322SOL    HW239426   2.812   2.767   3.426 -1.8045 -1.3674  0.1906
 9323SOL     OW39427   4.058   0.507   4.515  0.1391 -0.0073 -0.1996
 9323SOL    HW139428   4.139   0.483   4.561  0.5097 -0.0247 -0.8593
 9323SOL    HW239429   4.077   0.600   4.512  0.6887 -0.1304 -0.4874
 9324SOL     OW39430   3.036   0.856  11.111  0.1888 -0.4642 -0.0705
 9324SOL    HW139431   3.076   0.915  11.046 -0.1424 -0.1068  0.0494
 9324SOL    HW239432   3.114   0.828  11.158  0.0431  0.6291  0.8324
 9325SOL     OW39433   1.885   0.276   7.745  0.2160 -0.2202 -0.1167
 9325SOL    HW139434   1.937   0.354   7.727 -0.3772  0.4901  1.2802
 9325SOL    HW239435   1.805   0.309   7.784  0.8775 -1.5785  2.3653
 9326SOL     OW39436   4.000   1.282   4.694 -0.0830 -0.5102  0.7554
 9326SOL    HW139437   3.946   1.351   4.734 -1.6426 -0.9504 -0.6094
 9326SOL    HW239438   3.938   1.223   4.651  0.0687 -1.3820  1.7396
 9327SOL     OW39439   1.406   4.169   2.030  0.3976  0.5709  0.6705
 9327SOL    HW139440   1.402   4.074   2.040 -0.8977  0.5125 -0.4435
 9327SOL    HW239441   1.345   4.186   1.958  0.6940 -0.5107  0.1627
 9328SOL     OW39442   1.852   3.555  11.764  0.0704 -0.1534 -0.0430
 9328SOL    HW139443   1.924   3.508  11.722  0.5887 -0.6878  1.4766
 9328SOL    HW239444   1.800   3.570  11.684 -1.9863  0.2788  1.3699
 9329SOL     OW39445   2.139   0.330   2.656 -0.8143  0.2467  0.5696
 9329SOL    HW139446   2.124   0.290   2.741 -0.6389  0.7254  0.8236
 9329SOL    HW239447   2.193   0.261   2.617  0.6265  2.1551 -0.8568
 9330SOL     OW39448   3.842   0.062   0.147 -0.4650 -0.2388  0.0982
 9330SOL    HW139449   3.931   0.080   0.176 -0.7187  0.0854  0.6743
 9330SOL    HW239450   3.826   4.717   0.211 -1.2406  0.1570  0.3333
 9331SOL     OW39451   4.642   3.616   3.200  0.4585  0.3068 -0.5106
 9331SOL    HW139452   4.676   3.533   3.165  0.2327 -1.0861  2.5724
 9331SOL    HW239453   4.643   3.662   3.117  1.2484 -0.3132 -0.8521
 9332SOL     OW39454   3.717   1.442   8.355 -0.3532  0.0165  0.9238
 9332SOL    HW139455   3.811   1.457   8.357 -0.2296 -0.7279  0.8452
 9332SOL    HW239456   3.728   1.355   8.395  3.3002  0.0994  0.0911
 9333SOL     OW39457   3.834   2.356   1.607  0.5421 -0.1717  0.1232
 9333SOL    HW139458   3.829   2.264   1.633 -2.3831  0.4327  1.7018
 9333SOL    HW239459   3.929   2.366   1.594  0.3906  1.0590 -0.0738
 9334SOL     OW39460   2.599   2.540   3.687 -0.0895 -0.1326  0.2385
 9334SOL    HW139461   2.694   2.535   3.677 -0.2850 -2.7711 -0.2423
 9334SOL    HW239462   2.588   2.502   3.775  2.0466 -2.4906 -0.5246
 9335SOL     OW39463   3.427   4.624   9.886 -0.0220  0.6329  0.3131
 9335SOL    HW139464   3.502   4.566   9.899 -0.5312 -0.3341 -0.9759
 9335SOL    HW239465   3.375   4.596   9.961  2.1399 -2.9684  0.4686
 9336SOL     OW39466   2.159   2.585   6.440 -0.2148 -0.6753  0.4403
 9336SOL    HW139467   2.128   2.675   6.427 -0.6728 -0.8667  0.2215
 9336SOL    HW239468   2.228   2.570   6.375 -1.7206  1.3846 -1.6232
 9337SOL     OW39469   1.504   1.614   5.879 -0.1277 -0.2398 -0.1400
 9337SOL    HW139470   1.424   1.602   5.829  0.5412  1.0038 -1.4793
 9337SOL    HW239471   1.527   1.707   5.878 -1.4202  0.0673 -0.4021
 9338SOL     OW39472   1.404   1.077  11.653 -0.0477 -0.0237 -0.9364
 9338SOL    HW139473   1.494   1.109  11.648  0.6055 -1.5161  1.2812
 9338SOL    HW239474   1.416   1.064  11.747 -0.6213 -1.2681 -1.0336
 9339SOL     OW39475   1.723   0.769   7.869 -0.5490 -0.5141 -0.0058
 9339SOL    HW139476   1.640   0.778   7.917 -0.9876 -1.5890 -0.5511
 9339SOL    HW239477   1.774   0.733   7.941  0.1680  1.7811  0.6280
 9340SOL     OW39478   4.003   2.413   8.122  0.3029  0.5208 -0.2359
 9340SOL    HW139479   3.943   2.371   8.059 -0.2230  1.4805 -0.3698
 9340SOL    HW239480   4.075   2.351   8.135 -0.1600 -0.3172 -1.5724
 9341SOL     OW39481   3.581   1.235   9.181  0.3299 -0.1111  0.5761
 9341SOL    HW139482   3.601   1.146   9.150  2.1088 -0.0423  1.4986
 9341SOL    HW239483   3.669   1.256   9.213  0.8396  0.2057 -1.0289
 9342SOL     OW39484   0.805   4.436   5.509 -0.3429  0.2382  0.2312
 9342SOL    HW139485   0.725   4.385   5.510 -0.0103 -0.2816  0.1878
 9342SOL    HW239486   0.787   4.505   5.573  2.5906 -0.2850  1.6171
 9343SOL     OW39487   3.482   2.613  13.548 -0.2713  0.0858 -0.0077
 9343SOL    HW139488   3.468   2.639  13.639  0.4809  1.4908 -0.2913
 9343SOL    HW239489   3.510   2.521  13.556 -0.2568  0.1537  0.7171
 9344SOL     OW39490   3.308   1.979  17.288  0.1692 -0.2813  0.3614
 9344SOL    HW139491   3.374   2.010  17.226 -0.8683  0.8967 -0.1507
 9344SOL    HW239492   3.342   1.892  17.308  3.3729  0.7503 -0.5710
 9345SOL     OW39493   2.409   0.334   4.119 -0.3346  0.1064  0.4475
 9345SOL    HW139494   2.347   0.358   4.051 -2.8991 -3.6760  1.4593
 9345SOL    HW239495   2.484   0.393   4.115  1.1321 -1.6357  2.0143
 9346SOL     OW39496   0.329   0.033   4.185  0.2044  0.1053  0.7977
 9346SOL    HW139497   0.263   0.047   4.252 -1.8747 -2.4996 -0.7171
 9346SOL    HW239498   0.374   4.679   4.220  1.6952  0.4781 -0.2800
 9347SOL     OW39499   1.866   3.944   0.314 -0.1312  0.0634 -0.6243
 9347SOL    HW139500   1.958   3.938   0.288  0.8121  0.0760  2.7998
 9347SOL    HW239501   1.819   3.898   0.243 -1.4826 -1.8315  1.4927
 9348SOL     OW39502   1.992   3.966   6.604 -0.4511  0.0509 -0.6925
 9348SOL    HW139503   1.943   3.916   6.669  0.5309  0.9209  0.6975
 9348SOL    HW239504   2.000   4.050   6.648 -0.6545 -0.1094 -0.3492
 9349SOL     OW39505   4.286   4.652  16.536  0.3435  0.0459 -0.1336
 9349SOL    HW139506   4.343   0.000  16.511  0.7490 -0.1785  0.1387
 9349SOL    HW239507   4.204   4.702  16.543 -0.8666 -1.9593  0.0768
 9350SOL     OW39508   4.603   4.370   3.374 -0.1872  0.5812  0.1666
 9350SOL    HW139509   4.511   4.395   3.379 -0.1989  0.5871 -0.1039
 9350SOL    HW239510   4.595   4.314   3.297  2.2407  0.3710  0.0732
 9351SOL     OW39511   2.550   1.675  13.718  0.4095 -0.1200 -0.2765
 9351SOL    HW139512   2.634   1.651  13.757 -0.0775 -1.9655 -0.3929
 9351SOL    HW239513   2.566   1.700  13.627 -1.0436  1.8973  0.0193
 9352SOL     OW39514   3.793   3.759   2.411  0.0519 -0.1595 -0.1749
 9352SOL    HW139515   3.843   3.684   2.378 -0.5990 -1.0722  0.8943
 9352SOL    HW239516   3.773   3.784   2.321 -2.4946  0.7468  0.6480
 9353SOL     OW39517   1.168   0.756   7.554 -0.5090  0.0416  0.7842
 9353SOL    HW139518   1.201   0.832   7.601 -1.5598 -0.4282  2.2876
 9353SOL    HW239519   1.090   0.798   7.518 -0.1412  0.1479  0.1138
 9354SOL     OW39520   2.031   0.754   6.830 -0.4484  0.5570  0.6558
 9354SOL    HW139521   1.937   0.739   6.835  0.1899 -3.2910  0.9733
 9354SOL    HW239522   2.061   0.743   6.920 -2.1304 -1.8641  0.9014
 9355SOL     OW39523   1.950   4.046  17.669  0.3126 -0.2562  0.3517
 9355SOL    HW139524   2.018   4.068   0.033 -0.7183 -0.3324  1.4829
 9355SOL    HW239525   1.920   3.967   0.013  2.1088 -1.5356 -0.7234
 9356SOL     OW39526   0.667   4.263   3.716  0.6448  0.3069  0.0509
 9356SOL    HW139527   0.598   4.197   3.720  1.1771 -0.2192  0.4537
 9356SOL    HW239528   0.627   4.323   3.779 -0.5383 -0.2608 -0.1420
 9357SOL     OW39529   2.171   0.925   6.648 -0.0468 -0.0292  0.3526
 9357SOL    HW139530   2.172   0.858   6.580  1.5100 -0.4047  0.7525
 9357SOL    HW239531   2.131   0.882   6.724 -0.8214 -0.0342 -0.0604
 9358SOL     OW39532   4.085   3.765   7.806 -0.2242  0.5416 -0.5208
 9358SOL    HW139533   4.020   3.835   7.798 -0.9016  0.1624  1.5920
 9358SOL    HW239534   4.032   3.701   7.760 -1.5412  0.1543  1.5328
 9359SOL     OW39535   4.298   2.098   7.140 -0.3801 -0.4562  0.1821
 9359SOL    HW139536   4.337   2.185   7.141 -0.9605 -0.2382  2.1101
 9359SOL    HW239537   4.257   2.100   7.226  1.4019 -2.0523  1.0892
 9360SOL     OW39538   0.504   2.511  14.221 -0.1186  0.1990  0.4748
 9360SOL    HW139539   0.593   2.481  14.235 -0.0361  0.6571  0.9389
 9360SOL    HW239540   0.526   2.604  14.214 -1.4583  0.4237 -0.9164
 9361SOL     OW39541   4.589   1.266  15.363  0.3424 -0.2660  0.4015
 9361SOL    HW139542   4.672   1.225  15.388 -0.0529 -1.3662 -0.0536
 9361SOL    HW239543   4.621   1.297  15.279 -0.7140  1.5819  0.6900
 9362SOL     OW39544   3.238   2.353  16.726 -0.3314  0.5917  0.9044
 9362SOL    HW139545   3.225   2.293  16.652  0.5524  1.7107 -0.1592
 9362SOL    HW239546   3.294   2.304  16.786 -0.3583 -0.7160 -0.1468
 9363SOL     OW39547   2.612   3.189  11.047 -0.0577 -0.1187 -0.6246
 9363SOL    HW139548   2.678   3.189  10.977  0.3940 -2.4715 -0.2054
 9363SOL    HW239549   2.591   3.096  11.058 -2.2083  0.3897 -0.5776
 9364SOL     OW39550   2.207   4.007   7.616  0.1790  0.0982 -0.6867
 9364SOL    HW139551   2.161   3.965   7.543  0.7461  1.3164 -1.7447
 9364SOL    HW239552   2.261   3.929   7.632 -0.5106 -0.5516 -1.4649
 9365SOL     OW39553   0.639   0.835   1.146  0.2264  0.0380 -0.4207
 9365SOL    HW139554   0.697   0.798   1.212 -1.1633  1.1741  1.4222
 9365SOL    HW239555   0.568   0.855   1.206 -0.0988  0.3965 -0.9223
 9366SOL     OW39556   1.992   1.421   7.776 -0.1043 -0.3638  0.0486
 9366SOL    HW139557   1.993   1.516   7.786  4.2645 -0.4809  0.7913
 9366SOL    HW239558   2.064   1.418   7.713 -0.1771  0.3011 -0.0693
 9367SOL     OW39559   3.698   3.248   9.150  0.3196  0.1628  0.1997
 9367SOL    HW139560   3.706   3.315   9.218 -1.7879  0.5088  0.0928
 9367SOL    HW239561   3.783   3.204   9.151  0.6818  0.8156 -1.6544
 9368SOL     OW39562   0.673   0.795  11.894  0.2719 -0.0328  0.0116
 9368SOL    HW139563   0.721   0.733  11.949  1.5122  0.5546 -0.3996
 9368SOL    HW239564   0.744   0.848  11.857 -0.7636  0.6268 -1.0093
 9369SOL     OW39565   4.416   2.145   0.834  0.2236  0.2578  0.7692
 9369SOL    HW139566   4.440   2.075   0.894  0.4517  0.0914  0.4788
 9369SOL    HW239567   4.392   2.214   0.896 -4.2504  0.7837 -1.5104
 9370SOL     OW39568   3.573   0.493  11.817 -0.1838  0.3247  0.0680
 9370SOL    HW139569   3.558   0.423  11.753  3.1442  1.5473 -2.0427
 9370SOL    HW239570   3.522   0.465  11.893  1.9882  0.9983  1.7629
 9371SOL     OW39571   3.234   3.926   6.767 -0.0309 -0.7939 -0.2845
 9371SOL    HW139572   3.294   3.927   6.842  0.8237  2.3226 -1.0206
 9371SOL    HW239573   3.191   4.011   6.778  0.3828 -0.4707 -1.1673
 9372SOL     OW39574   3.948   4.577   1.021 -0.1381 -0.2141 -0.5616
 9372SOL    HW139575   4.028   4.549   1.066  0.2329  0.7808 -0.6000
 9372SOL    HW239576   3.944   4.517   0.946  1.2507  0.0677 -0.8622
 9373SOL     OW39577   2.708   2.724   9.659 -0.2444  0.1129  0.0477
 9373SOL    HW139578   2.655   2.793   9.698 -0.0491  0.9623 -1.1678
 9373SOL    HW239579   2.658   2.649   9.691 -1.3127  0.4285 -0.8897
 9374SOL     OW39580   4.161   2.045   5.943  0.0675 -0.0695  0.7283
 9374SOL    HW139581   4.145   2.094   6.023 -0.1403 -1.3814  1.4880
 9374SOL    HW239582   4.199   2.115   5.890  1.4365 -0.7953  0.7503
 9375SOL     OW39583   0.068   1.666   4.753  0.1680  0.0321  0.9561
 9375SOL    HW139584   0.045   1.620   4.834 -1.5168  0.1646  0.5529
 9375SOL    HW239585   0.149   1.711   4.779  1.6760 -3.2394  1.8523
 9376SOL     OW39586   0.784   0.107   0.657 -0.8524 -0.1108  0.1311
 9376SOL    HW139587   0.709   0.155   0.622 -1.8712 -1.7827  0.0529
 9376SOL    HW239588   0.850   0.148   0.600 -0.7573  3.1153  2.5510
 9377SOL     OW39589   2.365   3.236   2.118 -0.0424  0.1271  0.4263
 9377SOL    HW139590   2.387   3.144   2.106  3.1196  1.1479 -1.6536
 9377SOL    HW239591   2.329   3.257   2.032  0.8503 -0.8929 -0.1971
 9378SOL     OW39592   1.450   0.082   5.631 -0.3739  0.2727 -0.0853
 9378SOL    HW139593   1.519   0.016   5.623 -1.4874 -1.1750  2.2239
 9378SOL    HW239594   1.436   0.072   5.725  0.2735  0.8799  0.0803
 9379SOL     OW39595   0.008   3.266  16.288 -0.4719  0.2741 -0.6230
 9379SOL    HW139596   0.096   3.231  16.280 -1.3122 -1.3827 -2.5665
 9379SOL    HW239597   0.024   3.329  16.358  1.8647 -1.9456  0.8335
 9380SOL     OW39598   2.801   2.921  14.370 -0.2746 -0.3045  0.4556
 9380SOL    HW139599   2.851   2.977  14.430  0.7951 -2.3190  1.4344
 9380SOL    HW239600   2.746   2.990  14.334  0.9381  0.7073  0.5455
 9381SOL     OW39601   1.242   3.738   6.022 -0.7418  0.0705  0.5107
 9381SOL    HW139602   1.158   3.700   5.997 -1.1705  0.7505  0.9170
 9381SOL    HW239603   1.307   3.720   5.954 -0.1816 -2.7577  1.7756
 9382SOL     OW39604   2.982   4.185   3.249  0.5618  0.3637  0.3964
 9382SOL    HW139605   2.904   4.214   3.296 -0.2153 -1.8606  0.4858
 9382SOL    HW239606   2.982   4.095   3.281 -1.4220 -0.2170 -1.2566
 9383SOL     OW39607   4.014   2.832   0.827  0.4469 -0.9689  0.2334
 9383SOL    HW139608   3.958   2.829   0.750  0.3873 -2.3878  0.3456
 9383SOL    HW239609   4.050   2.921   0.817  1.3388 -1.3892 -0.3309
 9384SOL     OW39610   3.349   3.938   8.664  0.2089  0.1370  0.3662
 9384SOL    HW139611   3.403   3.860   8.652 -2.3772 -2.0578  2.7677
 9384SOL    HW239612   3.337   3.932   8.759  0.3718 -0.4980  0.3435
 9385SOL     OW39613   0.311   3.494   3.051 -0.4384 -0.5542  0.0132
 9385SOL    HW139614   0.326   3.497   2.956 -0.1587  1.3085  0.1100
 9385SOL    HW239615   0.322   3.401   3.073  0.0741 -0.1977  1.2421
 9386SOL     OW39616   4.619   2.110   5.737 -0.2019 -0.9076 -0.6413
 9386SOL    HW139617   4.543   2.120   5.679 -1.1621  1.3368  1.0038
 9386SOL    HW239618   4.587   2.071   5.819  1.0436 -0.9612 -0.1883
 9387SOL     OW39619   0.453   1.458   4.565  0.7306 -0.2075 -0.6214
 9387SOL    HW139620   0.383   1.523   4.564 -0.5629 -1.6196 -1.8080
 9387SOL    HW239621   0.512   1.502   4.626  1.5452 -2.2239  0.0844
 9388SOL     OW39622   2.697   2.349  12.348  0.1652  0.2428  0.1707
 9388SOL    HW139623   2.610   2.313  12.329 -0.6425  1.3587  1.7492
 9388SOL    HW239624   2.685   2.365  12.442  0.5454  3.7170 -0.3523
 9389SOL     OW39625   3.887   1.635   7.638  0.1351  0.0063 -0.3205
 9389SOL    HW139626   3.885   1.555   7.585 -0.4897  1.0356 -1.8478
 9389SOL    HW239627   3.805   1.630   7.688 -2.1177 -0.3181 -4.0494
 9390SOL     OW39628   3.383   3.182  17.388  0.5766 -0.3715  0.2421
 9390SOL    HW139629   3.302   3.133  17.372 -0.2131  0.2794  2.2514
 9390SOL    HW239630   3.418   3.128  17.459 -2.2690 -1.1495  1.0713
 9391SOL     OW39631   4.460   1.647  14.612  0.3277  0.2717  0.4454
 9391SOL    HW139632   4.516   1.586  14.565 -0.0898  1.5499 -1.7488
 9391SOL    HW239633   4.461   1.728  14.561  1.5050 -0.3146 -0.4666
 9392SOL     OW39634   1.172   4.544  12.659  0.1989 -0.4626 -0.0690
 9392SOL    HW139635   1.092   4.540  12.606 -0.2189  4.5745  0.2388
 9392SOL    HW239636   1.209   4.459  12.634 -0.1633 -0.1360 -1.7602
 9393SOL     OW39637   4.270   1.596   3.979 -0.3539 -0.0938  0.3610
 9393SOL    HW139638   4.235   1.548   4.054 -2.5584  2.3140  0.8451
 9393SOL    HW239639   4.359   1.614   4.008 -0.5526 -0.5156  1.2327
 9394SOL     OW39640   3.426   4.606   7.474  0.1195  0.4165  0.2130
 9394SOL    HW139641   3.385   4.686   7.443  2.8693  0.8223 -2.3887
 9394SOL    HW239642   3.469   4.648   7.550  0.7326 -2.0748  1.2397
 9395SOL     OW39643   1.351   3.770   8.791 -0.4447  0.0678 -0.3755
 9395SOL    HW139644   1.316   3.813   8.870 -1.2050  0.4684 -0.9298
 9395SOL    HW239645   1.277   3.772   8.730  0.2375 -1.3115 -1.2316
 9396SOL     OW39646   4.177   2.289   4.058  0.2645 -0.8556 -0.3581
 9396SOL    HW139647   4.143   2.303   4.146 -0.2511 -0.6374 -0.5883
 9396SOL    HW239648   4.189   2.380   4.031  1.7361 -1.5303 -2.0269
 9397SOL     OW39649   2.551   1.277  11.926 -0.0786 -0.1850  0.6526
 9397SOL    HW139650   2.618   1.326  11.973 -0.6927  0.6987  0.5902
 9397SOL    HW239651   2.606   1.206  11.892  1.7167  0.8704  1.3526
 9398SOL     OW39652   4.441   0.626   3.859  0.1960  0.1439  0.7749
 9398SOL    HW139653   4.494   0.700   3.829 -0.1228  0.4227  0.8970
 9398SOL    HW239654   4.436   0.638   3.954 -0.0908 -0.7535  0.8760
 9399SOL     OW39655   4.421   0.825   5.087  0.1612  0.5723  0.7032
 9399SOL    HW139656   4.361   0.897   5.064  0.3700 -0.4571 -3.0114
 9399SOL    HW239657   4.494   0.845   5.028 -0.7402  0.6041 -0.4196
 9400SOL     OW39658   0.490   1.625   7.992  0.5430 -0.0723 -0.1186
 9400SOL    HW139659   0.447   1.617   7.907  0.1886 -0.4646  0.0979
 9400SOL    HW239660   0.496   1.721   7.998  0.4856 -0.2599  3.2694
 9401SOL     OW39661   3.694   3.187   3.879  0.4558 -0.0138  0.3335
 9401SOL    HW139662   3.773   3.138   3.855 -0.4717 -0.9730 -0.7615
 9401SOL    HW239663   3.625   3.166   3.816  1.6984  0.4252 -1.1716
 9402SOL     OW39664   3.401   0.302   6.493 -0.8593 -0.0859  1.0883
 9402SOL    HW139665   3.462   0.367   6.528  0.1128 -0.2004 -0.4135
 9402SOL    HW239666   3.321   0.354   6.490 -1.4444 -0.9936  1.1295
 9403SOL     OW39667   2.140   1.346   6.615 -1.0540 -0.6028 -0.1576
 9403SOL    HW139668   2.048   1.320   6.620 -1.3628  0.2347 -1.5719
 9403SOL    HW239669   2.171   1.327   6.703 -0.4641 -1.1810 -0.4868
 9404SOL     OW39670   3.459   0.644  16.072  0.0155 -0.0496  0.6063
 9404SOL    HW139671   3.508   0.725  16.066  2.7509 -1.6635  1.0806
 9404SOL    HW239672   3.506   0.573  16.029 -0.6650 -0.1008 -0.0457
 9405SOL     OW39673   0.364   0.057  12.882 -0.3100 -0.6527 -0.4126
 9405SOL    HW139674   0.436   0.115  12.907 -0.3447 -0.5495 -0.5572
 9405SOL    HW239675   0.416   4.703  12.901  0.5730  0.3318  1.2582
 9406SOL     OW39676   1.100   2.377   5.766 -0.2460 -0.3088  0.3155
 9406SOL    HW139677   1.055   2.316   5.707 -1.2117 -1.4577  2.2638
 9406SOL    HW239678   1.054   2.456   5.736  0.6679 -0.6514 -1.9470
 9407SOL     OW39679   3.633   0.283   6.224  0.0013 -0.1516 -0.0708
 9407SOL    HW139680   3.632   0.204   6.170  1.5299 -0.4506  0.3082
 9407SOL    HW239681   3.665   0.237   6.302 -2.1215  0.2986  1.0679
 9408SOL     OW39682   3.057   3.511   1.261  0.5816  0.6805  0.4808
 9408SOL    HW139683   2.975   3.556   1.243 -0.4123 -1.0176  0.7014
 9408SOL    HW239684   3.082   3.541   1.349 -2.0433  1.4758  0.9754
 9409SOL     OW39685   0.931   2.253  13.915 -0.6800  0.0883  0.3901
 9409SOL    HW139686   0.937   2.314  13.841 -3.5984  0.7362  0.7071
 9409SOL    HW239687   0.841   2.223  13.908 -0.3309 -0.6610 -0.9633
 9410SOL     OW39688   0.891   2.044   6.727  0.0228  0.0044  0.5016
 9410SOL    HW139689   0.946   2.100   6.674 -2.4372  1.9466  0.0415
 9410SOL    HW239690   0.872   1.975   6.663  0.6658  0.1723  0.1304
 9411SOL     OW39691   2.455   1.623   9.959 -0.4572 -0.0750  0.3686
 9411SOL    HW139692   2.478   1.704   9.915 -3.0510  0.2293 -0.4335
 9411SOL    HW239693   2.491   1.638  10.047  2.9985 -1.9355 -0.7240
 9412SOL     OW39694   4.340   2.386   7.192  0.2997  0.5913 -0.1740
 9412SOL    HW139695   4.356   2.478   7.172  2.7939  0.2242  0.1174
 9412SOL    HW239696   4.262   2.380   7.248 -0.0560 -0.1383 -0.7528
 9413SOL     OW39697   0.258   3.041   8.709 -0.0650 -0.3748  0.2911
 9413SOL    HW139698   0.251   2.979   8.781  0.6396 -0.8139 -0.0145
 9413SOL    HW239699   0.177   3.034   8.659 -1.0581 -1.3190  2.0686
 9414SOL     OW39700   2.093   2.841   0.651  0.2261  0.8349 -0.3727
 9414SOL    HW139701   2.054   2.790   0.580  0.7715  1.0225 -0.8082
 9414SOL    HW239702   2.185   2.812   0.648 -0.1790 -0.4454 -0.2753
 9415SOL     OW39703   2.126   1.315   8.743 -0.3027  0.0484 -0.3339
 9415SOL    HW139704   2.115   1.348   8.832  1.0144 -0.5489  0.0554
 9415SOL    HW239705   2.180   1.388   8.710  0.9455 -0.0795  1.4182
 9416SOL     OW39706   2.071   3.685   4.907  0.4299 -0.4210  0.3371
 9416SOL    HW139707   2.097   3.678   4.815 -1.4733 -0.3646 -0.1965
 9416SOL    HW239708   2.038   3.775   4.908  1.4877  0.0248 -1.8331
 9417SOL     OW39709   0.359   4.077   5.639  0.1267 -0.1679  0.2744
 9417SOL    HW139710   0.373   3.984   5.652 -0.6192 -0.2355  0.5654
 9417SOL    HW239711   0.265   4.077   5.622 -0.0569 -2.2351  1.4084
 9418SOL     OW39712   3.940   3.284   6.710  0.4050 -0.9407 -0.4687
 9418SOL    HW139713   3.971   3.224   6.642 -0.5652 -1.3280 -0.5677
 9418SOL    HW239714   4.013   3.342   6.732  0.7976 -1.7316  0.3112
 9419SOL     OW39715   4.180   4.402   8.031  0.1479 -0.1903 -0.1564
 9419SOL    HW139716   4.175   4.352   7.949 -1.5031 -1.0906  0.4842
 9419SOL    HW239717   4.260   4.454   8.026  0.5185 -0.7769 -0.2311
 9420SOL     OW39718   2.430   1.826   6.574 -0.5012  0.3626 -0.6518
 9420SOL    HW139719   2.338   1.828   6.546 -0.3218 -0.5671 -1.2748
 9420SOL    HW239720   2.426   1.846   6.668 -0.7730 -4.0958  0.2709
 9421SOL     OW39721   0.403   2.047   7.569  0.1726  0.2925  0.1344
 9421SOL    HW139722   0.441   2.091   7.493  0.5558  1.7123  1.1446
 9421SOL    HW239723   0.342   2.115   7.596  1.7050  1.7300  0.0160
 9422SOL     OW39724   1.024   0.152   7.043 -0.6432  0.3034 -0.4359
 9422SOL    HW139725   1.016   0.247   7.032  3.0652  0.5169 -1.3391
 9422SOL    HW239726   0.947   0.131   7.096 -0.5574  0.3812 -0.2808
 9423SOL     OW39727   0.949   1.958  14.989  0.1883 -0.2137  0.3135
 9423SOL    HW139728   0.899   1.989  15.065  1.1204 -0.1847  0.9120
 9423SOL    HW239729   1.023   2.020  14.987 -1.2948  1.5525  0.0109
 9424SOL     OW39730   1.871   2.291  11.513 -0.2896 -0.4902  0.1818
 9424SOL    HW139731   1.864   2.387  11.515  2.8344 -0.2552  0.9282
 9424SOL    HW239732   1.806   2.261  11.576  2.2100 -1.2838  2.3613
 9425SOL     OW39733   1.797   0.969  12.070 -0.5857  0.6347 -0.0551
 9425SOL    HW139734   1.878   0.989  12.025 -0.4113 -2.5353 -1.0948
 9425SOL    HW239735   1.734   1.029  12.029 -1.8940 -1.3563 -0.9720
 9426SOL     OW39736   1.380   2.353   0.321 -0.3069 -0.1348  0.3438
 9426SOL    HW139737   1.367   2.435   0.368  0.3313 -0.5748  1.3101
 9426SOL    HW239738   1.354   2.370   0.230  2.0333  3.3327  0.3340
 9427SOL     OW39739   1.172   0.805  14.586 -0.2112 -0.1872 -0.3091
 9427SOL    HW139740   1.255   0.759  14.576 -0.2255 -0.2653 -0.0700
 9427SOL    HW239741   1.190   0.860  14.510 -0.7678 -0.9671 -1.0108
 9428SOL     OW39742   4.489   4.446  13.896 -0.4555 -0.4036 -0.5599
 9428SOL    HW139743   4.524   4.383  13.833  1.5764 -0.8794  1.0459
 9428SOL    HW239744   4.554   4.514  13.882  1.6188 -2.0656  0.9938
 9429SOL     OW39745   3.507   1.233  12.288  0.0271 -0.8946 -0.0356
 9429SOL    HW139746   3.448   1.285  12.344  0.5793  0.4728 -0.7217
 9429SOL    HW239747   3.461   1.241  12.204  2.4818 -4.3395 -1.6895
 9430SOL     OW39748   2.812   1.009   5.003 -0.1499 -0.4005  0.2229
 9430SOL    HW139749   2.739   0.947   5.010  0.4282 -1.3976 -2.7288
 9430SOL    HW239750   2.794   1.076   5.068  1.9357  0.2592  0.1179
 9431SOL     OW39751   0.140   0.332  16.981  0.2469 -0.3893  0.2439
 9431SOL    HW139752   0.174   0.290  16.902 -0.8845 -0.9406  0.0495
 9431SOL    HW239753   0.103   0.414  16.949 -0.9297 -0.7997  0.5479
 9432SOL     OW39754   2.707   2.406   9.492  0.3565 -0.5061 -0.2068
 9432SOL    HW139755   2.655   2.424   9.571  0.5550  1.4936 -0.5330
 9432SOL    HW239756   2.697   2.311   9.483 -2.6932 -0.5363  3.1515
 9433SOL     OW39757   4.722   4.323   6.702 -0.4353  0.7871  0.1279
 9433SOL    HW139758   0.052   4.394   6.668  0.7527  0.8195  2.0937
 9433SOL    HW239759   0.065   4.269   6.744 -0.8055  1.0684  1.0660
 9434SOL     OW39760   3.783   0.397  15.689 -0.1149 -0.3977 -0.3303
 9434SOL    HW139761   3.689   0.380  15.700  0.2158 -1.6710  0.5568
 9434SOL    HW239762   3.784   0.492  15.697 -1.6274 -0.4520  0.6541
 9435SOL     OW39763   2.156   2.398   3.495 -0.0050 -0.1349 -0.5837
 9435SOL    HW139764   2.116   2.355   3.571  0.3927  0.5071 -0.0069
 9435SOL    HW239765   2.177   2.321   3.443  0.7781 -1.0971  1.1853
 9436SOL     OW39766   3.108   4.545   3.207 -0.1285 -0.4791 -0.1469
 9436SOL    HW139767   3.015   4.547   3.184 -0.3381 -1.3138  0.5948
 9436SOL    HW239768   3.103   4.606   3.281 -0.4338 -0.4360 -0.2020
 9437SOL     OW39769   4.518   0.907   7.659 -0.0216 -0.1413  0.1842
 9437SOL    HW139770   4.434   0.866   7.678  0.1445 -0.4464  0.2732
 9437SOL    HW239771   4.500   0.982   7.715 -1.4887 -0.5863  0.3165
 9438SOL     OW39772   3.216   3.031  16.214  0.0196  0.0263  0.2344
 9438SOL    HW139773   3.132   2.995  16.188  0.4193 -0.0498 -0.9251
 9438SOL    HW239774   3.216   3.005  16.306  3.2148 -1.3390 -0.1236
 9439SOL     OW39775   3.294   0.562   5.371  0.3313  0.2233 -0.1997
 9439SOL    HW139776   3.229   0.631   5.358  0.4613  0.3883  0.0407
 9439SOL    HW239777   3.366   0.596   5.319  0.8573 -1.7161 -0.7332
 9440SOL     OW39778   2.436   2.767   9.118 -0.0390 -0.3015 -0.6388
 9440SOL    HW139779   2.480   2.851   9.115  0.5632 -0.6180 -0.6824
 9440SOL    HW239780   2.440   2.751   9.213  0.4270  0.1517 -0.5840
 9441SOL     OW39781   4.037   0.672  11.437 -0.0342  0.3121  0.5366
 9441SOL    HW139782   3.989   0.600  11.479  2.3610 -0.8332  1.3226
 9441SOL    HW239783   4.127   0.646  11.453 -0.7660 -1.4786  1.8298
 9442SOL     OW39784   2.722   3.429   9.512 -0.1741 -0.1781 -0.8023
 9442SOL    HW139785   2.651   3.399   9.569  0.8180  0.0877  0.5746
 9442SOL    HW239786   2.803   3.398   9.554 -0.2314 -1.1245 -1.4043
 9443SOL     OW39787   3.104   4.665   1.315  0.4504 -0.0668  0.0319
 9443SOL    HW139788   3.159   4.666   1.393  0.5609  1.2037 -0.0587
 9443SOL    HW239789   3.145   4.593   1.269 -0.9189 -0.1666 -1.0343
 9444SOL     OW39790   1.367   0.751   8.344  0.6868  0.0598  0.3028
 9444SOL    HW139791   1.360   0.692   8.270 -1.4354  0.2491  0.3370
 9444SOL    HW239792   1.378   0.695   8.421  1.0150  0.4959  0.5716
 9445SOL     OW39793   4.137   2.795   5.431  0.2435  0.5119  0.2684
 9445SOL    HW139794   4.181   2.841   5.503 -0.3864  3.7175 -1.3783
 9445SOL    HW239795   4.104   2.867   5.376  0.8528  1.5065  1.2080
 9446SOL     OW39796   1.449   2.509   4.979 -0.1224 -0.0668  0.3243
 9446SOL    HW139797   1.426   2.416   4.979  1.1687 -0.3899  0.4000
 9446SOL    HW239798   1.506   2.513   4.902 -0.4567  0.0079  0.0816
 9447SOL     OW39799   3.774   0.541   5.760  0.0584  0.5349 -0.1306
 9447SOL    HW139800   3.805   0.575   5.676  1.5811  2.9591  1.4340
 9447SOL    HW239801   3.789   0.618   5.815 -0.8317  1.7660 -1.6264
 9448SOL     OW39802   3.688   2.645   3.690  0.2581 -0.2492  0.0005
 9448SOL    HW139803   3.640   2.573   3.732 -1.8455  1.0654 -0.1381
 9448SOL    HW239804   3.766   2.601   3.658 -2.3702 -2.4851 -3.3280
 9449SOL     OW39805   0.625   3.687   1.777  0.3327  0.0816  0.4056
 9449SOL    HW139806   0.587   3.727   1.699  1.0077 -3.2573 -1.6195
 9449SOL    HW239807   0.578   3.746   1.836 -0.6294 -2.8643  2.5816
 9450SOL     OW39808   1.542   2.028  14.109 -0.5800  0.4455 -0.1360
 9450SOL    HW139809   1.469   2.061  14.056 -0.9041  0.7412  0.4912
 9450SOL    HW239810   1.511   1.937  14.114  0.2982  0.2064  1.0225
 9451SOL     OW39811   0.917   3.289   0.326 -0.3017  0.1348  0.2827
 9451SOL    HW139812   0.834   3.300   0.279  0.0328  1.2276 -0.0504
 9451SOL    HW239813   0.939   3.196   0.321 -0.8036  0.2146 -3.3529
 9452SOL     OW39814   1.660   3.758   0.783  0.2932 -0.3685  0.4223
 9452SOL    HW139815   1.591   3.817   0.754  1.0823  0.4127  0.0970
 9452SOL    HW239816   1.654   3.760   0.878  0.6367 -0.5875  0.4507
 9453SOL     OW39817   2.135   1.985   6.513 -0.0061  0.1065  0.1329
 9453SOL    HW139818   2.080   1.997   6.591 -0.5781  0.4040 -0.3152
 9453SOL    HW239819   2.140   2.079   6.496 -1.9442 -0.0321 -1.1556
 9454SOL     OW39820   4.416   1.581  17.294 -0.2496 -0.0522 -0.6955
 9454SOL    HW139821   4.361   1.647  17.336  2.1339  0.4516  1.6763
 9454SOL    HW239822   4.487   1.575  17.359  0.8848 -0.2914 -1.9495
 9455SOL     OW39823   1.707   4.232   4.477 -0.0792 -0.5599  0.0997
 9455SOL    HW139824   1.764   4.303   4.506 -0.3001 -0.4506  0.2669
 9455SOL    HW239825   1.735   4.224   4.386 -0.9680 -1.3062 -0.1093
 9456SOL     OW39826   2.363   3.951   4.273 -0.2679 -0.0522 -0.0188
 9456SOL    HW139827   2.363   4.047   4.273 -0.7714 -0.0514  1.2863
 9456SOL    HW239828   2.406   3.926   4.191 -1.4968  1.0683 -1.0153
 9457SOL     OW39829   2.993   0.183   9.500  0.3200 -0.1905 -0.6717
 9457SOL    HW139830   2.910   0.212   9.537  0.0893 -2.2688  0.3875
 9457SOL    HW239831   3.057   0.186   9.571 -2.2341  1.7972  1.5538
 9458SOL     OW39832   3.415   0.983   8.124 -0.2372 -0.5977  0.4244
 9458SOL    HW139833   3.334   1.032   8.109  0.8536  1.3431  0.9215
 9458SOL    HW239834   3.486   1.025   8.076 -1.9192 -1.1524 -2.5406
 9459SOL     OW39835   2.203   0.155   5.234 -0.0886 -0.0792  0.1732
 9459SOL    HW139836   2.231   0.229   5.288 -0.6205  1.1431 -1.2451
 9459SOL    HW239837   2.220   0.184   5.145  0.8977 -0.3662  0.2637
 9460SOL     OW39838   0.154   0.649  16.589 -0.2645  0.3699 -0.3618
 9460SOL    HW139839   0.229   0.662  16.531  1.1891 -0.6787  1.2958
 9460SOL    HW239840   0.161   0.715  16.659  0.2188  2.4366 -2.3775
 9461SOL     OW39841   1.598   1.371   3.817  0.0766  0.0883  0.2539
 9461SOL    HW139842   1.537   1.319   3.870 -0.8196  1.3843  0.5036
 9461SOL    HW239843   1.541   1.367   3.740  0.1699 -2.5686  0.3389
 9462SOL     OW39844   2.578   2.633   2.332 -0.1456 -0.3668  0.2384
 9462SOL    HW139845   2.489   2.627   2.299  0.3709  0.6216 -1.3931
 9462SOL    HW239846   2.622   2.675   2.258 -2.1546  0.3712 -0.5391
 9463SOL     OW39847   3.276   3.702   6.162  0.4152  0.4805 -0.5942
 9463SOL    HW139848   3.346   3.677   6.221 -0.5313  0.8376  0.6735
 9463SOL    HW239849   3.302   3.646   6.088 -0.3002  0.5708 -0.9165
 9464SOL     OW39850   1.365   4.559  13.282  0.4267 -0.8152  0.2150
 9464SOL    HW139851   1.433   4.591  13.342  0.2327  1.2695 -0.6681
 9464SOL    HW239852   1.344   4.470  13.311  2.5278 -1.8449 -1.4246
 9465SOL     OW39853   3.283   3.450   5.635 -0.2908  0.6424 -0.1647
 9465SOL    HW139854   3.342   3.489   5.571  2.6350 -1.1889  1.4207
 9465SOL    HW239855   3.339   3.386   5.680  0.0129  1.7317  1.0191
 9466SOL     OW39856   2.981   2.392   4.770 -0.5253 -0.0835 -0.1869
 9466SOL    HW139857   2.915   2.453   4.736 -0.5078  0.7028  1.1778
 9466SOL    HW239858   2.921   2.327   4.808 -0.9025  0.5617  0.3163
 9467SOL     OW39859   4.657   3.398   7.103  0.4780  0.4363 -0.2919
 9467SOL    HW139860   4.672   3.449   7.024  0.6192 -0.2484 -0.7099
 9467SOL    HW239861   4.563   3.387   7.118  0.5042 -0.1573 -0.5519
 9468SOL     OW39862   4.059   0.726  10.587 -0.0537 -0.6838  0.6887
 9468SOL    HW139863   4.014   0.649  10.622  0.3580 -2.5024 -2.9040
 9468SOL    HW239864   4.149   0.711  10.615  0.5938  0.3596 -0.8672
 9469SOL     OW39865   4.648   2.840   6.695 -0.9843  0.1575  0.7209
 9469SOL    HW139866   4.694   2.811   6.616 -2.4050  0.0944 -0.0829
 9469SOL    HW239867   4.703   2.915   6.718  0.0809 -0.6183  0.7307
 9470SOL     OW39868   3.834   3.660  11.869 -0.1251  0.3534  0.0567
 9470SOL    HW139869   3.775   3.691  11.937  1.3371  1.7242  0.7019
 9470SOL    HW239870   3.908   3.713  11.899 -0.0610  0.8648 -0.9992
 9471SOL     OW39871   4.512   0.826   5.908 -0.4311  0.0786 -1.1332
 9471SOL    HW139872   4.464   0.907   5.899 -1.0685 -0.4259 -2.2516
 9471SOL    HW239873   4.585   0.856   5.963 -0.2151  0.8724 -1.8559
 9472SOL     OW39874   2.757   2.334  14.215 -0.0776  0.0604 -0.6237
 9472SOL    HW139875   2.750   2.326  14.310 -0.8579  0.2334 -0.6628
 9472SOL    HW239876   2.804   2.418  14.215  0.0075  0.0188  0.7394
 9473SOL     OW39877   3.746   4.381   6.393  0.0240  0.2414 -0.9615
 9473SOL    HW139878   3.839   4.382   6.418 -0.4038 -2.6902  0.6870
 9473SOL    HW239879   3.706   4.453   6.442 -1.2174 -0.5178 -0.8688
 9474SOL     OW39880   4.543   0.484   8.014 -0.4036 -0.2394 -0.5439
 9474SOL    HW139881   4.493   0.477   7.933 -1.1831  3.5812 -0.3912
 9474SOL    HW239882   4.491   0.548   8.064  0.0987 -1.5288  1.6358
 9475SOL     OW39883   0.687   0.398   4.850 -0.7633  0.3335 -0.5206
 9475SOL    HW139884   0.699   0.303   4.843  1.7557  0.5443  1.0045
 9475SOL    HW239885   0.592   0.404   4.837 -0.8103  1.8232  0.5207
 9476SOL     OW39886   0.228   4.482   3.647  0.5496  0.6572  0.0741
 9476SOL    HW139887   0.248   4.501   3.555 -0.6143  1.3182 -0.0372
 9476SOL    HW239888   0.135   4.504   3.650  0.1995 -0.5195 -1.7196
 9477SOL     OW39889   0.271   0.429  15.067 -0.3924 -0.2521 -0.0040
 9477SOL    HW139890   0.272   0.502  15.128  0.3351  0.9130 -1.3894
 9477SOL    HW239891   0.194   0.378  15.091 -1.8255  1.2228 -1.5054
 9478SOL     OW39892   0.991   1.150   7.499 -0.0942 -0.4099 -0.2277
 9478SOL    HW139893   1.069   1.196   7.467 -0.9805  0.1690 -1.5367
 9478SOL    HW239894   0.931   1.176   7.429 -0.5127 -0.7420  0.0033
 9479SOL     OW39895   1.969   0.796   3.717 -0.3530 -0.5052  0.0802
 9479SOL    HW139896   2.031   0.723   3.725 -0.9599 -1.1194 -0.7825
 9479SOL    HW239897   2.028   0.871   3.725  0.9468 -1.6028  0.7530
 9480SOL     OW39898   1.976   1.706  17.125 -0.1486  0.2319 -0.7285
 9480SOL    HW139899   2.022   1.742  17.202 -1.5615 -0.2588  0.3371
 9480SOL    HW239900   1.893   1.689  17.170 -0.0818 -0.0726 -0.7224
 9481SOL     OW39901   3.428   0.655   8.966  0.0671  0.2674 -0.2021
 9481SOL    HW139902   3.399   0.726   8.908 -0.7884 -0.1921 -0.3384
 9481SOL    HW239903   3.448   0.700   9.048 -1.6845  0.2708  0.2297
 9482SOL     OW39904   1.278   1.795  16.937 -0.3038  0.2931 -0.2747
 9482SOL    HW139905   1.286   1.885  16.905 -0.3190  0.0118 -1.0590
 9482SOL    HW239906   1.363   1.781  16.978  0.5058  0.9031 -1.7585
 9483SOL     OW39907   2.464   3.712   3.418 -0.5677 -0.5570  0.8355
 9483SOL    HW139908   2.425   3.706   3.506 -0.1299 -2.1202  0.9170
 9483SOL    HW239909   2.494   3.622   3.411  0.7672 -0.1727  1.5696
 9484SOL     OW39910   0.488   1.201   2.896  0.1265 -0.0737  0.6023
 9484SOL    HW139911   0.566   1.238   2.853 -0.3833 -2.1233 -2.0776
 9484SOL    HW239912   0.495   1.244   2.981 -0.7245  0.5428  0.3672
 9485SOL     OW39913   2.177   2.706  13.513  0.4613 -0.6052 -0.4856
 9485SOL    HW139914   2.117   2.643  13.474 -0.7292  0.1047  0.1939
 9485SOL    HW239915   2.194   2.666  13.599 -3.7520 -0.3431  0.4668
 9486SOL     OW39916   2.509   4.043   9.128 -0.4472 -0.3890  0.7726
 9486SOL    HW139917   2.498   4.138   9.131  1.8546 -0.1668  1.9516
 9486SOL    HW239918   2.484   4.008   9.213 -1.9744 -0.2494  0.3868
 9487SOL     OW39919   0.140   3.400  14.738 -0.1998 -0.4877 -0.1777
 9487SOL    HW139920   0.132   3.491  14.767 -0.5534 -0.2501 -1.0015
 9487SOL    HW239921   0.155   3.411  14.644  0.7498  0.4256  0.0858
 9488SOL     OW39922   3.258   0.594   7.558 -0.6553  0.6964 -0.5611
 9488SOL    HW139923   3.269   0.632   7.645  0.5788  0.2397 -0.5162
 9488SOL    HW239924   3.204   0.516   7.569  0.6303  0.0567  1.2128
 9489SOL     OW39925   0.514   2.139   5.435 -0.1420  0.6681 -0.0701
 9489SOL    HW139926   0.472   2.223   5.457 -0.7521  0.0596  1.0968
 9489SOL    HW239927   0.574   2.166   5.366  1.5597 -2.0163  0.3852
 9490SOL     OW39928   1.794   4.443  10.227 -0.2250 -0.2967  1.0825
 9490SOL    HW139929   1.728   4.436  10.158  3.1875 -1.9814 -1.9730
 9490SOL    HW239930   1.777   4.365  10.280 -0.1986 -1.5906 -0.8037
 9491SOL     OW39931   0.151   3.873   7.089  0.1700  0.1460  0.2222
 9491SOL    HW139932   0.179   3.786   7.119  1.0818  0.2998 -0.1945
 9491SOL    HW239933   0.071   3.878   7.142  0.6303  0.0688  0.9376
 9492SOL     OW39934   2.926   2.649   8.377 -0.1074  0.4764 -0.2555
 9492SOL    HW139935   2.940   2.722   8.318  1.5674  0.9628  0.7203
 9492SOL    HW239936   2.837   2.623   8.353  1.0370 -2.1744 -1.6201
 9493SOL     OW39937   1.154   1.169   9.411 -0.3111 -0.1764 -0.0935
 9493SOL    HW139938   1.090   1.212   9.468  1.1718 -0.9445  2.1319
 9493SOL    HW239939   1.105   1.144   9.333 -0.2812 -0.5485  0.0064
 9494SOL     OW39940   4.426   4.129   6.316  0.2810  0.3116  0.0727
 9494SOL    HW139941   4.417   4.069   6.390  2.4473  1.0827  0.9592
 9494SOL    HW239942   4.504   4.177   6.345  1.7304 -2.2690  0.4420
 9495SOL     OW39943   2.652   3.227   8.993 -0.2795  0.3118 -0.2238
 9495SOL    HW139944   2.703   3.238   8.912 -2.1147  0.8867 -1.2850
 9495SOL    HW239945   2.660   3.317   9.024  0.1408  0.0122  0.5385
 9496SOL     OW39946   0.998   4.103   5.508  0.4544  0.1161 -0.2165
 9496SOL    HW139947   0.938   4.039   5.471 -1.5178  1.9999 -0.2960
 9496SOL    HW239948   0.957   4.134   5.588 -1.2573  0.0353 -1.0703
 9497SOL     OW39949   4.173   3.970  16.312  0.4860 -0.4029  0.3970
 9497SOL    HW139950   4.219   3.980  16.395  0.7150 -0.4743  0.2798
 9497SOL    HW239951   4.103   3.909  16.337  0.0620  1.1949  3.1180
 9498SOL     OW39952   1.391   3.764   4.062  0.4143  0.5992  0.2019
 9498SOL    HW139953   1.299   3.775   4.036  0.0256  1.7573  1.9964
 9498SOL    HW239954   1.399   3.790   4.154  3.2712 -1.8522  0.6283
 9499SOL     OW39955   0.146   1.473   7.314 -0.7612 -0.3875 -0.3864
 9499SOL    HW139956   0.142   1.562   7.350 -2.7095 -1.0899  1.1443
 9499SOL    HW239957   0.219   1.489   7.254  1.5423 -1.1786  2.2161
 9500SOL     OW39958   2.910   2.708   1.756 -0.2799 -0.1800  0.4920
 9500SOL    HW139959   2.946   2.697   1.668 -0.4796  2.2446  0.0841
 9500SOL    HW239960   2.981   2.752   1.803  0.4344 -0.4224 -0.3727
 9501SOL     OW39961   3.880   2.424   4.566 -0.3765 -0.0288 -0.0984
 9501SOL    HW139962   3.901   2.512   4.596 -0.6049 -1.3883  3.9862
 9501SOL    HW239963   3.809   2.439   4.503  0.1072 -0.7867 -0.8334
 9502SOL     OW39964   4.111   1.690  11.013 -0.1190  0.6254  0.3152
 9502SOL    HW139965   4.056   1.617  10.985  1.9777 -1.1243  0.8046
 9502SOL    HW239966   4.159   1.705  10.932  0.4411 -0.0026  0.5313
 9503SOL     OW39967   4.214   2.077  12.808 -0.3478  0.5117 -0.0767
 9503SOL    HW139968   4.137   2.103  12.859 -0.3715 -1.1839  0.7137
 9503SOL    HW239969   4.162   2.023  12.748 -1.7620  0.2368  1.3943
 9504SOL     OW39970   3.819   2.683   7.325  0.4044 -0.7837 -0.2913
 9504SOL    HW139971   3.842   2.720   7.410  2.4033  0.2264 -1.2627
 9504SOL    HW239972   3.823   2.590   7.349 -2.1333  0.2072  3.8734
 9505SOL     OW39973   4.233   4.181   3.179  0.6699  0.3461  0.4212
 9505SOL    HW139974   4.163   4.241   3.153  1.1685  1.7320  2.2601
 9505SOL    HW239975   4.301   4.219   3.124  1.0342 -3.6462 -1.9563
 9506SOL     OW39976   4.160   4.608   0.010 -0.1408 -0.3034  0.3478
 9506SOL    HW139977   4.096   4.565  17.652 -1.6590  2.1955  0.1453
 9506SOL    HW239978   4.135   4.698  17.687  0.1392 -0.7068 -1.6600
 9507SOL     OW39979   3.125   1.018   5.357 -0.8754  0.1658  0.1797
 9507SOL    HW139980   3.099   1.069   5.434  0.4112  0.1333  0.6475
 9507SOL    HW239981   3.069   1.038   5.283  2.9249 -0.0081 -2.6966
 9508SOL     OW39982   2.689   2.966   2.763  0.1523  0.1308  0.9744
 9508SOL    HW139983   2.673   2.910   2.839  0.8557 -2.8958 -1.0921
 9508SOL    HW239984   2.772   3.009   2.784  1.1048 -0.8734 -0.6745
 9509SOL     OW39985   4.156   1.783   5.813  0.7055 -0.3157 -0.4464
 9509SOL    HW139986   4.155   1.859   5.871 -0.7326  0.4633 -1.4655
 9509SOL    HW239987   4.250   1.766   5.811  0.4685 -1.5271 -1.5172
 9510SOL     OW39988   2.938   0.377   6.232 -0.2061  0.3285 -0.7736
 9510SOL    HW139989   3.021   0.396   6.275 -1.8763  1.6354  1.8448
 9510SOL    HW239990   2.885   0.444   6.275  0.3708 -0.6212  1.3961
 9511SOL     OW39991   4.423   4.635   6.915 -0.1534  0.1617  0.4031
 9511SOL    HW139992   4.384   4.548   6.904  0.5999  0.0126 -1.0880
 9511SOL    HW239993   4.418   4.643   7.010 -1.8026 -0.6817  0.3824
 9512SOL     OW39994   1.142   2.444   9.453  0.3980  0.0887  0.3679
 9512SOL    HW139995   1.064   2.485   9.416  0.9209  1.8530  1.2441
 9512SOL    HW239996   1.111   2.401   9.533  1.2491 -0.8378  0.1988
 9513SOL     OW39997   0.004   0.851   2.737 -0.0703 -0.5029  0.1835
 9513SOL    HW139998   0.099   0.851   2.745 -0.0805  1.9360  0.1192
 9513SOL    HW239999   4.702   0.867   2.828 -1.3065  1.0426 -0.4523
 9514SOL     OW40000   1.482   3.084   9.123 -0.3736 -0.2129  0.0584
 9514SOL    HW140001   1.545   3.103   9.054  0.0957  1.4326  0.9344
 9514SOL    HW240002   1.406   3.141   9.108 -0.4881 -0.8219 -1.7281
 9515SOL     OW40003   2.840   3.860   3.532  0.4959 -0.2576 -0.2330
 9515SOL    HW140004   2.813   3.773   3.561  1.4479 -0.2772  0.5923
 9515SOL    HW240005   2.844   3.903   3.618  2.2059 -1.0342  0.0786
 9516SOL     OW40006   0.197   4.115   2.911  0.8652 -0.9452  0.3127
 9516SOL    HW140007   0.221   4.023   2.905 -1.7682 -1.4656 -1.9468
 9516SOL    HW240008   0.112   4.114   2.955  0.1391 -0.7836 -1.0930
 9517SOL     OW40009   0.507   3.917  14.260 -0.1536  0.0782  0.3177
 9517SOL    HW140010   0.545   4.004  14.269 -0.5543  0.1982  0.8530
 9517SOL    HW240011   0.580   3.865  14.293 -2.4542 -2.5681  1.2918
 9518SOL     OW40012   3.960   3.481   3.839 -0.4474 -0.0522  0.5896
 9518SOL    HW140013   3.924   3.467   3.752 -1.3880 -4.3574  1.6843
 9518SOL    HW240014   4.054   3.475   3.822 -0.3536 -2.8362  2.2134
 9519SOL     OW40015   2.898   2.338   8.754 -0.8901 -0.0062 -0.4181
 9519SOL    HW140016   2.888   2.306   8.844  1.2462  2.7396  0.8002
 9519SOL    HW240017   2.881   2.257   8.706 -1.4940  0.3320 -0.7859
 9520SOL     OW40018   3.115   2.772   7.075 -0.4846 -0.6145  0.4779
 9520SOL    HW140019   3.101   2.707   7.144 -0.1286 -2.6398 -1.3459
 9520SOL    HW240020   3.024   2.802   7.068 -0.3539 -0.6847 -1.5338
 9521SOL     OW40021   2.475   3.387   5.100  0.1385  0.3914  0.1651
 9521SOL    HW140022   2.408   3.431   5.152 -1.9370  0.0328 -2.1861
 9521SOL    HW240023   2.522   3.463   5.067  0.1426 -0.3639 -1.5419
 9522SOL     OW40024   4.600   4.314   9.823  0.0011  0.0339  0.1308
 9522SOL    HW140025   4.655   4.254   9.875  1.0351  1.5249  0.7449
 9522SOL    HW240026   4.544   4.338   9.897  0.1006 -0.1742  0.2759
 9523SOL     OW40027   0.756   2.743  13.042 -0.0316 -0.4151  0.5871
 9523SOL    HW140028   0.759   2.649  13.055 -0.8003 -0.4113  0.7950
 9523SOL    HW240029   0.712   2.746  12.957 -1.2679 -2.4403  1.1423
 9524SOL     OW40030   0.031   1.807   3.187 -0.4827 -0.3006 -0.2204
 9524SOL    HW140031   0.055   1.793   3.095  3.3080  1.8127  0.4388
 9524SOL    HW240032   0.113   1.846   3.217  0.0558 -0.6008 -1.3059
 9525SOL     OW40033   1.114   4.636   6.054 -0.0403  0.5842 -0.4153
 9525SOL    HW140034   1.035   4.642   6.107  0.8531 -0.8929  1.1247
 9525SOL    HW240035   1.178   4.618   6.123  0.8332  1.6672 -0.9468
 9526SOL     OW40036   0.554   3.095   6.048  0.4532  0.5666  0.2863
 9526SOL    HW140037   0.547   3.036   6.123 -2.8563  1.1858  0.4808
 9526SOL    HW240038   0.538   3.028   5.982  0.5177 -1.5544  2.4218
 9527SOL     OW40039   1.822   4.019   6.188 -0.0401  0.3639  0.4322
 9527SOL    HW140040   1.729   4.020   6.166 -0.7501 -1.0264  3.3529
 9527SOL    HW240041   1.861   3.973   6.114  0.8615  2.4766 -0.4109
 9528SOL     OW40042   1.478   0.993   1.870 -0.0536  0.1643  0.0180
 9528SOL    HW140043   1.394   0.948   1.858  1.0620 -1.5622 -1.3262
 9528SOL    HW240044   1.470   1.029   1.958  2.3020 -1.8804  1.0675
 9529SOL     OW40045   2.558   3.256  16.951 -0.1734 -0.4023 -0.3991
 9529SOL    HW140046   2.589   3.297  17.032 -3.0958 -0.2474  0.6426
 9529SOL    HW240047   2.553   3.162  16.969  1.3407 -0.5003 -0.5417
 9530SOL     OW40048   2.745   2.584  10.304  0.2614  0.4751  0.0004
 9530SOL    HW140049   2.656   2.618  10.315  0.3622  0.2074  1.7281
 9530SOL    HW240050   2.771   2.616  10.218 -2.2843  0.3148 -0.8326
 9531SOL     OW40051   3.835   0.003  16.464  0.2288 -0.0954  0.4640
 9531SOL    HW140052   3.904   0.069  16.459  0.6211 -0.5924 -0.6454
 9531SOL    HW240053   3.869   4.671  16.533 -0.0606  0.1320  0.7945
 9532SOL     OW40054   2.437   1.850   4.352  0.2225  0.4233 -0.7204
 9532SOL    HW140055   2.453   1.765   4.393 -1.7240  0.4045  0.0022
 9532SOL    HW240056   2.430   1.904   4.431 -1.5033 -1.4417  0.3818
 9533SOL     OW40057   3.714   4.256   7.807 -0.0042 -0.1470 -0.5159
 9533SOL    HW140058   3.770   4.223   7.877  0.2234 -2.1980 -1.6544
 9533SOL    HW240059   3.691   4.170   7.772 -1.7383 -0.4928  1.4845
 9534SOL     OW40060   0.683   0.396   8.757 -0.1203 -0.9604 -0.1327
 9534SOL    HW140061   0.592   0.426   8.755 -0.8653 -3.2097  0.2673
 9534SOL    HW240062   0.664   0.331   8.824 -0.3878  0.8905  1.5956
 9535SOL     OW40063   1.079   2.174   7.390  0.6847  0.0615  0.1035
 9535SOL    HW140064   1.113   2.108   7.450  1.1747 -1.6613 -2.1039
 9535SOL    HW240065   0.992   2.189   7.427  1.1031 -1.0153  1.5499
 9536SOL     OW40066   3.228   3.867   4.242 -0.1786  0.5788 -0.1283
 9536SOL    HW140067   3.194   3.929   4.307 -1.0158 -0.2149  0.1936
 9536SOL    HW240068   3.319   3.866   4.269  0.4596 -3.0473 -2.4434
 9537SOL     OW40069   0.750   3.751   8.700 -0.5432 -0.3228 -0.0839
 9537SOL    HW140070   0.728   3.727   8.611  3.4467 -0.0893 -1.1270
 9537SOL    HW240071   0.719   3.674   8.748  1.3830 -1.5389 -0.7903
 9538SOL     OW40072   1.558   2.689  13.840  0.4561  0.0862 -0.3646
 9538SOL    HW140073   1.548   2.615  13.780 -0.2699 -1.5091  1.6976
 9538SOL    HW240074   1.642   2.727  13.816 -0.0031  1.2444 -0.1739
 9539SOL     OW40075   3.610   4.361  14.890  0.2554  0.0617  0.1170
 9539SOL    HW140076   3.646   4.296  14.950  1.4514 -0.2885 -0.9924
 9539SOL    HW240077   3.524   4.318  14.881  0.8364 -1.1280  0.2541
 9540SOL     OW40078   3.957   3.088  13.067 -0.5231 -0.4831  0.1021
 9540SOL    HW140079   3.945   3.005  13.114  0.8093 -1.9418 -2.1344
 9540SOL    HW240080   3.955   3.142  13.146 -1.7538 -0.2981 -0.0646
 9541SOL     OW40081   1.903   4.170  12.103  0.1511 -0.3246  0.1395
 9541SOL    HW140082   1.813   4.149  12.131 -0.6178  2.2808 -0.4151
 9541SOL    HW240083   1.884   4.230  12.031 -2.3557 -4.3065 -2.5526
 9542SOL     OW40084   3.982   0.928   8.319 -0.6290  0.1573  0.0066
 9542SOL    HW140085   3.969   0.837   8.292 -3.0238  0.6311 -0.4126
 9542SOL    HW240086   4.049   0.919   8.388  1.2087 -0.3159 -1.8339
 9543SOL     OW40087   1.975   2.284   3.687  0.0923 -0.4968 -0.3624
 9543SOL    HW140088   1.880   2.275   3.692  0.0199 -0.7578 -2.1238
 9543SOL    HW240089   1.996   2.218   3.754 -2.6493 -0.0417  0.9479
 9544SOL     OW40090   2.725   1.814   3.044 -0.1164  0.5140 -0.1404
 9544SOL    HW140091   2.813   1.785   3.069 -0.0569 -1.0609 -2.1708
 9544SOL    HW240092   2.746   1.847   2.956 -0.7439  0.7813 -0.1884
 9545SOL     OW40093   4.161   2.536   2.328 -0.3397 -0.0542 -0.1792
 9545SOL    HW140094   4.115   2.562   2.408  0.0699 -0.4460  0.1835
 9545SOL    HW240095   4.117   2.594   2.265 -1.7387 -2.1603 -1.1274
 9546SOL     OW40096   1.179   3.351  12.018 -0.0423 -0.1408 -0.0416
 9546SOL    HW140097   1.190   3.394  11.932  1.0891 -0.4276 -0.0491
 9546SOL    HW240098   1.195   3.423  12.080  0.8695  1.1411 -1.7457
 9547SOL     OW40099   0.297   0.893  12.550 -0.6664  0.4435 -0.0939
 9547SOL    HW140100   0.347   0.955  12.603 -0.6915  0.2179  0.1978
 9547SOL    HW240101   0.209   0.918  12.578 -1.4446 -1.6141 -0.7021
 9548SOL     OW40102   1.773   2.828   5.470 -0.3446 -0.4818  0.3302
 9548SOL    HW140103   1.755   2.854   5.561  1.5125 -1.4995  0.9869
 9548SOL    HW240104   1.815   2.908   5.438 -0.5309 -0.3302  0.4689
 9549SOL     OW40105   4.403   0.747   9.477 -0.3022 -0.0963 -0.2366
 9549SOL    HW140106   4.349   0.824   9.457 -1.3605 -0.2817  1.9690
 9549SOL    HW240107   4.393   0.743   9.572  0.1553  0.3301 -0.1695
 9550SOL     OW40108   3.997   2.815   2.953 -0.3691  0.1192  0.3808
 9550SOL    HW140109   3.918   2.773   2.987 -0.0165 -0.4650  0.4814
 9550SOL    HW240110   4.068   2.761   2.989  0.6147  1.5041  0.4944
 9551SOL     OW40111   3.818   2.119   5.848  0.1517 -0.0063  0.1551
 9551SOL    HW140112   3.737   2.170   5.842 -1.0249 -1.8973 -0.3153
 9551SOL    HW240113   3.879   2.191   5.863  0.0838  0.6278 -2.6056
 9552SOL     OW40114   3.780   2.506   0.947 -0.3769 -0.1533 -0.3511
 9552SOL    HW140115   3.712   2.521   0.882 -0.4129 -0.4936 -0.3902
 9552SOL    HW240116   3.798   2.600   0.954 -0.9411  0.0930 -2.2944
 9553SOL     OW40117   2.609   0.833   4.996  0.0990 -0.4467  0.2185
 9553SOL    HW140118   2.580   0.759   4.942  0.8576  1.0232 -2.2359
 9553SOL    HW240119   2.627   0.794   5.081 -1.5939  0.6933  1.0951
 9554SOL     OW40120   3.874   4.367  15.620 -0.1355 -0.1013  0.0298
 9554SOL    HW140121   3.940   4.308  15.584  0.3357  0.2529  0.3070
 9554SOL    HW240122   3.830   4.312  15.685 -0.7548 -1.5270 -1.5932
 9555SOL     OW40123   3.160   2.814   3.057 -0.3088  0.1394 -0.0090
 9555SOL    HW140124   3.229   2.777   3.002  0.2081  2.0060 -0.6000
 9555SOL    HW240125   3.114   2.734   3.083  1.3674 -0.0460  2.4970
 9556SOL     OW40126   0.356   4.327   6.475 -0.2047  0.2746  0.2164
 9556SOL    HW140127   0.300   4.280   6.537 -0.0395  0.9383  0.8652
 9556SOL    HW240128   0.300   4.307   6.399  2.0972 -0.8884 -1.1997
 9557SOL     OW40129   1.821   1.120  15.193  0.5110 -0.1585  0.0832
 9557SOL    HW140130   1.883   1.048  15.204  3.6971  2.4069 -1.0910
 9557SOL    HW240131   1.793   1.114  15.102  2.5089  0.1808 -0.5509
 9558SOL     OW40132   0.640   4.398   1.023 -0.8769  0.0033  0.6538
 9558SOL    HW140133   0.640   4.384   1.118  0.7026  0.7842  0.7661
 9558SOL    HW240134   0.553   4.364   1.002 -0.2148 -1.4771  0.3240
 9559SOL     OW40135   3.707   3.550  10.830 -0.4985  0.6712 -0.0158
 9559SOL    HW140136   3.787   3.512  10.867 -0.4313  0.2812 -0.5578
 9559SOL    HW240137   3.683   3.484  10.765 -1.3245 -0.0200  0.9915
 9560SOL     OW40138   2.875   1.463   4.182 -0.2282  0.0559 -0.9213
 9560SOL    HW140139   2.824   1.452   4.263 -0.9384  2.2252 -1.0780
 9560SOL    HW240140   2.959   1.475   4.226 -1.1021 -2.9644  1.5893
 9561SOL     OW40141   3.109   4.529  15.065 -0.1400 -0.6485  0.0723
 9561SOL    HW140142   3.047   4.586  15.020 -1.6875 -0.6283  2.2188
 9561SOL    HW240143   3.056   4.514  15.144  0.3485 -0.4749  0.4361
 9562SOL     OW40144   3.509   0.023   7.703  0.3905  0.3823  0.1367
 9562SOL    HW140145   3.574   4.683   7.728  0.4765  0.4878  0.1872
 9562SOL    HW240146   3.498   0.065   7.789 -1.3792 -2.0143  1.0676
 9563SOL     OW40147   2.231   2.520   8.514  0.1357  0.5279 -0.1435
 9563SOL    HW140148   2.149   2.555   8.548  0.3457 -0.9789  1.9250
 9563SOL    HW240149   2.278   2.505   8.595 -0.8551  1.9461  0.7008
 9564SOL     OW40150   2.602   3.511   9.025 -0.4085  0.2182  0.4092
 9564SOL    HW140151   2.528   3.515   9.086 -0.7791 -1.8634  0.0974
 9564SOL    HW240152   2.643   3.595   9.045 -1.2547  0.6891  0.1745
 9565SOL     OW40153   4.273   3.791  14.075 -0.1980  0.2101 -0.4278
 9565SOL    HW140154   4.247   3.804  13.984  1.1570 -0.5916 -0.9276
 9565SOL    HW240155   4.316   3.876  14.086  0.8877 -0.4038  0.1237
   4.72444   4.72444  17.69930
