Membrane in water
40155
    1TCq1    O1    1   1.378   4.098  10.905  0.1125  0.2378 -0.0331
    1TCq1    C1    2   1.325   3.977  10.921  0.2737 -0.9716  0.4471
    1TCq1    O2    3   1.273   3.919  10.827  0.1294 -0.7190  0.2245
    1TCq1    C2    4   1.264   3.989  11.058 -0.7038  0.3051  0.0334
    1TCq1    C3    5   1.341   4.033  11.160 -0.0553  0.1874 -0.0442
    1TCq1    C4    6   1.292   4.025  11.284 -0.6978  0.2805  0.4917
    1TCq1    C5    7   1.164   3.976  11.305  0.1555 -0.9273  0.1408
    1TCq1    C6    8   1.095   3.915  11.209  0.2712  0.1903 -0.1609
    1TCq1    C7    9   1.144   3.927  11.081  0.1167  0.1180 -0.0405
    1TCq1    C8   10   0.967   3.858  11.244  0.6224 -0.2533  0.1689
    1TCq1    O4   11   0.929   3.886  11.361 -0.4549  0.0055 -0.2005
    1TCq1    C9   12   1.371   4.066  11.394 -0.4675 -0.6066 -0.0399
    1TCq1    O5   13   1.481   4.119  11.371  0.4487 -0.0595 -0.2744
    1TCq1    O6   14   1.340   4.009  11.501  0.5171 -0.3941  0.2174
    1TCq1    H1   15   1.369   4.155  10.985  0.6566  1.6195 -0.9585
    1TCq1    H2   16   1.442   4.072  11.152 -0.5197  1.2133 -1.0162
    1TCq1    H3   17   1.132   3.972  11.409  1.6930  0.3757  0.6566
    1TCq1    H4   18   1.091   3.892  10.993 -0.7335  0.5158  0.3080
    2MPD2     C   19   0.660   3.443  11.201  0.1349  0.2273  0.4731
    2MPD2    C1   20   0.671   3.531  11.301  0.2849 -0.3134 -0.4889
    2MPD2    C2   21   0.748   3.644  11.282 -0.3217 -0.3651 -0.7304
    2MPD2    C3   22   0.833   3.657  11.172 -0.0415 -0.0396 -0.4023
    2MPD2    C4   23   0.816   3.569  11.073  0.5170  0.0492  0.0679
    2MPD2    C5   24   0.732   3.466  11.085 -0.1182 -0.1786 -0.3091
    2MPD2     H   25   0.746   3.718  11.361 -0.6914  0.2085 -1.2886
    2MPD2    H1   26   0.885   3.571  10.989  1.9353 -0.1083  1.2199
    2MPD2    H2   27   0.593   3.358  11.202 -1.0873  1.1878  0.2007
    2MPD2    H3   28   0.728   3.393  11.005  1.6575  0.0738 -0.6309
    2MPD2     N   29   0.933   3.760  11.153  0.0173  0.0427  0.2009
    2MPD2    H5   30   0.993   3.760  11.072 -2.3590 -1.1277 -1.5525
    2MPD2    N1   31   0.606   3.513  11.429  0.0582 -0.0137  0.7053
    2MPD2    H7   32   0.603   3.601  11.479  1.2094 -0.4773  1.5694
    3TCq1    O1   33   4.686   3.256  11.282 -0.1896  0.0959  0.3840
    3TCq1    C1   34   0.028   3.322  11.192 -0.5784  0.3536  0.4062
    3TCq1    O2   35   0.131   3.282  11.143 -0.6403 -0.6213  0.1994
    3TCq1    C2   36   4.718   3.466  11.179  0.0597 -0.3373 -0.0834
    3TCq1    C3   37   0.067   3.531  11.088  0.3378 -0.4950  0.1523
    3TCq1    C4   38   0.043   3.663  11.072  0.1509 -0.1413  0.0374
    3TCq1    C5   39   4.674   3.729  11.139  0.6034 -0.6389 -0.2571
    3TCq1    C6   40   4.616   3.665  11.241  0.3414 -0.1612  0.2500
    3TCq1    C7   41   4.629   3.528  11.262  0.6558 -0.5010 -0.4094
    3TCq1    C8   42   4.531   3.742  11.333 -0.0210 -0.5209 -0.3757
    3TCq1    O4   43   4.455   3.666  11.397  0.2180  0.1926  0.0898
    3TCq1    C9   44   0.118   3.725  10.969 -0.8016 -0.7419  0.4157
    3TCq1    O5   45   0.126   3.849  10.969 -0.4155  0.1482  0.7156
    3TCq1    O6   46   0.174   3.652  10.881  0.2957  0.4939  0.2219
    3TCq1    H1   47   4.597   3.289  11.306 -0.7513  1.8084 -4.0972
    3TCq1    H2   48   0.142   3.483  11.026 -0.1274 -0.9761 -0.0364
    3TCq1    H3   49   4.647   3.830  11.109 -0.1405 -0.7100  0.1718
    3TCq1    H4   50   4.582   3.475  11.344 -0.7255  3.2742  1.2531
    4MPD2     C   51   4.254   4.165  11.443 -0.4265 -0.4246  0.6217
    4MPD2    C1   52   4.350   4.196  11.350  0.2329 -0.0145  0.2903
    4MPD2    C2   53   4.444   4.098  11.321  0.2194  0.9116  0.0186
    4MPD2    C3   54   4.441   3.968  11.366 -0.5027 -0.6035 -0.2934
    4MPD2    C4   55   4.343   3.939  11.463  0.0641 -0.2109  0.2663
    4MPD2    C5   56   4.250   4.038  11.498 -0.1348 -0.1709 -0.2480
    4MPD2     H   57   4.517   4.120  11.244 -0.4123  0.2160 -0.7821
    4MPD2    H1   58   4.348   3.844  11.515  0.9643  0.7410  1.9162
    4MPD2    H2   59   4.180   4.237  11.478  0.6574 -0.8575  3.8105
    4MPD2    H3   60   4.176   4.009  11.571 -0.2655  1.6056  0.3268
    4MPD2     N   61   4.540   3.876  11.319  0.2228 -0.6006  0.0245
    4MPD2    H5   62   4.610   3.904  11.251  0.1101 -3.1973 -1.1532
    4MPD2    N1   63   4.367   4.329  11.292  0.1438 -0.7180  0.3073
    4MPD2    H7   64   4.448   4.347  11.234  0.9110 -1.6655  1.0978
    5TCq1    O1   65   4.366   1.866  10.587 -0.2767 -0.1963  0.4065
    5TCq1    C1   66   4.439   1.758  10.635  0.5891 -0.4268  0.6716
    5TCq1    O2   67   4.383   1.654  10.665  0.1806  0.1821  0.4952
    5TCq1    C2   68   4.579   1.781  10.607  0.9664 -0.2223 -0.0960
    5TCq1    C3   69   4.619   1.906  10.630  0.6851  0.6172  0.2224
    5TCq1    C4   70   0.008   1.946  10.565  0.6791 -0.1406 -0.2139
    5TCq1    C5   71   0.078   1.848  10.493 -0.1174  0.1814  0.1442
    5TCq1    C6   72   0.032   1.721  10.475  0.0978  0.4135  0.0974
    5TCq1    C7   73   4.647   1.682  10.535  0.1909  0.0102 -0.2623
    5TCq1    C8   74   0.121   1.622  10.440 -0.7905  0.1024  0.0879
    5TCq1    O4   75   0.095   1.506  10.469 -0.6457 -0.4693  0.5419
    5TCq1    C9   76   0.042   2.076  10.579  0.7866  0.0367 -0.2126
    5TCq1    O5   77   4.670   2.156  10.597  0.1107  0.4153  0.2351
    5TCq1    O6   78   0.154   2.108  10.530  0.0456 -0.4357 -0.0904
    5TCq1    H1   79   4.421   1.945  10.566  0.6065 -0.1679  2.7975
    5TCq1    H2   80   4.568   1.985  10.684  0.8772  2.3558 -2.1664
    5TCq1    H3   81   0.178   1.873  10.460  0.7827  0.1289  2.9133
    5TCq1    H4   82   4.609   1.580  10.540 -0.9345  0.4511  0.2005
    6MPD2     C   83   0.431   1.671  10.258 -0.2875  0.6537 -0.1578
    6MPD2    C1   84   0.340   1.605  10.335 -0.1397  0.4046 -0.2661
    6MPD2    C2   85   0.368   1.479  10.384 -0.8717 -0.0455 -1.0490
    6MPD2    C3   86   0.489   1.422  10.351  1.0732 -0.4870 -0.3672
    6MPD2    C4   87   0.573   1.484  10.261 -0.1976 -0.2519  0.5312
    6MPD2    C5   88   0.541   1.609  10.214  0.0996  0.1275  0.2311
    6MPD2     H   89   0.306   1.427  10.456 -0.9553  0.7906 -0.5225
    6MPD2    H1   90   0.663   1.438  10.220 -0.9613 -0.2212 -1.1746
    6MPD2    H2   91   0.418   1.767  10.211  0.2495  0.2993 -1.0291
    6MPD2    H3   92   0.605   1.664  10.146 -0.6650 -0.2816 -0.8141
    6MPD2     N   93   0.508   1.293  10.402 -0.2267 -0.0766  0.1082
    6MPD2    H5   94   0.442   1.259  10.471 -0.2303 -1.9645 -0.8257
    6MPD2    N1   95   0.222   1.672  10.363 -0.4430 -0.6825 -0.2836
    6MPD2    H7   96   0.207   1.769  10.337  1.5821 -0.2757  0.0715
    7TCq1    O1   97   3.449   1.388  13.636  0.3139 -0.4059 -0.2923
    7TCq1    C1   98   3.402   1.512  13.625 -0.3074  0.6802 -0.3285
    7TCq1    O2   99   3.466   1.608  13.581 -0.2065  0.7169 -0.1785
    7TCq1    C2  100   3.268   1.487  13.587  0.4075  0.5636  0.1113
    7TCq1    C3  101   3.179   1.572  13.631  0.6194  1.1040 -0.4185
    7TCq1    C4  102   3.047   1.559  13.584 -0.6377  0.1821 -0.7429
    7TCq1    C5  103   3.003   1.450  13.507  0.1393 -0.4840  0.6183
    7TCq1    C6  104   3.106   1.356  13.485  0.3492  0.6750 -0.3447
    7TCq1    C7  105   3.235   1.376  13.518  0.9946 -0.2121 -0.8974
    7TCq1    C8  106   3.059   1.219  13.462  0.7871 -0.4649  0.4406
    7TCq1    O4  107   3.118   1.139  13.532 -0.7490  0.1927  0.5825
    7TCq1    C9  108   2.947   1.661  13.626  0.2777  0.0754  0.5146
    7TCq1    O5  109   2.831   1.656  13.576  0.8262  0.0956  0.1748
    7TCq1    O6  110   2.981   1.748  13.706 -0.3875 -0.0684  1.0144
    7TCq1    H1  111   3.380   1.337  13.683 -0.1364 -0.0431 -0.5509
    7TCq1    H2  112   3.203   1.660  13.690 -0.3090 -0.6418  2.5292
    7TCq1    H3  113   2.897   1.435  13.485  0.1864  0.1358 -0.0299
    7TCq1    H4  114   3.302   1.298  13.485 -0.3770 -2.3309  1.3240
    8MPD2     C  115   2.763   0.862  13.245  0.9563 -0.4999 -0.3658
    8MPD2    C1  116   2.874   0.848  13.326  0.6913  0.6182 -0.3001
    8MPD2    C2  117   2.932   0.963  13.377 -0.8006 -0.3308 -0.0087
    8MPD2    C3  118   2.876   1.092  13.350  0.3365  0.1197  0.0086
    8MPD2    C4  119   2.759   1.101  13.279  0.2416 -0.2136  1.0012
    8MPD2    C5  120   2.707   0.985  13.226  0.3835 -1.1931 -0.0097
    8MPD2     H  121   3.021   0.953  13.438  0.6163 -0.1847 -2.0487
    8MPD2    H1  122   2.694   1.187  13.289  2.0330  1.3047 -0.6259
    8MPD2    H2  123   2.725   0.776  13.191  1.1545 -0.6575 -0.2497
    8MPD2    H3  124   2.617   0.987  13.166  0.5983 -0.2249 -0.3064
    8MPD2     N  125   2.944   1.213  13.386  1.0899  0.1249  0.7941
    8MPD2    H5  126   2.908   1.298  13.345 -0.9666 -0.7977  0.6986
    8MPD2    N1  127   2.918   0.712  13.352 -0.0908 -0.0269 -0.4921
    8MPD2    H7  128   2.868   0.633  13.312 -0.0254 -0.3130 -0.0129
    9TCq1    O1  129   0.055   4.031  11.165  0.7095  0.0235  0.1285
    9TCq1    C1  130   0.107   4.145  11.204 -0.4957 -0.0046 -0.5485
    9TCq1    O2  131   0.086   4.190  11.315 -0.2212  0.2649  0.1000
    9TCq1    C2  132   0.236   4.163  11.136 -0.9930  0.6988 -0.0559
    9TCq1    C3  133   0.263   4.127  11.006 -0.3813 -0.9719 -0.4393
    9TCq1    C4  134   0.392   4.131  10.954 -0.5207 -0.4096  0.1872
    9TCq1    C5  135   0.493   4.178  11.031 -0.1967  0.2019 -0.7234
    9TCq1    C6  136   0.464   4.218  11.157  0.4710 -0.0019 -0.4004
    9TCq1    C7  137   0.338   4.210  11.213 -0.0149  0.4368  0.2486
    9TCq1    C8  138   0.547   4.310  11.235  0.3725 -0.1356  0.0690
    9TCq1    O4  139   0.494   4.382  11.321  0.0010  0.7009  0.3262
    9TCq1    C9  140   0.413   4.079  10.821  0.0239 -0.0962 -0.1766
    9TCq1    O5  141   0.532   4.080  10.778 -0.0247  0.1269 -0.0046
    9TCq1    O6  142   0.322   4.026  10.761 -0.7202 -0.0568 -0.7623
    9TCq1    H1  143   0.098   3.991  11.087  0.1492  0.4636 -0.4122
    9TCq1    H2  144   0.185   4.089  10.941  0.9491  0.5571 -2.9351
    9TCq1    H3  145   0.590   4.181  10.983  0.5706 -2.0116  0.6905
    9TCq1    H4  146   0.319   4.249  11.312  0.7414  2.0528 -0.2353
   10MPD2     C  147   0.913   4.303  11.258 -0.3009 -0.1398  0.8096
   10MPD2    C1  148   0.784   4.318  11.295  0.5106 -0.6597 -0.3867
   10MPD2    C2  149   0.760   4.364  11.424 -0.4378  0.1832  0.4813
   10MPD2    C3  150   0.866   4.366  11.521  0.1167 -0.2116 -0.2383
   10MPD2    C4  151   0.994   4.327  11.475  0.4612  0.0267  0.2802
   10MPD2    C5  152   1.023   4.302  11.345 -0.4798  1.1356  0.0196
   10MPD2     H  153   0.658   4.378  11.459  0.1280 -0.7662  2.4766
   10MPD2    H1  154   1.070   4.319  11.552 -1.8076  0.3029  2.5468
   10MPD2    H2  155   0.927   4.264  11.158  2.0653  2.5036  0.0918
   10MPD2    H3  156   1.124   4.268  11.323 -0.5598  0.2407  1.0830
   10MPD2     N  157   0.837   4.378  11.659 -0.2517  0.0616 -0.3120
   10MPD2    H5  158   0.911   4.357  11.725 -0.9722  2.9369  1.3997
   10MPD2    N1  159   0.679   4.291  11.206  0.2848 -0.1724  0.5567
   10MPD2    H7  160   0.701   4.257  11.113 -0.2029 -0.5895  0.5931
   11TCq1    O1  161   1.976   4.483  14.136  0.2785  0.3017 -0.0226
   11TCq1    C1  162   1.853   4.472  14.191  0.2921  0.1017  0.6015
   11TCq1    O2  163   1.752   4.493  14.122  0.2987  0.1311  0.7330
   11TCq1    C2  164   1.857   4.357  14.276  0.5608  0.1938 -0.3141
   11TCq1    C3  165   1.928   4.359  14.393  0.2251  0.8859 -0.5914
   11TCq1    C4  166   1.881   4.281  14.490  0.2440 -0.1377  0.2874
   11TCq1    C5  167   1.766   4.207  14.488  0.4798  0.5390 -0.1871
   11TCq1    C6  168   1.700   4.202  14.369  0.2636 -0.0480 -0.4403
   11TCq1    C7  169   1.740   4.289  14.267  0.8453  0.3910 -0.7379
   11TCq1    C8  170   1.563   4.151  14.364 -0.0800  0.8530 -0.2567
   11TCq1    O4  171   1.517   4.093  14.462  0.2715  0.1062  0.6999
   11TCq1    C9  172   1.949   4.291  14.619  0.2420 -0.0154  0.5836
   11TCq1    O5  173   1.917   4.207  14.710  0.5851 -0.2565  0.1610
   11TCq1    O6  174   2.046   4.367  14.615  0.0006  0.2160 -0.4176
   11TCq1    H1  175   2.045   4.429  14.179 -0.3165  0.3803  1.0432
   11TCq1    H2  176   2.017   4.420  14.405 -0.5124  0.8871  4.7226
   11TCq1    H3  177   1.727   4.157  14.576  1.2115 -0.8233 -0.6495
   11TCq1    H4  178   1.697   4.289  14.167 -1.0499  0.0202  0.0845
   12MPD2     C  179   1.275   4.081  14.290 -0.3081  1.0304  0.1273
   12MPD2    C1  180   1.378   4.105  14.202 -0.3839 -0.1979  0.1210
   12MPD2    C2  181   1.359   4.071  14.070 -0.3648  0.2022 -0.4533
   12MPD2    C3  182   1.245   4.007  14.028 -0.3995  0.1023  0.5336
   12MPD2    C4  183   1.137   3.986  14.116 -0.0424  0.0731 -0.2071
   12MPD2    C5  184   1.160   4.022  14.248  1.0077  0.7536  0.4569
   12MPD2     H  185   1.441   4.082  14.000 -0.9958 -0.4163 -1.2953
   12MPD2    H1  186   1.046   3.938  14.084 -1.0279  1.7496  0.0409
   12MPD2    H2  187   1.274   4.108  14.395  0.9546  0.7303  0.2168
   12MPD2    H3  188   1.092   3.997  14.329  2.1797 -0.8317  0.9499
   12MPD2     N  189   1.212   3.973  13.891  0.6520  0.3507 -0.2440
   12MPD2    H5  190   1.129   3.915  13.882  0.3443  0.8689 -0.8116
   12MPD2    N1  191   1.500   4.157  14.239  0.3496 -0.5087 -0.2404
   12MPD2    H7  192   1.552   4.194  14.160  0.8028 -0.5086  0.0575
   13TCq1    O1  193   0.779   4.093  10.812  0.2339 -0.3455  0.2569
   13TCq1    C1  194   0.831   4.042  10.922 -0.3199 -0.0091 -0.8933
   13TCq1    O2  195   0.906   4.096  11.005  0.8286  0.2027 -0.0528
   13TCq1    C2  196   0.743   3.931  10.949  0.2743  0.0445 -0.0545
   13TCq1    C3  197   0.699   3.848  10.845  0.7206 -0.2504 -0.5392
   13TCq1    C4  198   0.591   3.767  10.867  0.1837  0.3837 -0.0646
   13TCq1    C5  199   0.518   3.770  10.983 -0.3076 -0.4382 -0.3720
   13TCq1    C6  200   0.561   3.850  11.082  0.2341 -0.2103  0.1344
   13TCq1    C7  201   0.670   3.937  11.068 -0.0990  0.2744  0.0032
   13TCq1    C8  202   0.485   3.864  11.205 -0.2760  0.0334 -0.2923
   13TCq1    O4  203   0.509   3.949  11.289  0.4945  0.0316  0.2045
   13TCq1    C9  204   0.544   3.688  10.755  0.5656 -0.2489 -0.5398
   13TCq1    O5  205   0.634   3.640  10.684  0.0543 -0.1385 -0.7818
   13TCq1    O6  206   0.426   3.664  10.742 -0.3289  0.4532  0.6007
   13TCq1    H1  207   0.694   4.053  10.782 -0.3878  2.0090 -1.0948
   13TCq1    H2  208   0.746   3.848  10.748  0.8930 -3.4491 -0.4493
   13TCq1    H3  209   0.433   3.703  10.982  0.9510 -2.0686  2.1225
   13TCq1    H4  210   0.692   3.999  11.154 -2.0325 -1.0689  1.4629
   14MPD2     C  211   0.288   3.592  11.352  0.4288  0.0858 -0.2340
   14MPD2    C1  212   0.328   3.721  11.329 -0.2664  0.9114  0.1177
   14MPD2    C2  213   0.273   3.825  11.397 -0.3349  0.2064 -0.3406
   14MPD2    C3  214   0.167   3.791  11.488  0.1749 -0.4323  1.4222
   14MPD2    C4  215   0.135   3.659  11.512  0.9263 -0.2829 -0.1019
   14MPD2    C5  216   0.201   3.555  11.453 -0.3943  0.0061  0.1868
   14MPD2     H  217   0.297   3.925  11.363  0.4292  0.1216 -0.0537
   14MPD2    H1  218   0.057   3.624  11.578  0.5109 -0.2157 -0.5578
   14MPD2    H2  219   0.317   3.512  11.286 -0.7905  0.1923 -0.9033
   14MPD2    H3  220   0.163   3.454  11.468  1.2762 -0.7293 -0.5842
   14MPD2     N  221   0.092   3.901  11.535  0.0542  0.3819  0.3571
   14MPD2    H5  222   0.122   3.995  11.515  0.7163 -0.0296 -0.5626
   14MPD2    N1  223   0.417   3.748  11.225 -0.0393 -1.3734  0.1150
   14MPD2    H7  224   0.433   3.673  11.159  0.2062  0.2294 -1.6688
   15TCq1    O1  225   2.343   4.071   1.998 -0.4009  0.2255  0.2703
   15TCq1    C1  226   2.363   4.024   1.876  0.0066 -0.8198 -0.0747
   15TCq1    O2  227   2.286   4.051   1.787  0.4575 -0.5163 -0.0835
   15TCq1    C2  228   2.502   4.003   1.863  0.0521  0.0193 -0.4188
   15TCq1    C3  229   2.591   4.066   1.949 -0.3534 -0.1856 -0.0272
   15TCq1    C4  230   2.727   4.044   1.926 -0.8008 -0.0596 -0.3099
   15TCq1    C5  231   2.775   3.983   1.817 -0.8099 -0.3465 -0.7887
   15TCq1    C6  232   2.686   3.942   1.720 -0.6962  0.8883  0.3541
   15TCq1    C7  233   2.551   3.948   1.747 -0.0631  0.0265 -0.2936
   15TCq1    C8  234   2.725   3.855   1.611 -0.2780  0.7378  0.2676
   15TCq1    O4  235   2.810   3.766   1.626 -0.1427  0.6234  0.6575
   15TCq1    C9  236   2.819   4.087   2.022  0.4782 -0.2439  0.4607
   15TCq1    O5  237   2.941   4.072   2.001 -0.1425  0.1651 -0.2436
   15TCq1    O6  238   2.769   4.136   2.126 -0.3511  0.3774 -0.4017
   15TCq1    H1  239   2.384   4.019   2.070  2.4268  0.7822 -0.9370
   15TCq1    H2  240   2.555   4.121   2.035  1.5611 -0.4583  0.9401
   15TCq1    H3  241   2.881   3.965   1.803 -0.1074  2.0232  1.3408
   15TCq1    H4  242   2.473   3.897   1.691  0.7482 -1.1423 -0.3457
   16MPD2     C  243   2.520   3.787   1.323  0.0345  0.0042 -0.4498
   16MPD2    C1  244   2.637   3.781   1.394  0.0652 -0.3327  0.3125
   16MPD2    C2  245   2.740   3.696   1.357 -0.2945 -0.4393  0.1927
   16MPD2    C3  246   2.733   3.641   1.235  0.2824  0.7385 -0.0534
   16MPD2    C4  247   2.615   3.654   1.152 -0.6157  0.8109 -1.0111
   16MPD2    C5  248   2.513   3.723   1.205  0.3523 -0.2167  0.2177
   16MPD2     H  249   2.829   3.688   1.417 -0.5891 -0.4037  0.6323
   16MPD2    H1  250   2.594   3.618   1.052 -3.3557 -0.8536  0.1607
   16MPD2    H2  251   2.439   3.851   1.358 -0.4141  0.3424 -2.0995
   16MPD2    H3  252   2.418   3.740   1.157 -0.0289  2.5908  1.9172
   16MPD2     N  253   2.840   3.565   1.195  0.4531 -0.0572  0.7103
   16MPD2    H5  254   2.929   3.559   1.243  0.4911  1.4802  0.8121
   16MPD2    N1  255   2.639   3.857   1.510  0.7471 -0.2688  0.2267
   16MPD2    H7  256   2.576   3.936   1.510 -0.0966 -0.9339  2.2867
   17TCq1    O1  257   0.756   1.717  11.064 -0.6616  0.0535 -0.2517
   17TCq1    C1  258   0.865   1.767  11.117  0.3420  0.1384 -0.5169
   17TCq1    O2  259   0.906   1.731  11.230 -0.1247 -0.4626 -0.7914
   17TCq1    C2  260   0.830   1.907  11.089 -0.0436 -0.2872  1.0272
   17TCq1    C3  261   0.848   1.997  11.185 -0.1193 -0.0513 -1.0004
   17TCq1    C4  262   0.824   2.130  11.158  0.1086  0.0213 -0.6842
   17TCq1    C5  263   0.787   2.169  11.030  0.3719 -0.0120  0.0106
   17TCq1    C6  264   0.785   2.076  10.931 -0.0342  0.6458  0.8768
   17TCq1    C7  265   0.810   1.946  10.955 -0.0947  0.2217  0.5232
   17TCq1    C8  266   0.762   2.118  10.790  0.6108  0.1578 -0.1491
   17TCq1    O4  267   0.705   2.039  10.717 -0.6075  0.4172  0.3021
   17TCq1    C9  268   0.820   2.226  11.273  0.1214 -0.2525  0.1520
   17TCq1    O5  269   0.802   2.175  11.388 -0.2042 -0.1978  0.2432
   17TCq1    O6  270   0.839   2.351  11.244  0.4108  0.1358 -0.0226
   17TCq1    H1  271   0.707   1.768  10.996  0.0656  0.0039 -0.8217
   17TCq1    H2  272   0.858   1.970  11.289  0.4295  0.3068 -0.9610
   17TCq1    H3  273   0.762   2.271  11.007  0.5586 -0.2300 -1.1344
   17TCq1    H4  274   0.798   1.875  10.875 -0.6787 -0.2840  1.0607
   18MPD2     C  275   0.702   2.270  10.536 -0.0473  0.2790 -0.0813
   18MPD2    C1  276   0.763   2.320  10.648 -0.3388  0.3834  0.0566
   18MPD2    C2  277   0.817   2.446  10.631 -0.0602 -0.3950 -0.3705
   18MPD2    C3  278   0.819   2.515  10.507 -0.0580  0.6051 -0.1533
   18MPD2    C4  279   0.772   2.451  10.396 -0.6611  0.5822 -0.9787
   18MPD2    C5  280   0.709   2.329  10.413 -0.0559  0.6769 -0.3043
   18MPD2     H  281   0.860   2.491  10.720  0.4027 -1.5136 -0.0257
   18MPD2    H1  282   0.783   2.493  10.297 -0.5302  0.6574 -0.9319
   18MPD2    H2  283   0.662   2.170  10.547 -0.8250  0.6254  0.2596
   18MPD2    H3  284   0.664   2.279  10.328  1.9365  0.8663 -1.4524
   18MPD2     N  285   0.884   2.640  10.494 -0.2794 -0.2339 -0.3778
   18MPD2    H5  286   0.892   2.684  10.403 -0.7118  0.9230  0.1542
   18MPD2    N1  287   0.792   2.248  10.771  0.8777  0.4032  0.5064
   18MPD2    H7  288   0.843   2.294  10.846  0.5558  1.6754 -0.0538
   19TMC2    C1  289   2.813   3.857  13.540 -0.2911 -0.1121  0.1353
   19TMC2    C2  290   2.871   3.834  13.416 -0.6352  0.0088  0.3240
   19TMC2    C3  291   2.798   3.767  13.324 -0.4355 -0.2024  0.0576
   19TMC2    C4  292   2.679   3.822  13.566  0.5534  0.1694  0.6040
   19TMC2    C5  293   2.610   3.766  13.466  0.1242  0.2697 -0.1159
   19TMC2    C6  294   2.664   3.735  13.346 -0.7598 -0.0241  0.5735
   19TMC2     C  295   2.888   3.943  13.627  0.6011 -0.1840  0.3513
   19TMC2     O  296   2.995   3.984  13.581  0.1189  0.8496 -0.2938
   19TMC2     H  297   2.975   3.862  13.405  0.0222 -2.9014 -0.8850
   19TMC2    H1  298   2.627   3.848  13.658  0.9916  0.9901  0.6156
   19TMC2    H2  299   2.596   3.701  13.268  0.3957  0.8127 -0.8044
   19TMC2    C7  300   2.475   3.726  13.497  0.6368 -0.2682 -0.2558
   19TMC2    C8  301   2.838   3.796  13.193 -0.1786 -0.0423  0.8313
   19TMC2    O1  302   2.440   3.618  13.457  0.0878 -0.1749  0.1910
   19TMC2    O2  303   2.925   3.879  13.168 -0.0706  0.3406  0.2804
   19TMC2    O5  304   2.775   3.720  13.105  0.3857  0.1960 -0.0536
   19TMC2    H5  305   2.702   3.661  13.134  0.3589  0.8548  1.2072
   20MPD2     C  306   2.983   4.132  13.828 -0.2705 -0.0204  0.5451
   20MPD2    C1  307   2.885   4.037  13.852 -0.0487  0.5058 -0.3205
   20MPD2    C2  308   2.837   4.014  13.982  0.1325  0.2468  0.1923
   20MPD2    C3  309   2.886   4.081  14.087  0.2606 -0.2101  0.2705
   20MPD2    C4  310   2.979   4.178  14.058  0.0471 -0.0352 -0.4372
   20MPD2    C5  311   3.024   4.203  13.932 -0.7534 -0.1429 -0.0108
   20MPD2     H  312   2.759   3.943  14.006 -0.7295  0.3301 -2.3512
   20MPD2    H1  313   3.015   4.240  14.139  3.2575 -0.8901 -1.2260
   20MPD2    H2  314   3.034   4.156  13.735  2.1454 -1.4575  1.4965
   20MPD2    H3  315   3.089   4.289  13.922  0.4905 -1.2407 -1.5827
   20MPD2     N  316   2.851   4.070  14.222 -0.5617 -0.2911 -0.2393
   20MPD2    H5  317   2.908   4.132  14.279  0.8904 -0.4153 -1.5623
   20MPD2    N1  318   2.835   3.953  13.753  0.5142 -0.3512 -0.0550
   20MPD2    H7  319   2.768   3.881  13.780  0.0272 -0.4101 -1.4330
   21MPD2     C  320   4.279   4.266  14.189  0.0001  0.0279 -0.0636
   21MPD2    C1  321   4.375   4.203  14.263  0.2284 -0.2198  0.1249
   21MPD2    C2  322   4.344   4.161  14.386  0.0802 -0.1372 -0.1522
   21MPD2    C3  323   4.217   4.175  14.440  0.4929 -0.7178  0.3570
   21MPD2    C4  324   4.122   4.228  14.354 -0.2695  0.0382 -0.0141
   21MPD2    C5  325   4.151   4.265  14.227 -0.7716  0.1020  0.3027
   21MPD2     H  326   4.425   4.115  14.442  0.5760 -1.0997 -1.6488
   21MPD2    H1  327   4.019   4.233  14.388 -0.1700 -1.3851  0.4699
   21MPD2    H2  328   4.297   4.302  14.089  0.5614  3.0607  1.1375
   21MPD2    H3  329   4.076   4.302  14.157 -0.4760 -0.9976 -0.5995
   21MPD2     N  330   4.184   4.141  14.570 -0.2675  0.3722 -0.1902
   21MPD2    H5  331   4.093   4.174  14.600 -0.4126  0.9563 -1.2762
   21MPD2    N1  332   4.511   4.187  14.219  0.3767  0.2147 -0.4741
   21MPD2    H7  333   4.585   4.155  14.281 -1.0976 -0.1662  1.0987
   22TCq2    C1  334   4.267   4.073  14.653 -0.0231  0.4884  0.2578
   22TCq2    O2  335   4.355   3.999  14.624 -0.8879 -0.4047 -0.0356
   22TCq2    C2  336   4.227   4.075  14.794  0.0745 -0.8281  0.3598
   22TCq2    C3  337   4.302   4.005  14.879  0.1423 -0.2764  0.4425
   22TCq2    C4  338   4.256   3.996  15.005 -0.2960 -0.8326  0.4099
   22TCq2    C5  339   4.147   4.064  15.053 -0.0352  0.4231 -0.6060
   22TCq2    C6  340   4.099   4.158  14.966 -0.3320  0.4288 -0.3604
   22TCq2    C7  341   4.127   4.164  14.835 -0.3778  0.6077 -0.1632
   22TCq2    C8  342   3.987   4.243  15.016 -0.3335 -0.2311  0.4573
   22TCq2    O4  343   3.953   4.242  15.134  0.3750 -0.5411  0.2268
   22TCq2    C9  344   4.323   3.902  15.096  0.4401 -1.0675  0.2811
   22TCq2    O5  345   4.444   3.875  15.074 -0.5090  0.5451  0.2425
   22TCq2    O6  346   4.249   3.867  15.191 -0.1948 -0.2211 -0.1352
   22TCq2    H2  347   4.376   3.931  14.850 -0.7357 -0.4914 -1.2971
   22TCq2    H3  348   4.111   4.052  15.154  0.6737 -0.3737 -0.4484
   22TCq2    H4  349   4.097   4.241  14.765  1.2727  1.8111  0.4530
   23MPD2     C  350   1.039   4.694  14.573  0.7940 -0.2532 -0.0164
   23MPD2    C1  351   1.003   0.048  14.677  1.3159 -0.4234  0.2980
   23MPD2    C2  352   0.898   0.137  14.657 -0.3206 -0.3169  0.5898
   23MPD2    C3  353   0.840   0.149  14.534  0.0899 -0.1369 -0.2025
   23MPD2    C4  354   0.876   0.073  14.430  0.0860 -0.4593 -0.8433
   23MPD2    C5  355   0.978   4.704  14.450 -0.0724 -0.2772  0.5052
   23MPD2     H  356   0.874   0.200  14.742  0.2315 -0.8024  1.1032
   23MPD2    H1  357   0.850   0.094  14.327  0.8543 -1.0913 -1.1630
   23MPD2    H2  358   1.119   4.623  14.585  2.1146  1.0806 -0.9434
   23MPD2    H3  359   1.021   4.639  14.374  0.3246  0.6378 -0.0475
   23MPD2     N  360   0.759   0.258  14.503 -0.4754 -0.2540 -0.2338
   23MPD2    H5  361   0.718   0.249  14.410 -0.5904  3.2199 -0.5230
   23MPD2    N1  362   1.073   0.056  14.801 -0.0169 -0.2568  0.2104
   23MPD2    H7  363   1.033   0.121  14.868 -2.4219 -1.8717  0.3692
   24TCq2    C1  364   0.692   0.330  14.603 -0.6226 -0.0789  0.2382
   24TCq2    O2  365   0.696   0.339  14.731 -0.2494  0.7344  0.1197
   24TCq2    C2  366   0.593   0.414  14.541 -0.2718  0.5369 -0.4997
   24TCq2    C3  367   0.541   0.520  14.614  0.9328 -0.2628 -0.0188
   24TCq2    C4  368   0.441   0.589  14.552  0.1778  0.3015 -0.0817
   24TCq2    C5  369   0.390   0.569  14.430  0.0073  0.3828 -0.4177
   24TCq2    C6  370   0.437   0.469  14.360  0.1058  0.7740  0.0061
   24TCq2    C7  371   0.538   0.391  14.415  0.6287 -0.0114 -0.2675
   24TCq2    C8  372   0.378   0.423  14.232  0.3681  0.0561  0.1807
   24TCq2    O4  373   0.438   0.330  14.178 -0.0766  0.1027 -0.0673
   24TCq2    C9  374   0.383   0.706  14.622 -0.7051  0.5160 -0.5067
   24TCq2    O5  375   0.266   0.723  14.589  0.4362 -0.2120 -0.4508
   24TCq2    O6  376   0.454   0.781  14.694  0.0751  0.4634 -0.6878
   24TCq2    H2  377   0.574   0.561  14.709  0.2422  0.8915 -0.2778
   24TCq2    H3  378   0.339   0.656  14.389  1.8175  1.5650 -0.1917
   24TCq2    H4  379   0.549   0.300  14.357  1.0531 -0.6682  0.8394
   25TMC2    C1  380   0.359   1.947  11.375 -0.8376 -0.1428  0.1423
   25TMC2    C2  381   0.476   1.888  11.405 -0.3995  0.0264  0.6498
   25TMC2    C3  382   0.568   1.957  11.477  0.4029  0.8505 -0.2049
   25TMC2    C4  383   0.339   2.081  11.409  0.3890 -0.3133  0.1219
   25TMC2    C5  384   0.437   2.152  11.481 -0.0273 -0.4481  0.7376
   25TMC2    C6  385   0.549   2.081  11.519 -0.4379 -0.0819  0.2000
   25TMC2     C  386   0.257   1.865  11.314 -0.2773  0.9145 -0.0453
   25TMC2     O  387   0.304   1.780  11.237  0.0844  0.1154  0.1647
   25TMC2     H  388   0.484   1.781  11.393 -1.4559 -0.1095  1.2609
   25TMC2    H1  389   0.248   2.132  11.380  0.8907  1.1719  1.1394
   25TMC2    H2  390   0.619   2.139  11.577 -0.5099  1.1046 -0.9114
   25TMC2    C7  391   0.396   2.257  11.571 -0.3483  0.7130 -0.8752
   25TMC2    C8  392   0.673   1.886  11.545 -0.0919  0.8774  0.2428
   25TMC2    O1  393   0.477   2.292  11.655  0.3972 -0.3392  0.9212
   25TMC2    O2  394   0.674   1.764  11.542 -0.7974  0.3182  0.0869
   25TMC2    O5  395   0.789   1.958  11.545  0.3973 -0.1602 -0.0982
   25TMC2    H5  396   0.778   2.052  11.518  0.5076 -0.2818 -0.5516
   26MPD2     C  397   4.525   1.655  11.263  0.1510  0.1534  0.1353
   26MPD2    C1  398   4.515   1.770  11.337 -0.7626 -0.2469  0.0203
   26MPD2    C2  399   4.628   1.847  11.378  0.5161 -0.0746  0.4084
   26MPD2    C3  400   0.018   1.805  11.328 -0.5506 -0.2580 -0.5304
   26MPD2    C4  401   0.022   1.698  11.245 -0.2416  0.5096 -0.6797
   26MPD2    C5  402   4.644   1.617  11.210 -0.3663  0.4624  0.7599
   26MPD2     H  403   4.621   1.936  11.440  2.2391  1.1288 -1.1324
   26MPD2    H1  404   0.114   1.657  11.205 -0.3701 -2.0286  1.6081
   26MPD2    H2  405   4.439   1.592  11.241  0.6201 -1.0620  1.8490
   26MPD2    H3  406   4.648   1.530  11.145 -0.8155  0.6679  0.4531
   26MPD2     N  407   0.130   1.891  11.353  0.3978  0.0105  0.7773
   26MPD2    H5  408   0.107   1.972  11.408  1.6004  0.8127  0.0922
   26MPD2    N1  409   4.385   1.808  11.380  0.4316  0.1996 -0.9460
   26MPD2    H7  410   4.302   1.768  11.337 -1.0262 -0.4667  2.5272
   27TMC2    C1  411   3.511   0.162  12.083  0.5344 -0.5576  0.5732
   27TMC2    C2  412   3.479   0.236  11.972 -0.0772  0.4151  0.3220
   27TMC2    C3  413   3.469   0.373  11.978  0.4289 -0.3719 -0.2024
   27TMC2    C4  414   3.523   0.224  12.204  0.2599 -0.4408  0.0423
   27TMC2    C5  415   3.513   0.367  12.205 -0.0679  0.2045  0.0683
   27TMC2    C6  416   3.484   0.439  12.092  0.6939 -0.1911  0.4739
   27TMC2     C  417   3.448   0.033  12.102  0.2255  0.1418  0.3655
   27TMC2     O  418   3.489   4.667  12.034  0.2643  0.0535  0.0779
   27TMC2     H  419   3.487   0.179  11.880 -0.4816 -0.2335  0.6892
   27TMC2    H1  420   3.546   0.160  12.288  0.7577  1.4046  1.3188
   27TMC2    H2  421   3.473   0.547  12.087 -1.1228 -0.4126 -0.4094
   27TMC2    C7  422   3.489   0.420  12.331  0.0380  0.3625 -0.0746
   27TMC2    C8  423   3.445   0.450  11.858 -0.7806  0.0801  0.5001
   27TMC2    O1  424   3.513   0.347  12.423  0.0957  0.5852  0.2324
   27TMC2    O2  425   3.474   0.566  11.848 -0.0517  0.2018 -0.6227
   27TMC2    O5  426   3.348   0.395  11.787 -1.0619  0.4886  0.0020
   27TMC2    H5  427   3.317   0.308  11.820  1.1278 -0.7273 -1.1845
   28MPD2     C  428   3.239   4.438  12.444  0.0588  0.4201  0.4598
   28MPD2    C1  429   3.243   4.563  12.497 -0.3778 -0.0386 -0.3937
   28MPD2    C2  430   3.299   4.659  12.421  0.0918  0.1654  0.1113
   28MPD2    C3  431   3.335   4.637  12.289 -0.3251 -0.9545 -0.2773
   28MPD2    C4  432   3.331   4.511  12.238 -0.3765  0.1652  0.3069
   28MPD2    C5  433   3.279   4.413  12.316 -0.1085  0.0455  0.2484
   28MPD2     H  434   3.298   0.034  12.455 -1.3325  0.6202 -1.3203
   28MPD2    H1  435   3.352   4.483  12.135 -1.6117 -1.7008  0.5657
   28MPD2    H2  436   3.212   4.351  12.504 -0.2401  0.1349 -0.0897
   28MPD2    H3  437   3.262   4.318  12.268  1.0869 -0.4550  0.8055
   28MPD2     N  438   3.374   0.024  12.216 -0.5861  0.4481 -0.3642
   28MPD2    H5  439   3.358   0.116  12.256  0.6930  0.1285  0.8772
   28MPD2    N1  440   3.187   4.589  12.623  0.6945  0.0506 -0.7011
   28MPD2    H7  441   3.157   4.504  12.670 -1.6635  1.8752  1.1202
   29MPD2     C  442   3.694   2.435  13.753  1.0210 -0.0680 -0.1180
   29MPD2    C1  443   3.775   2.361  13.836  0.2992 -0.0372  0.2201
   29MPD2    C2  444   3.807   2.414  13.961 -0.3336 -0.6850 -0.3033
   29MPD2    C3  445   3.736   2.526  14.000 -0.0646 -0.5062  0.2782
   29MPD2    C4  446   3.651   2.598  13.917 -0.4223  0.0996 -0.0966
   29MPD2    C5  447   3.636   2.552  13.788 -0.4390 -0.5261  0.4322
   29MPD2     H  448   3.854   2.339  14.025 -0.4739  0.6660  1.3780
   29MPD2    H1  449   3.603   2.687  13.954 -1.3031 -0.8282  1.0111
   29MPD2    H2  450   3.667   2.404  13.653  0.6708 -0.5560  0.1240
   29MPD2    H3  451   3.575   2.610  13.719 -0.4561  0.0474  0.9239
   29MPD2     N  452   3.725   2.563  14.141 -0.4725 -0.0150  0.0395
   29MPD2    H5  453   3.657   2.634  14.166 -1.3582 -1.2777  1.2019
   29MPD2    N1  454   3.832   2.236  13.807  0.3394 -0.1204  0.1859
   29MPD2    H7  455   3.901   2.206  13.876  0.7626 -0.8517 -0.5529
   30TCq2    C1  456   3.808   2.506  14.241 -0.7335 -0.5892  0.5727
   30TCq2    O2  457   3.896   2.425  14.236  0.1557  0.9902  0.5940
   30TCq2    C2  458   3.782   2.569  14.371  0.2198 -0.2044 -0.1049
   30TCq2    C3  459   3.823   2.508  14.492  0.3688 -0.4440  0.1880
   30TCq2    C4  460   3.784   2.569  14.609  0.1160 -0.0352  0.6930
   30TCq2    C5  461   3.733   2.695  14.611  0.2195 -0.1016 -0.8157
   30TCq2    C6  462   3.707   2.753  14.498 -0.1730  0.0924  0.0340
   30TCq2    C7  463   3.730   2.694  14.379  0.0329  0.9008  0.3137
   30TCq2    C8  464   3.609   2.854  14.507  0.0730  0.9965 -0.1988
   30TCq2    O4  465   3.517   2.850  14.421 -0.1045  0.3864 -0.6327
   30TCq2    C9  466   3.796   2.491  14.728  0.8187  0.3049 -0.8979
   30TCq2    O5  467   3.875   2.394  14.718  0.5146  0.0528 -1.2025
   30TCq2    O6  468   3.714   2.521  14.818 -0.2866 -0.0643  0.0354
   30TCq2    H2  469   3.865   2.409  14.498  2.8398  0.6144  0.0643
   30TCq2    H3  470   3.690   2.732  14.703  1.7692 -1.7275  0.5476
   30TCq2    H4  471   3.718   2.756  14.291 -0.7366 -1.3805 -1.1838
   31MPD2     C  472   2.080   1.402  14.720  0.2125  0.4743 -0.0091
   31MPD2    C1  473   1.949   1.424  14.736  0.0596  0.3722 -0.3725
   31MPD2    C2  474   1.871   1.338  14.812 -0.7020  0.0793  0.2824
   31MPD2    C3  475   1.936   1.232  14.864 -0.4440  0.2690 -0.0851
   31MPD2    C4  476   2.066   1.203  14.838 -0.7686 -0.3860  0.4349
   31MPD2    C5  477   2.143   1.292  14.764  0.3102 -0.6361 -0.9596
   31MPD2     H  478   1.770   1.363  14.843 -0.8478 -1.7465  1.2902
   31MPD2    H1  479   2.103   1.103  14.858  1.6782  0.2320 -1.0938
   31MPD2    H2  480   2.143   1.472  14.666 -0.3219 -0.5790 -1.9695
   31MPD2    H3  481   2.241   1.274  14.721  0.3450  0.4212 -1.3387
   31MPD2     N  482   1.865   1.128  14.931 -0.3736  0.1879  0.5234
   31MPD2    H5  483   1.915   1.040  14.942 -0.4611  0.2481  1.4480
   31MPD2    N1  484   1.894   1.545  14.678 -0.1169  0.4029  0.1472
   31MPD2    H7  485   1.966   1.612  14.654  0.8110 -0.3782  0.7424
   32TCq2    C1  486   1.752   1.138  14.996  0.1458  0.0643  0.0706
   32TCq2    O2  487   1.672   1.231  15.003 -0.5716  0.0146  0.0714
   32TCq2    C2  488   1.723   1.013  15.064  0.0973 -0.2686  0.2447
   32TCq2    C3  489   1.718   0.901  14.983 -0.1742  0.3113  0.0683
   32TCq2    C4  490   1.638   0.801  15.026  0.4568  0.2530 -0.0292
   32TCq2    C5  491   1.558   0.803  15.131 -0.1272 -0.2821  0.5557
   32TCq2    C6  492   1.553   0.923  15.207  0.4865  0.4574 -0.3929
   32TCq2    C7  493   1.640   1.027  15.172  0.2041 -0.0681  0.2874
   32TCq2    C8  494   1.507   0.914  15.342 -0.2623  0.1693 -0.1829
   32TCq2    O4  495   1.537   0.809  15.395  0.3397  0.1935 -0.2627
   32TCq2    C9  496   1.660   0.685  14.941 -0.2889  0.5449  0.5157
   32TCq2    O5  497   1.674   0.707  14.818  0.9087  0.1385 -0.0440
   32TCq2    O6  498   1.629   0.576  14.997 -0.0240 -0.0005 -0.4334
   32TCq2    H2  499   1.773   0.896  14.890 -0.0457 -1.1567  0.2268
   32TCq2    H3  500   1.499   0.714  15.150  0.7498  0.0381  4.7389
   32TCq2    H4  501   1.646   1.112  15.239  0.5101  1.3206 -1.4935
   33MPD2     C  502   1.324   3.419  10.646  0.1196 -0.2077 -0.3761
   33MPD2    C1  503   1.201   3.374  10.596  0.0316  0.1832  0.3149
   33MPD2    C2  504   1.107   3.457  10.545  0.3008 -0.1819  0.3627
   33MPD2    C3  505   1.130   3.591  10.540  1.0974 -0.0086 -0.5552
   33MPD2    C4  506   1.253   3.639  10.583 -0.4887  0.4848  0.1696
   33MPD2    C5  507   1.341   3.556  10.639 -0.5406  0.5796 -0.1209
   33MPD2     H  508   1.018   3.415  10.500  1.1459 -0.6308 -0.8931
   33MPD2    H1  509   1.269   3.746  10.587  1.1350  0.2450  0.0289
   33MPD2    H2  510   1.403   3.351  10.677 -0.9760 -0.2077  2.4119
   33MPD2    H3  511   1.437   3.596  10.668 -1.1124  2.0333 -0.2215
   33MPD2     N  512   1.044   3.688  10.489  0.1221  0.3329 -0.0119
   33MPD2    H5  513   1.090   3.778  10.485 -0.1744  0.6650  3.4097
   33MPD2    N1  514   1.191   3.239  10.581 -0.0929 -0.4780  0.2012
   33MPD2    H7  515   1.273   3.181  10.598 -0.7806 -0.8489  2.3389
   34TCq2    C1  516   0.909   3.673  10.467 -0.5330 -0.1273  0.3046
   34TCq2    O2  517   0.848   3.567  10.453  0.2631 -0.4196 -0.4130
   34TCq2    C2  518   0.840   3.800  10.429 -0.0335  0.0789  0.0490
   34TCq2    C3  519   0.707   3.786  10.411 -0.2680 -0.4295 -0.0434
   34TCq2    C4  520   0.633   3.895  10.424 -0.1698  0.0474  0.3556
   34TCq2    C5  521   0.691   4.019  10.437 -0.4985 -0.2373  0.6283
   34TCq2    C6  522   0.826   4.032  10.454 -0.3773  0.0279  0.6365
   34TCq2    C7  523   0.906   3.920  10.451  0.7736  0.3125  0.4440
   34TCq2    C8  524   0.886   4.158  10.466  0.1956  0.6370  0.0176
   34TCq2    O4  525   0.824   4.256  10.439  0.5518 -0.1281 -0.0591
   34TCq2    C9  526   0.489   3.887  10.391  0.1256  0.7965 -0.1133
   34TCq2    O5  527   0.434   3.774  10.407 -0.0325 -0.5654 -0.2785
   34TCq2    O6  528   0.426   3.994  10.390 -0.8565 -0.0420  0.1470
   34TCq2    H2  529   0.661   3.689  10.399  0.4346 -0.9328  1.2510
   34TCq2    H3  530   0.633   4.110  10.420  0.3134  0.0064 -0.8876
   34TCq2    H4  531   1.014   3.925  10.451  0.8158 -0.4831  0.8576
   35MPD2     C  532   3.036   0.385  11.924  0.3282  0.9636 -0.3026
   35MPD2    C1  533   2.932   0.358  12.020 -0.2570 -0.3296 -0.7093
   35MPD2    C2  534   2.801   0.397  11.983  0.0494 -0.4740  0.5446
   35MPD2    C3  535   2.774   0.459  11.868 -0.6210 -0.5336 -0.3409
   35MPD2    C4  536   2.871   0.487  11.781 -0.0298  0.4355 -0.3380
   35MPD2    C5  537   3.004   0.448  11.802  0.5856 -0.1148  0.8339
   35MPD2     H  538   2.725   0.380  12.058 -0.4754 -0.2886  0.0566
   35MPD2    H1  539   2.845   0.539  11.690  0.8530  1.6405  0.1053
   35MPD2    H2  540   3.140   0.373  11.952 -0.3788 -0.1772  1.8155
   35MPD2    H3  541   3.069   0.463  11.717  1.7194 -2.4648  1.2564
   35MPD2     N  542   2.637   0.487  11.848 -0.1388  0.8650 -0.1996
   35MPD2    H5  543   2.583   0.454  11.927 -0.3586 -0.2650 -0.8215
   35MPD2    N1  544   2.952   0.306  12.152  0.5848 -0.1175  0.3100
   35MPD2    H7  545   2.869   0.304  12.210  0.7985 -0.9273  0.5817
   36TCq2    C1  546   2.580   0.539  11.740 -0.3079 -0.0638 -0.1958
   36TCq2    O2  547   2.628   0.558  11.629 -1.0450 -0.2207  0.6663
   36TCq2    C2  548   2.436   0.557  11.759 -0.0334  0.5840 -0.0257
   36TCq2    C3  549   2.361   0.530  11.650 -0.2417  0.7202 -0.8782
   36TCq2    C4  550   2.238   0.475  11.674  0.0836 -0.0440  0.4538
   36TCq2    C5  551   2.194   0.443  11.804  0.6757  0.2709  0.9230
   36TCq2    C6  552   2.278   0.477  11.906  0.7364  0.3535 -0.3799
   36TCq2    C7  553   2.392   0.542  11.889 -0.6407  0.4091 -0.9803
   36TCq2    C8  554   2.265   0.401  12.028  0.7227 -0.2515 -0.4052
   36TCq2    O4  555   2.345   0.430  12.116 -0.3727  0.2435 -0.0742
   36TCq2    C9  556   2.162   0.427  11.567 -0.8790  0.1830  0.1476
   36TCq2    O5  557   2.229   0.418  11.463 -0.2453 -0.5242 -0.1419
   36TCq2    O6  558   2.068   0.347  11.593 -0.2276  0.9475 -0.0766
   36TCq2    H2  559   2.396   0.547  11.549  0.3652  0.7434 -0.6639
   36TCq2    H3  560   2.103   0.388  11.821  0.9778 -0.8922 -1.2153
   36TCq2    H4  561   2.457   0.562  11.973 -0.6049 -2.0290 -0.4539
   37TMC2    C1  562   0.106   4.466  11.784 -1.2101 -0.6471 -0.1486
   37TMC2    C2  563   0.159   4.346  11.740  0.3953 -0.1362 -0.2834
   37TMC2    C3  564   0.243   4.351  11.632 -0.2723 -0.0340 -0.5585
   37TMC2    C4  565   0.145   4.583  11.742  0.0321  0.0220 -0.5890
   37TMC2    C5  566   0.239   4.585  11.646 -0.3390 -0.0527  0.0560
   37TMC2    C6  567   0.303   4.468  11.596  0.6212 -0.7877 -0.2812
   37TMC2     C  568   0.014   4.454  11.900  0.4292  0.0392  0.1304
   37TMC2     O  569   0.005   4.339  11.941  0.2321 -0.4425  0.1742
   37TMC2     H  570   0.124   4.253  11.784 -0.1991  0.1094 -0.2371
   37TMC2    H1  571   0.112   4.673  11.792 -3.5887 -1.2412 -0.6889
   37TMC2    H2  572   0.374   4.469  11.514  0.1950  0.8252 -0.6184
   37TMC2    C7  573   0.316   4.707  11.643  0.1290 -0.5905  0.3508
   37TMC2    C8  574   0.304   4.223  11.588 -0.4606  0.4090  0.1903
   37TMC2    O1  575   0.279   0.072  11.705 -0.3065  0.3649 -0.5791
   37TMC2    O2  576   0.235   4.121  11.595 -0.0020  0.0598  0.0385
   37TMC2    O5  577   0.436   4.221  11.598  0.0125 -0.2390  0.5204
   37TMC2    H5  578   0.477   4.309  11.609 -0.6045 -0.0678  1.3766
   38MPD2     C  579   4.399   4.587  12.264  0.3035  0.8403 -0.3321
   38MPD2    C1  580   4.417   4.698  12.179  0.5699 -0.6173 -0.2828
   38MPD2    C2  581   4.495   4.678  12.061  0.6133  0.3639 -0.2380
   38MPD2    C3  582   4.571   4.565  12.045  0.2811 -0.0256 -0.8032
   38MPD2    C4  583   4.569   4.464  12.139  0.0153  0.0068  0.5910
   38MPD2    C5  584   4.476   4.474  12.241 -0.7141  0.4467 -0.2451
   38MPD2     H  585   4.495   0.032  11.989 -1.2311 -0.7447 -1.5224
   38MPD2    H1  586   4.626   4.372  12.132 -0.3164 -0.3879  3.0550
   38MPD2    H2  587   4.340   4.570  12.353  0.9042  0.3009 -0.0289
   38MPD2    H3  588   4.463   4.389  12.306  1.4581  0.6225  0.4259
   38MPD2     N  589   4.663   4.560  11.938  0.2983 -0.1091  0.3168
   38MPD2    H5  590   4.664   4.639  11.875  0.9105 -0.4719 -0.1369
   38MPD2    N1  591   4.359   0.094  12.197 -0.4177 -0.2793 -0.2144
   38MPD2    H7  592   4.396   0.175  12.149 -0.1122 -1.3192 -1.7384
   39MPD2     C  593   3.451   2.917   1.440  0.0081 -0.2293  0.1036
   39MPD2    C1  594   3.390   2.991   1.542  0.4431 -0.0802 -0.3206
   39MPD2    C2  595   3.260   3.029   1.534  0.3123 -0.2471  0.3698
   39MPD2    C3  596   3.180   2.979   1.441  0.6196 -0.4406  0.6890
   39MPD2    C4  597   3.239   2.891   1.351 -0.2583  0.2833 -0.1815
   39MPD2    C5  598   3.371   2.866   1.346 -0.6168 -0.3162 -0.5651
   39MPD2     H  599   3.226   3.114   1.592  0.4842  0.2397 -0.2432
   39MPD2    H1  600   3.180   2.863   1.264  0.6351 -1.0472 -0.3586
   39MPD2    H2  601   3.558   2.901   1.443 -0.3048 -2.1064  1.0887
   39MPD2    H3  602   3.419   2.817   1.261  2.5871 -1.5472  1.9544
   39MPD2     N  603   3.044   3.012   1.425  0.5742 -0.4016 -0.1824
   39MPD2    H5  604   2.999   2.981   1.339 -0.2068 -0.3239  0.1955
   39MPD2    N1  605   3.479   3.063   1.624 -0.2158  0.8273  0.2316
   39MPD2    H7  606   3.580   3.053   1.613 -0.1435  0.3857  1.2633
   40TCq2    C1  607   3.447   3.147   1.731  0.7461 -0.2387  0.5123
   40TCq2    O2  608   3.340   3.158   1.790 -0.0908  0.7433  0.1026
   40TCq2    C2  609   3.553   3.220   1.799  0.8862  0.3701 -0.5011
   40TCq2    C3  610   3.513   3.319   1.880  0.1512 -0.4595 -0.5763
   40TCq2    C4  611   3.609   3.407   1.930 -0.0038 -0.6886 -0.7557
   40TCq2    C5  612   3.741   3.392   1.900  0.1327 -0.1971 -0.1681
   40TCq2    C6  613   3.780   3.303   1.803 -0.2420 -0.3149 -0.1668
   40TCq2    C7  614   3.687   3.212   1.755 -0.7983  0.0638 -0.1637
   40TCq2    C8  615   3.913   3.291   1.768  0.0034  0.4224 -0.8792
   40TCq2    O4  616   3.948   3.188   1.715 -0.3159  0.1268  0.0584
   40TCq2    C9  617   3.561   3.512   2.020  0.4032 -0.3513  0.7525
   40TCq2    O5  618   3.441   3.520   2.046 -0.1084  0.0796  0.1510
   40TCq2    O6  619   3.648   3.584   2.066  0.4477 -0.1095  0.0209
   40TCq2    H2  620   3.409   3.324   1.912  0.0191 -1.4555 -0.8543
   40TCq2    H3  621   3.809   3.461   1.950 -0.6709  1.2660 -1.0989
   40TCq2    H4  622   3.725   3.133   1.692 -0.8282  1.0673 -1.4421
   41TMC2    C1  623   1.511   0.683  13.329 -1.6961  0.5022 -0.1276
   41TMC2    C2  624   1.406   0.677  13.417  0.1226  0.0695  0.5688
   41TMC2    C3  625   1.279   0.677  13.369  0.6356  0.2310 -1.1072
   41TMC2    C4  626   1.495   0.705  13.196  0.2505  0.4242 -0.3395
   41TMC2    C5  627   1.364   0.711  13.157 -0.3167 -0.2754  0.4106
   41TMC2    C6  628   1.252   0.700  13.236  0.2645 -0.2478  0.1041
   41TMC2     C  629   1.615   0.587  13.355  0.7806  0.8443  0.2575
   41TMC2     O  630   1.647   0.519  13.260  0.1168  0.2561  0.3818
   41TMC2     H  631   1.429   0.650  13.520 -2.8464 -1.5350  0.8034
   41TMC2    H1  632   1.587   0.713  13.140  0.3192 -0.0174 -0.2873
   41TMC2    H2  633   1.151   0.690  13.199  0.5520  1.0503 -1.0450
   41TMC2    C7  634   1.342   0.754  13.020 -0.0740  0.3886  0.7541
   41TMC2    C8  635   1.168   0.656  13.465 -0.1335 -0.9974  0.0653
   41TMC2    O1  636   1.226   0.783  12.989  0.2635  0.4199  0.4125
   41TMC2    O2  637   1.054   0.696  13.441 -0.2631 -0.0539 -0.1657
   41TMC2    O5  638   1.193   0.538  13.531  0.3244 -0.3787 -0.5144
   41TMC2    H5  639   1.280   0.493  13.524  0.7705  0.6505 -1.4933
   42MPD2     C  640   1.739   0.353  13.496  0.4441 -0.0251  0.2827
   42MPD2    C1  641   1.745   0.486  13.542 -0.3716 -0.6336  0.8240
   42MPD2    C2  642   1.822   0.516  13.656  0.1275  0.0981  0.5162
   42MPD2    C3  643   1.875   0.418  13.733 -0.6727 -0.0929 -0.4844
   42MPD2    C4  644   1.856   0.280  13.690  0.5636  0.0921 -0.5976
   42MPD2    C5  645   1.789   0.253  13.576 -0.4005  0.1027 -1.1710
   42MPD2     H  646   1.824   0.621  13.683  0.1768  0.2230  0.0213
   42MPD2    H1  647   1.897   0.196  13.745  0.5910  0.2685 -0.3468
   42MPD2    H2  648   1.679   0.310  13.417  2.0310 -0.5375 -0.6551
   42MPD2    H3  649   1.795   0.155  13.531  0.0417 -1.0178  1.3146
   42MPD2     N  650   1.947   0.438  13.851  0.1164 -0.1757  0.0884
   42MPD2    H5  651   1.994   0.354  13.885  0.2297 -0.0417  0.2644
   42MPD2    N1  652   1.668   0.592  13.482  0.2600  0.1996  0.0210
   42MPD2    H7  653   1.660   0.684  13.526  1.4939  0.0693  0.5040
   43MPD2     C  654   3.644   4.636   0.787 -0.1879  0.1573 -0.5079
   43MPD2    C1  655   3.671   4.524   0.867  0.1137  0.1929 -0.1662
   43MPD2    C2  656   3.593   4.499   0.979  0.6984  0.6717 -0.5272
   43MPD2    C3  657   3.487   4.578   1.013  0.0091 -1.2349 -0.7578
   43MPD2    C4  658   3.451   4.676   0.923  0.1062 -0.2278 -0.4075
   43MPD2    C5  659   3.536   4.714   0.822 -0.5563 -0.0807 -0.2552
   43MPD2     H  660   3.620   4.422   1.051 -1.3265  2.1268  1.8159
   43MPD2    H1  661   3.359   0.003   0.944  0.6731  0.1329  1.1236
   43MPD2    H2  662   3.709   4.648   0.702  1.0343 -2.0877  0.1290
   43MPD2    H3  663   3.507   0.072   0.762 -0.6762  1.4456  1.9606
   43MPD2     N  664   3.412   4.562   1.128 -0.3378 -0.1212  0.3417
   43MPD2    H5  665   3.321   4.607   1.125  0.3809  1.3926  1.1523
   43MPD2    N1  666   3.775   4.433   0.842 -0.6263 -0.5646  0.8199
   43MPD2    H7  667   3.776   4.358   0.910 -1.5836 -1.4687 -0.1802
   44TCq2    C1  668   3.368   4.472   1.698 -0.1175  0.5173  0.1600
   44TCq2    O2  669   3.468   4.404   1.702  0.1396 -0.0391 -0.0361
   44TCq2    C2  670   3.300   4.476   1.566 -0.1860  0.1010 -0.0857
   44TCq2    C3  671   3.171   4.531   1.558  0.3868 -0.4314  0.3350
   44TCq2    C4  672   3.130   4.549   1.434  0.4266  0.2176  0.1871
   44TCq2    C5  673   3.214   4.531   1.321 -0.8463  0.0871 -0.7325
   44TCq2    C6  674   3.338   4.480   1.332 -0.7358 -0.3150 -0.1785
   44TCq2    C7  675   3.375   4.442   1.456 -0.2298 -0.0723  0.3390
   44TCq2    C8  676   3.434   4.471   1.227  0.0627 -0.6931 -0.8252
   44TCq2    O4  677   3.539   4.407   1.252 -0.1621 -0.1587 -0.1405
   44TCq2    C9  678   2.997   4.600   1.409  0.5381  0.5705 -0.0804
   44TCq2    O5  679   2.937   4.643   1.510 -0.1436 -0.2927  0.3922
   44TCq2    O6  680   2.949   4.599   1.294  0.1741 -0.0422 -0.2067
   44TCq2    H2  681   3.105   4.556   1.640  0.5185 -0.0645  0.3268
   44TCq2    H3  682   3.170   4.559   1.226 -1.4145 -0.6625 -0.6905
   44TCq2    H4  683   3.472   4.397   1.474 -0.2790 -1.1411 -2.1127
   45TMC2    C1  684   3.815   1.392   9.276  0.5419  0.5848 -0.8007
   45TMC2    C2  685   3.797   1.420   9.145  0.3615  0.0978 -0.5974
   45TMC2    C3  686   3.777   1.554   9.124 -0.0012  0.9085 -0.1338
   45TMC2    C4  687   3.804   1.483   9.376 -0.3333  0.1792 -0.4135
   45TMC2    C5  688   3.794   1.614   9.341 -1.0169 -0.0546  0.1603
   45TMC2    C6  689   3.761   1.659   9.214  0.1232 -0.3798  0.5616
   45TMC2     C  690   3.845   1.255   9.308 -0.0968  0.4821  0.0828
   45TMC2     O  691   3.925   1.228   9.396 -0.5439  0.3378  0.1712
   45TMC2     H  692   3.833   1.357   9.065  1.4966 -0.8675  0.6761
   45TMC2    H1  693   3.799   1.446   9.478 -0.4484  0.4251 -0.3300
   45TMC2    H2  694   3.731   1.760   9.190 -0.2702 -0.1569  2.0107
   45TMC2    C7  695   3.748   1.707   9.445  0.2433  0.1652 -0.0225
   45TMC2    C8  696   3.764   1.599   8.988  0.0725 -0.2787 -0.6895
   45TMC2    O1  697   3.657   1.785   9.419  0.2510 -0.2393  0.2277
   45TMC2    O2  698   3.768   1.717   8.954  0.0620  0.4897 -0.4227
   45TMC2    O5  699   3.703   1.496   8.921 -0.3223 -0.7159  0.1885
   45TMC2    H5  700   3.677   1.418   8.974  0.4477 -1.0634  0.0666
   46MPD2     C  701   3.891   0.961   9.263 -0.7005  0.5432 -0.1006
   46MPD2    C1  702   3.797   1.037   9.197  0.3146  0.2510  0.5986
   46MPD2    C2  703   3.715   0.969   9.106  0.6917  0.2203  0.4587
   46MPD2    C3  704   3.730   0.833   9.067  0.0419  0.0757  0.5227
   46MPD2    C4  705   3.822   0.762   9.142  0.7799 -0.8262  0.5877
   46MPD2    C5  706   3.899   0.822   9.239 -0.7756  0.0383 -0.2967
   46MPD2     H  707   3.636   1.026   9.059  1.0614 -0.9259 -1.5607
   46MPD2    H1  708   3.826   0.654   9.132 -1.0219 -0.9845  1.5833
   46MPD2    H2  709   3.960   1.002   9.336 -0.2909  1.2047 -0.8687
   46MPD2    H3  710   3.972   0.769   9.299  1.1835 -0.4063 -3.0597
   46MPD2     N  711   3.632   0.776   8.979  0.2294  0.6730  0.0413
   46MPD2    H5  712   3.558   0.834   8.940  0.2661  0.4249 -0.3927
   46MPD2    N1  713   3.777   1.172   9.223 -0.0734 -0.0662  0.5359
   46MPD2    H7  714   3.694   1.200   9.172 -1.3584 -1.2958  1.9580
   47TMC2    C1  715   1.598   1.254   9.380  0.1778 -0.3060  0.0871
   47TMC2    C2  716   1.626   1.145   9.299  0.3030 -0.3290  0.4701
   47TMC2    C3  717   1.534   1.125   9.198  0.2163  0.1349 -0.4292
   47TMC2    C4  718   1.495   1.345   9.352 -0.3517  0.3274 -0.3687
   47TMC2    C5  719   1.409   1.322   9.249  0.3760  0.1652  0.0195
   47TMC2    C6  720   1.428   1.209   9.171 -0.7177 -0.2582 -0.5274
   47TMC2     C  721   1.689   1.294   9.485  0.3179  0.0285 -0.2274
   47TMC2     O  722   1.689   1.412   9.525 -0.4535  0.1588 -0.3663
   47TMC2     H  723   1.717   1.086   9.302 -1.1650 -2.6167  0.4939
   47TMC2    H1  724   1.491   1.437   9.410 -0.2483 -0.1893  0.4654
   47TMC2    H2  725   1.366   1.192   9.084 -0.6677 -1.1199 -0.3897
   47TMC2    C7  726   1.277   1.379   9.247  0.0849  0.8367 -0.2563
   47TMC2    C8  727   1.561   1.029   9.094 -0.6111  0.5352 -0.7389
   47TMC2    O1  728   1.212   1.364   9.145  0.1312 -0.5425 -0.4545
   47TMC2    O2  729   1.614   0.922   9.122 -0.4489  0.0225  0.0172
   47TMC2    O5  730   1.585   1.088   8.973 -0.0642 -0.2558  0.3846
   47TMC2    H5  731   1.553   1.180   8.985 -1.0661 -0.6079  0.3535
   48MPD2     C  732   1.943   1.289   9.638  0.9394 -0.3366 -0.5467
   48MPD2    C1  733   1.869   1.175   9.598  0.0186  0.5700  0.1784
   48MPD2    C2  734   1.900   1.053   9.654 -1.0297  0.0046 -0.1155
   48MPD2    C3  735   2.000   1.044   9.748 -0.4900  0.0024 -0.7387
   48MPD2    C4  736   2.080   1.153   9.780  0.4042 -1.2185  0.1649
   48MPD2    C5  737   2.054   1.273   9.726 -0.5074 -0.0969  0.2963
   48MPD2     H  738   1.834   0.968   9.646 -2.6515  1.0740  1.7349
   48MPD2    H1  739   2.158   1.148   9.854  1.0910  1.1945 -0.4027
   48MPD2    H2  740   1.916   1.387   9.602 -3.8479 -1.6276 -0.4734
   48MPD2    H3  741   2.106   1.362   9.759 -0.8955 -0.2075  1.2302
   48MPD2     N  742   2.013   0.910   9.797 -0.7679  0.3669  0.0642
   48MPD2    H5  743   1.947   0.847   9.753 -0.7844 -0.0989  0.7535
   48MPD2    N1  744   1.749   1.183   9.530  0.2393 -0.4291 -0.2352
   48MPD2    H7  745   1.707   1.097   9.496 -1.5530  0.2517  0.2472
   49MPD2     C  746   0.147   3.097   9.672  0.1037 -0.1645  0.0217
   49MPD2    C1  747   0.057   3.022   9.748 -0.6579 -0.4383  0.1193
   49MPD2    C2  748   0.072   3.022   9.882 -0.1280 -0.1890 -0.3049
   49MPD2    C3  749   0.177   3.088   9.947 -0.1877  0.3740  0.7088
   49MPD2    C4  750   0.269   3.151   9.866 -0.1926 -0.1353  0.3124
   49MPD2    C5  751   0.254   3.154   9.730  0.3095  0.5113  0.0773
   49MPD2     H  752   4.722   2.979   9.944  0.9509 -0.2151  1.0248
   49MPD2    H1  753   0.342   3.215   9.913  0.8584  0.2656 -1.8756
   49MPD2    H2  754   0.132   3.128   9.570 -0.9976  0.0286  0.2395
   49MPD2    H3  755   0.302   3.222   9.661 -0.3954  0.2453 -0.6812
   49MPD2     N  756   0.186   3.117  10.086  0.0121 -0.0722  0.6196
   49MPD2    H5  757   0.272   3.158  10.120  2.1454 -2.8649 -1.4194
   49MPD2    N1  758   4.675   2.965   9.687  0.5041  0.4836  0.2494
   49MPD2    H7  759   4.604   2.939   9.756 -1.5686  1.1780 -1.6079
   50TCq2    C1  760   4.654   2.926   9.554  0.5600 -0.1067 -0.1370
   50TCq2    O2  761   0.006   2.932   9.465 -0.6686 -0.1754  0.1084
   50TCq2    C2  762   4.526   2.859   9.536 -0.3063 -0.9618  0.3462
   50TCq2    C3  763   4.494   2.853   9.403  0.1259  0.1521  0.1076
   50TCq2    C4  764   4.365   2.839   9.364 -0.6268 -0.2778  0.6344
   50TCq2    C5  765   4.267   2.817   9.463 -0.3418  0.2749 -0.2709
   50TCq2    C6  766   4.305   2.819   9.595  0.2318  0.3085  0.0569
   50TCq2    C7  767   4.431   2.851   9.634 -0.1629 -0.3523 -0.0493
   50TCq2    C8  768   4.210   2.801   9.703 -0.0936 -0.3169 -0.7310
   50TCq2    O4  769   4.234   2.866   9.801 -0.7328 -0.0183  0.7909
   50TCq2    C9  770   4.332   2.825   9.226  0.1068  1.0424 -0.6213
   50TCq2    O5  771   4.425   2.830   9.144  0.2910  0.0728 -0.0058
   50TCq2    O6  772   4.232   2.754   9.201  0.6417  0.0870 -0.6294
   50TCq2    H2  773   4.570   2.843   9.327  1.6623  2.8985  1.3003
   50TCq2    H3  774   4.167   2.797   9.428  0.0327 -2.9482  0.5717
   50TCq2    H4  775   4.464   2.845   9.737  1.1652 -1.8000 -0.5571
   51MPD2     C  776   4.596   2.865   0.721 -0.0614 -0.6744 -0.7660
   51MPD2    C1  777   4.666   2.760   0.670  0.8441  0.2088 -0.1458
   51MPD2    C2  778   0.031   2.690   0.748 -0.3545 -0.0834  0.3027
   51MPD2    C3  779   0.046   2.727   0.882  0.2302 -0.2860 -0.0447
   51MPD2    C4  780   4.708   2.841   0.932  0.1579 -0.4896 -0.0123
   51MPD2    C5  781   4.620   2.908   0.852 -0.1697 -0.3922  0.9030
   51MPD2     H  782   0.093   2.611   0.707 -0.0613  0.6946 -0.7536
   51MPD2    H1  783   4.719   2.867   1.037  2.4645  0.3969 -0.4751
   51MPD2    H2  784   4.514   2.912   0.668  1.6134  1.7638 -1.2136
   51MPD2    H3  785   4.560   2.984   0.902 -2.1891 -0.6655 -1.0813
   51MPD2     N  786   0.145   2.671   0.968  0.4194 -0.0988  0.1505
   51MPD2    H5  787   0.174   2.729   1.046 -1.5385  2.3560 -0.9093
   51MPD2    N1  788   4.642   2.711   0.538 -0.8386  0.5135 -0.3648
   51MPD2    H7  789   4.555   2.737   0.491 -0.9984 -1.5576 -1.1951
   52TCq2    C1  790   0.212   2.557   0.936  0.1013  0.2785 -0.0319
   52TCq2    O2  791   0.172   2.460   0.868  0.1769 -0.1430  0.1183
   52TCq2    C2  792   0.339   2.542   0.998 -0.4684  0.3073  0.0969
   52TCq2    C3  793   0.394   2.421   1.009  0.7108  0.0257  0.1443
   52TCq2    C4  794   0.526   2.414   1.061 -0.6582  0.2273  0.4236
   52TCq2    C5  795   0.604   2.522   1.087 -0.4169  0.1807 -0.4046
   52TCq2    C6  796   0.550   2.643   1.054 -0.9123 -1.3353 -0.2458
   52TCq2    C7  797   0.419   2.654   1.013 -0.0306  0.2440  0.2729
   52TCq2    C8  798   0.618   2.761   1.096  0.1929  0.5213  0.4395
   52TCq2    O4  799   0.565   2.866   1.121 -0.3501 -0.3472 -0.0115
   52TCq2    C9  800   0.584   2.278   1.079 -0.8644  0.0599 -0.9349
   52TCq2    O5  801   0.710   2.273   1.105  0.3874 -0.0360  0.4220
   52TCq2    O6  802   0.510   2.175   1.075  0.6712 -0.9305 -0.7380
   52TCq2    H2  803   0.342   2.331   0.980 -0.3304  0.6428  0.1100
   52TCq2    H3  804   0.700   2.511   1.136 -1.8429  1.4799  2.6449
   52TCq2    H4  805   0.377   2.753   1.004 -1.3664 -0.4242 -0.9544
   53TMC2    C1  806   0.781   0.536  11.829  0.0307  0.1350 -0.3345
   53TMC2    C2  807   0.883   0.613  11.874 -0.7240 -0.1273  0.3436
   53TMC2    C3  808   0.857   0.722  11.961  0.0695  0.1008  0.5102
   53TMC2    C4  809   0.657   0.570  11.868  0.2392 -0.1266  0.1484
   53TMC2    C5  810   0.634   0.671  11.959  0.2473 -0.6927 -0.3787
   53TMC2    C6  811   0.733   0.758  12.006  0.2574 -0.2197 -0.3948
   53TMC2     C  812   0.803   0.422  11.748 -0.1633  0.0023  0.2833
   53TMC2     O  813   0.919   0.384  11.737  0.2536 -0.0426  0.1759
   53TMC2     H  814   0.983   0.596  11.835 -0.3055  1.2802  0.8134
   53TMC2    H1  815   0.573   0.506  11.841  0.4275  0.7706 -2.5679
   53TMC2    H2  816   0.715   0.849  12.062  1.3453 -0.3751  0.2073
   53TMC2    C7  817   0.501   0.705  12.004 -0.1575  0.3879 -0.4234
   53TMC2    C8  818   0.969   0.794  12.007  0.0099  0.2610 -0.1958
   53TMC2    O1  819   0.410   0.658  11.940 -0.0398  0.2854 -0.4088
   53TMC2    O2  820   0.978   0.918  12.003 -0.3348 -0.6925 -0.5314
   53TMC2    O5  821   1.052   0.700  12.065 -0.5955  0.1903  0.1245
   53TMC2    H5  822   1.005   0.616  12.087 -0.4483  0.3669  1.0824
   54MPD2     C  823   0.793   0.164  11.593  0.2576  0.0237  0.2629
   54MPD2    C1  824   0.683   0.228  11.653  0.8100  0.0598 -0.3970
   54MPD2    C2  825   0.558   0.168  11.644  0.0536  0.2531  0.2522
   54MPD2    C3  826   0.556   0.036  11.591 -0.3712  0.3961  0.6713
   54MPD2    C4  827   0.669   4.702  11.540  0.0422 -0.2234  0.3242
   54MPD2    C5  828   0.788   0.035  11.543  0.2587  0.0790 -0.7834
   54MPD2     H  829   0.463   0.215  11.668  0.3690 -0.1927  2.4247
   54MPD2    H1  830   0.667   4.604  11.495  1.4275 -0.2404  0.2835
   54MPD2    H2  831   0.890   0.211  11.580  0.9535 -1.6815 -0.6899
   54MPD2    H3  832   0.870   4.716  11.489  0.1944 -2.4649  1.3396
   54MPD2     N  833   0.442   4.680  11.595 -0.1961 -0.0639  0.1463
   54MPD2    H5  834   0.447   4.591  11.545  2.1886  0.2168 -0.1060
   54MPD2    N1  835   0.689   0.354  11.719 -0.4158  0.2483  0.4492
   54MPD2    H7  836   0.602   0.391  11.757  0.0728 -1.1158  2.9193
   55MPD2     C  837   1.339   3.938   0.127  0.1674  0.3569  0.3122
   55MPD2    C1  838   1.327   3.830   0.212 -0.5080  0.1777 -0.3331
   55MPD2    C2  839   1.244   3.839   0.322 -0.6250  0.3732 -0.5705
   55MPD2    C3  840   1.176   3.952   0.350 -0.1848  0.4996 -0.6626
   55MPD2    C4  841   1.194   4.064   0.263 -0.1952  0.6704 -0.6612
   55MPD2    C5  842   1.275   4.058   0.153  0.4494 -0.4877  0.2937
   55MPD2     H  843   1.232   3.761   0.395  0.3199  0.3648 -0.4255
   55MPD2    H1  844   1.149   4.162   0.279  0.3170  0.6365  0.9646
   55MPD2    H2  845   1.410   3.926   0.046  1.8272  0.9360  1.6872
   55MPD2    H3  846   1.279   4.145   0.088 -0.3270 -0.2252  0.5950
   55MPD2     N  847   1.099   3.955   0.466  0.1906  0.4656 -0.3967
   55MPD2    H5  848   1.083   3.866   0.511 -0.9603 -0.1409 -2.0381
   55MPD2    N1  849   1.399   3.719   0.177  0.2203 -0.4833  0.3681
   55MPD2    H7  850   1.467   3.725   0.101 -0.0406 -1.5011  0.0625
   56TCq2    C1  851   1.395   3.590   0.236  0.5252  0.3913  0.3939
   56TCq2    O2  852   1.341   3.566   0.338 -0.2871 -0.3825 -0.1972
   56TCq2    C2  853   1.470   3.479   0.181 -0.3242 -0.2175  0.3384
   56TCq2    C3  854   1.498   3.485   0.044 -0.2843 -0.6062  0.1728
   56TCq2    C4  855   1.542   3.370  17.694 -0.5016 -0.2747  1.0721
   56TCq2    C5  856   1.566   3.257   0.050  0.2065  0.1685 -0.0299
   56TCq2    C6  857   1.551   3.256   0.190 -0.7014  0.7341 -0.4447
   56TCq2    C7  858   1.497   3.369   0.249 -0.5451  0.1041 -0.5411
   56TCq2    C8  859   1.524   3.128   0.253 -0.0948 -0.1335 -0.0525
   56TCq2    O4  860   1.604   3.037   0.229  0.0926 -0.1376 -0.2098
   56TCq2    C9  861   1.578   3.373  17.550  0.1476  0.3024 -0.2670
   56TCq2    O5  862   1.620   3.263  17.503 -0.2344 -0.0036  0.6911
   56TCq2    O6  863   1.537   3.470  17.484 -0.2938  0.0142 -0.1811
   56TCq2    H2  864   1.472   3.568  17.691 -1.1194 -1.0967 -0.1172
   56TCq2    H3  865   1.594   3.163   0.005 -0.5487 -0.4085  0.7075
   56TCq2    H4  866   1.475   3.365   0.356 -2.0069 -0.3379 -0.8553
   57TMC2    C1  867   0.606   4.344  13.798 -0.0143  0.0811  0.4360
   57TMC2    C2  868   0.640   4.230  13.866  0.0683 -0.1669  0.0336
   57TMC2    C3  869   0.757   4.170  13.839  0.4857 -0.1410  0.1469
   57TMC2    C4  870   0.676   4.384  13.689  0.2832  0.6989  0.3178
   57TMC2    C5  871   0.794   4.321  13.663  0.5991 -0.3957 -0.4862
   57TMC2    C6  872   0.840   4.218  13.743 -0.5530  0.3681  0.0238
   57TMC2     C  873   0.479   4.406  13.826  0.0107  0.1015  0.0669
   57TMC2     O  874   0.454   4.438  13.939  0.2576  0.2815 -0.3641
   57TMC2     H  875   0.559   4.183  13.920  1.1705 -1.9917  0.0951
   57TMC2    H1  876   0.636   4.470  13.635  0.1777 -0.5837 -1.6294
   57TMC2    H2  877   0.943   4.184  13.744 -0.7955 -0.3422  0.6386
   57TMC2    C7  878   0.883   4.357  13.561  0.0539 -0.1777  0.2024
   57TMC2    C8  879   0.809   4.072  13.926 -0.2703 -0.3703  0.0930
   57TMC2    O1  880   0.889   4.477  13.525 -0.1502 -0.0357  0.0922
   57TMC2    O2  881   0.903   3.999  13.892  0.3539  0.3176  0.2353
   57TMC2    O5  882   0.762   4.083  14.051 -0.3182 -0.3649 -0.5343
   57TMC2    H5  883   0.691   4.150  14.064 -0.6693 -0.8827  0.2095
   58MPD2     C  884   4.699   4.439  13.768  0.1470 -0.1042 -0.5856
   58MPD2    C1  885   0.052   4.476  13.875 -0.2064  0.6939 -0.0997
   58MPD2    C2  886   0.187   4.462  13.869  0.3615  0.0663 -0.1102
   58MPD2    C3  887   0.245   4.412  13.751 -0.1137  0.8399  0.8707
   58MPD2    C4  888   0.162   4.383  13.644  0.7073 -0.6946 -0.0682
   58MPD2    C5  889   0.026   4.386  13.657 -0.7479  0.3707  0.2338
   58MPD2     H  890   0.246   4.490  13.956  0.4206 -1.6547  0.3848
   58MPD2    H1  891   0.207   4.351  13.550  0.6033  1.5073 -0.8767
   58MPD2    H2  892   4.591   4.444  13.766  0.1658  1.4387  2.8756
   58MPD2    H3  893   4.691   4.349  13.577 -0.4385 -0.4838  0.3876
   58MPD2     N  894   0.383   4.383  13.735 -0.7120  0.0920 -0.2121
   58MPD2    H5  895   0.406   4.353  13.640 -2.2479 -3.2503  0.4513
   58MPD2    N1  896   4.726   4.538  13.994  0.0338 -0.0303  0.3071
   58MPD2    H7  897   0.067   4.576  14.059 -0.3275 -1.8236  1.7294
   59MPD2     C  898   2.893   4.340  13.398  0.2018 -0.2104 -0.0013
   59MPD2    C1  899   2.958   4.235  13.331 -0.1433 -0.7225  0.2095
   59MPD2    C2  900   3.093   4.203  13.358  0.3407 -0.1806 -1.0779
   59MPD2    C3  901   3.160   4.285  13.451  0.5824  0.4069 -0.7763
   59MPD2    C4  902   3.089   4.378  13.524  0.4313  0.0630 -0.1698
   59MPD2    C5  903   2.955   4.413  13.494 -0.1022 -0.3514 -0.0704
   59MPD2     H  904   3.139   4.118  13.309  0.1425 -0.1945 -1.2417
   59MPD2    H1  905   3.135   4.434  13.604 -1.9296 -0.8318  1.8123
   59MPD2    H2  906   2.787   4.358  13.383  0.2358  1.2741  1.5567
   59MPD2    H3  907   2.902   4.488  13.552  1.3798 -0.2261  1.1388
   59MPD2     N  908   3.298   4.281  13.463 -0.1683  0.1610 -0.8079
   59MPD2    H5  909   3.341   4.342  13.532 -1.8569 -1.4813  1.7080
   59MPD2    N1  910   2.887   4.164  13.233 -0.0502  0.3389  0.1193
   59MPD2    H7  911   2.935   4.093  13.180  2.0289  1.2622  0.7876
   60TCq2    C1  912   2.754   4.179  13.199  0.0142 -0.1632  0.6227
   60TCq2    O2  913   2.661   4.214  13.270  0.1661  0.1793  0.6717
   60TCq2    C2  914   2.728   4.102  13.085  0.1753  0.1677  0.3868
   60TCq2    C3  915   2.611   4.027  13.097 -0.3237  0.2074 -0.6977
   60TCq2    C4  916   2.558   3.974  12.989 -0.2339 -0.3707 -0.1044
   60TCq2    C5  917   2.596   4.004  12.868 -0.4095  0.1056  0.2873
   60TCq2    C6  918   2.711   4.082  12.851 -0.2322 -0.3641 -0.4575
   60TCq2    C7  919   2.777   4.139  12.962 -0.0697 -0.0932 -0.6408
   60TCq2    C8  920   2.767   4.098  12.718  0.6575  0.0864 -0.8609
   60TCq2    O4  921   2.742   4.011  12.634 -0.0926 -0.0110 -0.0759
   60TCq2    C9  922   2.443   3.884  13.010  0.0647  0.1908  0.0691
   60TCq2    O5  923   2.397   3.821  12.909 -0.6137  0.2881  0.4753
   60TCq2    O6  924   2.438   3.825  13.118  0.1485 -0.8214  0.5640
   60TCq2    H2  925   2.575   4.015  13.199 -0.1725  0.3760 -0.6255
   60TCq2    H3  926   2.544   3.963  12.782  1.4126 -2.0821  0.2151
   60TCq2    H4  927   2.865   4.199  12.943  1.2253 -1.5931  0.6065
   61MPD2     C  928   2.592   1.056  15.013 -0.2140 -0.5998 -0.3360
   61MPD2    C1  929   2.613   1.194  14.995 -0.6749 -0.1885 -0.4788
   61MPD2    C2  930   2.609   1.249  14.870  0.6786  0.3527  0.3601
   61MPD2    C3  931   2.571   1.169  14.764 -0.4874  0.7091 -0.2760
   61MPD2    C4  932   2.530   1.034  14.782 -0.1486 -1.0126  0.3543
   61MPD2    C5  933   2.546   0.978  14.910 -0.3362  0.1018  0.0545
   61MPD2     H  934   2.623   1.355  14.852 -0.3779  0.5703  0.8053
   61MPD2    H1  935   2.489   0.980  14.698 -2.0175  0.4031  0.3645
   61MPD2    H2  936   2.598   1.018  15.114 -1.9737 -0.4120 -0.1699
   61MPD2    H3  937   2.509   0.878  14.929 -1.2005  0.7429  1.6790
   61MPD2     N  938   2.566   1.213  14.630 -0.1271 -0.0291 -0.0547
   61MPD2    H5  939   2.520   1.153  14.563 -1.4999  0.1805  0.6923
   61MPD2    N1  940   2.625   1.287  15.101 -0.8375 -0.2904  0.2583
   61MPD2    H7  941   2.612   1.383  15.071  1.1325 -1.2238 -3.5771
   62TCq2    C1  942   2.654   1.277  15.235  0.2382  0.5942 -0.5975
   62TCq2    O2  943   2.667   1.169  15.294 -0.5665  0.5426 -1.2403
   62TCq2    C2  944   2.665   1.404  15.308 -0.1054 -0.4003 -0.1248
   62TCq2    C3  945   2.674   1.410  15.446 -0.4033  0.4343  0.6890
   62TCq2    C4  946   2.665   1.525  15.519 -0.2303 -0.5634 -0.6484
   62TCq2    C5  947   2.646   1.641  15.446 -0.2195  0.4646 -0.1511
   62TCq2    C6  948   2.650   1.635  15.310  0.0850  0.5876 -0.6580
   62TCq2    C7  949   2.661   1.520  15.235 -0.1793  0.1110  1.5975
   62TCq2    C8  950   2.672   1.763  15.247  0.2386  0.3036  0.2534
   62TCq2    O4  951   2.722   1.857  15.311 -0.3543 -0.0258  0.2133
   62TCq2    C9  952   2.665   1.526  15.662 -0.7945  0.1105 -0.0606
   62TCq2    O5  953   2.654   1.639  15.720 -0.1899  0.4276  0.5239
   62TCq2    O6  954   2.679   1.412  15.717  0.3061 -0.0771  0.0721
   62TCq2    H2  955   2.666   1.314  15.497  2.0994 -0.4345 -0.5263
   62TCq2    H3  956   2.641   1.736  15.497 -1.4735  0.3089  0.0344
   62TCq2    H4  957   2.695   1.517  15.132  0.5962  0.9487  1.8285
   63TMC2    C1  958   1.782   1.130  11.306 -0.1248 -0.1188  0.3679
   63TMC2    C2  959   1.882   1.188  11.383  0.5305  0.1068  0.5312
   63TMC2    C3  960   1.992   1.227  11.317  0.3981  0.0368  0.5423
   63TMC2    C4  961   1.799   1.104  11.173 -0.0057 -0.5397 -0.2581
   63TMC2    C5  962   1.920   1.132  11.118  0.5931  0.0878  0.1835
   63TMC2    C6  963   2.019   1.189  11.192  0.2090  0.4413  0.1653
   63TMC2     C  964   1.688   1.040  11.378  0.7098 -0.2546 -0.0542
   63TMC2     O  965   1.676   1.041  11.499  0.2329  0.9149 -0.0465
   63TMC2     H  966   1.864   1.204  11.489 -0.9473  0.6616  0.1907
   63TMC2    H1  967   1.717   1.071  11.110  0.2848 -1.2462 -0.2545
   63TMC2    H2  968   2.119   1.190  11.150  0.3905 -3.2412  0.4463
   63TMC2    C7  969   1.923   1.132  10.971 -0.5269  0.3783  0.4460
   63TMC2    C8  970   2.093   1.306  11.386 -0.4801  0.8727  0.2174
   63TMC2    O1  971   1.821   1.103  10.913 -0.2396  0.2743  0.3704
   63TMC2    O2  972   2.086   1.311  11.511  0.1623 -0.3316 -0.2828
   63TMC2    O5  973   2.122   1.409  11.311 -0.2774  0.0634 -0.8166
   63TMC2    H5  974   2.107   1.389  11.216  0.9105 -0.1047 -0.9695
   64MPD2     C  975   1.451   0.581  11.348  0.7149  0.1688 -0.2817
   64MPD2    C1  976   1.514   0.610  11.230 -0.6957  0.6800  0.3170
   64MPD2    C2  977   1.590   0.728  11.213 -0.1188  0.1151  0.1827
   64MPD2    C3  978   1.583   0.820  11.313  0.1540  0.0498 -0.3137
   64MPD2    C4  979   1.514   0.798  11.429 -0.0246  0.2899 -0.1202
   64MPD2    C5  980   1.453   0.678  11.452 -0.1516 -0.5300 -0.4224
   64MPD2     H  981   1.636   0.742  11.116 -0.3797 -0.0622  0.0318
   64MPD2    H1  982   1.517   0.869  11.510 -3.6129 -1.0294  1.1609
   64MPD2    H2  983   1.388   0.495  11.365  0.4222  0.8155  1.9075
   64MPD2    H3  984   1.384   0.667  11.535  1.5079 -2.9583  0.6362
   64MPD2     N  985   1.644   0.942  11.288 -0.8234 -0.3514  0.0695
   64MPD2    H5  986   1.682   0.948  11.194 -1.6702  1.5961 -0.1586
   64MPD2    N1  987   1.518   0.513  11.133 -0.2069  0.3999  0.0486
   64MPD2    H7  988   1.591   0.523  11.062 -0.7236  0.7279 -0.4370
   65MPD2     C  989   3.076   0.685  15.840  0.1923  0.3356 -0.4192
   65MPD2    C1  990   3.094   0.693  15.703 -0.0116 -0.0044  0.3314
   65MPD2    C2  991   3.048   0.586  15.631  0.5848 -0.6535 -0.0243
   65MPD2    C3  992   2.999   0.468  15.692  0.6279 -0.7072 -0.0777
   65MPD2    C4  993   3.005   0.450  15.826  0.0689  0.2602  0.4148
   65MPD2    C5  994   3.051   0.562  15.894 -0.3068  0.3925 -0.3464
   65MPD2     H  995   3.039   0.595  15.523  0.7928 -0.7548 -0.0516
   65MPD2    H1  996   2.983   0.358  15.879 -0.6409  1.2871  1.9303
   65MPD2    H2  997   3.115   0.763  15.905 -2.6960  1.4801 -0.0646
   65MPD2    H3  998   3.065   0.548  16.000  0.5140  2.0340 -0.2412
   65MPD2     N  999   2.943   0.358  15.624  0.3240  0.2765 -0.1416
   65MPD2    H5 1000   2.919   0.277  15.679  2.3881  0.2545  0.7379
   65MPD2    N1 1001   3.125   0.806  15.631  0.5409 -0.0572  0.3503
   65MPD2    H7 1002   3.142   0.794  15.531  0.7361  0.5355  0.3144
   66TCq2    C1 1003   3.161   0.928  15.691 -0.2611 -0.7484  0.2024
   66TCq2    O2 1004   3.114   0.972  15.794  0.2033 -0.0164 -0.3019
   66TCq2    C2 1005   3.233   1.018  15.596 -0.4220 -0.0621 -0.4875
   66TCq2    C3 1006   3.281   0.965  15.477 -0.5508  0.3318  0.3056
   66TCq2    C4 1007   3.317   1.055  15.383  0.6536 -0.8274 -0.3525
   66TCq2    C5 1008   3.294   1.193  15.408  0.3379 -0.6309  0.3844
   66TCq2    C6 1009   3.248   1.239  15.533  0.3063  0.6913 -0.2101
   66TCq2    C7 1010   3.209   1.149  15.628  0.0728 -0.1007 -0.4376
   66TCq2    C8 1011   3.232   1.388  15.545 -0.6577 -0.2114 -0.1896
   66TCq2    O4 1012   3.300   1.462  15.475  0.1534 -1.4852 -0.1259
   66TCq2    C9 1013   3.390   1.019  15.266  0.1045  0.2991 -0.2085
   66TCq2    O5 1014   3.414   1.113  15.179  0.2804 -0.6870  0.1314
   66TCq2    O6 1015   3.453   0.911  15.274 -0.3487 -0.7238  0.1919
   66TCq2    H2 1016   3.301   0.860  15.459 -0.0537  0.8458 -2.1646
   66TCq2    H3 1017   3.326   1.261  15.330  0.2802 -2.1121 -0.9507
   66TCq2    H4 1018   3.171   1.181  15.724  1.5291 -1.5941  0.6303
   67MPD2     C 1019   3.021   0.104  14.306  0.1507  0.6948  0.5155
   67MPD2    C1 1020   3.005   0.229  14.351  0.6372  0.1074  0.0771
   67MPD2    C2 1021   2.903   0.312  14.310 -0.0103 -0.3915 -0.2451
   67MPD2    C3 1022   2.815   0.263  14.210  0.2437 -1.1241 -0.0898
   67MPD2    C4 1023   2.822   0.131  14.172  0.4260  0.2709 -0.3561
   67MPD2    C5 1024   2.931   0.060  14.214  0.2320  0.2248 -0.1947
   67MPD2     H 1025   2.911   0.417  14.337 -0.6985 -0.9042  1.9442
   67MPD2    H1 1026   2.750   0.085  14.105  0.2797 -2.0150  1.3525
   67MPD2    H2 1027   3.107   0.045  14.333 -0.7633 -0.9188 -0.1158
   67MPD2    H3 1028   2.946   4.687  14.177 -0.1790 -0.1185  0.5775
   67MPD2     N 1029   2.710   0.342  14.157 -0.8281 -0.2612  0.2977
   67MPD2    H5 1030   2.640   0.298  14.097 -2.4084  2.4081  0.2048
   67MPD2    N1 1031   3.091   0.285  14.448  0.3207  0.3100  0.1241
   67MPD2    H7 1032   3.074   0.383  14.468  2.0999  0.2952  1.6910
   68TCq2    C1 1033   3.191   0.223  14.519 -0.1116  0.6179 -0.2285
   68TCq2    O2 1034   3.232   0.107  14.521 -0.6853  0.1319  0.1575
   68TCq2    C2 1035   3.253   0.318  14.610 -0.6688  0.4700  0.0689
   68TCq2    C3 1036   3.206   0.447  14.616  0.5967 -0.8517  0.9402
   68TCq2    C4 1037   3.247   0.524  14.722 -0.4474 -0.1024  0.3585
   68TCq2    C5 1038   3.334   0.478  14.819  0.6012  0.3512 -0.1285
   68TCq2    C6 1039   3.382   0.349  14.797 -0.3204  1.4110  0.1367
   68TCq2    C7 1040   3.335   0.270  14.702 -0.3491  0.9300  0.3926
   68TCq2    C8 1041   3.496   0.306  14.877 -0.1228 -0.5292  0.6242
   68TCq2    O4 1042   3.561   0.208  14.837 -0.4536 -0.0090  0.0077
   68TCq2    C9 1043   3.190   0.659  14.734  0.6873 -0.2833  0.7477
   68TCq2    O5 1044   3.210   0.724  14.845  0.7973  0.2919  0.0817
   68TCq2    O6 1045   3.117   0.705  14.646 -0.2833  0.0874  0.1226
   68TCq2    H2 1046   3.121   0.484  14.559  0.4589 -1.5320  0.7067
   68TCq2    H3 1047   3.366   0.554  14.888  0.9725  1.0010 -1.0095
   68TCq2    H4 1048   3.376   0.170  14.696 -0.7936  0.7780 -0.0703
   69TMC2    C1 1049   0.000   0.941  11.735  0.4762  0.7669 -0.4333
   69TMC2    C2 1050   4.606   0.977  11.690 -0.6127  0.9739 -0.4610
   69TMC2    C3 1051   4.563   0.913  11.581  0.0186  0.2764  0.0112
   69TMC2    C4 1052   0.072   0.837  11.685 -0.7400 -0.7310  0.2576
   69TMC2    C5 1053   0.037   0.796  11.558 -0.2196  0.1061 -0.3090
   69TMC2    C6 1054   4.645   0.834  11.501  0.1171  0.7952  0.5126
   69TMC2     C 1055   0.031   1.004  11.863 -0.2182 -0.7810  0.0941
   69TMC2     O 1056   4.665   1.035  11.933 -0.1215 -0.0926  0.0364
   69TMC2     H 1057   4.536   1.050  11.731  0.1745  0.9096  0.9758
   69TMC2    H1 1058   0.171   0.815  11.724 -0.8326  0.3467  1.0828
   69TMC2    H2 1059   4.605   0.799  11.407  0.5868  0.5436  0.4082
   69TMC2    C7 1060   0.145   0.717  11.499  0.1173  0.4904 -1.1180
   69TMC2    C8 1061   4.473   0.977  11.500 -0.4078  0.4825  0.9888
   69TMC2    O1 1062   0.232   0.672  11.571 -0.2112 -0.0819  0.8874
   69TMC2    O2 1063   4.363   0.996  11.551 -0.6307  0.2058  0.0713
   69TMC2    O5 1064   4.543   1.036  11.404 -0.1457  0.1206  0.1841
   69TMC2    H5 1065   4.640   1.028  11.404 -0.2361 -1.0593  3.0538
   70MPD2     C 1066   0.361   1.142  11.982 -0.4788  0.5665  0.1888
   70MPD2    C1 1067   0.225   1.102  11.993 -0.5336  0.4134  1.0840
   70MPD2    C2 1068   0.164   1.114  12.114 -0.4594  0.0274  0.4960
   70MPD2    C3 1069   0.224   1.181  12.217 -0.4749  0.2560 -0.3848
   70MPD2    C4 1070   0.353   1.231  12.206  0.0303  0.1154 -0.6460
   70MPD2    C5 1071   0.420   1.201  12.088  0.0851  0.1295  0.8654
   70MPD2     H 1072   0.066   1.068  12.121 -0.9578  0.9272 -0.6003
   70MPD2    H1 1073   0.412   1.269  12.289 -0.5776  0.6503 -0.4608
   70MPD2    H2 1074   0.421   1.113  11.897  0.9868 -0.3302  1.5243
   70MPD2    H3 1075   0.528   1.209  12.080  0.1372  0.1995  1.5984
   70MPD2     N 1076   0.162   1.181  12.346  0.4332  0.5912  0.2935
   70MPD2    H5 1077   0.231   1.204  12.417 -1.4973 -0.1808  2.4269
   70MPD2    N1 1078   0.166   1.035  11.882  0.5320  0.3082 -0.4616
   70MPD2    H7 1079   0.226   1.017  11.802  0.9959  1.6676 -0.4184
   71TMC2    C1 1080   2.709   1.310   1.375 -0.9781 -0.1368 -0.2095
   71TMC2    C2 1081   2.785   1.200   1.362 -0.4026  0.0055 -0.4889
   71TMC2    C3 1082   2.742   1.078   1.410  0.4508  0.6913 -0.8676
   71TMC2    C4 1083   2.581   1.299   1.410  0.1360 -0.0954 -0.0188
   71TMC2    C5 1084   2.540   1.178   1.463  0.2270 -0.1717 -0.4495
   71TMC2    C6 1085   2.614   1.067   1.465  0.4239  0.3271 -0.3288
   71TMC2     C 1086   2.750   1.434   1.311 -0.1325  0.0892  0.1398
   71TMC2     O 1087   2.677   1.530   1.318  0.0542  0.0154  0.1439
   71TMC2     H 1088   2.892   1.212   1.356 -0.3804  0.2217  0.2772
   71TMC2    H1 1089   2.510   1.380   1.398  2.1632  1.5216 -1.0929
   71TMC2    H2 1090   2.572   0.979   1.513 -1.6990  2.0209  0.9302
   71TMC2    C7 1091   2.401   1.153   1.500  0.1371  0.3995  0.0789
   71TMC2    C8 1092   2.830   0.968   1.421  0.3536  0.0598  0.3703
   71TMC2    O1 1093   2.354   1.042   1.492  0.3130 -0.1208  0.3204
   71TMC2    O2 1094   2.789   0.854   1.449 -0.3831  0.0523  0.5954
   71TMC2    O5 1095   2.944   0.990   1.352 -0.1098 -0.3771  0.0959
   71TMC2    H5 1096   2.959   1.077   1.308  1.2179 -0.7998 -0.2792
   72MPD2     C 1097   3.113   1.740   1.101  0.1740 -0.8920 -0.5302
   72MPD2    C1 1098   2.983   1.767   1.147 -0.6515  0.4353  0.1651
   72MPD2    C2 1099   2.908   1.672   1.206  0.2649 -0.2039  0.4401
   72MPD2    C3 1100   2.961   1.544   1.215 -0.7851  0.0159  0.1381
   72MPD2    C4 1101   3.088   1.512   1.167  0.1347 -0.1406  0.1066
   72MPD2    C5 1102   3.163   1.616   1.109  0.0250 -0.2480  0.2234
   72MPD2     H 1103   2.812   1.693   1.251  0.4759 -0.5512  1.0517
   72MPD2    H1 1104   3.138   1.416   1.167 -0.7266 -0.5793 -1.4288
   72MPD2    H2 1105   3.175   1.807   1.043 -1.8625  1.8490  0.4800
   72MPD2    H3 1106   3.265   1.597   1.077  0.1042  0.7054 -0.0891
   72MPD2     N 1107   2.884   1.435   1.266  0.3239 -0.0652  0.5699
   72MPD2    H5 1108   2.938   1.349   1.274 -0.8992 -0.8095  0.9788
   72MPD2    N1 1109   2.928   1.899   1.137  0.6060  0.0715  0.6597
   72MPD2    H7 1110   2.842   1.922   1.186 -0.5927  0.3494 -1.5598
   73TMC2    C1 1111   2.434   2.904  13.468  0.1305 -0.1060 -0.4844
   73TMC2    C2 1112   2.345   3.006  13.466 -0.2339  0.6345 -0.4389
   73TMC2    C3 1113   2.340   3.100  13.561  0.0829 -0.3510  0.3466
   73TMC2    C4 1114   2.530   2.896  13.560  0.4765  0.0151 -0.1855
   73TMC2    C5 1115   2.528   2.996  13.657 -0.0698  0.6362 -0.0139
   73TMC2    C6 1116   2.435   3.100  13.659 -0.5242 -0.5949  0.0771
   73TMC2     C 1117   2.462   2.867  13.334  0.2327  0.0697 -0.3067
   73TMC2     O 1118   2.450   2.952  13.251 -0.1670  0.3810 -0.1891
   73TMC2     H 1119   2.270   3.009  13.388  0.2411 -0.0231 -0.9227
   73TMC2    H1 1120   2.602   2.815  13.563  1.8527  1.2747  1.0774
   73TMC2    H2 1121   2.423   3.166  13.744 -0.9635  0.4624 -0.8155
   73TMC2    C7 1122   2.658   3.051  13.683 -0.5520 -0.1364 -0.2188
   73TMC2    C8 1123   2.225   3.185  13.572 -0.3469  0.1535  0.2128
   73TMC2    O1 1124   2.657   3.145  13.758  0.0060 -0.2859 -0.5186
   73TMC2    O2 1125   2.127   3.150  13.642 -0.3036  0.2726  0.0049
   73TMC2    O5 1126   2.231   3.265  13.466 -0.2618 -0.1233 -0.0618
   73TMC2    H5 1127   2.322   3.286  13.436  0.2689 -1.5847  0.5248
   74MPD2     C 1128   2.850   2.625  13.109  0.4088  0.5419  0.1375
   74MPD2    C1 1129   2.822   2.754  13.119 -0.2806 -0.0309 -0.4141
   74MPD2    C2 1130   2.700   2.794  13.175  0.9150  0.9346  0.0234
   74MPD2    C3 1131   2.615   2.702  13.242  0.2680  0.9033 -0.6255
   74MPD2    C4 1132   2.655   2.572  13.235  0.6104  0.2727  0.2408
   74MPD2    C5 1133   2.764   2.532  13.162  0.0772  0.3432 -0.2848
   74MPD2     H 1134   2.680   2.900  13.184 -2.5589  0.2489  0.5878
   74MPD2    H1 1135   2.602   2.494  13.289  2.8121 -1.7896 -0.5478
   74MPD2    H2 1136   2.937   2.591  13.053  0.2117  1.7442 -0.8894
   74MPD2    H3 1137   2.806   2.432  13.158 -0.5914  0.0978 -1.2642
   74MPD2     N 1138   2.517   2.741  13.336  0.9622  0.0297  0.0859
   74MPD2    H5 1139   2.479   2.681  13.409  0.2728 -1.1089 -1.2152
   74MPD2    N1 1140   2.919   2.833  13.061  0.5167  0.1356  0.3692
   74MPD2    H7 1141   3.002   2.792  13.020  0.2904  0.8314 -0.7844
   75TCq2    C1 1142   2.678   0.464  14.202 -0.1271  0.1885  0.0642
   75TCq2    O2 1143   2.722   0.530  14.297  0.1138  0.2546  0.2063
   75TCq2    C2 1144   2.568   0.526  14.126  0.1454  0.4813 -0.1329
   75TCq2    C3 1145   2.535   0.648  14.176 -0.7734 -0.1358 -0.2068
   75TCq2    C4 1146   2.420   0.704  14.123 -0.0142 -0.1266 -0.3611
   75TCq2    C5 1147   2.361   0.654  14.014 -0.0844 -0.4892  0.1668
   75TCq2    C6 1148   2.405   0.541  13.957  0.4615 -0.0841  0.2445
   75TCq2    C7 1149   2.506   0.469  14.015  0.4481 -0.2473 -0.1922
   75TCq2    C8 1150   2.352   0.504  13.822 -0.9846  0.6919  0.7527
   75TCq2    O4 1151   2.376   0.391  13.785 -0.7511  0.0288 -0.2196
   75TCq2    C9 1152   2.355   0.811  14.193  0.7762 -0.0404  0.8329
   75TCq2    O5 1153   2.239   0.846  14.152 -0.3493  0.3035 -0.2368
   75TCq2    O6 1154   2.411   0.844  14.305  0.6358  0.1549  0.4828
   75TCq2    H2 1155   2.565   0.678  14.276 -0.8830 -3.2616  0.7503
   75TCq2    H3 1156   2.269   0.707  13.991  0.1013 -0.3615 -0.2858
   75TCq2    H4 1157   2.549   0.386  13.961  1.4103  0.3119 -0.2838
   76MPD2     C 1158   1.267   0.567  11.753  0.0346  0.1349  0.6628
   76MPD2    C1 1159   1.253   0.483  11.646 -0.4499  0.5804  0.5369
   76MPD2    C2 1160   1.319   0.363  11.664  0.3201 -0.4286  0.5104
   76MPD2    C3 1161   1.389   0.325  11.777  0.8189 -0.3013  0.1495
   76MPD2    C4 1162   1.407   0.416  11.876  0.6319  0.0962 -0.4008
   76MPD2    C5 1163   1.354   0.540  11.855 -0.2931 -0.1618 -0.6206
   76MPD2     H 1164   1.304   0.297  11.579  1.3504 -2.1822  1.6950
   76MPD2    H1 1165   1.456   0.392  11.970 -0.6892 -1.6877 -0.1797
   76MPD2    H2 1166   1.217   0.662  11.764 -0.1040  0.2475 -0.8581
   76MPD2    H3 1167   1.366   0.608  11.938  1.2183  0.8979 -1.7068
   76MPD2     N 1168   1.450   0.196  11.787 -0.7386  0.4781 -0.8191
   76MPD2    H5 1169   1.523   0.190  11.857 -2.0256  0.0599  0.4864
   76MPD2    N1 1170   1.166   0.503  11.544  0.9321 -0.0273  0.3703
   76MPD2    H7 1171   1.148   0.424  11.483  0.6170  0.3625 -0.0363
   77TCq2    C1 1172   1.439   0.083  11.702 -0.1251 -0.3515 -0.4011
   77TCq2    O2 1173   1.392   0.074  11.591 -0.4554 -0.3117  0.6747
   77TCq2    C2 1174   1.470   4.690  11.781 -0.0924  0.1737  0.4088
   77TCq2    C3 1175   1.480   4.572  11.707  0.4358  0.4630 -0.3878
   77TCq2    C4 1176   1.479   4.455  11.778  0.5003  0.1820  0.0449
   77TCq2    C5 1177   1.457   4.451  11.909 -0.6191 -0.3846 -0.0234
   77TCq2    C6 1178   1.441   4.569  11.975  0.5892 -0.6099  0.8372
   77TCq2    C7 1179   1.455   4.694  11.915 -0.3548  0.1155  0.5692
   77TCq2    C8 1180   1.490   4.577  12.109  0.2793 -0.3220  0.0110
   77TCq2    O4 1181   1.484   4.465  12.167  0.2091 -0.6910 -0.6105
   77TCq2    C9 1182   1.476   4.334  11.707  0.0773  0.4473  0.1602
   77TCq2    O5 1183   1.534   4.332  11.601 -0.1937  0.5201  0.5035
   77TCq2    O6 1184   1.444   4.224  11.761 -0.4874 -0.1038 -0.1473
   77TCq2    H2 1185   1.470   4.560  11.600  0.8763  2.0484 -0.6024
   77TCq2    H3 1186   1.467   4.354  11.957 -0.9010  1.3655  3.5866
   77TCq2    H4 1187   1.430   0.055  11.973 -2.6009 -0.3137  0.2707
   78MPD1     C 1188   2.206   0.447   1.795 -0.1789 -0.3125  0.1092
   78MPD1    C1 1189   2.125   0.554   1.748 -0.2687 -0.0451 -0.3730
   78MPD1    C2 1190   2.175   0.685   1.762 -0.4611 -0.1718  0.4361
   78MPD1    C3 1191   2.298   0.704   1.820  0.5615  0.6570  0.6507
   78MPD1    C4 1192   2.376   0.599   1.864  1.1432 -0.2820  0.2541
   78MPD1    C5 1193   2.328   0.474   1.852 -0.1216  0.1813 -0.1840
   78MPD1     H 1194   2.113   0.766   1.727  0.5583  1.4255  2.3741
   78MPD1    H1 1195   2.466   0.610   1.922 -1.5418 -0.1340  4.4034
   78MPD1    H2 1196   2.159   0.350   1.786  1.0258 -0.5747 -3.4186
   78MPD1    H3 1197   2.382   0.396   1.905 -0.6552  1.6387  2.5153
   78MPD1     N 1198   2.350   0.834   1.843 -0.0712  0.5674  0.3978
   78MPD1    H5 1199   2.450   0.833   1.865  0.0775 -1.4159 -0.3935
   78MPD1    N1 1200   2.008   0.537   1.669 -0.2021 -0.1871  0.2201
   78MPD1    H6 1201   1.962   0.446   1.667 -2.1384  0.8230 -0.8663
   78MPD1    H7 1202   1.932   0.603   1.681  0.7803  0.3982  3.1336
   79TCq2    C1 1203   2.279   0.948   1.835 -0.1682  0.5012 -0.0649
   79TCq2    O2 1204   2.157   0.957   1.848 -0.5531 -0.2427 -0.4808
   79TCq2    C2 1205   2.359   1.064   1.850 -0.5497 -0.6464 -0.3072
   79TCq2    C3 1206   2.307   1.180   1.896 -0.4460 -0.3032  0.1690
   79TCq2    C4 1207   2.382   1.291   1.891  0.2099 -0.3022  0.4090
   79TCq2    C5 1208   2.516   1.286   1.864  0.0579 -0.2446  0.6968
   79TCq2    C6 1209   2.566   1.171   1.827  0.5756  0.2442 -0.0930
   79TCq2    C7 1210   2.491   1.056   1.812  0.5194  0.3967  0.1906
   79TCq2    C8 1211   2.712   1.167   1.791 -0.0586  0.6895 -0.0194
   79TCq2    O4 1212   2.757   1.273   1.749 -0.0248  0.0092  0.7188
   79TCq2    C9 1213   2.321   1.415   1.925 -0.0248  0.1175 -0.1182
   79TCq2    O5 1214   2.198   1.419   1.961  0.8922  0.2018 -0.0183
   79TCq2    O6 1215   2.396   1.515   1.905  0.0724 -0.2460 -0.0143
   79TCq2    H2 1216   2.203   1.185   1.927 -1.0171  0.1741 -1.8459
   79TCq2    H3 1217   2.569   1.380   1.869 -1.1118  0.5061 -1.0288
   79TCq2    H4 1218   2.529   0.964   1.769  0.1190  2.1319 -3.8682
   80MPD2     C 1219   0.227   0.637  12.680 -0.5195  0.2848 -0.8827
   80MPD2    C1 1220   0.209   0.560  12.564 -0.7158  0.1114 -0.1810
   80MPD2    C2 1221   0.086   0.531  12.526 -0.0304  0.1097  0.2282
   80MPD2    C3 1222   4.699   0.553  12.602  0.3085  0.4482  0.0858
   80MPD2    C4 1223   4.721   0.627  12.718  0.5779 -0.1746 -0.0287
   80MPD2    C5 1224   0.119   0.659  12.762 -0.2652  0.2514  0.0041
   80MPD2     H 1225   0.085   0.477  12.432 -1.0321  1.5127 -0.5610
   80MPD2    H1 1226   4.639   0.641  12.789 -1.0347 -1.8872 -1.5467
   80MPD2    H2 1227   0.328   0.663  12.710 -1.4637  0.3669  2.3092
   80MPD2    H3 1228   0.146   0.713  12.852  0.9889  1.0046 -0.8329
   80MPD2     N 1229   4.569   0.512  12.563 -0.2880  0.0010  0.0984
   80MPD2    H5 1230   4.492   0.561  12.608 -0.6909  1.3744 -2.0282
   80MPD2    N1 1231   0.312   0.515  12.480 -0.3444 -0.1343 -0.7908
   80MPD2    H7 1232   0.283   0.458  12.401  0.8303  0.7013 -1.8391
   81TCq2    C1 1233   0.445   0.558  12.488 -0.5126 -0.3533 -0.0055
   81TCq2    O2 1234   0.504   0.631  12.568 -0.2815  0.5327 -0.2199
   81TCq2    C2 1235   0.524   0.512  12.372  0.3702  0.2404  0.2914
   81TCq2    C3 1236   0.665   0.538  12.369 -0.4163 -0.7012  0.2948
   81TCq2    C4 1237   0.738   0.483  12.268 -0.1177 -0.3666  0.3431
   81TCq2    C5 1238   0.673   0.424  12.167  0.5733  0.2635  0.4293
   81TCq2    C6 1239   0.534   0.403  12.168 -0.0431  0.4143  0.1163
   81TCq2    C7 1240   0.463   0.435  12.273  0.0792 -0.1676 -0.5099
   81TCq2    C8 1241   0.495   0.291  12.087  0.1509 -0.6383 -0.2709
   81TCq2    O4 1242   0.569   0.279  11.989 -0.6294 -0.8422  0.5700
   81TCq2    C9 1243   0.887   0.486  12.277  0.1869 -0.4681  0.5282
   81TCq2    O5 1244   0.936   0.518  12.382 -0.1223  0.2118  0.3878
   81TCq2    O6 1245   0.948   0.472  12.167 -0.4027 -0.5186 -0.0848
   81TCq2    H2 1246   0.715   0.591  12.449 -0.2257 -1.7300  0.8640
   81TCq2    H3 1247   0.743   0.383  12.095  1.1980  2.9598 -0.4731
   81TCq2    H4 1248   0.356   0.420  12.267 -0.1014  1.2337 -0.6241
   82MPD2     C 1249   3.258   4.666  10.918 -0.1326 -0.3067 -0.6610
   82MPD2    C1 1250   3.292   4.566  10.829  0.2973  0.4958 -0.0036
   82MPD2    C2 1251   3.402   4.483  10.867  0.0369 -0.5221  0.4559
   82MPD2    C3 1252   3.472   4.499  10.989 -0.2208 -0.5462 -0.6529
   82MPD2    C4 1253   3.428   4.599  11.075 -0.7223 -0.1006  0.9629
   82MPD2    C5 1254   3.326   4.678  11.038 -0.5592  0.0251  0.0414
   82MPD2     H 1255   3.434   4.403  10.802 -0.6466 -0.7432  0.3917
   82MPD2    H1 1256   3.477   4.622  11.169  2.4051  1.1889 -0.9822
   82MPD2    H2 1257   3.188   0.013  10.884 -2.1051 -0.5626  2.9100
   82MPD2    H3 1258   3.314   0.037  11.102  1.2345 -1.7320  2.7851
   82MPD2     N 1259   3.554   4.405  11.044  0.1527  0.4574  0.4936
   82MPD2    H5 1260   3.557   4.389  11.144  1.0793  0.2458  0.4268
   82MPD2    N1 1261   3.222   4.545  10.712  0.2487  0.1066 -0.8121
   82MPD2    H7 1262   3.151   4.616  10.694 -0.3524 -0.3843 -0.3781
   83TCq2    C1 1263   3.625   4.317  10.970 -0.1486  0.0192 -0.0492
   83TCq2    O2 1264   3.657   4.327  10.850 -0.0225  0.4235  0.0213
   83TCq2    C2 1265   3.668   4.210  11.050  0.1685 -0.8777  0.1341
   83TCq2    C3 1266   3.787   4.154  11.008 -0.1674 -0.3338  0.3769
   83TCq2    C4 1267   3.806   4.016  11.018 -0.6958 -0.0861 -0.4806
   83TCq2    C5 1268   3.700   3.939  11.056 -0.6521 -0.2153 -0.3968
   83TCq2    C6 1269   3.585   3.999  11.090 -0.2173 -0.5514 -0.2267
   83TCq2    C7 1270   3.569   4.133  11.095  0.3773 -0.0678  0.4808
   83TCq2    C8 1271   3.487   3.927  11.166 -0.4060  0.1824  0.2472
   83TCq2    O4 1272   3.405   3.992  11.230  0.0010 -0.5356  0.5128
   83TCq2    C9 1273   3.929   3.954  10.979  0.0564 -0.2552  0.3996
   83TCq2    O5 1274   3.927   3.833  10.968  0.4108 -0.3224 -0.2206
   83TCq2    O6 1275   4.029   4.028  10.977 -0.0495  0.3783 -0.4506
   83TCq2    H2 1276   3.866   4.215  10.966 -1.0479 -1.2372 -2.5950
   83TCq2    H3 1277   3.709   3.831  11.054 -0.6642 -0.2536  1.6684
   83TCq2    H4 1278   3.483   4.188  11.129  0.8312  0.3489  0.9558
   84TCq2    C1 1279   0.094   3.075  10.184 -0.8155  1.1053  0.6163
   84TCq2    O2 1280   4.723   3.004  10.169 -0.3018  0.1297  0.8107
   84TCq2    C2 1281   0.120   3.139  10.316 -0.5903  0.1242  0.1836
   84TCq2    C3 1282   0.209   3.245  10.332 -0.2917  0.0758  0.0088
   84TCq2    C4 1283   0.224   3.300  10.456  0.0309  0.1358 -0.4312
   84TCq2    C5 1284   0.145   3.256  10.560  0.5757 -0.3289  0.0696
   84TCq2    C6 1285   0.066   3.144  10.547  0.4386  0.4349 -0.0617
   84TCq2    C7 1286   0.055   3.082  10.426  0.5837 -0.5223  0.1449
   84TCq2    C8 1287   4.698   3.105  10.647 -0.0232 -0.0756  0.3677
   84TCq2    O4 1288   4.649   2.991  10.657  0.1825  0.1455 -0.7869
   84TCq2    C9 1289   0.313   3.397  10.477  0.2953 -0.4798  0.1467
   84TCq2    O5 1290   0.348   3.470  10.383 -0.1157  0.4773 -0.2155
   84TCq2    O6 1291   0.346   3.423  10.597  0.0186  0.0718 -0.6403
   84TCq2    H2 1292   0.265   3.292  10.252 -0.2872 -0.4579 -0.3049
   84TCq2    H3 1293   0.160   3.315  10.649  0.7605  0.2299 -0.3311
   84TCq2    H4 1294   4.712   3.000  10.421  1.2816 -1.2314  2.0802
   85MPD2     C 1295   0.859   1.587  16.282 -0.2383  0.3559  0.0202
   85MPD2    C1 1296   0.757   1.608  16.185 -0.1070 -0.1900  0.2781
   85MPD2    C2 1297   0.781   1.704  16.092 -0.1696  0.3489  0.1508
   85MPD2    C3 1298   0.906   1.772  16.069  0.2263  1.1033  0.4804
   85MPD2    C4 1299   0.997   1.755  16.176  0.6335 -0.4054  0.0735
   85MPD2    C5 1300   0.970   1.660  16.279  0.6431 -0.5476 -0.2063
   85MPD2     H 1301   0.707   1.718  16.014 -2.8896  0.8533  2.8049
   85MPD2    H1 1302   1.089   1.811  16.182  1.6828 -2.2165  0.7714
   85MPD2    H2 1303   0.841   1.517  16.363  2.1294  0.2822  0.4781
   85MPD2    H3 1304   1.052   1.642  16.347 -0.0526 -1.0972  0.4881
   85MPD2     N 1305   0.919   1.856  15.958  0.4518 -0.3958 -0.1476
   85MPD2    H5 1306   0.838   1.880  15.901 -1.4882  0.0558  2.7880
   85MPD2    N1 1307   0.634   1.532  16.179  0.4024  0.0487 -0.0115
   85MPD2    H7 1308   0.586   1.527  16.090  0.8331  1.8086 -0.3311
   86TCq2    C1 1309   1.044   1.897  15.916 -0.2068  0.7607 -0.5984
   86TCq2    O2 1310   1.151   1.856  15.959  0.1701  0.0260 -0.1471
   86TCq2    C2 1311   1.038   1.978  15.791 -0.0292  0.1576 -0.1325
   86TCq2    C3 1312   0.937   2.067  15.761  0.3484  0.0359 -0.1024
   86TCq2    C4 1313   0.955   2.152  15.653 -0.7339  0.4929 -1.1515
   86TCq2    C5 1314   1.070   2.148  15.578 -0.4715 -0.3834  0.2597
   86TCq2    C6 1315   1.167   2.065  15.621 -0.0841  0.3202  0.2183
   86TCq2    C7 1316   1.159   1.983  15.728 -0.0111  0.0129  0.5954
   86TCq2    C8 1317   1.280   2.040  15.535  0.2025  0.1010  0.3947
   86TCq2    O4 1318   1.382   1.989  15.586  0.1177  0.0792  0.2126
   86TCq2    C9 1319   0.853   2.246  15.618  0.2031 -0.2304  0.0835
   86TCq2    O5 1320   0.750   2.238  15.689  0.2077  0.1741  0.2463
   86TCq2    O6 1321   0.871   2.324  15.520 -0.0480 -0.2354  0.0741
   86TCq2    H2 1322   0.854   2.065  15.831 -0.3510  0.0828 -0.9354
   86TCq2    H3 1323   1.060   2.213  15.492  0.8732 -1.4902 -0.7263
   86TCq2    H4 1324   1.246   1.921  15.747 -0.5200 -0.1734  2.3717
   87MPD2     C 1325   2.696   1.285   0.904 -0.1740 -0.4278 -0.0254
   87MPD2    C1 1326   2.619   1.203   0.984  0.6787 -0.2458 -0.1119
   87MPD2    C2 1327   2.511   1.264   1.046  0.1014  0.1184 -0.1170
   87MPD2    C3 1328   2.508   1.400   1.048  0.4618 -0.1561 -0.0344
   87MPD2    C4 1329   2.594   1.479   0.969  0.4058  0.0427 -0.5173
   87MPD2    C5 1330   2.693   1.415   0.903 -0.4148 -0.2667 -0.2141
   87MPD2     H 1331   2.440   1.202   1.099 -1.9114  1.6114 -1.0737
   87MPD2    H1 1332   2.580   1.587   0.968 -1.7182 -0.2088  2.4271
   87MPD2    H2 1333   2.770   1.237   0.842  0.7494  0.4310  0.4110
   87MPD2    H3 1334   2.745   1.472   0.827 -0.4218 -2.6576 -2.0241
   87MPD2     N 1335   2.400   1.472   1.106 -0.4307  0.1451  0.1528
   87MPD2    H5 1336   2.388   1.570   1.084  1.0299  0.2142 -0.3549
   87MPD2    N1 1337   2.646   1.063   0.989 -0.4777 -0.4730  0.0582
   87MPD2    H7 1338   2.733   1.038   0.943  1.1409 -0.0485  2.9203
   88TCq2    C1 1339   2.576   0.973   1.071 -0.5413  0.1419 -0.1457
   88TCq2    O2 1340   2.467   0.994   1.120 -0.3339  0.2461  0.2915
   88TCq2    C2 1341   2.628   0.838   1.090 -0.1625 -0.3624 -0.3066
   88TCq2    C3 1342   2.587   0.775   1.200 -0.1770 -0.2786 -0.5486
   88TCq2    C4 1343   2.616   0.645   1.217  0.4206 -0.2579 -0.6093
   88TCq2    C5 1344   2.682   0.574   1.121  0.8318  0.3858  0.3530
   88TCq2    C6 1345   2.713   0.631   1.005 -0.1001  0.2589  0.0522
   88TCq2    C7 1346   2.684   0.764   0.985 -0.1069 -0.1162 -0.4064
   88TCq2    C8 1347   2.813   0.578   0.914 -0.0205 -0.2625  0.5510
   88TCq2    O4 1348   2.823   0.626   0.805 -0.8084  0.5105 -0.4746
   88TCq2    C9 1349   2.576   0.582   1.343  1.0613  0.1697 -0.3192
   88TCq2    O5 1350   2.498   0.643   1.420  0.2924  0.0487 -0.2334
   88TCq2    O6 1351   2.658   0.490   1.371 -0.3641 -0.0424  0.3819
   88TCq2    H2 1352   2.533   0.825   1.279  2.6212 -1.3103  2.0473
   88TCq2    H3 1353   2.711   0.473   1.148  1.5199  0.4872 -0.0043
   88TCq2    H4 1354   2.710   0.807   0.889  2.9109  2.1233  1.4338
   89MPD2     C 1355   4.208   3.336   1.727 -0.0992 -0.0224  0.4851
   89MPD2    C1 1356   4.111   3.433   1.744 -0.5158 -0.3954 -0.1583
   89MPD2    C2 1357   4.153   3.566   1.725 -0.5529  0.0865 -0.3894
   89MPD2    C3 1358   4.283   3.597   1.688 -0.4321 -0.2586 -0.3079
   89MPD2    C4 1359   4.375   3.496   1.675  0.6223  0.0605  0.0785
   89MPD2    C5 1360   4.339   3.370   1.702 -0.4716 -0.5768 -0.6424
   89MPD2     H 1361   4.079   3.642   1.748 -0.8485  0.3677 -2.2569
   89MPD2    H1 1362   4.480   3.518   1.660  0.6159  0.6480  0.8854
   89MPD2    H2 1363   4.185   3.231   1.745  0.8818 -0.0292  1.6912
   89MPD2    H3 1364   4.419   3.299   1.686  1.1030  0.9467  0.4792
   89MPD2     N 1365   4.323   3.731   1.679 -0.0655 -0.2120  0.1463
   89MPD2    H5 1366   4.248   3.799   1.686  1.2334  1.5477 -2.9340
   89MPD2    N1 1367   3.975   3.411   1.776  0.0326 -0.0198  0.0711
   89MPD2    H7 1368   3.919   3.492   1.801 -1.7201 -1.6241  1.3347
   90TCq2    C1 1369   4.451   3.777   1.639 -1.0341  0.3425  0.4979
   90TCq2    O2 1370   4.542   3.717   1.592 -0.3695  0.6507  0.1863
   90TCq2    C2 1371   4.468   3.918   1.668 -0.5401 -0.9152  0.0058
   90TCq2    C3 1372   4.387   3.977   1.763  0.2212 -0.8502 -0.1532
   90TCq2    C4 1373   4.409   4.107   1.795  0.3287  1.2201  0.3273
   90TCq2    C5 1374   4.498   4.181   1.720  0.2497  0.4510 -0.1443
   90TCq2    C6 1375   4.578   4.119   1.625 -0.4757  0.1781  0.4008
   90TCq2    C7 1376   4.563   3.987   1.601 -0.3355 -0.1603 -0.0618
   90TCq2    C8 1377   4.685   4.201   1.556 -0.0784 -0.3312 -0.2488
   90TCq2    O4 1378   0.006   4.156   1.456  0.6611 -0.1268  0.3669
   90TCq2    C9 1379   4.334   4.164   1.903  0.0007  0.6285  0.5246
   90TCq2    O5 1380   4.258   4.080   1.962  0.0581 -0.2724  0.4827
   90TCq2    O6 1381   4.351   4.285   1.925 -0.3308  0.1891  0.2577
   90TCq2    H2 1382   4.324   3.913   1.824 -0.7511  1.5626  1.3624
   90TCq2    H3 1383   4.509   4.287   1.738  1.2842  0.5616 -1.3952
   90TCq2    H4 1384   4.627   3.944   1.525  0.7100  0.4622  0.4627
   91TMC2    C1 1385   1.041   2.532  16.463 -0.3624 -0.6914  0.3502
   91TMC2    C2 1386   1.100   2.566  16.344  0.7541  0.3603  0.1370
   91TMC2    C3 1387   1.010   2.615  16.251 -0.2579 -0.0575 -0.1964
   91TMC2    C4 1388   0.907   2.565  16.494  0.5692  0.0351 -0.3874
   91TMC2    C5 1389   0.829   2.626  16.404 -0.1980 -0.3156 -0.2336
   91TMC2    C6 1390   0.883   2.648  16.278 -0.1679  0.7727 -0.0225
   91TMC2     C 1391   1.119   2.519  16.588  0.0956 -0.5692 -0.5514
   91TMC2     O 1392   1.071   2.464  16.689 -0.0827 -0.7120  0.1422
   91TMC2     H 1393   1.199   2.541  16.309  0.0902  0.8253 -2.1084
   91TMC2    H1 1394   0.860   2.530  16.585 -1.5280 -0.3022 -1.6097
   91TMC2    H2 1395   0.829   2.693  16.195 -1.6625 -1.4274 -0.2665
   91TMC2    C7 1396   0.699   2.680  16.437 -0.7540  0.5262 -0.7328
   91TMC2    C8 1397   1.054   2.647  16.122  0.0668  0.8242  0.1762
   91TMC2    O1 1398   0.672   2.688  16.554  0.7623 -0.3948 -0.5421
   91TMC2    O2 1399   1.011   2.744  16.061  0.1667  0.1260 -0.3180
   91TMC2    O5 1400   1.128   2.545  16.077  0.1359  0.4744  0.1541
   91TMC2    H5 1401   1.139   2.463  16.130 -1.4375  1.1543  1.5587
   92MPD2     C 1402   1.352   2.484  16.769 -0.4571  0.8776  0.2205
   92MPD2    C1 1403   1.339   2.584  16.675 -1.0667 -0.4807 -0.0070
   92MPD2    C2 1404   1.448   2.667  16.659  0.4641  0.0521  0.0975
   92MPD2    C3 1405   1.559   2.661  16.738 -0.3393  1.0594 -0.2726
   92MPD2    C4 1406   1.565   2.566  16.838 -0.3457 -0.3625 -0.0974
   92MPD2    C5 1407   1.460   2.487  16.856  0.5925  1.2919  0.0776
   92MPD2     H 1408   1.440   2.746  16.585 -0.7816 -1.8182 -1.7403
   92MPD2    H1 1409   1.649   2.556  16.906 -0.0544  1.5877 -0.1642
   92MPD2    H2 1410   1.274   2.410  16.789 -0.3208  1.2675  2.1349
   92MPD2    H3 1411   1.469   2.413  16.935  0.0078 -0.9892 -2.0273
   92MPD2     N 1412   1.652   2.755  16.708  0.7570 -0.0781 -0.8230
   92MPD2    H5 1413   1.640   2.811  16.625  0.4603  2.4888  0.9664
   92MPD2    N1 1414   1.233   2.596  16.579  0.4105  0.0648  0.3079
   92MPD2    H7 1415   1.244   2.651  16.495  1.7240 -0.4617  0.1397
   93MPD2     C 1416   2.832   2.634  13.613  0.3253  0.8351  0.2268
   93MPD2    C1 1417   2.818   2.689  13.740  0.2234 -0.1996 -0.7937
   93MPD2    C2 1418   2.693   2.662  13.800 -0.5974 -0.4998  0.9458
   93MPD2    C3 1419   2.599   2.573  13.748 -0.3252  0.2903 -0.1539
   93MPD2    C4 1420   2.619   2.520  13.627 -0.6866 -0.5091  0.6003
   93MPD2    C5 1421   2.735   2.553  13.555 -0.7298 -0.8412  0.1218
   93MPD2     H 1422   2.674   2.699  13.900 -0.6426 -0.2159  0.8319
   93MPD2    H1 1423   2.538   2.473  13.572 -0.1527  0.9385 -1.4126
   93MPD2    H2 1424   2.922   2.641  13.552  0.8376 -0.8207  0.7648
   93MPD2    H3 1425   2.752   2.510  13.457 -2.2245 -1.3726  0.0961
   93MPD2     N 1426   2.464   2.554  13.796  0.8380  0.0019  0.7188
   93MPD2    H5 1427   2.411   2.489  13.739 -0.8247  0.8526  1.2806
   93MPD2    N1 1428   2.920   2.773  13.793  0.0087  0.3189 -0.5133
   93MPD2    H7 1429   2.902   2.826  13.878 -0.9982  3.4833 -2.6756
   94TCq2    C1 1430   3.045   2.785  13.728 -0.0751 -0.1099 -0.0652
   94TCq2    O2 1431   3.096   2.723  13.636  0.3078  0.1647 -0.5588
   94TCq2    C2 1432   3.128   2.881  13.795  0.0248  0.8434  0.0040
   94TCq2    C3 1433   3.069   2.972  13.885 -0.3169  0.8951 -0.2426
   94TCq2    C4 1434   3.150   3.071  13.936 -0.0715  0.3212 -0.3536
   94TCq2    C5 1435   3.282   3.070  13.916  0.0046  0.5194  0.3484
   94TCq2    C6 1436   3.334   2.976  13.831 -0.2117 -0.4847  0.4558
   94TCq2    C7 1437   3.262   2.889  13.760 -0.4397  0.4586  0.1357
   94TCq2    C8 1438   3.473   2.953  13.831  0.8281 -0.5287  0.0150
   94TCq2    O4 1439   3.520   2.882  13.741 -0.4146 -0.6888  0.3961
   94TCq2    C9 1440   3.081   3.164  14.021 -0.6011 -0.8344  0.3698
   94TCq2    O5 1441   3.158   3.256  14.059  0.2303 -0.3563  0.0797
   94TCq2    O6 1442   2.957   3.168  14.020  0.0733 -0.6479  0.4566
   94TCq2    H2 1443   2.965   2.995  13.902  0.6767  2.2840  3.9995
   94TCq2    H3 1444   3.345   3.149  13.953  2.3302 -1.6940  1.1061
   94TCq2    H4 1445   3.306   2.816  13.693 -1.0858 -0.7267  1.0102
   95TMC2    C1 1446   2.777   4.153  16.024  0.7014 -0.1698  0.3728
   95TMC2    C2 1447   2.866   4.050  16.016 -0.4280 -1.1502  0.2099
   95TMC2    C3 1448   2.896   3.991  16.141 -0.0613  0.1700 -0.7724
   95TMC2    C4 1449   2.717   4.202  16.135 -0.5566  0.3182  0.1462
   95TMC2    C5 1450   2.728   4.121  16.248 -0.5825  0.6576 -0.0271
   95TMC2    C6 1451   2.816   4.017  16.250  1.1156 -0.0796  0.1184
   95TMC2     C 1452   2.756   4.230  15.901 -0.2530 -0.4999 -0.2357
   95TMC2     O 1453   2.741   4.344  15.917  0.0057  0.1697 -0.4576
   95TMC2     H 1454   2.915   4.023  15.924  0.4964  2.0756 -0.2605
   95TMC2    H1 1455   2.651   4.288  16.130 -2.2374 -1.0511 -1.1290
   95TMC2    H2 1456   2.845   3.971  16.344 -0.6819  1.1858  1.2950
   95TMC2    C7 1457   2.631   4.131  16.358  0.0802  0.4753 -0.1864
   95TMC2    C8 1458   2.988   3.876  16.127  0.2794 -0.3375 -0.2696
   95TMC2    O1 1459   2.653   4.055  16.450  0.1624  0.3122  0.4084
   95TMC2    O2 1460   3.086   3.878  16.053 -0.3308  0.0331  0.2588
   95TMC2    O5 1461   2.908   3.769  16.138  0.1967 -0.0019 -0.2607
   95TMC2    H5 1462   2.818   3.794  16.166  0.7723  0.4230  1.1655
   96MPD2     C 1463   2.785   4.266  15.392 -0.0329  0.2914  0.1853
   96MPD2    C1 1464   2.779   4.370  15.482  0.1753 -0.2476  0.4285
   96MPD2    C2 1465   2.782   4.340  15.617  0.4102 -0.0062  0.2294
   96MPD2    C3 1466   2.778   4.203  15.653 -0.5681  0.1055  0.1393
   96MPD2    C4 1467   2.787   4.099  15.558 -0.5931 -0.7248 -0.5611
   96MPD2    C5 1468   2.796   4.133  15.429  0.3652 -1.5397  0.1026
   96MPD2     H 1469   2.777   4.416  15.695 -0.8087  1.1095 -0.9321
   96MPD2    H1 1470   2.794   3.995  15.589 -1.9020 -1.6155 -3.2707
   96MPD2    H2 1471   2.792   4.286  15.286 -2.3595  1.0347  0.1753
   96MPD2    H3 1472   2.816   4.047  15.365 -0.3804 -1.4365 -0.2676
   96MPD2     N 1473   2.770   4.154  15.788  0.7278  0.6130 -0.1549
   96MPD2    H5 1474   2.785   4.054  15.802 -1.4014  0.1251 -1.3775
   96MPD2    N1 1475   2.785   4.506  15.431 -0.0418 -0.0681 -0.5799
   96MPD2    H7 1476   2.776   4.515  15.330 -1.7970  1.0345 -0.3126
   97MPD2     C 1477   3.847   2.292   0.982 -0.1900  0.5546 -0.7333
   97MPD2    C1 1478   3.962   2.364   0.993 -0.3521 -0.4627  0.5403
   97MPD2    C2 1479   4.016   2.415   0.874 -0.3620 -0.5105  0.3016
   97MPD2    C3 1480   3.948   2.408   0.752 -0.6077 -0.2113  0.3037
   97MPD2    C4 1481   3.830   2.330   0.752 -0.3248  0.5618  0.1255
   97MPD2    C5 1482   3.789   2.269   0.867 -0.3542 -0.0464  0.4669
   97MPD2     H 1483   4.110   2.469   0.874 -0.5324 -0.2165 -0.8813
   97MPD2    H1 1484   3.768   2.319   0.664  0.7482 -1.2036 -0.4241
   97MPD2    H2 1485   3.802   2.245   1.069  0.7071  2.3182  0.6764
   97MPD2    H3 1486   3.701   2.207   0.861  0.1229 -0.5789 -1.0263
   97MPD2     N 1487   3.998   2.463   0.631  0.1711 -0.2238  0.7054
   97MPD2    H5 1488   3.942   2.461   0.546  0.9672 -1.6900  0.2117
   97MPD2    N1 1489   4.025   2.366   1.117 -0.1167 -0.1788  0.7026
   97MPD2    H7 1490   3.969   2.319   1.188  0.1245  0.3208  1.2236
   98TCq2    C1 1491   4.117   2.527   0.610 -0.0559  0.0735 -1.0934
   98TCq2    O2 1492   4.196   2.568   0.691 -0.4665  0.0056  0.3665
   98TCq2    C2 1493   4.144   2.561   0.471 -0.8819  0.6032 -0.0845
   98TCq2    C3 1494   4.073   2.500   0.369  0.3027  0.3322 -0.8238
   98TCq2    C4 1495   4.101   2.530   0.237 -0.2306 -0.1981  0.9160
   98TCq2    C5 1496   4.186   2.625   0.204  0.1048 -0.0517 -0.0388
   98TCq2    C6 1497   4.241   2.695   0.311 -0.7711 -0.9354  0.5696
   98TCq2    C7 1498   4.232   2.659   0.439 -0.4991 -0.9031 -0.6842
   98TCq2    C8 1499   4.341   2.805   0.287  0.3485  0.3622 -0.1237
   98TCq2    O4 1500   4.449   2.798   0.349  0.7456 -0.2451  0.0831
   98TCq2    C9 1501   4.048   2.444   0.131 -0.1439 -0.5118 -0.2266
   98TCq2    O5 1502   4.080   2.473   0.013  0.3564 -0.4270 -0.8828
   98TCq2    O6 1503   3.971   2.349   0.169  0.5418  0.1452  0.5780
   98TCq2    H2 1504   3.996   2.427   0.388 -0.4273  1.6650  1.3063
   98TCq2    H3 1505   4.203   2.661   0.103 -2.2106 -2.0133 -1.1374
   98TCq2    H4 1506   4.274   2.723   0.516  0.2903 -0.0218 -1.8587
   99MPD2     C 1507   3.464   4.701   2.152  0.5202 -0.8447 -0.0962
   99MPD2    C1 1508   3.323   4.699   2.130  0.5412  0.1235  0.2230
   99MPD2    C2 1509   3.278   4.652   2.006  0.4819  0.2686  0.0094
   99MPD2    C3 1510   3.359   4.568   1.929 -0.3919 -0.1135  0.0626
   99MPD2    C4 1511   3.490   4.565   1.954  0.0582  0.3249 -0.0621
   99MPD2    C5 1512   3.538   4.646   2.054 -0.3039  0.1106 -0.1261
   99MPD2     H 1513   3.174   4.674   1.983  0.7294 -0.3404 -1.6788
   99MPD2    H1 1514   3.558   4.505   1.895 -0.0713 -0.8464  0.9848
   99MPD2    H2 1515   3.515   0.006   2.242 -0.6615  1.5979 -0.3151
   99MPD2    H3 1516   3.646   4.639   2.060 -0.2467  0.1834 -1.1216
   99MPD2     N 1517   3.299   4.527   1.803  0.0364  0.0930 -0.9214
   99MPD2    H5 1518   3.211   4.572   1.783  1.3652  2.6252 -1.0054
   99MPD2    N1 1519   3.234   0.024   2.218  0.2931 -0.0933 -0.4418
   99MPD2    H7 1520   3.136   0.001   2.204 -0.2384 -0.2300  3.3851
  100TCq2    C1 1521   3.259   0.111   2.323 -0.8460 -0.2823  0.7033
  100TCq2    O2 1522   3.372   0.131   2.369  0.1252 -0.5790 -0.4666
  100TCq2    C2 1523   3.142   0.198   2.359 -0.6185  0.2690 -0.3672
  100TCq2    C3 1524   3.163   0.332   2.357  0.3767  0.7076 -0.3678
  100TCq2    C4 1525   3.052   0.418   2.365  0.2095  0.3582  0.4434
  100TCq2    C5 1526   2.927   0.360   2.367  0.2521  0.0593 -0.5864
  100TCq2    C6 1527   2.910   0.223   2.346  0.1594 -0.2014 -0.5568
  100TCq2    C7 1528   3.020   0.140   2.343  0.2550 -0.6827  0.2397
  100TCq2    C8 1529   2.783   0.163   2.372  0.5334 -0.2915 -0.1819
  100TCq2    O4 1530   2.703   0.213   2.456 -0.1701 -0.3811  0.0492
  100TCq2    C9 1531   3.069   0.560   2.395 -0.0246  0.3578 -0.8321
  100TCq2    O5 1532   2.961   0.616   2.420 -0.1937  0.2811  0.1356
  100TCq2    O6 1533   3.181   0.605   2.432 -0.3955 -0.6704 -0.2570
  100TCq2    H2 1534   3.262   0.376   2.363 -0.6052  2.8181  0.5746
  100TCq2    H3 1535   2.839   0.424   2.373  0.8556  0.5677  3.0207
  100TCq2    H4 1536   3.012   0.032   2.346  2.1717 -0.8740 -2.6687
  101MPD2     C 1537   3.845   4.699  12.804  0.1894  0.3721  0.3916
  101MPD2    C1 1538   3.811   0.054  12.912 -0.1298  0.2753  0.7336
  101MPD2    C2 1539   3.792   4.723  13.037  0.0096  0.2536 -0.1034
  101MPD2    C3 1540   3.795   4.583  13.047  0.0136 -0.7363 -0.0880
  101MPD2    C4 1541   3.832   4.504  12.938 -0.0833  0.8845  0.1901
  101MPD2    C5 1542   3.862   4.565  12.824  0.1730  0.1022 -0.2692
  101MPD2     H 1543   3.765   0.057  13.121  1.5565  2.7256 -1.4296
  101MPD2    H1 1544   3.867   4.402  12.948 -0.2716  0.8290  0.2810
  101MPD2    H2 1545   3.859   0.006  12.702 -0.8116 -0.0541  0.1034
  101MPD2    H3 1546   3.897   4.506  12.740  0.4906 -1.8786  1.2785
  101MPD2     N 1547   3.756   4.528  13.170  0.0342  0.1325 -0.1236
  101MPD2    H5 1548   3.747   4.599  13.242 -2.2705 -1.5731  1.2501
  101MPD2    N1 1549   3.804   0.192  12.879 -0.3793  0.5337  0.0546
  101MPD2    H7 1550   3.812   0.211  12.779  2.2608  0.7807  0.3199
  102TCq2    C1 1551   3.769   0.557  12.565  0.4022  0.5051  0.1741
  102TCq2    O2 1552   3.834   0.462  12.510  0.8928 -0.3000  0.4234
  102TCq2    C2 1553   3.726   0.546  12.703  0.0896  0.2133  0.1083
  102TCq2    C3 1554   3.654   0.649  12.765  0.9183  1.1892  0.1762
  102TCq2    C4 1555   3.624   0.635  12.895  0.2765 -0.1913 -0.0900
  102TCq2    C5 1556   3.663   0.519  12.965  0.0640 -0.1129 -0.2470
  102TCq2    C6 1557   3.735   0.421  12.896  0.2576 -0.4520 -0.3576
  102TCq2    C7 1558   3.769   0.440  12.770  0.1278  0.1910  0.1877
  102TCq2    C8 1559   3.755   0.287  12.963  0.1814 -0.2286  0.5955
  102TCq2    O4 1560   3.737   0.270  13.085  0.4097 -0.2363 -0.4251
  102TCq2    C9 1561   3.554   0.742  12.951  0.2463  0.1945 -0.4197
  102TCq2    O5 1562   3.506   0.827  12.867 -0.3544 -0.2623 -0.1827
  102TCq2    O6 1563   3.541   0.744  13.078  0.5499  0.5038  0.4880
  102TCq2    H2 1564   3.619   0.738  12.712 -1.6928 -0.1996 -0.3932
  102TCq2    H3 1565   3.639   0.498  13.069 -1.4531  1.0926 -0.3525
  102TCq2    H4 1566   3.831   0.367  12.717  1.4161  0.6541  1.0422
  103TMC2    C1 1567   1.952   0.444  12.391 -0.1158 -0.5729 -0.3960
  103TMC2    C2 1568   2.069   0.414  12.451 -0.4095  0.5957 -0.3993
  103TMC2    C3 1569   2.115   0.505  12.541  0.0818 -0.4289 -0.7224
  103TMC2    C4 1570   1.880   0.553  12.426  1.1134  0.6453  0.2546
  103TMC2    C5 1571   1.930   0.639  12.525 -0.5149 -0.4795  0.0397
  103TMC2    C6 1572   2.049   0.613  12.580  0.3628  0.1546 -0.4023
  103TMC2     C 1573   1.884   0.336  12.328 -0.2882 -0.9617 -0.0781
  103TMC2     O 1574   1.807   0.361  12.241 -0.1311  0.3025  0.3178
  103TMC2     H 1575   2.134   0.337  12.410 -0.6041 -0.1637  0.7084
  103TMC2    H1 1576   1.785   0.566  12.376 -0.4666 -0.4898  2.9694
  103TMC2    H2 1577   2.085   0.663  12.670 -1.0605 -0.5621  0.5710
  103TMC2    C7 1578   1.832   0.706  12.607 -0.0716 -0.1419  0.0125
  103TMC2    C8 1579   2.244   0.479  12.599  0.1530 -0.1296 -0.5050
  103TMC2    O1 1580   1.863   0.724  12.724 -0.1344 -0.1363 -0.5267
  103TMC2    O2 1581   2.299   0.370  12.592  0.1152 -0.0452  0.4603
  103TMC2    O5 1582   2.301   0.590  12.554  0.0989  0.6454 -0.1878
  103TMC2    H5 1583   2.238   0.661  12.529 -0.0755  0.8178  0.7483
  104MPD2     C 1584   1.851   4.725  12.462  0.0200  0.1857 -0.0220
  104MPD2    C1 1585   1.838   0.098  12.367 -0.2447 -0.3064 -0.5606
  104MPD2    C2 1586   1.750   0.070  12.269  0.0218  0.2246  0.1229
  104MPD2    C3 1587   1.674   4.684  12.256 -0.4275  0.5156 -0.0920
  104MPD2    C4 1588   1.680   4.596  12.357 -0.0400  0.3173  0.0460
  104MPD2    C5 1589   1.775   4.613  12.454 -0.3035  0.7861 -0.0132
  104MPD2     H 1590   1.748   0.148  12.194 -0.8827 -0.7323 -0.8532
  104MPD2    H1 1591   1.619   4.507  12.365 -2.1652  1.8195  0.6481
  104MPD2    H2 1592   1.934   0.005  12.531  1.8321 -0.0333 -2.1670
  104MPD2    H3 1593   1.787   4.539  12.532 -2.4206  0.8877  0.3922
  104MPD2     N 1594   1.579   4.683  12.142 -0.0687 -0.0943  0.3442
  104MPD2    H5 1595   1.596   0.032  12.078  0.1065  0.2106  0.7534
  104MPD2    N1 1596   1.903   0.217  12.394  0.0435 -0.2186 -0.1227
  104MPD2    H7 1597   1.969   0.227  12.471 -1.7318  2.0636  1.1091
  105MPD2     C 1598   3.792   0.014  17.448 -0.4384  0.1919  0.7603
  105MPD2    C1 1599   3.779   0.149  17.440 -0.0059 -0.4131  0.6823
  105MPD2    C2 1600   3.695   0.223  17.525 -0.0841  0.9784 -0.2484
  105MPD2    C3 1601   3.622   0.154  17.624 -0.3632  0.0064 -0.1201
  105MPD2    C4 1602   3.640   0.018  17.630  0.3664  0.1613  0.3398
  105MPD2    C5 1603   3.726   4.673  17.546 -0.3306 -0.5496  0.3963
  105MPD2     H 1604   3.686   0.331  17.522 -2.8888  0.7268 -0.8904
  105MPD2    H1 1605   3.595   4.688  17.709 -0.7505  1.9469  1.0113
  105MPD2    H2 1606   3.846   4.684  17.374 -0.9218 -1.2460  1.5381
  105MPD2    H3 1607   3.729   4.565  17.550  0.8718 -0.5345 -0.2238
  105MPD2     N 1608   3.544   0.234  17.712 -0.1216 -0.2190  0.0160
  105MPD2    H5 1609   3.556   0.335   0.002 -0.8785 -0.1437  0.8777
  105MPD2    N1 1610   3.859   0.223  17.343 -0.3136  0.2492 -0.1927
  105MPD2    H7 1611   3.913   0.167  17.278  0.9598  2.0322 -0.6620
  106TCq2    C1 1612   3.452   0.186   0.092  0.2107 -0.2374  0.4314
  106TCq2    O2 1613   3.405   0.075   0.109  0.2545 -0.6781 -0.3981
  106TCq2    C2 1614   3.399   0.289   0.177 -0.4002  1.1231 -0.2073
  106TCq2    C3 1615   3.434   0.417   0.156 -0.3530  0.4859 -0.0835
  106TCq2    C4 1616   3.405   0.513   0.249 -0.0308 -0.1477  0.1057
  106TCq2    C5 1617   3.339   0.484   0.358  0.3593 -0.6737  0.0650
  106TCq2    C6 1618   3.310   0.348   0.385 -0.4815 -0.1236 -0.3144
  106TCq2    C7 1619   3.343   0.253   0.292 -0.1849 -0.1256  0.2875
  106TCq2    C8 1620   3.300   0.301   0.524 -0.2565 -0.1871  0.2336
  106TCq2    O4 1621   3.353   0.193   0.549 -0.0276 -0.0630  0.2139
  106TCq2    C9 1622   3.443   0.656   0.221  0.2332  0.3725  0.1384
  106TCq2    O5 1623   3.423   0.743   0.312 -0.4912  0.4811 -0.9514
  106TCq2    O6 1624   3.546   0.660   0.149 -0.1013 -0.8415 -0.4077
  106TCq2    H2 1625   3.487   0.445   0.066  0.7118  0.5110  0.5614
  106TCq2    H3 1626   3.319   0.559   0.434 -2.5889 -0.2740 -1.0921
  106TCq2    H4 1627   3.336   0.147   0.313  0.0677 -0.0791  0.5883
  107TMC2    C1 1628   4.119   3.769  11.250  0.1843 -0.2065 -0.8147
  107TMC2    C2 1629   4.174   3.873  11.173 -0.7196 -0.6290  0.7029
  107TMC2    C3 1630   4.273   3.838  11.080 -0.2621 -0.8580 -0.2099
  107TMC2    C4 1631   4.169   3.641  11.243 -0.0094 -0.3589  0.2635
  107TMC2    C5 1632   4.270   3.614  11.160  0.2522  0.1734 -0.1739
  107TMC2    C6 1633   4.326   3.711  11.082 -0.0217  0.1855  0.6634
  107TMC2     C 1634   4.031   3.802  11.361 -0.2179  0.3602 -0.0993
  107TMC2     O 1635   4.001   3.709  11.438 -0.2701 -0.2811 -0.2627
  107TMC2     H 1636   4.151   3.977  11.193  0.8973 -0.5394  2.0643
  107TMC2    H1 1637   4.116   3.566  11.300 -1.5687  1.9582  1.8612
  107TMC2    H2 1638   4.424   3.710  11.036 -0.3509  1.7037 -0.1048
  107TMC2    C7 1639   4.318   3.472  11.155  0.4011 -0.8737  0.3028
  107TMC2    C8 1640   4.355   3.942  11.020  0.0168  0.1503  0.7128
  107TMC2    O1 1641   4.263   3.395  11.231  0.2713  0.3734 -0.4809
  107TMC2    O2 1642   4.474   3.934  11.003 -0.0960  0.5633  0.1213
  107TMC2    O5 1643   4.286   4.060  11.018  0.4099 -0.2308 -0.3646
  107TMC2    H5 1644   4.190   4.041  11.023 -0.1492  2.9062  0.9231
  108MPD2     C 1645   3.839   4.113  11.425 -0.2578 -0.4016  0.5963
  108MPD2    C1 1646   3.901   3.993  11.460  0.0523 -0.2628 -0.3029
  108MPD2    C2 1647   3.897   3.945  11.590  0.5197  0.3667  0.4488
  108MPD2    C3 1648   3.820   4.018  11.681 -0.3076 -0.7675  0.0663
  108MPD2    C4 1649   3.748   4.132  11.641  0.4008 -0.0593 -0.1443
  108MPD2    C5 1650   3.760   4.178  11.516  0.4204  0.4213 -0.1832
  108MPD2     H 1651   3.952   3.861  11.631  2.0044  0.7775 -0.7345
  108MPD2    H1 1652   3.699   4.195  11.715 -2.2974 -0.6744 -1.3861
  108MPD2    H2 1653   3.850   4.154  11.325  3.0652 -0.0877  1.0881
  108MPD2    H3 1654   3.713   4.273  11.493 -1.2008 -0.7602 -1.7706
  108MPD2     N 1655   3.813   3.992  11.818  0.0634 -0.1409 -0.2402
  108MPD2    H5 1656   3.735   4.028  11.872  0.3084  0.5245 -0.3165
  108MPD2    N1 1657   3.974   3.928  11.356  0.1467 -0.0138  0.2515
  108MPD2    H7 1658   3.982   3.975  11.266  0.4227  2.2672  1.4758
  109MPD2     C 1659   3.736   1.115   1.967 -0.6312  0.4283  0.0429
  109MPD2    C1 1660   3.716   1.237   1.912  1.0828 -0.3568 -0.4171
  109MPD2    C2 1661   3.805   1.337   1.952 -0.5220 -0.2348  0.5697
  109MPD2    C3 1662   3.916   1.306   2.031 -0.0180 -0.0419 -0.3551
  109MPD2    C4 1663   3.945   1.173   2.071  0.4418 -0.0845  0.4523
  109MPD2    C5 1664   3.854   1.079   2.040  1.0381  0.5438 -0.7173
  109MPD2     H 1665   3.814   1.437   1.911  0.9095 -1.3187 -1.7508
  109MPD2    H1 1666   4.040   1.139   2.110 -0.4036 -0.8123  1.8497
  109MPD2    H2 1667   3.672   1.029   1.954  2.0549 -1.0962 -3.1624
  109MPD2    H3 1668   3.884   0.978   2.067  0.4314  0.2687 -1.0700
  109MPD2     N 1669   3.994   1.416   2.072 -0.0665  0.4634 -0.6213
  109MPD2    H5 1670   3.963   1.508   2.040  0.3559  0.2794 -1.5757
  109MPD2    N1 1671   3.605   1.268   1.821 -0.0899  0.2016 -0.5193
  109MPD2    H7 1672   3.537   1.196   1.797 -0.4320  0.6279 -0.8391
  110TCq2    C1 1673   4.104   1.410   2.152 -0.0551 -0.1442  0.0605
  110TCq2    O2 1674   4.170   1.316   2.190 -0.0873  0.0368  0.2441
  110TCq2    C2 1675   4.152   1.548   2.171 -0.3027 -0.7231 -0.0856
  110TCq2    C3 1676   4.232   1.573   2.278  0.3525 -0.3630  0.4185
  110TCq2    C4 1677   4.308   1.686   2.276 -0.0519  0.7035 -0.4247
  110TCq2    C5 1678   4.286   1.783   2.177 -0.1699  0.4609 -0.1360
  110TCq2    C6 1679   4.196   1.752   2.070 -0.0596 -0.7256 -0.2191
  110TCq2    C7 1680   4.132   1.631   2.061  0.1660 -0.1724  0.1218
  110TCq2    C8 1681   4.164   1.864   1.982 -0.4837  0.1208  0.4236
  110TCq2    O4 1682   4.247   1.955   1.974  0.2946  0.4906 -0.6308
  110TCq2    C9 1683   4.391   1.713   2.388 -0.6749  0.4736 -0.4355
  110TCq2    O5 1684   4.432   1.830   2.401  0.8721 -0.7027  0.6636
  110TCq2    O6 1685   4.419   1.619   2.470  0.9654  0.2056 -0.3017
  110TCq2    H2 1686   4.237   1.506   2.363  1.5313  0.6896  1.1696
  110TCq2    H3 1687   4.323   1.885   2.182 -1.2563  0.8397  0.2009
  110TCq2    H4 1688   4.095   1.599   1.964 -0.6514 -2.8082  1.2839
  111TMC2    C1 1689   4.223   0.727  11.000 -0.2555  0.4231  0.3113
  111TMC2    C2 1690   4.324   0.747  10.914  0.6021 -0.2774  0.3430
  111TMC2    C3 1691   4.438   0.673  10.928 -0.0326 -0.2121 -0.2046
  111TMC2    C4 1692   4.238   0.650  11.112  0.1800 -0.6298 -0.0048
  111TMC2    C5 1693   4.364   0.597  11.139  0.2517  0.3944 -0.2556
  111TMC2    C6 1694   4.465   0.608  11.046  0.2766  0.2060  0.2190
  111TMC2     C 1695   4.091   0.787  10.969  0.0478  0.3279  0.4447
  111TMC2     O 1696   4.058   0.793  10.852 -0.2467  0.1439  0.3628
  111TMC2     H 1697   4.310   0.817  10.833 -1.0334 -0.5764  0.3634
  111TMC2    H1 1698   4.155   0.631  11.179 -0.3364  1.7118  0.0081
  111TMC2    H2 1699   4.562   0.573  11.079 -0.5842  0.2479  2.8512
  111TMC2    C7 1700   4.402   0.587  11.280 -0.1173  0.1646 -1.0867
  111TMC2    C8 1701   4.555   0.724  10.866  0.1488 -0.1884 -0.9273
  111TMC2    O1 1702   4.362   0.674  11.358 -0.9871 -0.5322 -0.7561
  111TMC2    O2 1703   4.662   0.717  10.923 -0.0782 -0.0028  0.2266
  111TMC2    O5 1704   4.529   0.744  10.739  0.0261 -0.5259  0.0324
  111TMC2    H5 1705   4.441   0.711  10.709  1.4736 -2.5541 -1.9573
  112MPD2     C 1706   3.640   0.975  11.145  0.1722 -0.3244  0.7627
  112MPD2    C1 1707   3.691   0.963  11.014 -0.1107  0.7445 -0.4026
  112MPD2    C2 1708   3.819   0.911  10.995 -0.0080 -0.3224 -0.0101
  112MPD2    C3 1709   3.898   0.873  11.105  0.6310 -0.2766  0.2149
  112MPD2    C4 1710   3.853   0.901  11.230  0.0703  0.1264  0.0983
  112MPD2    C5 1711   3.727   0.951  11.243  0.5449 -0.3041  0.4696
  112MPD2     H 1712   3.851   0.889  10.894 -0.2835  1.7371 -0.5545
  112MPD2    H1 1713   3.915   0.888  11.318  0.5970 -5.2093 -1.1068
  112MPD2    H2 1714   3.540   1.009  11.170  0.1624  0.2462 -0.0581
  112MPD2    H3 1715   3.693   0.968  11.345  3.4714  0.0330  1.3770
  112MPD2     N 1716   4.027   0.821  11.087 -0.3651 -0.5078 -0.6227
  112MPD2    H5 1717   4.070   0.807  11.178  1.2201  0.6120 -1.2091
  112MPD2    N1 1718   3.612   0.989  10.895  0.1772 -0.4703 -0.3858
  112MPD2    H7 1719   3.657   0.973  10.805 -0.8332 -2.7203 -0.5100
  113MPD2     C 1720   2.496   4.629   1.091  0.8072 -0.3311  0.4320
  113MPD2    C1 1721   2.415   4.553   1.172 -0.4346 -0.0331  0.0426
  113MPD2    C2 1722   2.304   4.500   1.113  0.4628 -0.0709  0.1794
  113MPD2    C3 1723   2.254   4.533   0.990  0.4395 -0.3626  0.1963
  113MPD2    C4 1724   2.321   4.628   0.921  0.7240  0.2210  0.3442
  113MPD2    C5 1725   2.439   4.670   0.973  0.4487 -0.0732  0.1567
  113MPD2     H 1726   2.245   4.431   1.174 -0.2688  0.2671 -0.1469
  113MPD2    H1 1727   2.286   4.668   0.826 -2.8426 -4.7473 -0.4197
  113MPD2    H2 1728   2.589   4.674   1.124  0.3595  0.8034  0.1443
  113MPD2    H3 1729   2.500   0.014   0.918 -1.6770  1.9339  0.4291
  113MPD2     N 1730   2.139   4.481   0.923  0.2416 -0.0341  0.3574
  113MPD2    H5 1731   2.135   4.506   0.825  3.6201  2.2750  0.8097
  113MPD2    N1 1732   2.435   4.543   1.312 -0.0686  0.3095  0.5408
  113MPD2    H7 1733   2.372   4.494   1.374  2.0346 -1.5152  1.2163
  114TCq2    C1 1734   2.053   4.382   0.975 -0.3959 -0.7265  0.9297
  114TCq2    O2 1735   2.042   4.342   1.087 -0.4697  0.4387  0.6538
  114TCq2    C2 1736   1.964   4.325   0.877 -0.5240 -0.5236  0.6573
  114TCq2    C3 1737   1.937   4.407   0.765  0.0944 -0.3686 -0.1223
  114TCq2    C4 1738   1.821   4.375   0.696  0.1169 -0.1655  0.2399
  114TCq2    C5 1739   1.744   4.269   0.728 -0.4483 -0.1371  0.2534
  114TCq2    C6 1740   1.779   4.196   0.838  0.0418  0.8293  0.5778
  114TCq2    C7 1741   1.886   4.224   0.923 -0.4979  0.1652  0.0319
  114TCq2    C8 1742   1.689   4.088   0.870  0.4644  0.3813 -0.3310
  114TCq2    O4 1743   1.634   4.039   0.775  0.3543 -0.1957 -0.5116
  114TCq2    C9 1744   1.789   4.457   0.582  0.0698 -0.2046 -0.1947
  114TCq2    O5 1745   1.706   4.410   0.499  0.3485  0.0695  0.3629
  114TCq2    O6 1746   1.819   4.578   0.601  0.0953 -0.4153  0.0504
  114TCq2    H2 1747   1.990   4.489   0.718  1.5105 -1.8414 -1.1203
  114TCq2    H3 1748   1.651   4.255   0.673  0.5202 -0.9701 -1.1428
  114TCq2    H4 1749   1.925   4.161   1.001 -1.3062 -0.1245  0.2014
  115TMC2    C1 1750   2.973   1.917   0.200  0.3921  0.2339  0.0730
  115TMC2    C2 1751   3.102   1.880   0.179  0.2858  0.6874  0.0204
  115TMC2    C3 1752   3.186   1.985   0.159  0.5437  0.3658  0.5458
  115TMC2    C4 1753   2.928   2.043   0.194 -0.3270 -0.3045 -0.5157
  115TMC2    C5 1754   3.011   2.136   0.154  0.0163 -0.4860  0.3643
  115TMC2    C6 1755   3.144   2.112   0.142 -0.4452 -0.7738  0.5459
  115TMC2     C 1756   2.883   1.806   0.178 -0.3203 -0.4238  0.1687
  115TMC2     O 1757   2.930   1.711   0.115  0.2590 -0.2235  0.3346
  115TMC2     H 1758   3.143   1.781   0.197 -0.5952  0.5918  1.4819
  115TMC2    H1 1759   2.822   2.061   0.181 -0.6269 -1.2807  0.5657
  115TMC2    H2 1760   3.224   2.184   0.125 -0.1932 -0.6103  2.3365
  115TMC2    C7 1761   2.989   2.277   0.179  0.2484 -0.8722 -0.0093
  115TMC2    C8 1762   3.325   1.957   0.158 -0.3655  0.1222 -0.1071
  115TMC2    O1 1763   2.904   2.305   0.263 -1.0052 -0.3900  0.4311
  115TMC2    O2 1764   3.399   2.052   0.144 -0.0600  0.0413 -0.3952
  115TMC2    O5 1765   3.340   1.834   0.104  0.6186 -0.2958  0.3427
  115TMC2    H5 1766   3.256   1.784   0.100  0.3497 -0.1227  3.5718
  116MPD2     C 1767   2.439   1.584   0.130 -0.3248 -0.1271  0.2754
  116MPD2    C1 1768   2.552   1.580   0.051 -0.3953 -0.0867 -0.2384
  116MPD2    C2 1769   2.659   1.647   0.093  0.5661 -0.4645  0.1634
  116MPD2    C3 1770   2.654   1.740   0.199  0.0994 -0.3491 -0.4331
  116MPD2    C4 1771   2.545   1.746   0.275  0.2300 -0.7048 -0.2493
  116MPD2    C5 1772   2.439   1.665   0.243 -0.3207 -0.2359 -0.1230
  116MPD2     H 1773   2.728   1.675   0.014  0.4546  1.6578  0.8232
  116MPD2    H1 1774   2.526   1.818   0.355 -0.7631 -1.2614  0.0184
  116MPD2    H2 1775   2.349   1.527   0.108 -0.0718 -0.5858  0.4119
  116MPD2    H3 1776   2.340   1.678   0.284  0.6409 -0.9789  2.4346
  116MPD2     N 1777   2.764   1.821   0.239  0.3770  0.0813  0.0286
  116MPD2    H5 1778   2.760   1.899   0.304  0.1758 -0.5407  0.7549
  116MPD2    N1 1779   2.549   1.510  17.635 -0.3407  0.0396 -0.4205
  116MPD2    H7 1780   2.459   1.480  17.598 -0.7570 -0.5925  1.1038
  117TMC2    C1 1781   1.880   3.209  13.880 -0.2089  0.2469 -0.0181
  117TMC2    C2 1782   1.955   3.100  13.921  0.0141 -0.8076  0.6227
  117TMC2    C3 1783   2.081   3.118  13.960 -0.3465 -0.7290  0.6091
  117TMC2    C4 1784   1.935   3.334  13.867 -0.2362 -0.3345 -0.0299
  117TMC2    C5 1785   2.066   3.341  13.881  0.1618 -0.5317 -0.8773
  117TMC2    C6 1786   2.136   3.238  13.941 -0.5478  0.3388 -0.4492
  117TMC2     C 1787   1.738   3.201  13.897  0.2604  0.5801  0.1555
  117TMC2     O 1788   1.706   3.096  13.948 -0.3723 -0.1430  0.1380
  117TMC2     H 1789   1.917   2.998  13.926 -0.1753 -0.8091 -0.8280
  117TMC2    H1 1790   1.875   3.416  13.829 -0.0149 -0.5740 -0.8917
  117TMC2    H2 1791   2.244   3.236  13.938 -0.5381 -0.0915  0.1457
  117TMC2    C7 1792   2.137   3.451  13.819 -0.2929 -0.2069 -0.2274
  117TMC2    C8 1793   2.169   3.007  13.977  0.4837  0.0799 -0.1569
  117TMC2    O1 1794   2.258   3.435  13.813 -0.6771 -0.1462  1.1273
  117TMC2    O2 1795   2.250   2.989  14.068  0.2363 -0.0051  0.1079
  117TMC2    O5 1796   2.204   2.978  13.845 -0.1797 -0.8972 -0.4510
  117TMC2    H5 1797   2.145   3.013  13.775 -0.8432  1.3219  1.2159
  118MPD2     C 1798   2.055   3.799  13.782 -0.0500  0.9747 -0.4441
  118MPD2    C1 1799   2.111   3.681  13.740  0.2486  0.3531  0.6064
  118MPD2    C2 1800   2.219   3.689  13.655 -0.6684 -0.3740 -0.3472
  118MPD2    C3 1801   2.274   3.811  13.614  0.3879  0.0798  0.7848
  118MPD2    C4 1802   2.209   3.925  13.647  0.4765  0.3745 -0.4218
  118MPD2    C5 1803   2.099   3.917  13.728 -0.6362  0.2360  0.0415
  118MPD2     H 1804   2.276   3.598  13.637  1.3630  1.3295 -2.5851
  118MPD2    H1 1805   2.238   4.022  13.610 -1.0203  0.9921  0.0043
  118MPD2    H2 1806   1.969   3.803  13.849 -1.4108 -3.3808 -1.9451
  118MPD2    H3 1807   2.043   4.006  13.756 -1.7732 -0.4254 -0.1303
  118MPD2     N 1808   2.400   3.828  13.548  0.0951  0.1191  0.1431
  118MPD2    H5 1809   2.425   3.926  13.539  0.3290  0.0233 -0.2065
  118MPD2    N1 1810   2.059   3.561  13.803  0.0275  0.3232 -0.1202
  118MPD2    H7 1811   1.981   3.570  13.868  1.1603 -0.5223  1.3656
  119MPD2     C 1812   4.461   0.292  13.728 -0.5422  0.3099 -0.0422
  119MPD2    C1 1813   4.492   0.164  13.779  0.1618  0.6435  0.0465
  119MPD2    C2 1814   4.489   0.052  13.702  0.9836 -0.1456  0.2330
  119MPD2    C3 1815   4.429   0.061  13.577 -0.2316  0.7948 -0.3088
  119MPD2    C4 1816   4.414   0.188  13.529  0.1442 -0.2197 -0.3501
  119MPD2    C5 1817   4.419   0.301  13.602 -0.2836  0.2778 -0.3425
  119MPD2     H 1818   4.522   4.683  13.737  1.4355  0.8984  2.6757
  119MPD2    H1 1819   4.373   0.206  13.430 -2.0015 -1.1540  0.3545
  119MPD2    H2 1820   4.473   0.381  13.789 -0.0847 -0.3604  0.8437
  119MPD2    H3 1821   4.397   0.396  13.554  1.3634  0.6044 -0.4494
  119MPD2     N 1822   4.412   4.680  13.490 -0.4183  0.0592  0.3315
  119MPD2    H5 1823   4.385   4.690  13.393 -2.7004  1.5198  1.1282
  119MPD2    N1 1824   4.534   0.142  13.911 -0.2178 -0.6952 -0.6865
  119MPD2    H7 1825   4.573   0.050  13.926 -2.0615 -1.2903  0.4362
  120TCq2    C1 1826   4.406   4.552  13.532 -0.2602  0.4498 -0.1045
  120TCq2    O2 1827   4.411   4.507  13.645  0.2558 -0.5124  0.6065
  120TCq2    C2 1828   4.348   4.464  13.431 -0.1472  0.5595  0.3656
  120TCq2    C3 1829   4.407   4.436  13.308  0.2825 -0.3105 -0.5512
  120TCq2    C4 1830   4.345   4.337  13.237 -0.2791 -0.6354 -0.1882
  120TCq2    C5 1831   4.239   4.263  13.285 -0.0219  0.2862  0.0510
  120TCq2    C6 1832   4.192   4.297  13.408 -0.4179 -0.6731 -0.0798
  120TCq2    C7 1833   4.248   4.392  13.487 -1.0834  0.5410  0.1774
  120TCq2    C8 1834   4.072   4.231  13.461  0.3589 -0.2366 -0.3343
  120TCq2    O4 1835   4.001   4.166  13.386 -0.3160 -0.6962 -0.2214
  120TCq2    C9 1836   4.401   4.301  13.108 -0.0697  0.1157 -0.2015
  120TCq2    O5 1837   4.349   4.210  13.044  0.3199 -0.0047  0.1235
  120TCq2    O6 1838   4.522   4.324  13.098  0.1819  0.2710 -0.3338
  120TCq2    H2 1839   4.494   4.484  13.264  1.4224 -0.7087  1.2717
  120TCq2    H3 1840   4.189   4.176  13.241  1.5683  0.3285 -1.8325
  120TCq2    H4 1841   4.213   4.422  13.585  0.7363  1.3621  0.5852
  121TMC2    C1 1842   1.496   1.416  14.203  0.4941  0.2204  0.9521
  121TMC2    C2 1843   1.529   1.326  14.297 -0.1622 -0.1685 -0.5406
  121TMC2    C3 1844   1.428   1.250  14.351 -0.3199  0.1401  0.0230
  121TMC2    C4 1845   1.367   1.457  14.178 -0.5514  0.1207  0.2445
  121TMC2    C5 1846   1.273   1.382  14.231  0.7749  0.6634 -0.1464
  121TMC2    C6 1847   1.301   1.273  14.314  0.1593 -0.2540  0.8048
  121TMC2     C 1848   1.605   1.489  14.158  0.3513  0.9664 -0.0016
  121TMC2     O 1849   1.715   1.450  14.198 -0.3222  0.5071  0.0139
  121TMC2     H 1850   1.632   1.299  14.320 -0.1994  0.5965  0.5424
  121TMC2    H1 1851   1.338   1.528  14.102 -3.8946  1.1028  2.4338
  121TMC2    H2 1852   1.224   1.221  14.369 -1.9837  2.5839  0.4857
  121TMC2    C7 1853   1.134   1.400  14.197 -0.0306 -0.0462 -0.3100
  121TMC2    C8 1854   1.469   1.112  14.382  0.7618  0.1196 -0.4490
  121TMC2    O1 1855   1.097   1.514  14.171 -0.6888 -0.5405 -0.6974
  121TMC2    O2 1856   1.576   1.060  14.350 -0.5305  0.2950  0.2295
  121TMC2    O5 1857   1.385   1.068  14.478 -0.0577  0.2508  0.6054
  121TMC2    H5 1858   1.318   1.130  14.512 -0.1234  0.2395  0.4948
  122MPD2     C 1859   1.779   1.704  14.102  0.1256 -0.2425  0.1164
  122MPD2    C1 1860   1.659   1.687  14.031 -0.2466  0.3757 -0.2091
  122MPD2    C2 1861   1.624   1.773  13.935  0.1300 -0.0209 -0.1701
  122MPD2    C3 1862   1.708   1.873  13.899  0.1104 -0.2091  0.6521
  122MPD2    C4 1863   1.815   1.902  13.981 -0.3048 -0.6453  0.8931
  122MPD2    C5 1864   1.857   1.811  14.075 -0.9229  0.1395  0.6915
  122MPD2     H 1865   1.530   1.753  13.883 -1.5711 -0.2125  2.9618
  122MPD2    H1 1866   1.896   1.966  13.949 -1.2964 -0.3822 -1.1208
  122MPD2    H2 1867   1.810   1.645  14.188 -1.7578 -0.7728  0.4344
  122MPD2    H3 1868   1.941   1.840  14.137 -1.0638  0.0969  0.9018
  122MPD2     N 1869   1.701   1.952  13.787  0.0095 -0.3148  0.0638
  122MPD2    H5 1870   1.768   2.029  13.791  0.8023 -1.0714  1.1926
  122MPD2    N1 1871   1.574   1.582  14.067 -0.0705 -0.2057  0.3399
  122MPD2    H7 1872   1.485   1.577  14.019  0.2076 -0.4359 -0.1536
  123MPD2     C 1873   3.684   3.134   9.522  0.5656  0.0112  0.7245
  123MPD2    C1 1874   3.770   3.208   9.590 -0.7798 -0.2421  0.4276
  123MPD2    C2 1875   3.899   3.234   9.545  0.3030  0.5040  0.4870
  123MPD2    C3 1876   3.936   3.182   9.421 -0.4216  0.3723 -0.0854
  123MPD2    C4 1877   3.851   3.100   9.352  0.6879  0.1647  0.3757
  123MPD2    C5 1878   3.731   3.071   9.406 -0.1630 -0.6381  0.3477
  123MPD2     H 1879   3.973   3.279   9.611  2.1471  1.1200 -2.0166
  123MPD2    H1 1880   3.885   3.044   9.267  0.1297  1.6589 -0.8385
  123MPD2    H2 1881   3.585   3.120   9.562 -0.0913 -1.9004 -1.5320
  123MPD2    H3 1882   3.661   3.008   9.353 -0.5704 -0.8868  1.1799
  123MPD2     N 1883   4.063   3.221   9.371 -0.6265  0.7651  0.0072
  123MPD2    H5 1884   4.114   3.288   9.428  0.0028 -1.0464  1.5810
  123MPD2    N1 1885   3.718   3.258   9.715 -0.3602 -0.2910  0.0607
  123MPD2    H7 1886   3.631   3.219   9.749 -0.5745  0.1679  0.0338
  124TCq2    C1 1887   4.128   3.158   9.268 -0.4331 -0.8516  0.5468
  124TCq2    O2 1888   4.093   3.097   9.167  0.0605 -0.2465  0.2684
  124TCq2    C2 1889   4.274   3.175   9.258 -0.6501  0.1605  0.6785
  124TCq2    C3 1890   4.338   3.184   9.140 -0.4279  0.2118  0.6662
  124TCq2    C4 1891   4.470   3.206   9.141  0.4334  0.8509  0.9420
  124TCq2    C5 1892   4.542   3.215   9.261 -0.3092 -0.1900 -0.1357
  124TCq2    C6 1893   4.468   3.218   9.375 -0.4679  0.4012 -0.6915
  124TCq2    C7 1894   4.332   3.193   9.381 -0.3290  0.1354 -0.3030
  124TCq2    C8 1895   4.524   3.257   9.499  0.0101 -0.8185  0.2225
  124TCq2    O4 1896   4.473   3.221   9.602  0.1058 -0.2387 -0.4478
  124TCq2    C9 1897   4.540   3.219   9.020 -0.8100  0.1011  0.0928
  124TCq2    O5 1898   4.471   3.196   8.916  0.0720 -0.0348 -0.6516
  124TCq2    O6 1899   4.664   3.256   9.026  0.3997  0.1548 -0.5951
  124TCq2    H2 1900   4.285   3.186   9.045 -1.5941 -1.6332  1.2899
  124TCq2    H3 1901   4.650   3.218   9.255 -0.3145 -0.7630 -0.5272
  124TCq2    H4 1902   4.279   3.204   9.476 -0.8810 -0.7901 -0.4931
  125TMC2    C1 1903   0.371   1.681   9.059 -0.2717  0.0706 -0.9816
  125TMC2    C2 1904   0.412   1.714   8.930 -0.3843  0.6063 -0.5204
  125TMC2    C3 1905   0.548   1.711   8.912 -0.1010  0.3207  0.0927
  125TMC2    C4 1906   0.452   1.639   9.164 -0.0228  0.1201  0.4518
  125TMC2    C5 1907   0.587   1.645   9.140  0.4193 -0.1512  0.5496
  125TMC2    C6 1908   0.639   1.679   9.018 -0.6336 -0.1505  0.0844
  125TMC2     C 1909   0.233   1.659   9.082  0.1613  0.4490  0.2544
  125TMC2     O 1910   0.183   1.663   9.194 -0.6941 -0.8661 -0.1463
  125TMC2     H 1911   0.350   1.755   8.851 -2.0806 -1.1995 -0.1354
  125TMC2    H1 1912   0.409   1.603   9.257 -0.7191  0.8044  0.3978
  125TMC2    H2 1913   0.746   1.674   9.006 -0.3799  1.3047  1.8932
  125TMC2    C7 1914   0.668   1.642   9.262 -0.1554 -0.1186  0.9950
  125TMC2    C8 1915   0.590   1.755   8.785  0.3534  0.6927 -0.5145
  125TMC2    O1 1916   0.616   1.686   9.364 -0.4575  0.0482  0.1596
  125TMC2    O2 1917   0.564   1.695   8.680 -0.7865 -0.0015 -0.2539
  125TMC2    O5 1918   0.706   1.819   8.809  0.3997  0.6877 -0.6736
  125TMC2    H5 1919   0.717   1.840   8.904 -1.1495  1.3383 -0.6362
  126MPD1     C 1920   4.490   1.637   8.880  0.2911 -0.0966 -0.5025
  126MPD1    C1 1921   4.585   1.601   8.775  0.2529 -0.1294 -0.2627
  126MPD1    C2 1922   4.720   1.603   8.816 -0.0368 -0.3444 -0.0388
  126MPD1    C3 1923   0.029   1.623   8.947 -0.5815  0.2013  0.7232
  126MPD1    C4 1924   4.660   1.646   9.043  0.4198  0.8537 -0.0565
  126MPD1    C5 1925   4.531   1.656   9.010 -0.2798 -0.2164 -0.0881
  126MPD1     H 1926   0.069   1.609   8.740 -0.0626  0.0438 -0.0344
  126MPD1    H1 1927   4.688   1.673   9.144 -2.2908  3.7054 -0.0709
  126MPD1    H2 1928   4.385   1.649   8.855  0.8994  3.2064 -1.4608
  126MPD1    H3 1929   4.453   1.686   9.080 -0.6724 -1.7365  0.1381
  126MPD1     N 1930   0.167   1.632   8.969 -0.6587 -0.5588  0.2970
  126MPD1    H5 1931   0.223   1.608   8.887  0.0545  0.6165  0.4434
  126MPD1    N1 1932   4.556   1.592   8.638  0.4312  0.1122 -0.1417
  126MPD1    H6 1933   4.612   1.528   8.582 -1.9176 -1.4622 -0.7155
  126MPD1    H7 1934   4.455   1.588   8.625  0.2933  0.1616  0.9589
  127MPD2     C 1935   1.321   0.493   9.868  0.7033  0.3985  0.3342
  127MPD2    C1 1936   1.367   0.451   9.987  0.4524 -0.1575 -0.3305
  127MPD2    C2 1937   1.500   0.480  10.024 -0.8994  0.1927  0.3578
  127MPD2    C3 1938   1.591   0.549   9.942 -0.9872 -0.3062 -0.8313
  127MPD2    C4 1939   1.542   0.582   9.816 -0.1429 -0.1573  0.1782
  127MPD2    C5 1940   1.411   0.552   9.781 -0.3623 -0.4584  0.1918
  127MPD2     H 1941   1.538   0.452  10.121 -2.3605  1.4176  1.2864
  127MPD2    H1 1942   1.610   0.621   9.741 -1.3931 -1.9736 -1.8863
  127MPD2    H2 1943   1.221   0.477   9.831  0.9371  1.0825 -0.5983
  127MPD2    H3 1944   1.385   0.561   9.676  0.4260 -0.2843  0.0080
  127MPD2     N 1945   1.717   0.592   9.977 -0.3043  0.4939  0.0827
  127MPD2    H5 1946   1.772   0.650   9.914 -0.2570  0.4229  0.0594
  127MPD2    N1 1947   1.276   0.380  10.063 -0.1673  0.1563  0.9517
  127MPD2    H7 1948   1.185   0.359  10.025  1.1462  0.0622 -2.1357
  128TCq2    C1 1949   1.298   0.357  10.199  0.0898  0.1039  0.2398
  128TCq2    O2 1950   1.374   0.403  10.283  0.4333 -0.7700  0.1910
  128TCq2    C2 1951   1.197   0.274  10.255 -1.1252  0.1127 -0.3739
  128TCq2    C3 1952   1.069   0.280  10.211  0.3373  0.2529 -0.1895
  128TCq2    C4 1953   0.982   0.189  10.268 -0.3228 -0.5128 -0.0425
  128TCq2    C5 1954   1.022   0.089  10.348  0.2845 -0.3549  0.4226
  128TCq2    C6 1955   1.152   0.091  10.396 -0.1205 -0.1376  1.3094
  128TCq2    C7 1956   1.241   0.189  10.351 -0.1980  0.1638 -0.0079
  128TCq2    C8 1957   1.223   4.715  10.462  0.3350 -0.1548  0.1429
  128TCq2    O4 1958   1.325   0.003  10.526  0.1784 -0.6851  0.1381
  128TCq2    C9 1959   0.844   0.191  10.223 -0.2180 -0.3498 -0.5592
  128TCq2    O5 1960   0.780   0.086  10.237 -0.0110 -0.2693  0.1091
  128TCq2    O6 1961   0.824   0.260  10.118 -0.0971  0.1646 -0.1417
  128TCq2    H2 1962   1.035   0.362  10.148 -1.2312 -0.4729 -0.2792
  128TCq2    H3 1963   0.943   0.019  10.370 -0.7865  0.2667 -1.4388
  128TCq2    H4 1964   1.346   0.171  10.367 -0.0802  1.3382  0.5475
  129MPD2     C 1965   4.080   2.090   0.707 -0.3747 -0.1709 -0.2448
  129MPD2    C1 1966   4.205   2.137   0.757  0.0298 -0.6312  0.8367
  129MPD2    C2 1967   4.293   2.214   0.682 -0.1327  0.1854  0.0453
  129MPD2    C3 1968   4.269   2.234   0.550  0.6384  0.1667  0.4090
  129MPD2    C4 1969   4.160   2.173   0.497 -0.0161  0.6480  0.0689
  129MPD2    C5 1970   4.070   2.106   0.573  0.4246 -0.4746  0.0517
  129MPD2     H 1971   4.386   2.253   0.720 -0.3417 -1.0016  1.7564
  129MPD2    H1 1972   4.134   2.182   0.393  0.0894  1.4592  0.1165
  129MPD2    H2 1973   4.004   2.037   0.761 -0.8544  1.5702  0.7975
  129MPD2    H3 1974   3.985   2.069   0.517  0.7895 -0.9945 -0.1677
  129MPD2     N 1975   4.368   2.299   0.477  0.5901  0.5564  0.1163
  129MPD2    H5 1976   4.449   2.324   0.533  1.2032 -2.8673  0.8031
  129MPD2    N1 1977   4.237   2.121   0.894 -0.4790 -0.2950  0.4981
  129MPD2    H7 1978   4.320   2.173   0.921  0.5471 -0.7341 -1.8095
  130TCq2    C1 1979   4.176   2.045   0.988  0.0669 -0.4035 -0.6606
  130TCq2    O2 1980   4.081   1.970   0.984  0.0342  0.0213  0.5258
  130TCq2    C2 1981   4.239   2.061   1.112 -1.0963 -0.2818  0.8639
  130TCq2    C3 1982   4.332   2.159   1.135  0.2687  0.3506  0.1325
  130TCq2    C4 1983   4.387   2.160   1.261  0.3366 -0.0026 -0.2685
  130TCq2    C5 1984   4.362   2.072   1.355  0.2347 -0.2527 -0.3691
  130TCq2    C6 1985   4.274   1.967   1.332  0.3072 -0.0682 -0.8198
  130TCq2    C7 1986   4.216   1.959   1.204 -0.4998  0.0363 -0.2676
  130TCq2    C8 1987   4.263   1.849   1.415 -0.1228  0.1725  0.0749
  130TCq2    O4 1988   4.181   1.761   1.379 -0.7713 -0.8004  0.2212
  130TCq2    C9 1989   4.476   2.266   1.299  0.3612  0.5646 -0.5057
  130TCq2    O5 1990   4.507   2.360   1.223 -0.1736 -0.7226 -0.3429
  130TCq2    O6 1991   4.536   2.252   1.408 -0.1116 -0.2550  0.1115
  130TCq2    H2 1992   4.354   2.248   1.076 -0.9469  0.9725  0.6050
  130TCq2    H3 1993   4.422   2.075   1.445  1.2902 -0.1316 -1.0805
  130TCq2    H4 1994   4.154   1.873   1.180 -2.0265  1.1220 -0.2787
  131MPD2     C 1995   3.497   4.151   9.555 -0.0467 -0.3640  0.5274
  131MPD2    C1 1996   3.610   4.124   9.624  0.4228  0.5380 -0.3240
  131MPD2    C2 1997   3.626   4.020   9.712 -0.3877  0.6810  0.1985
  131MPD2    C3 1998   3.520   3.937   9.735  0.9163 -0.2216 -0.5690
  131MPD2    C4 1999   3.408   3.945   9.655  0.1308 -0.3993 -0.5238
  131MPD2    C5 2000   3.396   4.056   9.569 -0.2423  0.8382  1.3317
  131MPD2     H 2001   3.717   4.009   9.770  0.7759 -1.0570 -1.9782
  131MPD2    H1 2002   3.314   3.893   9.667 -1.2946  1.5637 -3.1995
  131MPD2    H2 2003   3.490   4.227   9.479  0.3903 -0.0120  0.8361
  131MPD2    H3 2004   3.308   4.078   9.510 -0.9678 -1.7886  1.4595
  131MPD2     N 2005   3.548   3.817   9.817  0.3141  0.4994 -0.0043
  131MPD2    H5 2006   3.643   3.810   9.853  0.1475 -2.0117 -0.0607
  131MPD2    N1 2007   3.711   4.217   9.603 -0.7532  0.0224 -0.2541
  131MPD2    H7 2008   3.705   4.271   9.517 -2.0185  0.0949 -0.1253
  132TCq2    C1 2009   3.899   4.667   9.487 -0.3742  0.5919  0.0287
  132TCq2    O2 2010   3.786   4.657   9.440  0.5392 -0.3707 -0.0370
  132TCq2    C2 2011   3.949   4.565   9.577 -0.0179 -0.0449 -0.2721
  132TCq2    C3 2012   4.054   4.587   9.660 -0.3642  0.0912  0.1363
  132TCq2    C4 2013   4.086   4.483   9.745 -0.3713  0.9883  0.0235
  132TCq2    C5 2014   4.022   4.363   9.747  0.1106 -0.5085  0.1953
  132TCq2    C6 2015   3.910   4.346   9.665 -0.4164  0.1886  0.0836
  132TCq2    C7 2016   3.874   4.447   9.574  1.0321  0.0740 -0.3800
  132TCq2    C8 2017   3.831   4.223   9.675  0.0676 -0.0395 -0.3440
  132TCq2    O4 2018   3.876   4.154   9.768  0.1292 -0.7696 -0.1090
  132TCq2    C9 2019   4.182   4.508   9.848  0.3482  0.1798  0.3059
  132TCq2    O5 2020   4.233   4.403   9.897  0.1232  0.3273  0.8792
  132TCq2    O6 2021   4.222   4.623   9.866 -0.0992 -0.5435  0.0215
  132TCq2    H2 2022   4.097   4.685   9.674 -0.5063  0.5852 -2.9016
  132TCq2    H3 2023   4.035   4.290   9.827  0.3371  1.1635  1.6990
  132TCq2    H4 2024   3.778   4.443   9.525  1.1718  1.8650 -0.7845
  133MPD2     C 2025   2.901   1.220   8.940  0.0126 -0.0610 -0.4595
  133MPD2    C1 2026   3.029   1.206   8.993 -0.0394 -0.0159  0.1535
  133MPD2    C2 2027   3.115   1.106   8.952  0.5615  0.2079  0.0700
  133MPD2    C3 2028   3.058   1.012   8.865  0.3944 -0.0709 -0.0629
  133MPD2    C4 2029   2.925   1.015   8.830  0.5669 -0.0943  0.1174
  133MPD2    C5 2030   2.851   1.127   8.852  0.2857  0.4018  0.5062
  133MPD2     H 2031   3.214   1.092   8.995  0.8788 -0.4311 -0.8802
  133MPD2    H1 2032   2.887   0.937   8.764 -0.6930 -0.1905  0.9631
  133MPD2    H2 2033   2.842   1.303   8.975  1.6176  0.9300 -0.0950
  133MPD2    H3 2034   2.748   1.128   8.819 -0.1446  1.0026  1.8690
  133MPD2     N 2035   3.129   0.893   8.835  0.2166 -0.5450  0.0641
  133MPD2    H5 2036   3.081   0.824   8.777 -0.5962  1.5698 -1.8001
  133MPD2    N1 2037   3.063   1.315   9.085 -0.4103  0.3816  0.0384
  133MPD2    H7 2038   2.988   1.383   9.097  0.0839  0.9895 -0.3034
  134TCq2    C1 2039   3.185   1.332   9.143  0.0967 -0.4140  0.7471
  134TCq2    O2 2040   3.284   1.258   9.142 -0.2311 -0.1041 -0.1788
  134TCq2    C2 2041   3.182   1.442   9.242 -0.4584 -0.1020  0.4672
  134TCq2    C3 2042   3.088   1.542   9.225 -0.2946  0.5329 -0.5715
  134TCq2    C4 2043   3.088   1.647   9.305 -0.5575  0.2298  0.8722
  134TCq2    C5 2044   3.182   1.658   9.404 -0.8513 -0.6533  0.3076
  134TCq2    C6 2045   3.275   1.558   9.418 -0.0418 -0.0836 -0.2487
  134TCq2    C7 2046   3.273   1.451   9.336  0.2884 -0.5959 -0.2848
  134TCq2    C8 2047   3.360   1.548   9.537 -0.0435  0.6210  0.5168
  134TCq2    O4 2048   3.447   1.463   9.548  0.3236  0.1326  0.1883
  134TCq2    C9 2049   2.994   1.752   9.278  0.5703 -0.2387 -0.5061
  134TCq2    O5 2050   2.909   1.731   9.185  0.1127  0.2507 -0.0858
  134TCq2    O6 2051   2.995   1.858   9.348 -0.1296 -0.5295 -0.3568
  134TCq2    H2 2052   3.018   1.549   9.142 -0.0280  0.2408 -0.8249
  134TCq2    H3 2053   3.186   1.749   9.464  1.0893  0.5928 -1.7482
  134TCq2    H4 2054   3.346   1.373   9.355  1.1626  0.0870 -0.8073
  135MPD2     C 2055   1.353   1.765   9.663  0.2731 -0.2353  0.3927
  135MPD2    C1 2056   1.327   1.786   9.527  0.1938  0.3831 -0.5615
  135MPD2    C2 2057   1.414   1.750   9.428  0.0622 -0.8270 -0.2825
  135MPD2    C3 2058   1.539   1.702   9.466 -0.0794 -0.5629  0.2652
  135MPD2    C4 2059   1.573   1.685   9.602  0.5990 -0.1970  0.4852
  135MPD2    C5 2060   1.474   1.710   9.693  0.1095  0.1861  0.1755
  135MPD2     H 2061   1.396   1.758   9.321  0.6764  2.0692 -0.1523
  135MPD2    H1 2062   1.672   1.654   9.633 -0.0696 -2.0334  0.7674
  135MPD2    H2 2063   1.279   1.808   9.731 -0.8749  0.3994 -1.2603
  135MPD2    H3 2064   1.492   1.675   9.794  0.8043  0.3407  0.0985
  135MPD2     N 2065   1.644   1.664   9.379 -0.2374 -0.0610  0.3082
  135MPD2    H5 2066   1.732   1.626   9.412 -0.0950  1.7967  2.0935
  135MPD2    N1 2067   1.209   1.843   9.475 -0.1209  0.4537  0.2664
  135MPD2    H7 2068   1.209   1.843   9.374  0.2339  0.9177  0.2646
  136TCq2    C1 2069   1.107   1.896   9.541 -0.7002  0.3606 -0.0958
  136TCq2    O2 2070   1.078   1.903   9.660 -0.1396  0.4316 -0.2792
  136TCq2    C2 2071   0.998   1.928   9.447  0.3913 -0.0658 -0.1214
  136TCq2    C3 2072   0.996   1.896   9.316  0.0508  1.2785  0.6653
  136TCq2    C4 2073   0.885   1.923   9.242  0.0848  0.5018 -0.2149
  136TCq2    C5 2074   0.765   1.963   9.296 -0.2688  0.5625  0.2589
  136TCq2    C6 2075   0.768   1.983   9.433 -0.0501  0.3307 -0.4070
  136TCq2    C7 2076   0.884   1.971   9.507  0.3192  0.0336  0.3778
  136TCq2    C8 2077   0.642   2.026   9.495 -0.6517 -0.2958  0.0913
  136TCq2    O4 2078   0.641   2.070   9.610  0.2995  0.7195 -0.1093
  136TCq2    C9 2079   0.889   1.904   9.098  0.2973  0.8243  0.6969
  136TCq2    O5 2080   0.784   1.932   9.028  0.1521  0.2904  0.1868
  136TCq2    O6 2081   0.968   1.818   9.060 -0.4593  0.1648  0.1959
  136TCq2    H2 2082   1.085   1.876   9.257 -1.2327 -1.0975 -0.4346
  136TCq2    H3 2083   0.676   1.966   9.235 -0.6873  0.8379  0.8864
  136TCq2    H4 2084   0.871   1.988   9.614 -2.4571  1.1475 -0.1637
  137MPD2     C 2085   1.296   0.611   9.023  0.9936  0.0817 -0.4134
  137MPD2    C1 2086   1.165   0.651   8.995 -0.5694 -0.1637 -0.3302
  137MPD2    C2 2087   1.119   0.775   9.046  0.4139 -0.3565 -0.1537
  137MPD2    C3 2088   1.191   0.842   9.132  0.2811 -0.4295 -0.6418
  137MPD2    C4 2089   1.325   0.812   9.160 -0.4341  0.8459  0.5464
  137MPD2    C5 2090   1.377   0.694   9.103 -0.2273  0.2618 -0.0363
  137MPD2     H 2091   1.025   0.803   8.999  0.9018 -0.6227 -1.2914
  137MPD2    H1 2092   1.380   0.879   9.225 -0.6914  1.9915 -0.4067
  137MPD2    H2 2093   1.339   0.516   8.993  0.0979 -0.7757  1.0060
  137MPD2    H3 2094   1.476   0.661   9.133  0.1963  0.8203 -0.8001
  137MPD2     N 2095   1.120   0.949   9.191 -0.9363  0.7136 -0.7031
  137MPD2    H5 2096   1.030   0.976   9.150 -0.1739 -0.1300 -2.9437
  137MPD2    N1 2097   1.086   0.557   8.928 -0.3694  0.3555 -1.4117
  137MPD2    H7 2098   1.130   0.468   8.907 -0.9443 -0.4056  0.5771
  138TCq2    C1 2099   0.946   0.568   8.915  0.0292 -0.0244 -0.1229
  138TCq2    O2 2100   0.864   0.639   8.961  0.4244 -0.2159  0.1487
  138TCq2    C2 2101   0.893   0.452   8.839  0.6648  0.3137 -0.3372
  138TCq2    C3 2102   0.983   0.375   8.760 -0.4330 -0.1371 -0.6718
  138TCq2    C4 2103   0.943   0.254   8.726  0.0464 -0.4011 -0.0551
  138TCq2    C5 2104   0.830   0.192   8.770  0.2749 -0.3510  0.3856
  138TCq2    C6 2105   0.744   0.264   8.847 -0.4995  0.9242  0.7850
  138TCq2    C7 2106   0.778   0.395   8.892 -0.3509 -0.7950 -0.0483
  138TCq2    C8 2107   0.654   0.190   8.934  0.0628 -0.2381  0.0155
  138TCq2    O4 2108   0.673   0.072   8.946 -0.1374 -0.1471  1.1124
  138TCq2    C9 2109   1.050   0.172   8.670  0.3297  0.2121 -0.2887
  138TCq2    O5 2110   1.015   0.065   8.620 -0.4995 -0.6892  0.9468
  138TCq2    O6 2111   1.169   0.222   8.671  0.4031 -0.1937  0.2754
  138TCq2    H2 2112   1.074   0.413   8.714 -0.6603 -1.9378 -2.6369
  138TCq2    H3 2113   0.824   0.085   8.757  1.8350 -0.7599  3.2547
  138TCq2    H4 2114   0.723   0.441   8.974 -1.0930 -0.4966 -0.7158
  139TMC2    C1 2115   1.605   4.315  13.548 -0.1522 -0.0380 -0.4919
  139TMC2    C2 2116   1.666   4.408  13.476  1.2600  0.4168 -0.1146
  139TMC2    C3 2117   1.637   4.538  13.493 -0.0261  0.1556 -0.0236
  139TMC2    C4 2118   1.525   4.344  13.654  0.0281  1.2135  0.2910
  139TMC2    C5 2119   1.501   4.482  13.682  0.0394 -0.3453 -0.3119
  139TMC2    C6 2120   1.570   4.576  13.605 -0.2104  0.6658  0.4276
  139TMC2     C 2121   1.654   4.187  13.534 -0.3487 -0.2788 -0.5493
  139TMC2     O 2122   1.728   4.165  13.440  0.4712  0.1677  0.2700
  139TMC2     H 2123   1.742   4.390  13.401  1.8650 -1.2910  0.8908
  139TMC2    H1 2124   1.480   4.266  13.715 -1.3079  1.7320 -0.0206
  139TMC2    H2 2125   1.556   4.683  13.617 -0.3372  0.8632 -1.4678
  139TMC2    C7 2126   1.372   4.520  13.735  0.0030 -0.8009 -0.4047
  139TMC2    C8 2127   1.729   4.634  13.432 -0.4331  0.1600 -0.2196
  139TMC2    O1 2128   1.334   4.641  13.729 -0.6231 -0.6812 -0.4356
  139TMC2    O2 2129   1.852   4.611  13.419  0.5831 -0.0538  0.5284
  139TMC2    O5 2130   1.654   0.016  13.401 -0.1093 -0.4896  0.4859
  139TMC2    H5 2131   1.556   0.015  13.405 -0.1111 -0.6655  0.3980
  140MPD2     C 2132   1.623   3.916  13.787  0.1650 -0.0553 -0.2192
  140MPD2    C1 2133   1.666   3.969  13.667  0.3393 -0.1917 -0.0017
  140MPD2    C2 2134   1.748   3.898  13.585  0.3203 -0.8514 -0.2840
  140MPD2    C3 2135   1.779   3.766  13.621  0.1804 -0.1886 -0.2208
  140MPD2    C4 2136   1.737   3.713  13.740 -0.2351 -0.2081  0.9613
  140MPD2    C5 2137   1.656   3.786  13.819  0.2219 -0.2001  0.2486
  140MPD2     H 2138   1.774   3.939  13.488  1.7583  1.3795  1.0386
  140MPD2    H1 2139   1.770   3.619  13.783  0.6697 -0.3175  0.0412
  140MPD2    H2 2140   1.549   3.958  13.854 -0.0559 -0.8260  0.0217
  140MPD2    H3 2141   1.623   3.729  13.904 -3.2260  1.0502 -0.2471
  140MPD2     N 2142   1.847   3.685  13.523 -0.2543 -0.4736 -0.2543
  140MPD2    H5 2143   1.879   3.733  13.439  1.5876 -0.9766  0.1726
  140MPD2    N1 2144   1.620   4.097  13.638 -0.0985 -0.2812  0.0536
  140MPD2    H7 2145   1.542   4.130  13.695 -0.8161 -3.7541  1.0812
  141TCq2    C1 2146   1.955   0.556  13.916  0.4318  0.8612  0.3215
  141TCq2    O2 2147   1.890   0.656  13.893 -0.2757  0.0614 -0.2094
  141TCq2    C2 2148   2.026   0.543  14.039 -0.3113 -0.2317  0.0451
  141TCq2    C3 2149   2.075   0.418  14.084  0.3757  0.4850 -0.1321
  141TCq2    C4 2150   2.084   0.401  14.221 -0.4151 -0.5698 -0.2003
  141TCq2    C5 2151   2.058   0.497  14.313 -0.2159 -0.3191 -0.1277
  141TCq2    C6 2152   2.027   0.620  14.261 -0.2509 -0.1763 -0.0885
  141TCq2    C7 2153   2.002   0.643  14.128 -0.1995 -0.5590 -0.3686
  141TCq2    C8 2154   1.975   0.729  14.342 -0.0717 -0.0424 -1.1761
  141TCq2    O4 2155   1.889   0.698  14.424 -0.2650 -0.4774 -0.2949
  141TCq2    C9 2156   2.132   0.275  14.260  0.5092  0.1240  0.0346
  141TCq2    O5 2157   2.109   0.234  14.375  0.0828  0.7372 -0.3120
  141TCq2    O6 2158   2.196   0.217  14.169  0.2005 -0.5558 -0.3548
  141TCq2    H2 2159   2.107   0.341  14.015 -1.7833 -0.0029 -0.5693
  141TCq2    H3 2160   2.093   0.483  14.414 -0.6065 -2.4900 -0.3016
  141TCq2    H4 2161   1.957   0.732  14.085  0.4566 -0.3739 -0.6783
  142MPD2     C 2162   4.168   3.189  10.864  0.4847  0.7155 -0.5075
  142MPD2    C1 2163   4.207   3.096  10.768 -0.1121 -0.2010  0.5156
  142MPD2    C2 2164   4.274   3.145  10.656 -0.1194  0.5031  0.4592
  142MPD2    C3 2165   4.293   3.281  10.627 -0.1827  0.0599 -0.1207
  142MPD2    C4 2166   4.232   3.372  10.713  0.0401 -0.1096  0.2401
  142MPD2    C5 2167   4.182   3.325  10.833 -0.2266  0.9168  0.3917
  142MPD2     H 2168   4.321   3.078  10.584 -0.6832 -0.0995  0.6493
  142MPD2    H1 2169   4.228   3.479  10.697 -1.1141 -0.2796 -0.6468
  142MPD2    H2 2170   4.108   3.159  10.949 -1.3513 -0.5020 -2.2010
  142MPD2    H3 2171   4.125   3.399  10.887 -1.4138  0.1588  0.1958
  142MPD2     N 2172   4.359   3.339  10.518 -0.5566  0.3617  0.2250
  142MPD2    H5 2173   4.356   3.440  10.510  1.4358  0.1866 -2.7200
  142MPD2    N1 2174   4.179   2.963  10.788 -0.0070 -0.4312 -0.3265
  142MPD2    H7 2175   4.160   2.930  10.882 -0.3946  3.0344  0.7892
  143TCq2    C1 2176   4.430   3.265  10.421 -0.6398 -0.4836  0.1423
  143TCq2    O2 2177   4.422   3.144  10.400 -0.0210 -0.5339 -0.3728
  143TCq2    C2 2178   4.531   3.346  10.356  0.8968 -0.7531 -0.0852
  143TCq2    C3 2179   4.588   3.448  10.423 -0.0159 -0.9527 -0.3611
  143TCq2    C4 2180   4.680   3.523  10.351 -0.2770 -0.4833  0.2466
  143TCq2    C5 2181   4.696   3.499  10.219 -0.2799  0.6518  0.8126
  143TCq2    C6 2182   4.636   3.391  10.158 -0.1795 -0.0568 -0.3461
  143TCq2    C7 2183   4.552   3.316  10.227  0.1957 -0.9182 -0.8899
  143TCq2    C8 2184   4.648   3.363  10.016  0.2321  0.3050 -0.7220
  143TCq2    O4 2185   4.544   3.315   9.975 -0.0215  0.0912  0.2179
  143TCq2    C9 2186   0.023   3.633  10.416 -0.1999  0.5712 -0.0320
  143TCq2    O5 2187   0.105   3.694  10.346 -0.2222  0.1770 -0.0838
  143TCq2    O6 2188   4.727   3.661  10.537 -0.1843  0.3143 -0.7468
  143TCq2    H2 2189   4.569   3.470  10.527 -1.8426 -0.7314 -0.7373
  143TCq2    H3 2190   0.042   3.556  10.162  0.1732 -0.6883  0.0390
  143TCq2    H4 2191   4.505   3.231  10.180  0.2546 -1.7035  0.4792
  144MPD2     C 2192   2.247   4.028   0.854  0.2282 -0.1839  0.0734
  144MPD2    C1 2193   2.275   3.891   0.839 -0.3754  0.7731  0.3138
  144MPD2    C2 2194   2.403   3.843   0.838  0.3845 -0.0368  0.2485
  144MPD2    C3 2195   2.506   3.939   0.838  0.2145  0.3589  0.2584
  144MPD2    C4 2196   2.484   4.067   0.868 -0.5348  0.0751  0.1151
  144MPD2    C5 2197   2.354   4.111   0.867  0.5053 -0.6824 -0.0078
  144MPD2     H 2198   2.414   3.735   0.834 -0.9252 -0.1128 -1.4208
  144MPD2    H1 2199   2.563   4.138   0.891  1.0778 -2.5387  2.5861
  144MPD2    H2 2200   2.149   4.075   0.852  0.3413  0.0988  1.0263
  144MPD2    H3 2201   2.333   4.216   0.885  0.2857 -0.6925 -0.1982
  144MPD2     N 2202   2.644   3.904   0.835  0.0605  0.0654 -0.3052
  144MPD2    H5 2203   2.712   3.976   0.858  0.2027 -0.6006  1.3457
  144MPD2    N1 2204   2.173   3.794   0.845 -0.2334  0.4118 -0.0106
  144MPD2    H7 2205   2.188   3.705   0.798 -0.2204  0.6082 -0.3780
  145TCq2    C1 2206   2.685   3.773   0.816 -0.1962  0.1504 -0.2604
  145TCq2    O2 2207   2.624   3.677   0.767  0.0141  0.3589 -0.4550
  145TCq2    C2 2208   2.821   3.750   0.867 -0.3522  1.1639  0.1663
  145TCq2    C3 2209   2.906   3.667   0.801 -0.2064  1.1525 -0.2933
  145TCq2    C4 2210   3.039   3.656   0.836  0.2781 -0.6930 -0.1420
  145TCq2    C5 2211   3.088   3.735   0.936  0.2757  0.6061 -0.0044
  145TCq2    C6 2212   3.002   3.808   1.014 -0.3811 -0.5359 -0.0221
  145TCq2    C7 2213   2.872   3.818   0.974  0.3570  0.0516  0.1636
  145TCq2    C8 2214   3.062   3.877   1.124 -0.6277  0.0201  1.1328
  145TCq2    O4 2215   3.183   3.880   1.134  0.4144 -0.5226  1.0012
  145TCq2    C9 2216   3.126   3.594   0.746  0.0750  0.0373 -0.5169
  145TCq2    O5 2217   3.248   3.606   0.772 -0.7403 -0.2327 -0.1473
  145TCq2    O6 2218   3.080   3.529   0.648  0.0448 -0.1484  0.0934
  145TCq2    H2 2219   2.862   3.608   0.721 -1.0363  1.1073  0.1961
  145TCq2    H3 2220   3.193   3.726   0.958  0.0712 -0.4507  0.5405
  145TCq2    H4 2221   2.804   3.893   1.012 -1.2903 -2.5331  2.3922
  146TMC2    C1 2222   3.423   1.660  12.541  0.1216 -0.2135 -0.5869
  146TMC2    C2 2223   3.305   1.693  12.482  0.8755 -0.0144 -0.1393
  146TMC2    C3 2224   3.257   1.604  12.393  0.4447 -0.4986  0.2876
  146TMC2    C4 2225   3.481   1.542  12.518  0.8716  0.3227  0.0479
  146TMC2    C5 2226   3.430   1.457  12.423  0.2871 -0.5932 -0.2338
  146TMC2    C6 2227   3.320   1.491  12.354 -0.2413  0.1847 -0.7368
  146TMC2     C 2228   3.463   1.737  12.659 -0.4284  0.5170 -0.2203
  146TMC2     O 2229   3.433   1.856  12.644  0.5163 -0.1203  0.6369
  146TMC2     H 2230   3.245   1.774  12.522 -0.1687 -0.2520 -1.2220
  146TMC2    H1 2231   3.583   1.527  12.553  0.7293  0.9599  0.7401
  146TMC2    H2 2232   3.280   1.429  12.275  1.2272 -0.8322 -0.7015
  146TMC2    C7 2233   3.520   1.353  12.361  0.0825  0.0084  0.5164
  146TMC2    C8 2234   3.115   1.598  12.386 -0.3678 -0.5863 -0.4408
  146TMC2    O1 2235   3.523   1.348  12.238  0.2620 -0.1158 -0.3129
  146TMC2    O2 2236   3.044   1.696  12.409  0.4426  0.7638  0.3545
  146TMC2    O5 2237   3.078   1.472  12.414  0.3901  0.2116  0.5776
  146TMC2    H5 2238   3.156   1.418  12.439  0.3793  0.1232  0.4230
  147MPD2     C 2239   3.910   1.040  12.406 -0.7969 -0.9567 -0.4693
  147MPD2    C1 2240   3.869   1.074  12.534 -0.2987 -0.7500  0.3490
  147MPD2    C2 2241   3.757   1.151  12.549 -0.1464  0.0510  0.2898
  147MPD2    C3 2242   3.689   1.184  12.432 -0.3677 -0.3464  0.3890
  147MPD2    C4 2243   3.722   1.149  12.306 -0.2395 -0.0991 -0.0497
  147MPD2    C5 2244   3.839   1.085  12.299  0.7171  0.1436 -0.4223
  147MPD2     H 2245   3.713   1.178  12.644 -0.2419 -0.0468  0.2727
  147MPD2    H1 2246   3.660   1.166  12.219  1.1967 -1.7231 -1.3995
  147MPD2    H2 2247   3.995   0.977  12.382 -0.2190  0.0007 -0.9549
  147MPD2    H3 2248   3.871   1.051  12.201 -0.7430 -3.7217  0.4195
  147MPD2     N 2249   3.576   1.267  12.456 -0.1991 -0.4173  0.2015
  147MPD2    H5 2250   3.556   1.293  12.552 -1.4274  1.4185 -0.5426
  147MPD2    N1 2251   3.949   1.032  12.643  0.1590 -0.2449  0.2311
  147MPD2    H7 2252   4.042   0.996  12.627  0.1875  0.0731 -0.3180
  148MPD2     C 2253   4.027   0.032  11.012  0.9410 -0.7811 -0.0217
  148MPD2    C1 2254   4.092   0.002  10.890  0.7307 -0.3421  0.1472
  148MPD2    C2 2255   4.048   4.633  10.805  0.8827 -0.5964 -0.2823
  148MPD2    C3 2256   3.938   4.562  10.835  0.1345  0.6298 -0.3173
  148MPD2    C4 2257   3.876   4.580  10.963 -0.2325  0.0389 -1.3072
  148MPD2    C5 2258   3.936   4.674  11.050 -0.6886  0.0626 -0.3591
  148MPD2     H 2259   4.118   4.604  10.729  0.0392 -1.9682 -0.5307
  148MPD2    H1 2260   3.793   4.518  10.993 -0.4438  0.5602 -0.8125
  148MPD2    H2 2261   4.060   0.112  11.078  1.7267 -1.0583 -0.0838
  148MPD2    H3 2262   3.907   4.697  11.151  1.6579 -2.0499  0.8006
  148MPD2     N 2263   3.880   4.467  10.745  0.4812  0.2396  0.5850
  148MPD2    H5 2264   3.801   4.413  10.781 -0.0852  0.6117 -0.1053
  148MPD2    N1 2265   4.198   0.078  10.845  0.1687  0.1015  0.4096
  148MPD2    H7 2266   4.240   0.047  10.758  1.5918  1.9974  0.4342
  149TCq2    C1 2267   4.249   0.196  10.892 -0.0497  0.3040 -0.0968
  149TCq2    O2 2268   4.202   0.265  10.982  0.1298  0.3081 -0.2179
  149TCq2    C2 2269   4.357   0.251  10.807 -1.0324 -0.1723 -0.1871
  149TCq2    C3 2270   4.337   0.381  10.762 -0.6788  0.0859  0.1407
  149TCq2    C4 2271   4.390   0.413  10.642 -0.2304 -0.2967  0.5014
  149TCq2    C5 2272   4.423   0.315  10.555  0.1814 -0.4448  0.0346
  149TCq2    C6 2273   4.448   0.193  10.600 -0.3100  0.0439 -0.1629
  149TCq2    C7 2274   4.411   0.155  10.726 -0.2632 -0.7233  0.4600
  149TCq2    C8 2275   4.408   0.095  10.506  0.2599 -0.7571  0.7104
  149TCq2    O4 2276   4.325   0.131  10.422  0.3073  0.5354  0.3091
  149TCq2    C9 2277   4.341   0.529  10.571  0.5617 -0.0011 -0.8273
  149TCq2    O5 2278   4.337   0.528  10.446  0.0823 -0.2661 -0.3530
  149TCq2    O6 2279   4.305   0.630  10.641 -0.0824 -0.2218 -0.5015
  149TCq2    H2 2280   4.277   0.455  10.813 -0.8182  0.3439 -0.3983
  149TCq2    H3 2281   4.448   0.340  10.453  2.7074 -1.9413  0.2563
  149TCq2    H4 2282   4.419   0.054  10.763 -3.1276 -1.5321 -1.1363
  150MPD2     C 2283   1.095   4.327  12.421  0.3522  0.5083  0.3655
  150MPD2    C1 2284   1.083   4.420  12.323  0.8630  0.3329 -0.3571
  150MPD2    C2 2285   1.177   4.528  12.326  1.0600  0.1189  0.2970
  150MPD2    C3 2286   1.246   4.561  12.443 -0.6160 -0.2874 -0.2685
  150MPD2    C4 2287   1.263   4.455  12.536 -0.0263 -0.0554  0.4460
  150MPD2    C5 2288   1.199   4.332  12.516  0.2290 -1.2893  0.0538
  150MPD2     H 2289   1.184   4.605  12.250  0.4065  0.5876  0.7042
  150MPD2    H1 2290   1.321   4.463  12.627  1.1099  0.9785 -0.3791
  150MPD2    H2 2291   1.048   4.230  12.407  0.9102  0.2782  0.0956
  150MPD2    H3 2292   1.216   4.249  12.583 -0.5733 -1.0701  0.5223
  150MPD2     N 2293   1.303   4.695  12.453 -0.7479 -0.0334 -0.0019
  150MPD2    H5 2294   1.315   0.023  12.369  0.1930 -0.0132  0.1419
  150MPD2    N1 2295   0.992   4.401  12.218  0.0254  0.1864 -0.7498
  150MPD2    H7 2296   0.922   4.328  12.220 -2.4706  2.6052 -0.5412
  151TCq2    C1 2297   1.365   0.010  12.567 -0.3864  0.3204  0.4556
  151TCq2    O2 2298   1.350   4.706  12.682  0.1196  0.2070  0.2115
  151TCq2    C2 2299   1.442   0.127  12.551 -0.9620 -0.2273 -0.5769
  151TCq2    C3 2300   1.414   0.210  12.442  0.3165  0.4082 -0.0662
  151TCq2    C4 2301   1.468   0.337  12.434 -0.4264  0.1007  0.1088
  151TCq2    C5 2302   1.556   0.375  12.525 -0.4897 -0.2538  0.2780
  151TCq2    C6 2303   1.586   0.291  12.627  0.0450  0.1442 -0.9927
  151TCq2    C7 2304   1.528   0.167  12.647  0.2245 -0.6985 -0.2854
  151TCq2    C8 2305   1.714   0.312  12.698 -0.2255 -0.0782 -0.2807
  151TCq2    O4 2306   1.759   0.425  12.703 -0.4091  0.6638  0.0083
  151TCq2    C9 2307   1.434   0.412  12.314 -0.3345  0.0965  0.6212
  151TCq2    O5 2308   1.335   0.368  12.252 -0.4027 -0.7512 -0.7968
  151TCq2    O6 2309   1.466   0.533  12.304  0.2673  0.2655  0.0054
  151TCq2    H2 2310   1.347   0.185  12.361  0.9505  2.0366 -1.1009
  151TCq2    H3 2311   1.609   0.469  12.514 -0.0583 -0.3384  1.6184
  151TCq2    H4 2312   1.539   0.108  12.737  0.4267 -3.7235 -2.3086
  152MPD2     C 2313   0.751   4.164  12.681 -0.0528 -0.0368 -0.2517
  152MPD2    C1 2314   0.709   4.289  12.629  0.5303  0.3980 -0.5066
  152MPD2    C2 2315   0.583   4.295  12.581 -0.3051 -0.5608 -0.0075
  152MPD2    C3 2316   0.496   4.195  12.598 -0.2149 -0.3715  0.2807
  152MPD2    C4 2317   0.539   4.076  12.653  0.9412 -0.8470 -0.0332
  152MPD2    C5 2318   0.668   4.062  12.698  0.3752  0.1645 -0.7847
  152MPD2     H 2319   0.544   4.388  12.542 -0.1350 -0.8509 -0.8697
  152MPD2    H1 2320   0.477   3.987  12.661  0.7605 -0.7045  0.1815
  152MPD2    H2 2321   0.856   4.151  12.704  0.3033 -0.5648 -2.2020
  152MPD2    H3 2322   0.705   3.965  12.730 -1.7339 -0.7450 -1.1127
  152MPD2     N 2323   0.362   4.218  12.559 -0.2311  0.4301  0.2164
  152MPD2    H5 2324   0.345   4.316  12.539 -3.0534 -0.0992 -0.0826
  152MPD2    N1 2325   0.804   4.394  12.621  0.2834  0.0028  0.2347
  152MPD2    H7 2326   0.889   4.387  12.676  0.2662 -0.5730  0.1884
  153TCq2    C1 2327   0.793   4.507  12.541 -0.8535  0.4545 -0.4167
  153TCq2    O2 2328   0.723   4.525  12.442 -0.0887  0.2045  0.3397
  153TCq2    C2 2329   0.896   4.604  12.574  0.5173 -0.6071  0.4190
  153TCq2    C3 2330   0.921   4.695  12.466 -0.2492 -0.2240 -0.2839
  153TCq2    C4 2331   0.992   0.080  12.489  0.5185 -0.3047 -0.2721
  153TCq2    C5 2332   1.042   0.109  12.610 -0.3768 -0.1306  0.0416
  153TCq2    C6 2333   1.010   0.027  12.716  0.5468 -0.3133  0.4274
  153TCq2    C7 2334   0.940   4.635  12.707  0.4278 -0.6825  0.4615
  153TCq2    C8 2335   1.052   0.077  12.849  0.2978 -0.3630  0.3048
  153TCq2    O4 2336   0.960   0.086  12.929  0.2093  0.0470 -0.2736
  153TCq2    C9 2337   1.015   0.168  12.379  0.3042 -0.0118  0.6206
  153TCq2    O5 2338   0.972   0.142  12.263  0.2462 -0.1916 -0.1171
  153TCq2    O6 2339   1.075   0.277  12.416 -0.3139 -0.1719  0.7797
  153TCq2    H2 2340   0.894   4.667  12.364  0.4042  3.4913 -1.4937
  153TCq2    H3 2341   1.095   0.202  12.628 -2.4542  1.4020 -1.7569
  153TCq2    H4 2342   0.903   4.578  12.791 -0.5168 -1.2448 -0.3480
  154MPD2     C 2343   2.360   0.499   0.521 -0.5176 -0.0978 -0.4151
  154MPD2    C1 2344   2.383   0.452   0.649 -0.6054  0.6797  0.1705
  154MPD2    C2 2345   2.291   0.463   0.749 -0.2388  0.2729  0.3696
  154MPD2    C3 2346   2.160   0.497   0.719  0.6970 -1.1700  0.3083
  154MPD2    C4 2347   2.128   0.540   0.591  0.2725  0.1813  0.0524
  154MPD2    C5 2348   2.230   0.537   0.495 -0.2714  0.2490  0.9178
  154MPD2     H 2349   2.318   0.429   0.848  0.0790  2.5297  1.0642
  154MPD2    H1 2350   2.028   0.572   0.562  0.2760 -0.7782 -0.9978
  154MPD2    H2 2351   2.437   0.511   0.445 -0.7110  0.5465 -0.5072
  154MPD2    H3 2352   2.201   0.581   0.401  3.0119  1.0852  0.2959
  154MPD2     N 2353   2.064   0.509   0.819  0.4394  0.2467  0.2613
  154MPD2    H5 2354   2.092   0.460   0.903  1.4486  2.6203  1.3263
  154MPD2    N1 2355   2.508   0.394   0.661 -0.1653  0.3445 -0.1498
  154MPD2    H7 2356   2.546   0.368   0.571  1.5112  1.1390  0.3265
  155TCq2    C1 2357   2.572   0.355   0.777  0.0564 -0.1231  0.4291
  155TCq2    O2 2358   2.547   0.375   0.892 -0.2672 -0.4759  0.2299
  155TCq2    C2 2359   2.651   0.234   0.743  0.2051 -0.1414 -0.3580
  155TCq2    C3 2360   2.701   0.162   0.847  0.5208 -0.2368  0.0111
  155TCq2    C4 2361   2.767   0.041   0.822  0.6605  0.5005  0.2291
  155TCq2    C5 2362   2.770   4.710   0.698  0.9152  0.5392  0.8851
  155TCq2    C6 2363   2.704   0.047   0.597  0.2685  0.2509  0.1079
  155TCq2    C7 2364   2.648   0.176   0.617  0.2775  0.6510  0.4581
  155TCq2    C8 2365   2.707   0.000   0.457 -0.5290 -0.3107  0.6663
  155TCq2    O4 2366   2.675   0.081   0.373  0.0142 -0.0646  0.0955
  155TCq2    C9 2367   2.833   4.707   0.934  0.3204 -0.1523 -0.3977
  155TCq2    O5 2368   2.817   0.037   1.044  0.5428 -0.0082  0.0700
  155TCq2    O6 2369   2.882   4.593   0.911  0.0248 -0.2143  0.0921
  155TCq2    H2 2370   2.687   0.186   0.952 -2.1104 -0.2132 -0.3508
  155TCq2    H3 2371   2.824   4.618   0.680 -0.7579  0.2054 -2.3157
  155TCq2    H4 2372   2.606   0.226   0.530  2.3783  1.1558 -0.2631
  156MPD2     C 2373   1.902   1.792  12.592  1.2782  0.2256  0.8243
  156MPD2    C1 2374   1.815   1.791  12.485  0.9765  0.5042 -0.0471
  156MPD2    C2 2375   1.723   1.885  12.468 -0.3124  0.2286  0.2701
  156MPD2    C3 2376   1.701   1.979  12.569 -0.3925 -0.1176  0.1173
  156MPD2    C4 2377   1.780   1.978  12.680 -0.4710  0.3128 -0.1556
  156MPD2    C5 2378   1.882   1.885  12.693 -0.0300  0.3051 -0.6751
  156MPD2     H 2379   1.653   1.887  12.385  1.5848  0.4922 -1.3040
  156MPD2    H1 2380   1.760   2.051  12.758  0.0148 -2.3983  2.5077
  156MPD2    H2 2381   1.976   1.713  12.594  0.1639 -0.8781 -1.3453
  156MPD2    H3 2382   1.939   1.884  12.785 -1.6010 -1.0589  0.2902
  156MPD2     N 2383   1.595   2.060  12.549 -0.2159 -0.4155 -0.1837
  156MPD2    H5 2384   1.551   2.041  12.460  1.0582  2.3935 -1.4006
  156MPD2    N1 2385   1.833   1.684  12.394  0.5901  0.8721  0.4890
  156MPD2    H7 2386   1.913   1.621  12.397 -0.8183 -0.9899 -0.5502
  157TCq2    C1 2387   1.747   1.662  12.287  1.1137  1.6659  0.9371
  157TCq2    O2 2388   1.644   1.721  12.255 -0.3339 -0.6779 -0.3522
  157TCq2    C2 2389   1.784   1.548  12.207  0.3485  0.3401  1.0653
  157TCq2    C3 2390   1.811   1.422  12.254 -0.0181  0.1220  0.5832
  157TCq2    C4 2391   1.769   1.310  12.179 -0.1626 -0.6364 -0.5253
  157TCq2    C5 2392   1.713   1.328  12.057 -0.0113 -0.9365 -0.2008
  157TCq2    C6 2393   1.687   1.454  12.011  0.1498 -0.2191  0.2075
  157TCq2    C7 2394   1.722   1.564  12.086 -0.3015  0.0032  0.1277
  157TCq2    C8 2395   1.591   1.477  11.902 -0.1501 -0.5594 -0.6121
  157TCq2    O4 2396   1.559   1.593  11.880  0.0582  0.4989 -0.1803
  157TCq2    C9 2397   1.787   1.186  12.246 -0.2599 -0.6682  0.3660
  157TCq2    O5 2398   1.824   1.189  12.365  0.3857 -0.1785  0.1141
  157TCq2    O6 2399   1.782   1.083  12.170  0.0641 -0.4681 -0.6329
  157TCq2    H2 2400   1.842   1.410  12.357  1.7044 -0.4726 -0.0084
  157TCq2    H3 2401   1.692   1.238  11.999  1.6563 -3.4659  3.1393
  157TCq2    H4 2402   1.699   1.665  12.053 -1.9301  0.1472  1.7142
  158TMC2    C1 2403   1.736   0.192  14.219 -0.9242  0.1183 -0.1952
  158TMC2    C2 2404   1.699   0.132  14.098 -0.4050 -0.1892  0.0382
  158TMC2    C3 2405   1.657   0.218  13.997 -0.0513 -0.2347 -0.8724
  158TMC2    C4 2406   1.729   0.324  14.246  0.7162  0.4504 -0.4429
  158TMC2    C5 2407   1.683   0.399  14.142 -0.2931 -0.6019  0.1837
  158TMC2    C6 2408   1.649   0.349  14.018 -0.2263  0.4355  0.0520
  158TMC2     C 2409   1.737   0.097  14.333 -0.6697  0.4392  0.5889
  158TMC2     O 2410   1.815   0.133  14.421  0.2824 -0.3055  0.0497
  158TMC2     H 2411   1.701   0.024  14.084 -0.3260 -0.3204  1.0782
  158TMC2    H1 2412   1.689   0.349  14.344 -1.0975 -0.1924 -1.0213
  158TMC2    H2 2413   1.611   0.414  13.940 -0.0262 -0.4907 -0.8196
  158TMC2    C7 2414   1.581   0.485  14.193 -0.4212  0.3586  0.1067
  158TMC2    C8 2415   1.556   0.171  13.899 -0.5816  0.1737  0.2265
  158TMC2    O1 2416   1.599   0.558  14.293 -0.2943  0.1459 -0.8848
  158TMC2    O2 2417   1.448   0.237  13.894 -0.6454 -0.1548  0.2114
  158TMC2    O5 2418   1.571   0.037  13.882 -0.2748 -0.1243  0.1895
  158TMC2    H5 2419   1.664   0.011  13.868 -0.3216  0.1799 -0.6418
  159MPD2     C 2420   1.550   4.485  14.649  0.1027  0.2976  0.3116
  159MPD2    C1 2421   1.469   4.485  14.544  0.6086 -0.0079  0.5638
  159MPD2    C2 2422   1.496   4.563  14.432  0.1791 -0.3164  0.4234
  159MPD2    C3 2423   1.615   4.638  14.435 -0.3997 -0.0020 -0.0285
  159MPD2    C4 2424   1.704   4.633  14.543  0.1470 -0.2563  0.1224
  159MPD2    C5 2425   1.664   4.564  14.654 -0.0268  0.1468  1.0371
  159MPD2     H 2426   1.419   4.587  14.359  0.9556 -0.0681 -0.3110
  159MPD2    H1 2427   1.802   4.678  14.556  1.0280 -1.6777 -1.5201
  159MPD2    H2 2428   1.527   4.427  14.737  2.4069 -1.1525 -0.0288
  159MPD2    H3 2429   1.724   4.565  14.744  0.0189 -1.8656  1.0368
  159MPD2     N 2430   1.638   0.001  14.330  0.9301 -0.4100  0.4583
  159MPD2    H5 2431   1.575   0.000  14.250  1.9613  0.6610 -0.3704
  159MPD2    N1 2432   1.348   4.406  14.559  0.1366 -0.5008 -0.0914
  159MPD2    H7 2433   1.351   4.360  14.650 -0.6251  1.0502  0.7023
  160TMC2    C1 2434   1.015   3.879   1.283  0.3561 -0.1681 -0.5672
  160TMC2    C2 2435   1.044   3.749   1.303  0.3042 -0.5821 -0.1031
  160TMC2    C3 2436   1.133   3.682   1.225  0.2050  0.0389  0.5874
  160TMC2    C4 2437   1.082   3.948   1.180 -0.8132 -0.3312 -0.0927
  160TMC2    C5 2438   1.164   3.872   1.102  0.1963  0.0456 -0.7867
  160TMC2    C6 2439   1.175   3.739   1.111 -0.6669 -0.1928 -0.0334
  160TMC2     C 2440   0.964   3.956   1.391 -0.3778 -0.0563  0.2722
  160TMC2     O 2441   0.938   3.896   1.497 -0.4072 -0.3036 -0.3469
  160TMC2     H 2442   1.001   3.697   1.389 -0.7153  0.3244 -0.0677
  160TMC2    H1 2443   1.052   4.050   1.160  2.6467  0.6559 -0.2938
  160TMC2    H2 2444   1.239   3.689   1.038 -0.5027  1.2366 -0.8784
  160TMC2    C7 2445   1.212   3.926   0.975  0.1080  0.7404 -0.0566
  160TMC2    C8 2446   1.204   3.575   1.272 -0.1646  0.6839  0.3911
  160TMC2    O1 2447   1.221   3.857   0.876 -0.1081  0.0816  0.1848
  160TMC2    O2 2448   1.227   3.477   1.204 -0.4034 -0.4451 -0.0536
  160TMC2    O5 2449   1.249   3.610   1.400 -0.6857 -0.0041 -0.0600
  160TMC2    H5 2450   1.236   3.704   1.426  0.8220  0.3187 -0.4406
  161MPD2     C 2451   0.805   4.144   1.550  0.3037  0.0225 -0.3072
  161MPD2    C1 2452   0.841   4.169   1.419 -0.6603 -0.2645 -0.1559
  161MPD2    C2 2453   0.795   4.283   1.357  0.4399 -0.4297  0.6954
  161MPD2    C3 2454   0.726   4.375   1.428  0.0748  0.0458  0.2259
  161MPD2    C4 2455   0.690   4.350   1.560  0.5842 -0.2646  0.2262
  161MPD2    C5 2456   0.723   4.234   1.616  0.1776 -0.0979  0.0304
  161MPD2     H 2457   0.836   4.306   1.259 -1.9000  1.2770  0.1057
  161MPD2    H1 2458   0.639   4.430   1.612 -1.1970 -1.7359  0.7345
  161MPD2    H2 2459   0.829   4.057   1.610 -1.3415 -0.9729 -1.0850
  161MPD2    H3 2460   0.695   4.216   1.719  0.1057  0.3220  0.0847
  161MPD2     N 2461   0.697   4.506   1.375  0.4575 -0.2821  0.3406
  161MPD2    H5 2462   0.635   4.561   1.433  0.3720 -1.7448  1.6517
  161MPD2    N1 2463   0.918   4.078   1.347 -0.6865 -0.1632  0.1336
  161MPD2    H7 2464   0.939   4.091   1.248 -1.4755  1.9649  0.2421
  162TMC2    C1 2465   3.512   1.471   0.815 -0.0085 -0.0719 -0.2208
  162TMC2    C2 2466   3.406   1.530   0.752 -0.9516 -0.5739  0.2858
  162TMC2    C3 2467   3.279   1.486   0.796  0.2059  0.3616 -0.1477
  162TMC2    C4 2468   3.501   1.376   0.907  0.5246 -0.4556  0.6790
  162TMC2    C5 2469   3.375   1.329   0.939  0.0030 -0.1112 -0.1033
  162TMC2    C6 2470   3.262   1.391   0.893  0.2456  0.1137 -0.4798
  162TMC2     C 2471   3.633   1.459   0.734 -0.0139  0.5123  0.0350
  162TMC2     O 2472   3.684   1.350   0.742 -0.2510 -0.7023  0.0540
  162TMC2     H 2473   3.427   1.603   0.676  1.5789 -0.2934  1.2517
  162TMC2    H1 2474   3.590   1.328   0.946  2.2327  0.9872 -1.4354
  162TMC2    H2 2475   3.165   1.356   0.929  2.1316 -1.4415  3.1253
  162TMC2    C7 2476   3.359   1.226   1.037 -0.5966 -0.1461 -0.6921
  162TMC2    C8 2477   3.166   1.556   0.747 -0.3867  0.2672 -0.1303
  162TMC2    O1 2478   3.246   1.174   1.044  0.1067 -0.3713  0.8710
  162TMC2    O2 2479   3.161   1.677   0.755 -0.0431 -0.4417 -0.2860
  162TMC2    O5 2480   3.070   1.465   0.735 -0.0885 -0.2793 -0.0135
  162TMC2    H5 2481   3.100   1.373   0.749  2.1522  0.4956  0.3032
  163MPD2     C 2482   4.051   1.662   0.525  0.6262  0.5668 -0.4519
  163MPD2    C1 2483   4.019   1.533   0.549 -1.0404  0.1431 -0.0202
  163MPD2    C2 2484   3.892   1.501   0.606 -0.3628 -0.6152 -0.3791
  163MPD2    C3 2485   3.807   1.600   0.641 -0.3949  0.3623 -0.6961
  163MPD2    C4 2486   3.848   1.732   0.618  0.2910  0.9577  0.0600
  163MPD2    C5 2487   3.965   1.767   0.550  0.5663  0.1279  0.6310
  163MPD2     H 2488   3.858   1.399   0.619  0.9346 -0.7419  1.8670
  163MPD2    H1 2489   3.775   1.811   0.631 -0.2618  0.4361  0.1176
  163MPD2    H2 2490   4.139   1.686   0.466  0.1346  2.0556 -0.5898
  163MPD2    H3 2491   3.997   1.870   0.538 -2.7628  1.1449  0.4030
  163MPD2     N 2492   3.677   1.583   0.698  0.1480 -0.1187 -0.4240
  163MPD2    H5 2493   3.614   1.662   0.708  1.4761  0.5955  2.2972
  163MPD2    N1 2494   4.105   1.433   0.496 -0.3826  0.1622  0.0880
  163MPD2    H7 2495   4.197   1.460   0.462 -0.2082 -1.1382 -0.4689
  164TCq2    C1 2496   4.291   4.440  11.330 -0.3314  0.0311  0.6904
  164TCq2    O2 2497   4.199   4.455  11.412  0.3968 -0.7268  0.1303
  164TCq2    C2 2498   4.331   4.567  11.266 -0.1643 -0.6149  0.5065
  164TCq2    C3 2499   4.417   4.576  11.157  0.1015  0.1873 -0.5101
  164TCq2    C4 2500   4.461   4.699  11.112 -0.4524  0.0816 -0.7230
  164TCq2    C5 2501   4.404   0.081  11.169 -0.5471  0.1832  0.1189
  164TCq2    C6 2502   4.312   0.071  11.268 -0.6817 -0.2611 -0.3759
  164TCq2    C7 2503   4.277   4.680  11.323  0.7580  0.1441 -0.5290
  164TCq2    C8 2504   4.260   0.190  11.342  0.6144  0.5219 -0.1891
  164TCq2    O4 2505   4.268   0.189  11.463 -0.8890 -0.0845 -0.3189
  164TCq2    C9 2506   4.574   4.709  11.032 -0.0726  0.6059 -0.2969
  164TCq2    O5 2507   4.622   0.096  11.019  0.0312  0.3009 -0.0198
  164TCq2    O6 2508   4.594   4.613  10.954  0.2633 -0.0971  0.5490
  164TCq2    H2 2509   4.469   4.492  11.113  0.5190 -0.5652  1.4187
  164TCq2    H3 2510   4.427   0.181  11.134 -3.8173 -0.2705 -3.3599
  164TCq2    H4 2511   4.207   4.677  11.405  0.9302 -0.3488 -0.3962
  165MPD2     C 2512   0.985   2.783   1.110  0.2398  0.2264 -0.0829
  165MPD2    C1 2513   0.852   2.809   1.155 -0.2668 -0.0127 -0.1917
  165MPD2    C2 2514   0.823   2.911   1.245  0.2243 -0.2964  0.6047
  165MPD2    C3 2515   0.926   2.986   1.306 -0.7468 -0.1522  0.1060
  165MPD2    C4 2516   1.053   2.968   1.248  0.1451 -0.1299  0.1737
  165MPD2    C5 2517   1.081   2.858   1.162  0.4143 -0.5600 -0.3637
  165MPD2     H 2518   0.722   2.933   1.275  0.6945  2.6778  0.0161
  165MPD2    H1 2519   1.138   3.021   1.289  1.5715 -2.1086 -0.2231
  165MPD2    H2 2520   1.010   2.701   1.044 -1.5286  0.5321 -1.1495
  165MPD2    H3 2521   1.179   2.838   1.120  1.0029 -0.0175  0.7594
  165MPD2     N 2522   0.904   3.098   1.393 -0.1311  0.2409 -0.5931
  165MPD2    H5 2523   0.985   3.150   1.426 -2.0803  1.2764  2.6076
  165MPD2    N1 2524   0.754   2.733   1.089 -0.7390  0.1974  0.1279
  165MPD2    H7 2525   0.782   2.653   1.033 -1.2014 -0.2827  0.5887
  166TCq2    C1 2526   0.784   3.133   1.451  0.9695  0.9125  0.0651
  166TCq2    O2 2527   0.669   3.092   1.431  0.4852  0.5036 -0.7636
  166TCq2    C2 2528   0.791   3.250   1.542 -0.6191  0.3073  0.4644
  166TCq2    C3 2529   0.683   3.328   1.550  0.5088  0.2998 -0.4078
  166TCq2    C4 2530   0.688   3.457   1.599  0.6814 -0.4588 -0.0993
  166TCq2    C5 2531   0.808   3.505   1.637  0.3044 -0.2953 -0.2767
  166TCq2    C6 2532   0.918   3.418   1.626  0.7250  0.2416 -0.3079
  166TCq2    C7 2533   0.918   3.291   1.574 -0.4796  0.6435  0.5716
  166TCq2    C8 2534   1.051   3.476   1.657 -0.1391 -0.3816  0.0517
  166TCq2    O4 2535   1.142   3.433   1.587 -0.3748 -0.3918 -0.5355
  166TCq2    C9 2536   0.575   3.543   1.627 -0.4454 -0.4168 -0.0403
  166TCq2    O5 2537   0.605   3.651   1.678  0.3314  0.4614 -0.3628
  166TCq2    O6 2538   0.459   3.498   1.632 -0.5778  0.1622  0.3308
  166TCq2    H2 2539   0.586   3.300   1.510  0.1375  0.0652  0.6726
  166TCq2    H3 2540   0.829   3.610   1.658  0.9055 -0.0271 -2.1371
  166TCq2    H4 2541   1.005   3.227   1.568 -1.5123 -0.5896 -1.3814
  167TMC2    C1 2542   3.302   0.518  13.024 -0.1804 -0.2082 -0.3200
  167TMC2    C2 2543   3.299   0.590  13.140 -0.3072  0.1188  0.3572
  167TMC2    C3 2544   3.363   0.532  13.245 -0.3958  0.1549 -0.7003
  167TMC2    C4 2545   3.325   0.385  13.027 -0.0736 -0.0945 -0.3543
  167TMC2    C5 2546   3.378   0.331  13.137  0.4497  0.0366 -0.3813
  167TMC2    C6 2547   3.416   0.406  13.245  0.3007  0.2067  0.2844
  167TMC2     C 2548   3.241   0.578  12.910 -0.7473  0.8551  0.9061
  167TMC2     O 2549   3.183   0.681  12.927  0.6436 -0.0339  0.1392
  167TMC2     H 2550   3.262   0.691  13.151 -1.3257 -0.1739 -0.3667
  167TMC2    H1 2551   3.276   0.333  12.945 -0.0236 -0.0607 -0.4068
  167TMC2    H2 2552   3.459   0.351  13.328  2.9424  1.2481 -0.4161
  167TMC2    C7 2553   3.390   0.188  13.147  0.9206  0.0919 -0.3708
  167TMC2    C8 2554   3.389   0.616  13.365 -0.3354  0.6543 -0.1249
  167TMC2    O1 2555   3.396   0.135  13.256  0.3941  0.0537  0.5835
  167TMC2    O2 2556   3.364   0.566  13.476  1.0061  0.2459 -0.2395
  167TMC2    O5 2557   3.497   0.681  13.329  0.3978 -0.1341  0.2036
  167TMC2    H5 2558   3.502   0.697  13.233 -1.1379 -0.7892  0.0049
  168MPD2     C 2559   3.152   0.663  12.636 -0.2194 -0.4659 -0.3738
  168MPD2    C1 2560   3.249   0.574  12.666  0.4461 -0.3434 -0.4290
  168MPD2    C2 2561   3.323   0.518  12.561 -0.7826 -0.1358 -0.7135
  168MPD2    C3 2562   3.315   0.564  12.427 -0.2828 -1.0336  0.3265
  168MPD2    C4 2563   3.216   0.657  12.398 -0.3642 -0.5697  0.0310
  168MPD2    C5 2564   3.135   0.698  12.502  0.5123 -0.3848  0.3812
  168MPD2     H 2565   3.404   0.449  12.580  2.5128  3.2150 -2.7762
  168MPD2    H1 2566   3.203   0.698  12.298 -0.0111  2.2867  1.1621
  168MPD2    H2 2567   3.082   0.707  12.706  0.2347  0.8414 -0.7451
  168MPD2    H3 2568   3.050   0.762  12.482  0.6803 -1.0267 -2.3828
  168MPD2     N 2569   3.392   0.518  12.321  0.4447  0.0812 -0.5647
  168MPD2    H5 2570   3.378   0.549  12.225 -3.4409  2.9361  0.9379
  168MPD2    N1 2571   3.281   0.522  12.794 -0.2005  0.7163  0.4321
  168MPD2    H7 2572   3.349   0.447  12.789 -0.7033  0.1846  1.6332
  169MPD1     C 2573   1.739   2.638   8.999 -0.3585 -0.2633  0.1173
  169MPD1    C1 2574   1.609   2.674   9.017 -0.2602 -0.1664 -0.6072
  169MPD1    C2 2575   1.593   2.770   9.115  0.4128  1.2183  0.1365
  169MPD1    C3 2576   1.696   2.829   9.187 -0.1337 -0.3671  0.2538
  169MPD1    C4 2577   1.823   2.780   9.172  0.4124 -0.1593 -0.0136
  169MPD1    C5 2578   1.840   2.696   9.069  0.3696  0.4969 -0.2059
  169MPD1     H 2579   1.492   2.806   9.128 -0.3372  0.2299 -2.8747
  169MPD1    H1 2580   1.912   2.824   9.215 -0.0241  0.1430  0.5793
  169MPD1    H2 2581   1.774   2.572   8.922  0.7645  1.0637 -0.5059
  169MPD1    H3 2582   1.938   2.661   9.038  0.0746 -1.6977  1.2873
  169MPD1     N 2583   1.662   2.942   9.266 -0.2459 -0.0296  0.6780
  169MPD1    H5 2584   1.561   2.957   9.265 -0.6538 -2.7664  0.2604
  169MPD1    N1 2585   1.504   2.599   8.962 -0.3929  0.0538  0.0820
  169MPD1    H6 2586   1.411   2.639   8.954  0.1161  1.5116  1.3765
  169MPD1    H7 2587   1.525   2.565   8.869  2.7074 -0.9177  1.1138
  170MPD1     C 2588   0.359   2.006  14.006  0.0073  0.0902 -0.0981
  170MPD1    C1 2589   0.483   2.036  13.954  0.2907 -0.3023  0.3651
  170MPD1    C2 2590   0.492   2.108  13.845  0.1657  0.6347  0.0897
  170MPD1    C3 2591   0.381   2.144  13.771  0.4206  0.5422  0.0662
  170MPD1    C4 2592   0.257   2.097  13.816  0.3619  0.4467  0.5764
  170MPD1    C5 2593   0.250   2.036  13.931 -0.4751  0.0965 -0.3983
  170MPD1     H 2594   0.585   2.150  13.809 -0.6422 -0.7089 -3.5841
  170MPD1    H1 2595   0.166   2.117  13.761 -0.3338 -1.8740  0.9129
  170MPD1    H2 2596   0.356   1.954  14.101  1.9567 -0.6653 -0.4412
  170MPD1    H3 2597   0.150   2.002  13.955 -0.3001 -0.0134  0.1989
  170MPD1     N 2598   0.402   2.228  13.657 -0.2702  0.3157  0.1814
  170MPD1    H5 2599   0.498   2.263  13.653  0.3842 -1.3937  1.0932
  170MPD1    N1 2600   0.597   2.019  14.032  0.5618 -0.5657 -0.0139
  170MPD1    H6 2601   0.595   1.932  14.083  0.1374 -0.4379  0.1840
  170MPD1    H7 2602   0.681   2.018  13.975  0.1138 -0.1948 -0.6872
  171MPD1     C 2603   3.504   4.073  15.618  0.3863 -0.0316  0.3851
  171MPD1    C1 2604   3.423   3.964  15.605  0.0325  0.6400  0.0172
  171MPD1    C2 2605   3.451   3.842  15.672 -0.2608 -0.8241 -0.2212
  171MPD1    C3 2606   3.573   3.830  15.734 -0.2329  0.2234  0.3969
  171MPD1    C4 2607   3.649   3.940  15.754 -0.6591 -0.4060  0.1498
  171MPD1    C5 2608   3.615   4.064  15.702  0.1441 -0.5871 -0.3632
  171MPD1     H 2609   3.376   3.763  15.672 -0.0876 -0.9852  0.8596
  171MPD1    H1 2610   3.749   3.940  15.797 -0.7457  0.3472  0.3550
  171MPD1    H2 2611   3.489   4.161  15.557 -0.7497 -1.3107 -1.1926
  171MPD1    H3 2612   3.682   4.149  15.711  0.9771 -1.4646  1.8635
  171MPD1     N 2613   3.613   3.708  15.793 -0.4347  0.6221 -0.2085
  171MPD1    H5 2614   3.692   3.709  15.856 -0.9344 -0.0487  0.4407
  171MPD1    N1 2615   3.308   3.977  15.520 -0.4256 -0.3093 -0.5067
  171MPD1    H6 2616   3.308   4.039  15.439  1.4373 -0.7968 -0.8728
  171MPD1    H7 2617   3.261   3.887  15.511 -0.6638 -0.2337 -0.0524
  172MPD1     C 2618   2.703   3.186   0.286  0.1943 -0.6140 -0.1284
  172MPD1    C1 2619   2.617   3.296   0.310 -0.1582 -0.2356 -0.3171
  172MPD1    C2 2620   2.663   3.413   0.367 -0.0787 -0.3481 -0.8551
  172MPD1    C3 2621   2.799   3.425   0.405  0.0785  0.7302  0.0881
  172MPD1    C4 2622   2.874   3.306   0.401  0.2981  0.9890 -1.0283
  172MPD1    C5 2623   2.827   3.199   0.336  0.3058  0.4688  0.0235
  172MPD1     H 2624   2.592   3.495   0.370  0.1857 -0.1578  0.2825
  172MPD1    H1 2625   2.975   3.289   0.436 -0.3598  0.5980  0.6565
  172MPD1    H2 2626   2.666   3.094   0.240 -0.3588 -0.1123 -0.6908
  172MPD1    H3 2627   2.904   3.123   0.334  0.6262  0.8291 -1.4206
  172MPD1     N 2628   2.862   3.549   0.444 -0.2585  0.3016  0.4645
  172MPD1    H5 2629   2.958   3.557   0.473  0.3699  0.1435 -1.5502
  172MPD1    N1 2630   2.488   3.292   0.261  0.7393  0.1676  0.2212
  172MPD1    H6 2631   2.460   3.195   0.247 -0.2695  0.2461  1.6545
  172MPD1    H7 2632   2.415   3.332   0.319 -0.9045  0.9319 -2.3696
  173MPD1     C 2633   4.024   3.286  14.361  0.6837 -0.7606 -0.0474
  173MPD1    C1 2634   4.129   3.195  14.340 -0.2329 -0.0163 -0.7724
  173MPD1    C2 2635   4.116   3.069  14.393  0.5830 -0.3897 -0.1849
  173MPD1    C3 2636   4.022   3.043  14.497 -0.0667 -0.1155 -0.0419
  173MPD1    C4 2637   3.925   3.136  14.522 -0.5105 -0.0584  0.4071
  173MPD1    C5 2638   3.924   3.262  14.453  0.3358 -0.1325  0.5635
  173MPD1     H 2639   4.191   2.992  14.382 -0.4068 -1.0501 -2.2465
  173MPD1    H1 2640   3.846   3.116  14.593  0.2744 -2.9308  0.4640
  173MPD1    H2 2641   4.028   3.381  14.308 -2.1047  1.0640  3.0174
  173MPD1    H3 2642   3.848   3.339  14.462 -1.2428 -1.6072 -0.1544
  173MPD1     N 2643   4.044   2.924  14.582 -0.0600 -0.5784  0.6805
  173MPD1    H5 2644   4.123   2.862  14.566  1.0780  1.6575 -2.1758
  173MPD1    N1 2645   4.243   3.229  14.261  0.3203 -0.4191  0.3390
  173MPD1    H6 2646   4.243   3.330  14.253  0.7436 -0.6240 -2.3420
  173MPD1    H7 2647   4.325   3.198  14.312  1.3625 -0.5318 -1.4061
  174MPD1     C 2648   0.028   2.425  15.022  0.2335  0.7237  0.2401
  174MPD1    C1 2649   0.006   2.506  14.908  0.1051 -0.2982  0.2669
  174MPD1    C2 2650   4.608   2.549  14.894  0.0888 -0.1624  0.9262
  174MPD1    C3 2651   4.497   2.481  14.953 -0.3431  0.3974  0.0628
  174MPD1    C4 2652   4.523   2.377  15.038  0.3206  0.0844 -0.0401
  174MPD1    C5 2653   4.649   2.347  15.069 -0.1357 -0.4710  0.6373
  174MPD1     H 2654   4.582   2.615  14.812  0.1719 -0.3394  0.7561
  174MPD1    H1 2655   4.444   2.329  15.094  2.1125 -0.3149  2.1653
  174MPD1    H2 2656   0.127   2.390  15.048 -0.9206 -1.4463  1.7213
  174MPD1    H3 2657   4.676   2.269  15.140 -0.8626 -2.9660 -1.8296
  174MPD1     N 2658   4.360   2.514  14.931 -0.4042 -0.2198 -0.6974
  174MPD1    H5 2659   4.293   2.449  14.973  0.3719 -1.5151 -1.4427
  174MPD1    N1 2660   0.108   2.568  14.834  0.1757  0.0219 -0.2974
  174MPD1    H6 2661   0.071   2.603  14.746 -1.1743  0.7880  0.5726
  174MPD1    H7 2662   0.197   2.521  14.820  1.4564  2.2504  0.3246
  175MPD1     C 2663   2.500   3.821  15.722 -0.0485  0.1776  1.1631
  175MPD1    C1 2664   2.613   3.807  15.803 -0.2429  0.0709 -0.2397
  175MPD1    C2 2665   2.599   3.794  15.939  0.3492 -0.1865 -0.4939
  175MPD1    C3 2666   2.479   3.814  15.995 -0.3266  0.3080  0.1148
  175MPD1    C4 2667   2.371   3.845  15.911 -0.0492  0.0583  0.3287
  175MPD1    C5 2668   2.379   3.837  15.777 -0.4501  0.3492  0.0912
  175MPD1     H 2669   2.677   3.755  16.003 -0.4358  1.2503  1.3386
  175MPD1    H1 2670   2.273   3.869  15.952  0.4104  1.3393  0.7027
  175MPD1    H2 2671   2.506   3.816  15.614  1.6625  0.0674  1.2642
  175MPD1    H3 2672   2.283   3.849  15.729 -1.2546  2.8589  2.3239
  175MPD1     N 2673   2.448   3.803  16.132  0.2807  0.4435  0.1686
  175MPD1    H5 2674   2.354   3.824  16.165 -0.1809  0.5518 -1.1912
  175MPD1    N1 2675   2.732   3.750  15.747 -0.3870  0.6289  0.7616
  175MPD1    H6 2676   2.745   3.783  15.651  0.2619 -1.3137  0.1901
  175MPD1    H7 2677   2.816   3.768  15.802 -0.8078  1.7769  1.0379
  176MPD1     C 2678   4.083   0.599  16.253 -0.0719  0.0723 -0.0646
  176MPD1    C1 2679   4.156   0.530  16.345  0.2916  0.3733  0.6038
  176MPD1    C2 2680   4.150   0.581  16.472 -0.3183 -0.1111  0.5840
  176MPD1    C3 2681   4.100   0.708  16.506 -0.4584  0.0179 -0.0424
  176MPD1    C4 2682   4.018   0.767  16.412 -0.0443 -0.1135  0.1050
  176MPD1    C5 2683   4.013   0.709  16.288  0.4500 -0.1590  0.0451
  176MPD1     H 2684   4.189   0.523  16.555  2.1142 -0.7123 -0.9698
  176MPD1    H1 2685   3.963   0.857  16.438 -1.1790 -0.9193  0.4692
  176MPD1    H2 2686   4.086   0.559  16.152  0.9074 -1.3509  0.5333
  176MPD1    H3 2687   3.966   0.775  16.216  0.9967  0.8210  0.5925
  176MPD1     N 2688   4.131   0.764  16.632 -0.2957 -1.1116  0.1369
  176MPD1    H5 2689   4.179   0.712  16.704 -0.4247  0.9085  1.6774
  176MPD1    N1 2690   4.183   0.395  16.317  0.0109 -0.3692  0.6348
  176MPD1    H6 2691   4.249   0.346  16.376  0.8333  0.6819  0.5932
  176MPD1    H7 2692   4.217   0.393  16.221 -1.1498 -1.4375  0.2369
  177MPD1     C 2693   2.726   0.640  10.451 -0.1186 -0.1532  0.4881
  177MPD1    C1 2694   2.727   0.683  10.320 -0.5909  0.2119 -0.1738
  177MPD1    C2 2695   2.605   0.702  10.269  0.5882 -0.7423 -0.2118
  177MPD1    C3 2696   2.484   0.667  10.319  0.3371 -0.0316 -0.9931
  177MPD1    C4 2697   2.484   0.611  10.445  0.5553 -0.6685 -0.1358
  177MPD1    C5 2698   2.606   0.607  10.514 -0.6299 -0.0198  0.6333
  177MPD1     H 2699   2.602   0.730  10.164  0.2936 -0.2388 -0.0719
  177MPD1    H1 2700   2.393   0.565  10.483  0.9897 -0.6290  0.9499
  177MPD1    H2 2701   2.814   0.622  10.512 -1.0437 -0.8367  1.6439
  177MPD1    H3 2702   2.602   0.577  10.618  1.5030 -0.7036  0.5143
  177MPD1     N 2703   2.368   0.671  10.236 -0.3461  0.5887  0.1059
  177MPD1    H5 2704   2.379   0.698  10.139  0.7235  0.4875  0.1993
  177MPD1    N1 2705   2.840   0.733  10.256  0.0779  0.2921  0.1054
  177MPD1    H6 2706   2.930   0.692  10.279  0.5624  0.3993 -1.5702
  177MPD1    H7 2707   2.822   0.762  10.160 -2.3524  0.7412  0.7137
  178MPD1     C 2708   0.030   2.792   0.045 -0.3687  0.7451 -0.1154
  178MPD1    C1 2709   0.146   2.743   0.100  0.2860 -0.0155  0.2353
  178MPD1    C2 2710   0.212   2.646   0.029  0.5261  0.2998  0.3129
  178MPD1    C3 2711   0.162   2.593  17.624 -0.0978 -0.5590  0.5516
  178MPD1    C4 2712   0.039   2.638  17.581 -0.4782 -0.4009 -0.6623
  178MPD1    C5 2713   4.698   2.736  17.649 -0.5371  1.0445 -0.2491
  178MPD1     H 2714   0.310   2.609   0.057  1.1143  1.8762  0.3424
  178MPD1    H1 2715   4.717   2.588  17.499 -1.8465 -0.5589  0.2841
  178MPD1    H2 2716   4.707   2.877   0.091 -2.0740  0.4430 -1.4376
  178MPD1    H3 2717   4.611   2.788  17.610 -1.3510 -0.2033 -0.0964
  178MPD1     N 2718   0.219   2.488  17.547  0.2399 -0.3895 -0.1432
  178MPD1    H5 2719   0.152   2.443  17.486  1.3836 -1.3208 -0.7144
  178MPD1    N1 2720   0.210   2.812   0.211 -0.3308  0.4758  0.3706
  178MPD1    H6 2721   0.262   2.742   0.263  1.7173 -1.3597 -4.1899
  178MPD1    H7 2722   0.139   2.863   0.264 -0.4435 -0.9478  1.5635
  179MPD1     C 2723   4.378   0.570  16.018 -0.7220  0.8263 -0.4920
  179MPD1    C1 2724   4.322   0.526  15.904  0.9732  1.3018  0.1140
  179MPD1    C2 2725   4.319   0.386  15.880 -0.1697  0.2419  0.4573
  179MPD1    C3 2726   4.374   0.305  15.978  0.6064 -0.6039  0.0095
  179MPD1    C4 2727   4.430   0.354  16.092 -0.0552 -0.1459  0.4519
  179MPD1    C5 2728   4.418   0.486  16.118 -0.0365  0.6546 -0.1223
  179MPD1     H 2729   4.289   0.337  15.788  1.8438  0.4864 -0.3135
  179MPD1    H1 2730   4.470   0.295  16.173 -0.1904  0.0540  0.6643
  179MPD1    H2 2731   4.371   0.674  16.048  0.1120  0.1507  2.0460
  179MPD1    H3 2732   4.464   0.515  16.212  0.3489 -1.2715  0.2923
  179MPD1     N 2733   4.388   0.165  15.958 -0.3060  0.7053  0.7541
  179MPD1    H5 2734   4.443   0.114  16.026  1.6359 -1.0058 -2.1283
  179MPD1    N1 2735   4.269   0.615  15.808  0.7063  0.5222  0.6342
  179MPD1    H6 2736   4.233   0.696  15.857 -0.7349  0.7360 -0.7860
  179MPD1    H7 2737   4.185   0.579  15.764  0.6067  0.5896  0.7689
  180MPD1     C 2738   0.371   1.176  13.795  0.3852 -0.3318  1.1581
  180MPD1    C1 2739   0.292   1.285  13.769  0.0471 -0.1536  0.0306
  180MPD1    C2 2740   0.244   1.367  13.873 -0.0022  0.0766 -0.5411
  180MPD1    C3 2741   0.259   1.332  14.007  0.0151 -0.1865  0.3129
  180MPD1    C4 2742   0.328   1.219  14.035  0.1171 -0.2854 -0.0236
  180MPD1    C5 2743   0.382   1.145  13.928 -0.8732 -0.0995  0.0157
  180MPD1     H 2744   0.181   1.453  13.856  1.3917  0.8800 -1.6098
  180MPD1    H1 2745   0.354   1.196  14.138 -0.8665  0.6091  0.4240
  180MPD1    H2 2746   0.410   1.102  13.726 -0.2072  0.2472  0.2116
  180MPD1    H3 2747   0.441   1.057  13.949 -1.5046 -0.7017 -0.7100
  180MPD1     N 2748   0.198   1.413  14.106  0.3286  0.8749 -0.6159
  180MPD1    H5 2749   0.150   1.493  14.066  0.3095  0.3217 -1.7138
  180MPD1    N1 2750   0.286   1.320  13.635  0.4701 -0.1130  0.0560
  180MPD1    H6 2751   0.209   1.382  13.611  0.6648  0.3229  0.5587
  180MPD1    H7 2752   0.266   1.245  13.569 -2.3172  0.7646 -0.0790
  181MPD1     C 2753   0.739   2.218   9.912  0.0516 -0.3361 -0.6067
  181MPD1    C1 2754   0.731   2.327   9.997 -0.2701 -0.9880 -0.4090
  181MPD1    C2 2755   0.842   2.411  10.005  0.2115  0.0862 -0.2515
  181MPD1    C3 2756   0.965   2.375   9.944  0.5161  1.4648 -0.1733
  181MPD1    C4 2757   0.978   2.255   9.883 -0.9455  0.3356 -0.8921
  181MPD1    C5 2758   0.865   2.180   9.864 -0.1545 -0.3870  1.1421
  181MPD1     H 2759   0.838   2.507  10.055  0.1683 -0.7433  1.3282
  181MPD1    H1 2760   1.067   2.229   9.827  0.3864  0.5702  1.0739
  181MPD1    H2 2761   0.641   2.175   9.895 -0.8907  1.9743 -1.0274
  181MPD1    H3 2762   0.872   2.101   9.790 -3.3296 -0.7547  1.2561
  181MPD1     N 2763   1.076   2.454   9.939 -0.2591  0.0432 -0.1190
  181MPD1    H5 2764   1.151   2.418   9.880  1.5594  1.0374  1.6109
  181MPD1    N1 2765   0.604   2.365  10.041 -0.0245  0.3724  0.0725
  181MPD1    H6 2766   0.559   2.274  10.048  2.1300 -0.6341  0.6644
  181MPD1    H7 2767   0.601   2.417  10.129 -1.2807  2.9487 -1.5119
  182MPD1     C 2768   2.721   3.137   1.822  0.2632  0.4629  0.0540
  182MPD1    C1 2769   2.634   3.226   1.879  0.2593  0.6152  0.1086
  182MPD1    C2 2770   2.507   3.231   1.827 -0.1127  0.4692  0.1589
  182MPD1    C3 2771   2.471   3.167   1.715  0.3075  0.5966  0.0895
  182MPD1    C4 2772   2.560   3.086   1.653  0.3092 -0.9270  0.5264
  182MPD1    C5 2773   2.681   3.057   1.713 -0.1093  0.5404 -0.5386
  182MPD1     H 2774   2.441   3.302   1.874  0.3476  0.1089  1.3605
  182MPD1    H1 2775   2.541   3.042   1.556  0.2524  0.6826 -0.1860
  182MPD1    H2 2776   2.820   3.117   1.862  0.7882 -0.0236 -1.5158
  182MPD1    H3 2777   2.748   2.984   1.668 -2.5603 -2.1140  0.1129
  182MPD1     N 2778   2.346   3.192   1.649 -0.1358  0.1108  0.8658
  182MPD1    H5 2779   2.332   3.139   1.564 -0.3682  0.4378  0.6991
  182MPD1    N1 2780   2.661   3.278   2.005 -0.1998  0.5959  0.2235
  182MPD1    H6 2781   2.761   3.289   2.021 -0.2741 -0.6673  1.6529
  182MPD1    H7 2782   2.625   3.372   2.017 -3.1972 -0.2047 -2.4062
  183MPD1     C 2783   3.069   2.993   9.691 -0.1642  0.6375 -0.5062
  183MPD1    C1 2784   3.087   2.870   9.761 -0.0644  0.2406  0.0022
  183MPD1    C2 2785   2.967   2.802   9.792  0.0724  0.1055 -0.0144
  183MPD1    C3 2786   2.839   2.842   9.752 -0.0746  0.1991  0.7938
  183MPD1    C4 2787   2.826   2.965   9.685  0.0243  0.5757 -0.5814
  183MPD1    C5 2788   2.942   3.030   9.641  0.3689  0.4541 -0.2518
  183MPD1     H 2789   2.965   2.714   9.856  1.2324  0.4201  0.4537
  183MPD1    H1 2790   2.731   2.992   9.640  0.5195  1.5187 -1.0545
  183MPD1    H2 2791   3.156   3.045   9.655  1.4073 -1.4150  0.2897
  183MPD1    H3 2792   2.931   3.118   9.578  2.1594  1.3607  0.7138
  183MPD1     N 2793   2.727   2.764   9.804  0.3116  0.6325  0.4817
  183MPD1    H5 2794   2.750   2.691   9.870 -1.2389  1.1584  1.6107
  183MPD1    N1 2795   3.210   2.823   9.815 -0.1640 -0.9282 -0.5398
  183MPD1    H6 2796   3.279   2.816   9.741 -0.4798  1.8942 -1.0985
  183MPD1    H7 2797   3.205   2.728   9.852 -1.3826 -1.0793 -1.0672
  184MPD1     C 2798   0.729   0.432  10.508  0.3528  0.1726  0.2796
  184MPD1    C1 2799   0.860   0.466  10.543 -0.6214  0.6388  0.6409
  184MPD1    C2 2800   0.939   0.526  10.455 -0.6623 -0.2962  0.5639
  184MPD1    C3 2801   0.886   0.571  10.331  0.6808  0.4243 -0.3498
  184MPD1    C4 2802   0.758   0.535  10.301 -0.4035 -0.2166 -0.3738
  184MPD1    C5 2803   0.683   0.453  10.380 -0.1800  0.1708 -0.7554
  184MPD1     H 2804   1.042   0.536  10.487 -0.8136 -0.7727  1.1907
  184MPD1    H1 2805   0.728   0.558  10.200  0.6899 -0.6533 -0.7961
  184MPD1    H2 2806   0.664   0.376  10.574  1.1699 -2.5183 -1.2268
  184MPD1    H3 2807   0.584   0.425  10.346 -0.1297 -1.7337  0.6516
  184MPD1     N 2808   0.955   0.650  10.235 -0.3053  0.1680  0.3344
  184MPD1    H5 2809   0.908   0.675  10.149 -0.2437  2.1292  0.8738
  184MPD1    N1 2810   0.908   0.410  10.668 -0.3467 -0.8155 -0.6677
  184MPD1    H6 2811   0.980   0.472  10.706 -0.4510 -1.1084  0.0032
  184MPD1    H7 2812   0.835   0.415  10.738  0.3254 -1.7320  0.0991
  185MPD1     C 2813   0.652   0.914   9.476  0.1098  0.7416  0.5605
  185MPD1    C1 2814   0.774   0.846   9.441  0.4107  0.0760  0.0208
  185MPD1    C2 2815   0.861   0.816   9.546 -0.7796  0.2479  0.0141
  185MPD1    C3 2816   0.826   0.842   9.678  0.3800  0.2672 -0.2223
  185MPD1    C4 2817   0.697   0.887   9.706  0.1120 -0.0788  0.2315
  185MPD1    C5 2818   0.604   0.916   9.608 -0.2101 -0.4290  0.9306
  185MPD1     H 2819   0.958   0.775   9.520 -1.6673 -1.7630 -0.1374
  185MPD1    H1 2820   0.656   0.893   9.806  1.0640  3.1580  0.4341
  185MPD1    H2 2821   0.585   0.941   9.394 -1.6869  0.5582  1.9705
  185MPD1    H3 2822   0.507   0.954   9.637 -0.0185 -0.6424  1.8569
  185MPD1     N 2823   0.911   0.816   9.790 -0.1600  0.0105  0.2416
  185MPD1    H5 2824   0.867   0.813   9.881  0.6783 -2.5094  0.5819
  185MPD1    N1 2825   0.812   0.829   9.304 -0.2990 -0.0061  0.4862
  185MPD1    H6 2826   0.727   0.819   9.248 -0.9446  1.3039  1.2266
  185MPD1    H7 2827   0.878   0.753   9.290 -0.8995 -0.2270 -1.0758
  186MPD1     C 2828   4.720   0.263  15.641 -0.0046  0.4045  0.3849
  186MPD1    C1 2829   0.126   0.238  15.679  0.0823  0.1838 -0.0938
  186MPD1    C2 2830   0.173   0.323  15.779 -0.3541  0.4424  0.0448
  186MPD1    C3 2831   0.090   0.421  15.832  0.4025  0.3545 -0.0347
  186MPD1    C4 2832   4.693   0.446  15.780  0.0269  0.2720  0.5673
  186MPD1    C5 2833   4.642   0.366  15.683 -0.1412  0.0395 -0.0594
  186MPD1     H 2834   0.274   0.307  15.813 -0.5328 -1.0904 -0.1486
  186MPD1    H1 2835   4.631   0.523  15.824  1.6317  1.0878  1.3920
  186MPD1    H2 2836   4.681   0.198  15.563  1.1269  0.3951 -0.1616
  186MPD1    H3 2837   4.546   0.384  15.635  0.1554  2.2497  0.1696
  186MPD1     N 2838   0.127   0.513  15.928 -0.0581  0.0236  0.9323
  186MPD1    H5 2839   0.065   0.590  15.952  0.0059  0.3915 -0.0876
  186MPD1    N1 2840   0.189   0.123  15.644  0.2263 -0.2952 -0.4533
  186MPD1    H6 2841   0.171   0.088  15.550 -0.7649  1.7413 -1.0228
  186MPD1    H7 2842   0.290   0.135  15.656  0.4677 -0.6091 -2.1041
  187MPD1     C 2843   3.133   2.321   0.523 -0.5382  0.4732  0.1796
  187MPD1    C1 2844   3.152   2.444   0.481 -0.1433  1.1798 -0.2230
  187MPD1    C2 2845   3.257   2.470   0.396  0.4338  0.5332 -0.2572
  187MPD1    C3 2846   3.346   2.373   0.346  0.5610 -0.8435 -0.4985
  187MPD1    C4 2847   3.320   2.244   0.388  0.1924 -0.0792  0.1158
  187MPD1    C5 2848   3.218   2.220   0.476  0.3304 -0.0804 -1.0615
  187MPD1     H 2849   3.275   2.570   0.358  0.0764  0.2618 -1.1504
  187MPD1    H1 2850   3.381   2.160   0.357 -2.0154 -1.5995 -0.0922
  187MPD1    H2 2851   3.044   2.299   0.581 -0.9174  0.7816 -0.2785
  187MPD1    H3 2852   3.207   2.118   0.511  1.1444  0.0811 -0.3299
  187MPD1     N 2853   3.444   2.394   0.249 -0.1028  0.5624  0.5373
  187MPD1    H5 2854   3.498   2.313   0.219 -0.1967 -0.6641  3.6031
  187MPD1    N1 2855   3.069   2.551   0.530 -0.0819  0.3348 -0.1997
  187MPD1    H6 2856   3.119   2.638   0.510  0.2098  0.3190  0.4632
  187MPD1    H7 2857   3.064   2.535   0.631 -1.3431  1.2677 -0.1182
  188MPD1     C 2858   2.952   1.910  10.377  0.1295 -0.2684 -0.1321
  188MPD1    C1 2859   2.902   1.899  10.243  0.1865  0.0819  0.0714
  188MPD1    C2 2860   2.957   1.812  10.149 -0.3454  0.4338  0.3644
  188MPD1    C3 2861   3.053   1.716  10.190 -0.4679 -0.2466  0.0020
  188MPD1    C4 2862   3.089   1.726  10.319  0.4495  0.3341  0.4639
  188MPD1    C5 2863   3.048   1.824  10.405 -0.9130  0.5023  0.4264
  188MPD1     H 2864   2.930   1.810  10.044  0.2777  0.5101  0.2037
  188MPD1    H1 2865   3.183   1.680  10.348 -0.9552 -2.2967  0.8365
  188MPD1    H2 2866   2.928   1.982  10.455 -1.0924 -1.5942  0.7275
  188MPD1    H3 2867   3.091   1.841  10.503 -0.3839 -3.6906  0.9151
  188MPD1     N 2868   3.107   1.610  10.113 -0.2135 -0.1361 -0.1293
  188MPD1    H5 2869   3.179   1.554  10.159  0.4205  0.0112 -0.9332
  188MPD1    N1 2870   2.820   2.004  10.192 -0.0869 -0.1831 -0.2323
  188MPD1    H6 2871   2.783   2.064  10.266 -0.0520 -2.0927  1.3411
  188MPD1    H7 2872   2.742   1.969  10.137  1.2893 -1.8838 -1.0746
  189MPD1     C 2873   0.816   2.830   0.341 -0.5418  0.4472  1.0639
  189MPD1    C1 2874   0.683   2.788   0.343 -0.4120  0.4922 -0.3421
  189MPD1    C2 2875   0.583   2.875   0.321 -0.1175 -0.7224 -0.2316
  189MPD1    C3 2876   0.609   3.010   0.332  1.0734  0.5405 -0.1693
  189MPD1    C4 2877   0.740   3.054   0.352  0.0346  0.5016  0.1189
  189MPD1    C5 2878   0.841   2.967   0.356  0.2989  0.4362 -0.1629
  189MPD1     H 2879   0.478   2.847   0.317 -0.1259 -0.0970 -4.2041
  189MPD1    H1 2880   0.763   3.160   0.343 -0.7172  0.7819  1.5986
  189MPD1    H2 2881   0.900   2.762   0.357  0.1900  1.0064 -0.4622
  189MPD1    H3 2882   0.941   3.004   0.375  0.8991 -1.2220 -0.0301
  189MPD1     N 2883   0.500   3.093   0.308  0.1056 -0.1011 -0.4238
  189MPD1    H5 2884   0.426   3.044   0.257 -1.6109 -0.4418  2.3639
  189MPD1    N1 2885   0.653   2.651   0.347 -0.8839  0.0624  0.0292
  189MPD1    H6 2886   0.727   2.597   0.391 -0.5844 -0.2483 -0.8668
  189MPD1    H7 2887   0.557   2.635   0.378 -0.4094  4.0422  3.6622
  190MPD1     C 2888   4.020   0.902  15.288  0.8100 -0.1006 -0.7896
  190MPD1    C1 2889   3.997   0.958  15.410 -0.4862 -0.0275  0.0588
  190MPD1    C2 2890   4.103   1.013  15.482 -0.0779  0.2507 -0.0314
  190MPD1    C3 2891   4.231   1.026  15.433  0.0391  0.3506 -0.2789
  190MPD1    C4 2892   4.244   0.971  15.309  0.2827 -0.8450 -0.5642
  190MPD1    C5 2893   4.143   0.901  15.246 -1.1572 -0.0840  0.2217
  190MPD1     H 2894   4.095   1.050  15.584 -0.3736 -3.2575  1.1937
  190MPD1    H1 2895   4.340   0.970  15.259 -0.0429  1.0134 -1.2284
  190MPD1    H2 2896   3.944   0.866  15.219  0.8299  1.1838 -1.4821
  190MPD1    H3 2897   4.163   0.848  15.154  1.1601  1.3530 -0.1232
  190MPD1     N 2898   4.338   1.084  15.516  0.6865 -0.0379 -0.1229
  190MPD1    H5 2899   4.313   1.114  15.610  1.5621  2.2589 -0.6354
  190MPD1    N1 2900   3.873   0.937  15.476  0.4478  0.2149  0.4538
  190MPD1    H6 2901   3.849   0.838  15.463 -0.1063  0.0500  2.7305
  190MPD1    H7 2902   3.872   0.976  15.570  0.1321  1.2610  0.0060
  191MPD1     C 2903   3.993   3.493  13.016  0.5864  0.0010 -0.7628
  191MPD1    C1 2904   4.086   3.554  12.930  0.3004  0.2598 -0.0107
  191MPD1    C2 2905   4.060   3.564  12.797  0.8579 -0.5950  1.4022
  191MPD1    C3 2906   3.942   3.511  12.741  1.0872  0.4355  0.1969
  191MPD1    C4 2907   3.852   3.450  12.826 -0.4918 -0.5826 -0.1790
  191MPD1    C5 2908   3.878   3.446  12.957 -0.2518 -0.1205 -0.8661
  191MPD1     H 2909   4.131   3.622  12.740  0.8334 -0.4526  1.5170
  191MPD1    H1 2910   3.766   3.392  12.793 -1.7854  1.2707 -0.0500
  191MPD1    H2 2911   4.013   3.484  13.122 -0.1893  0.1222 -0.6083
  191MPD1    H3 2912   3.807   3.404  13.028  1.3555  0.5003  1.1291
  191MPD1     N 2913   3.925   3.527  12.597  0.3406 -0.1536  0.1629
  191MPD1    H5 2914   3.992   3.579  12.542  0.8706 -1.1955 -0.1846
  191MPD1    N1 2915   4.193   3.615  12.995 -0.1219 -0.9304  0.8658
  191MPD1    H6 2916   4.266   3.642  12.929 -2.2155 -1.3739 -1.6004
  191MPD1    H7 2917   4.230   3.564  13.076  0.8615 -1.3283  0.1639
  192MPD1     C 2918   3.456   3.167  11.647 -0.7010 -0.5274  0.3865
  192MPD1    C1 2919   3.425   3.141  11.786 -0.1925 -0.9812 -0.1319
  192MPD1    C2 2920   3.484   3.214  11.887  0.1583 -0.8260  0.1776
  192MPD1    C3 2921   3.572   3.325  11.857 -0.7999  0.9293  0.5155
  192MPD1    C4 2922   3.601   3.350  11.724  0.5584  0.1629 -0.4511
  192MPD1    C5 2923   3.544   3.272  11.625  0.6928  1.1186 -0.4453
  192MPD1     H 2924   3.474   3.180  11.989 -0.5138  1.1751  0.7937
  192MPD1    H1 2925   3.667   3.435  11.705 -0.1603  0.6510 -0.7667
  192MPD1    H2 2926   3.408   3.121  11.562  0.8337 -0.5330 -0.4752
  192MPD1    H3 2927   3.574   3.296  11.524  1.9355  0.2950 -0.2792
  192MPD1     N 2928   3.636   3.412  11.957 -0.3985 -0.2261 -0.1133
  192MPD1    H5 2929   3.686   3.490  11.915  0.8947 -0.5231  0.9023
  192MPD1    N1 2930   3.338   3.034  11.816  0.8452 -0.1635  0.1337
  192MPD1    H6 2931   3.260   3.020  11.752  1.0294 -1.4214  0.1825
  192MPD1    H7 2932   3.303   3.037  11.912  0.0321  1.7024 -0.2137
  193MPD1     C 2933   3.172   3.672  16.459 -0.1383 -0.1889 -0.5735
  193MPD1    C1 2934   3.306   3.664  16.423 -0.0250  0.4173 -0.4707
  193MPD1    C2 2935   3.404   3.689  16.517 -0.6924  0.8275 -0.8063
  193MPD1    C3 2936   3.366   3.731  16.643 -0.0250 -0.4412 -0.0870
  193MPD1    C4 2937   3.233   3.748  16.677 -0.3156 -0.1849 -0.8334
  193MPD1    C5 2938   3.138   3.715  16.582 -0.6796  0.2589 -0.3086
  193MPD1     H 2939   3.510   3.675  16.497 -0.8039 -1.8548  0.4720
  193MPD1    H1 2940   3.203   3.777  16.777  1.3377  2.4438 -1.0882
  193MPD1    H2 2941   3.090   3.652  16.391 -0.8173  2.6247 -0.5776
  193MPD1    H3 2942   3.030   3.721  16.597 -0.7161  1.7152 -1.1625
  193MPD1     N 2943   3.461   3.757  16.741 -0.3729  0.2077  0.1518
  193MPD1    H5 2944   3.436   3.801  16.829 -3.7570 -0.7235 -0.3560
  193MPD1    N1 2945   3.345   3.610  16.297  0.0873 -0.2493 -0.0990
  193MPD1    H6 2946   3.283   3.620  16.217  1.1851 -1.6265 -1.1308
  193MPD1    H7 2947   3.437   3.644  16.269 -0.0802 -0.1097 -0.4830
  194MPD1     C 2948   1.943   1.546  16.581  0.2880  0.3201  0.4931
  194MPD1    C1 2949   1.832   1.463  16.594 -0.2157  0.1846 -1.0102
  194MPD1    C2 2950   1.852   1.327  16.618 -0.2879  0.0623 -0.2282
  194MPD1    C3 2951   1.982   1.283  16.644 -0.0796  0.4717 -0.2258
  194MPD1    C4 2952   2.089   1.362  16.615  1.1764  0.3357  0.3557
  194MPD1    C5 2953   2.072   1.496  16.580  0.5246  0.9893  0.0106
  194MPD1     H 2954   1.766   1.261  16.614  1.2868 -2.0643  0.6845
  194MPD1    H1 2955   2.188   1.320  16.621  0.4146 -1.2274  1.8913
  194MPD1    H2 2956   1.931   1.651  16.555  1.6618  0.7252  1.4658
  194MPD1    H3 2957   2.152   1.560  16.546 -0.2165  1.9655  0.1013
  194MPD1     N 2958   2.007   1.150  16.688 -0.0336  0.2653  0.5791
  194MPD1    H5 2959   2.104   1.122  16.700  0.1845  0.4418 -0.7704
  194MPD1    N1 2960   1.709   1.510  16.554  0.0222  0.1322  0.3090
  194MPD1    H6 2961   1.635   1.472  16.613 -0.9481  2.4866  0.6306
  194MPD1    H7 2962   1.707   1.612  16.559 -1.0555  0.1338 -0.0545
  195MPD1     C 2963   4.295   1.940   0.117  0.6287 -0.6924 -0.0182
  195MPD1    C1 2964   4.345   1.812   0.091 -0.3914 -0.0213 -0.2205
  195MPD1    C2 2965   4.248   1.712   0.110 -0.6496  0.1697  0.7589
  195MPD1    C3 2966   4.115   1.737   0.154  0.2987  0.2033 -0.1111
  195MPD1    C4 2967   4.079   1.867   0.196 -0.7296  0.1325  0.0368
  195MPD1    C5 2968   4.172   1.967   0.175 -0.2716 -0.0193 -0.6916
  195MPD1     H 2969   4.278   1.614   0.075  2.6852  1.7947 -0.8735
  195MPD1    H1 2970   3.982   1.884   0.243 -0.0242  1.5467  0.9947
  195MPD1    H2 2971   4.350   2.030   0.092 -0.4184 -0.3300 -1.0255
  195MPD1    H3 2972   4.143   2.070   0.190 -0.3836 -0.7353  3.9952
  195MPD1     N 2973   4.015   1.640   0.155  0.1048  0.9340 -0.3142
  195MPD1    H5 2974   3.930   1.674   0.197  1.3191  0.0715  2.8465
  195MPD1    N1 2975   4.463   1.801   0.014 -0.1083 -0.3890  0.0650
  195MPD1    H6 2976   4.494   1.704   0.008  1.7461  0.3042 -1.8357
  195MPD1    H7 2977   4.542   1.857   0.043 -0.8566  1.0514 -0.6577
  196MPD1     C 2978   2.279   2.140   1.580 -0.4141  0.1761 -0.2073
  196MPD1    C1 2979   2.285   2.246   1.492  0.1629  0.0991  0.3479
  196MPD1    C2 2980   2.406   2.262   1.425  0.6925  0.3374  0.2977
  196MPD1    C3 2981   2.505   2.162   1.424  0.3413 -0.1946 -0.5381
  196MPD1    C4 2982   2.480   2.043   1.496  0.7259  0.2340 -0.4806
  196MPD1    C5 2983   2.367   2.032   1.580  0.1744 -0.3076 -0.1687
  196MPD1     H 2984   2.407   2.344   1.355 -1.5698  0.2876  0.2081
  196MPD1    H1 2985   2.553   1.963   1.496 -0.2220 -0.6289  0.5370
  196MPD1    H2 2986   2.197   2.133   1.651 -0.5894  0.2826 -0.3999
  196MPD1    H3 2987   2.350   1.941   1.635  1.1387 -0.1270  0.4243
  196MPD1     N 2988   2.623   2.180   1.342  0.6270  0.8381  0.3088
  196MPD1    H5 2989   2.674   2.093   1.332 -0.6796  0.1223 -0.1309
  196MPD1    N1 2990   2.186   2.345   1.483 -0.3924 -0.2008 -0.4126
  196MPD1    H6 2991   2.093   2.304   1.487 -0.1671 -0.2575  3.4907
  196MPD1    H7 2992   2.197   2.392   1.393  0.6559  0.7099  0.1906
  197MPD1     C 2993   2.165   3.928   0.314 -0.5021 -0.8292  0.3135
  197MPD1    C1 2994   2.285   3.983   0.366 -0.1380 -0.1525 -0.3327
  197MPD1    C2 2995   2.335   4.087   0.286 -0.5288  0.2220  0.9217
  197MPD1    C3 2996   2.289   4.109   0.156 -0.5633 -0.3737  0.3661
  197MPD1    C4 2997   2.188   4.035   0.102  0.2659  0.6454  0.8441
  197MPD1    C5 2998   2.118   3.954   0.187 -0.5362  0.4758 -0.3866
  197MPD1     H 2999   2.402   4.155   0.338  1.4339 -1.5968  0.7215
  197MPD1    H1 3000   2.157   4.045  17.711  2.6839 -1.4227 -0.0755
  197MPD1    H2 3001   2.099   3.867   0.376 -0.9288  1.7481  2.4086
  197MPD1    H3 3002   2.024   3.907   0.158 -0.3457 -1.8119  2.7222
  197MPD1     N 3003   2.353   4.203   0.070 -0.8175  0.0681 -0.4498
  197MPD1    H5 3004   2.315   4.210  17.688 -1.3898 -1.1556 -0.3054
  197MPD1    N1 3005   2.317   3.978   0.503 -0.3329 -0.5305 -0.4717
  197MPD1    H6 3006   2.285   3.888   0.539 -4.5219  1.8733  1.9157
  197MPD1    H7 3007   2.418   3.977   0.510 -0.3136  1.3804 -0.4788
  198MPD1     C 3008   4.002   2.585  15.797  0.4843  0.4940  0.3688
  198MPD1    C1 3009   4.099   2.540  15.705 -0.1952 -0.5086 -0.8009
  198MPD1    C2 3010   4.218   2.610  15.695 -0.2540  0.5534  0.2052
  198MPD1    C3 3011   4.266   2.699  15.788 -0.0683  0.0880 -0.4133
  198MPD1    C4 3012   4.177   2.742  15.887 -0.2168 -0.2462 -0.7695
  198MPD1    C5 3013   4.047   2.684  15.889 -0.2111  0.0567  0.2941
  198MPD1     H 3014   4.275   2.580  15.608 -0.8616 -0.6652  0.2262
  198MPD1    H1 3015   4.201   2.817  15.961  2.2366 -1.7473 -0.0328
  198MPD1    H2 3016   3.899   2.556  15.808 -0.1947  2.9834  0.6307
  198MPD1    H3 3017   3.982   2.716  15.969 -0.4011  0.9017 -0.1978
  198MPD1     N 3018   4.396   2.754  15.767  0.3948 -0.0376 -0.1034
  198MPD1    H5 3019   4.450   2.701  15.700 -1.2487 -2.3258  0.3707
  198MPD1    N1 3020   4.062   2.449  15.609 -0.2898  0.8110  0.7630
  198MPD1    H6 3021   3.991   2.379  15.630 -1.3335  1.8882  0.8303
  198MPD1    H7 3022   4.137   2.410  15.552 -0.2044 -1.6497  2.5527
  199MPD1     C 3023   1.442   2.029   9.228 -0.3682 -0.1852  0.3553
  199MPD1    C1 3024   1.311   2.041   9.180  0.3050 -0.2318 -0.1572
  199MPD1    C2 3025   1.228   2.121   9.246 -0.3881  0.3291  0.1859
  199MPD1    C3 3026   1.253   2.176   9.372 -0.3091  0.1310  0.1055
  199MPD1    C4 3027   1.383   2.156   9.416  0.3192 -0.3439 -0.5816
  199MPD1    C5 3028   1.477   2.091   9.343 -0.3856 -0.6437  0.1533
  199MPD1     H 3029   1.135   2.155   9.199 -0.4422  2.4017  1.7881
  199MPD1    H1 3030   1.423   2.206   9.503 -0.5913  0.8934 -0.8654
  199MPD1    H2 3031   1.518   1.976   9.172  0.4690  0.3262  1.0085
  199MPD1    H3 3032   1.577   2.095   9.385  0.4576 -4.3598 -1.5644
  199MPD1     N 3033   1.159   2.250   9.451 -0.6401 -0.2565  0.1720
  199MPD1    H5 3034   1.184   2.274   9.546 -0.5178 -1.0415  0.3374
  199MPD1    N1 3035   1.287   1.987   9.051 -0.5552  0.0280  0.1767
  199MPD1    H6 3036   1.204   1.930   9.039  0.6159 -1.2904 -1.8297
  199MPD1    H7 3037   1.369   1.939   9.015  0.8127  1.3333  1.5225
  200MPD1     C 3038   0.516   3.085  14.731 -0.5612  0.1100 -0.1507
  200MPD1    C1 3039   0.517   3.080  14.592 -0.2661 -0.8378 -0.4029
  200MPD1    C2 3040   0.572   3.193  14.531 -0.4341 -0.0833  0.5116
  200MPD1    C3 3041   0.646   3.296  14.590  0.5069  0.6541  0.3085
  200MPD1    C4 3042   0.646   3.292  14.730  0.3725 -0.3915 -0.0093
  200MPD1    C5 3043   0.580   3.194  14.793 -0.3567 -0.0282 -0.1275
  200MPD1     H 3044   0.557   3.197  14.424 -0.8206  0.5622  0.5888
  200MPD1    H1 3045   0.687   3.365  14.799 -0.3332 -0.2322  0.2408
  200MPD1    H2 3046   0.468   3.002  14.783 -1.6282  3.2256  3.8184
  200MPD1    H3 3047   0.568   3.216  14.899  0.3199  3.3096 -0.7399
  200MPD1     N 3048   0.716   3.388  14.508 -0.6506  0.3531 -0.1994
  200MPD1    H5 3049   0.704   3.379  14.407  2.3464  1.9220 -0.7096
  200MPD1    N1 3050   0.443   2.987  14.525 -0.0839 -0.1987  0.4891
  200MPD1    H6 3051   0.463   2.895  14.564  2.9735  0.3956  0.3336
  200MPD1    H7 3052   0.470   2.972  14.428 -1.1275 -0.1946  0.1982
  201MPD1     C 3053   3.271   2.940  13.340 -0.0379 -0.6544 -0.1736
  201MPD1    C1 3054   3.393   2.914  13.292  0.0541 -0.2657 -0.3695
  201MPD1    C2 3055   3.419   2.792  13.237  0.0137 -0.4970  0.2108
  201MPD1    C3 3056   3.320   2.702  13.216  0.5423  0.0659  0.2660
  201MPD1    C4 3057   3.189   2.733  13.247  0.3896 -0.3209 -0.6950
  201MPD1    C5 3058   3.172   2.850  13.314 -0.4710  0.3736 -0.5424
  201MPD1     H 3059   3.516   2.756  13.202 -0.6711 -1.0052 -1.1532
  201MPD1    H1 3060   3.108   2.662  13.251  0.4568 -0.3815 -0.4270
  201MPD1    H2 3061   3.255   3.027  13.403  1.2154 -0.2171 -0.4628
  201MPD1    H3 3062   3.074   2.862  13.359  0.0089  1.3544  0.2222
  201MPD1     N 3063   3.356   2.584  13.157 -0.7521 -0.2875  0.6163
  201MPD1    H5 3064   3.454   2.562  13.141 -0.6581  0.4657  0.1371
  201MPD1    N1 3065   3.507   2.990  13.342 -0.5249 -0.4062 -0.2182
  201MPD1    H6 3066   3.483   3.086  13.366  0.8015 -0.9870  3.4542
  201MPD1    H7 3067   3.593   2.989  13.287 -1.1044 -1.9430 -1.0792
  202MPD1     C 3068   2.477   1.934   9.276  0.7986  0.0960 -0.0271
  202MPD1    C1 3069   2.584   1.851   9.273 -0.2945 -0.0147 -0.5561
  202MPD1    C2 3070   2.626   1.792   9.394  0.1155  0.0619  0.1767
  202MPD1    C3 3071   2.537   1.765   9.494 -0.2124  0.4585  0.5840
  202MPD1    C4 3072   2.418   1.830   9.479  0.2729  0.0408  0.0606
  202MPD1    C5 3073   2.401   1.923   9.387 -0.6371  0.6119 -0.4309
  202MPD1     H 3074   2.720   1.738   9.390  0.1198 -0.0401  1.8260
  202MPD1    H1 3075   2.346   1.814   9.559  0.1945 -0.5634 -0.1337
  202MPD1    H2 3076   2.464   2.014   9.204 -0.9640 -1.4870 -1.4740
  202MPD1    H3 3077   2.315   1.989   9.390  0.1606  1.5274  1.8805
  202MPD1     N 3078   2.559   1.692   9.610  0.0118 -0.7302 -0.1551
  202MPD1    H5 3079   2.480   1.691   9.674  0.5868  1.1791  0.6016
  202MPD1    N1 3080   2.687   1.886   9.181  0.1624 -0.8145  0.2503
  202MPD1    H6 3081   2.756   1.811   9.173  0.4455 -0.6434  1.1436
  202MPD1    H7 3082   2.653   1.906   9.087 -0.4505 -2.3911  0.1266
  203MPD1     C 3083   0.989   2.609  12.539 -0.0502 -0.4328 -0.1479
  203MPD1    C1 3084   1.068   2.540  12.451  0.5341  0.0332 -0.8856
  203MPD1    C2 3085   1.202   2.530  12.483  0.3199  0.0094  0.2163
  203MPD1    C3 3086   1.264   2.601  12.583 -0.6628  0.4305 -0.6084
  203MPD1    C4 3087   1.183   2.688  12.654  0.5715  0.1037  1.2472
  203MPD1    C5 3088   1.043   2.687  12.628  0.8651  0.3544 -0.0110
  203MPD1     H 3089   1.258   2.457  12.425  1.6401 -0.4218  2.0339
  203MPD1    H1 3090   1.220   2.762  12.725  1.6289  0.1230  0.6697
  203MPD1    H2 3091   0.880   2.614  12.538 -0.0885 -0.9641  2.2072
  203MPD1    H3 3092   0.980   2.745  12.695 -1.3231  0.9992 -2.6672
  203MPD1     N 3093   1.400   2.577  12.604 -0.0836 -0.4104  0.1233
  203MPD1    H5 3094   1.459   2.518  12.546 -0.0496  1.4183 -1.6811
  203MPD1    N1 3095   1.008   2.456  12.357  0.6512 -0.1749  0.2859
  203MPD1    H6 3096   1.066   2.433  12.277  1.0021 -0.7455  0.6976
  203MPD1    H7 3097   0.923   2.495  12.318 -0.1555 -2.0951  0.1098
  204MPD1     C 3098   0.317   4.117  17.481 -0.1739  0.1315 -0.4911
  204MPD1    C1 3099   0.408   4.210  17.524 -0.8337  0.2395 -0.4605
  204MPD1    C2 3100   0.544   4.178  17.542 -0.6400 -0.0688  0.2023
  204MPD1    C3 3101   0.580   4.044  17.538  0.2197  0.1248 -0.2680
  204MPD1    C4 3102   0.490   3.950  17.492 -0.7423  0.3317  0.8150
  204MPD1    C5 3103   0.360   3.983  17.474  0.1365  0.1778  0.1104
  204MPD1     H 3104   0.625   4.243  17.575  0.2999 -0.5405 -1.1833
  204MPD1    H1 3105   0.516   3.845  17.485 -0.1791  0.6385 -1.7423
  204MPD1    H2 3106   0.218   4.140  17.443 -0.6481  1.0632  1.3117
  204MPD1    H3 3107   0.286   3.912  17.438 -0.8316  0.1484  2.1481
  204MPD1     N 3108   0.712   4.008  17.562 -0.0149 -0.3274 -0.2782
  204MPD1    H5 3109   0.782   4.080  17.576  0.0661 -0.7096  1.3355
  204MPD1    N1 3110   0.362   4.345  17.527 -0.6388  0.3454  0.3828
  204MPD1    H6 3111   0.423   4.389  17.596 -0.7734  1.0874  0.0199
  204MPD1    H7 3112   0.268   4.362  17.562 -1.0763  0.0704 -0.6493
  205MPD1     C 3113   0.789   2.886  16.854 -0.2853  0.7568 -0.1905
  205MPD1    C1 3114   0.860   2.771  16.875  0.3459  0.1645 -0.1183
  205MPD1    C2 3115   0.935   2.760  16.994  0.1755 -0.1409  0.4446
  205MPD1    C3 3116   0.918   2.859  17.090  0.2079  1.3664 -0.4382
  205MPD1    C4 3117   0.838   2.962  17.065 -0.1921  0.1744  0.0506
  205MPD1    C5 3118   0.774   2.982  16.944 -0.2294 -0.0531  0.3183
  205MPD1     H 3119   1.011   2.683  17.004  0.5710  0.2870  0.7319
  205MPD1    H1 3120   0.820   3.039  17.139 -1.8664  0.9976 -1.2072
  205MPD1    H2 3121   0.739   2.899  16.759 -1.7903  0.2964  0.5417
  205MPD1    H3 3122   0.712   3.069  16.922  1.2097  1.1276  0.9904
  205MPD1     N 3123   0.999   2.872  17.203 -0.0269 -0.6766 -0.6514
  205MPD1    H5 3124   0.985   2.956  17.258  1.4506 -0.5625 -0.4483
  205MPD1    N1 3125   0.878   2.679  16.773 -0.1865  0.2398  0.1393
  205MPD1    H6 3126   0.903   2.594  16.824 -0.0968  0.1512 -0.0520
  205MPD1    H7 3127   0.787   2.680  16.726 -0.6003  0.9392  0.9629
  206MPD1     C 3128   2.238   0.749  16.439  0.1326  0.0553  0.2881
  206MPD1    C1 3129   2.171   0.650  16.375 -0.3950  1.1304  0.7177
  206MPD1    C2 3130   2.043   0.676  16.341 -0.9335  0.2516  0.6548
  206MPD1    C3 3131   1.976   0.791  16.364 -0.5150  0.2239 -0.8705
  206MPD1    C4 3132   2.043   0.896  16.420  0.2305 -0.3455 -0.1760
  206MPD1    C5 3133   2.177   0.872  16.460  0.4409  0.0681 -0.0021
  206MPD1     H 3134   1.987   0.596  16.294 -1.5209 -0.2671  2.2331
  206MPD1    H1 3135   2.001   0.995  16.431  0.1852 -0.5617  1.4917
  206MPD1    H2 3136   2.344   0.739  16.462  0.6803 -3.0453 -3.6651
  206MPD1    H3 3137   2.232   0.945  16.518  0.2496 -0.0396  0.3110
  206MPD1     N 3138   1.838   0.808  16.343  0.4083 -0.0752  0.2782
  206MPD1    H5 3139   1.799   0.900  16.358 -1.9644 -1.6442  3.6539
  206MPD1    N1 3140   2.216   0.522  16.368  0.7531 -0.7960  0.0103
  206MPD1    H6 3141   2.165   0.471  16.296 -0.9611  0.6546  0.1919
  206MPD1    H7 3142   2.315   0.504  16.350  1.0235 -1.4518  2.1813
  207MPD1     C 3143   3.418   2.513  10.348  0.1404  0.0661 -0.4773
  207MPD1    C1 3144   3.398   2.530  10.487 -0.0621  0.3466  0.1972
  207MPD1    C2 3145   3.518   2.554  10.566  0.6824  0.8881 -0.0489
  207MPD1    C3 3146   3.643   2.565  10.507 -0.3913 -0.6339 -0.4102
  207MPD1    C4 3147   3.657   2.534  10.373  0.3152 -0.0335  0.7542
  207MPD1    C5 3148   3.549   2.524  10.295  0.4923 -0.7510  0.0156
  207MPD1     H 3149   3.513   2.572  10.673  0.5977  0.7259 -0.0257
  207MPD1    H1 3150   3.754   2.551  10.329 -0.6869  2.9499 -0.3017
  207MPD1    H2 3151   3.337   2.512  10.275  0.0240 -1.1976 -0.3305
  207MPD1    H3 3152   3.561   2.527  10.187  2.9948  0.5267  0.3254
  207MPD1     N 3153   3.762   2.591  10.581  0.4350 -0.0017  0.1811
  207MPD1    H5 3154   3.846   2.603  10.526 -0.2449  0.3995 -0.7607
  207MPD1    N1 3155   3.270   2.520  10.542 -0.2396  0.0118  0.6633
  207MPD1    H6 3156   3.199   2.550  10.474 -1.5062  0.6475  2.2592
  207MPD1    H7 3157   3.258   2.577  10.625  1.7717 -0.8070  1.4888
  208MPD1     C 3158   2.375   3.060  17.455  0.2151  0.6234 -0.5175
  208MPD1    C1 3159   2.239   3.073  17.466  0.1597  0.2051  0.0416
  208MPD1    C2 3160   2.183   3.064  17.595 -0.9149 -0.1832  0.2809
  208MPD1    C3 3161   2.264   3.045  17.706 -0.8001  0.1620 -0.1434
  208MPD1    C4 3162   2.402   3.055  17.693 -0.4516 -0.2467  0.3999
  208MPD1    C5 3163   2.455   3.050  17.564 -0.2096  0.1069 -0.0349
  208MPD1     H 3164   2.076   3.060  17.611 -0.5777  0.8800  2.8136
  208MPD1    H1 3165   2.463   3.038   0.069 -2.5941 -0.6272  1.8068
  208MPD1    H2 3166   2.421   3.042  17.358 -2.1585  0.7048 -1.6698
  208MPD1    H3 3167   2.562   3.033  17.555 -0.7137 -2.0479 -1.6905
  208MPD1     N 3168   2.200   3.031   0.115 -0.4445  0.2433 -0.0527
  208MPD1    H5 3169   2.099   3.035   0.106 -0.5761  0.9594  1.7620
  208MPD1    N1 3170   2.165   3.058  17.351  0.4851  0.1806  0.4912
  208MPD1    H6 3171   2.070   3.093  17.365  0.3166 -0.3414  0.6761
  208MPD1    H7 3172   2.208   3.109  17.274 -2.0833 -3.4892 -3.3880
  209MPD1     C 3173   0.413   1.860  11.757  0.1310 -0.4675  0.3199
  209MPD1    C1 3174   0.431   1.967  11.839 -0.6025 -0.4310  0.2248
  209MPD1    C2 3175   0.324   2.051  11.846 -0.6598 -0.0679  0.4963
  209MPD1    C3 3176   0.214   2.033  11.766  0.0714 -0.3524  0.2146
  209MPD1    C4 3177   0.196   1.918  11.689  0.1783 -0.3648  0.3185
  209MPD1    C5 3178   0.300   1.836  11.687  0.2790 -0.6805 -0.0017
  209MPD1     H 3179   0.321   2.131  11.920  1.2970  0.8503 -0.4271
  209MPD1    H1 3180   0.104   1.892  11.637 -0.3974  1.6250  0.3569
  209MPD1    H2 3181   0.491   1.785  11.755 -0.5650 -1.1720 -0.3334
  209MPD1    H3 3182   0.284   1.739  11.640 -1.3940 -0.7677  0.7501
  209MPD1     N 3183   0.111   2.132  11.763 -0.4920  0.1210 -0.4216
  209MPD1    H5 3184   0.116   2.205  11.833  0.1101  0.1132 -0.4569
  209MPD1    N1 3185   0.543   1.975  11.927 -0.1049  1.0447  0.0180
  209MPD1    H6 3186   0.556   2.071  11.958  1.4675  0.3781  1.4306
  209MPD1    H7 3187   0.635   1.956  11.888 -0.1762  1.8239 -0.5137
  210MPD1     C 3188   4.447   2.915  12.186 -0.3674 -0.1360 -0.0078
  210MPD1    C1 3189   4.424   2.779  12.212 -0.0351  0.2994 -0.7056
  210MPD1    C2 3190   4.452   2.688  12.110 -0.1595 -0.3128 -0.2417
  210MPD1    C3 3191   4.508   2.732  11.995 -0.6400  0.0128 -0.7651
  210MPD1    C4 3192   4.536   2.864  11.975  0.2407 -0.3510 -0.3225
  210MPD1    C5 3193   4.495   2.959  12.065 -0.2499  0.1157 -0.2253
  210MPD1     H 3194   4.435   2.584  12.139  0.6941 -0.4304 -0.1507
  210MPD1    H1 3195   4.599   2.901  11.896 -0.8795 -1.9258 -1.9394
  210MPD1    H2 3196   4.411   2.996  12.248  1.1817 -0.7969  1.7776
  210MPD1    H3 3197   4.514   3.064  12.045  0.7802 -0.0366 -0.0353
  210MPD1     N 3198   4.541   2.643  11.896 -0.0905  0.0178 -0.5191
  210MPD1    H5 3199   4.557   2.692  11.809 -0.2251  1.1736  0.1156
  210MPD1    N1 3200   4.332   2.746  12.315  0.2519 -0.2317 -0.2081
  210MPD1    H6 3201   4.343   2.653  12.353 -0.7540 -0.2480  0.0442
  210MPD1    H7 3202   4.338   2.816  12.389 -3.5117  1.3282 -1.3462
  211MPD1     C 3203   2.700   3.009  16.536  0.8125 -0.2551 -0.5312
  211MPD1    C1 3204   2.610   3.103  16.487  0.4434 -0.4710 -0.0924
  211MPD1    C2 3205   2.484   3.096  16.532  0.4815 -0.7228 -0.7284
  211MPD1    C3 3206   2.441   3.012  16.633 -0.6621 -0.3079 -0.7263
  211MPD1    C4 3207   2.534   2.926  16.694  0.5521 -0.4849  0.5260
  211MPD1    C5 3208   2.662   2.923  16.638 -0.7599  0.8287 -0.2969
  211MPD1     H 3209   2.422   3.166  16.477  1.7077  2.0013  1.3840
  211MPD1    H1 3210   2.512   2.858  16.775 -2.2248  0.8776  0.9001
  211MPD1    H2 3211   2.799   2.996  16.492  1.9324 -0.6002  2.1066
  211MPD1    H3 3212   2.733   2.848  16.669 -2.7372 -1.5626 -1.6174
  211MPD1     N 3213   2.302   3.027  16.660  0.4529 -0.1051  0.1149
  211MPD1    H5 3214   2.254   3.094  16.602  0.3283  0.2923  0.6767
  211MPD1    N1 3215   2.638   3.164  16.358  0.5269 -0.5348  0.0246
  211MPD1    H6 3216   2.738   3.177  16.341  0.1522  1.9733 -0.1935
  211MPD1    H7 3217   2.601   3.258  16.363 -0.8421 -1.1380  1.1019
  212MPD1     C 3218   1.347   1.068  16.406  0.2706  0.3483  0.2017
  212MPD1    C1 3219   1.326   1.107  16.535  0.5826  0.2180  0.8562
  212MPD1    C2 3220   1.205   1.086  16.603 -0.1610  0.0434 -0.6611
  212MPD1    C3 3221   1.102   1.014  16.533 -0.0783  0.0627  0.6925
  212MPD1    C4 3222   1.128   0.968  16.407  0.2345  0.0684 -0.5324
  212MPD1    C5 3223   1.245   1.003  16.345  0.0293 -0.3933 -0.0179
  212MPD1     H 3224   1.200   1.121  16.705  0.2580 -0.4076 -0.4848
  212MPD1    H1 3225   1.052   0.908  16.358 -0.5834  1.1171 -0.5719
  212MPD1    H2 3226   1.444   1.088  16.363  0.4676 -0.7308  0.1544
  212MPD1    H3 3227   1.266   0.981  16.241  1.7675  2.1902 -0.2029
  212MPD1     N 3228   0.995   0.956  16.598 -0.4028 -0.0084 -0.4651
  212MPD1    H5 3229   0.947   0.881  16.548  1.8374 -1.9101  0.2494
  212MPD1    N1 3230   1.440   1.159  16.608  0.5579 -0.0495 -0.2574
  212MPD1    H6 3231   1.504   1.183  16.533 -1.3442  1.7218 -1.3142
  212MPD1    H7 3232   1.415   1.235  16.670 -1.2569 -0.9046  0.0823
  213MPD1     C 3233   3.915   1.514  15.949  0.5422  0.2442 -0.4388
  213MPD1    C1 3234   4.030   1.577  15.915 -0.6575  0.2980 -0.6802
  213MPD1    C2 3235   4.008   1.662  15.802 -0.1105 -0.1150  0.0596
  213MPD1    C3 3236   3.893   1.650  15.724 -0.2395 -0.4253  0.0102
  213MPD1    C4 3237   3.797   1.551  15.748 -0.0055 -0.0081 -0.4144
  213MPD1    C5 3238   3.809   1.485  15.866  0.3399 -0.2649 -0.3627
  213MPD1     H 3239   4.089   1.724  15.766  1.5815 -2.3009  0.1296
  213MPD1    H1 3240   3.714   1.528  15.681  0.3186 -1.0408 -0.4669
  213MPD1    H2 3241   3.913   1.441  16.030 -1.3372 -0.2840 -0.9680
  213MPD1    H3 3242   3.730   1.415  15.891 -1.7079  0.8583 -3.6347
  213MPD1     N 3243   3.898   1.727  15.610  0.2378  0.3382  0.4506
  213MPD1    H5 3244   3.968   1.801  15.616 -1.3487  2.1009 -2.7033
  213MPD1    N1 3245   4.121   1.619  16.017 -0.5059  0.4315 -0.9020
  213MPD1    H6 3246   4.212   1.648  15.982  0.1692  0.9796  1.3506
  213MPD1    H7 3247   4.144   1.544  16.082 -0.2225  2.7002  1.6216
  214MPD1     C 3248   3.371   1.864  14.766 -0.0174  1.0570 -0.2833
  214MPD1    C1 3249   3.463   1.969  14.770  1.2821 -0.2985  0.9774
  214MPD1    C2 3250   3.547   1.977  14.878 -0.3166  0.6514 -0.9109
  214MPD1    C3 3251   3.538   1.896  14.989 -0.3186  0.4362  0.1577
  214MPD1    C4 3252   3.441   1.803  14.985  0.3862 -0.4965 -0.6523
  214MPD1    C5 3253   3.365   1.779  14.872  0.4142  0.3623 -0.0671
  214MPD1     H 3254   3.613   2.063  14.865  0.2878  0.5074  1.0771
  214MPD1    H1 3255   3.430   1.733  15.068  2.5261  0.4135  0.4042
  214MPD1    H2 3256   3.307   1.847  14.680  0.1888 -0.8318 -0.0743
  214MPD1    H3 3257   3.284   1.707  14.868  0.0723  0.6917  0.8831
  214MPD1     N 3258   3.608   1.907  15.111  0.1246 -0.2537 -0.2907
  214MPD1    H5 3259   3.593   1.845  15.190 -0.9663  0.3474 -0.0319
  214MPD1    N1 3260   3.485   2.045  14.654  0.1077  0.1267 -0.2444
  214MPD1    H6 3261   3.395   2.063  14.610  0.7123 -0.4188 -1.7154
  214MPD1    H7 3262   3.521   2.137  14.677  2.8795 -0.5865 -1.7785
  215MPD1     C 3263   3.144   2.207  10.947 -0.3145  0.5608 -1.1119
  215MPD1    C1 3264   3.203   2.304  10.869  0.3764  0.7759 -0.3470
  215MPD1    C2 3265   3.324   2.344  10.902 -0.4351  0.1154  0.5098
  215MPD1    C3 3266   3.383   2.298  11.016 -0.1850 -0.5955 -0.4525
  215MPD1    C4 3267   3.324   2.200  11.090 -0.7894  0.3369 -0.1264
  215MPD1    C5 3268   3.201   2.160  11.062  0.7947  0.3461  0.3370
  215MPD1     H 3269   3.364   2.424  10.840  0.0919  0.0682  0.7864
  215MPD1    H1 3270   3.367   2.159  11.181  1.6029 -2.5336 -2.5683
  215MPD1    H2 3271   3.041   2.179  10.929 -0.4598 -0.7140  1.6962
  215MPD1    H3 3272   3.143   2.107  11.136  0.5212  3.1792  2.1224
  215MPD1     N 3273   3.509   2.355  11.052 -0.1160 -0.1828 -0.7600
  215MPD1    H5 3274   3.545   2.433  10.999  0.6177  0.8786  1.2795
  215MPD1    N1 3275   3.127   2.372  10.773 -0.2082 -0.4404 -0.2827
  215MPD1    H6 3276   3.048   2.314  10.746 -0.1265  1.4984 -4.6903
  215MPD1    H7 3277   3.179   2.402  10.692  0.4591  0.2887  0.4120
  216MPD1     C 3278   1.357   0.828  16.802 -0.4156 -0.5927 -0.4381
  216MPD1    C1 3279   1.438   0.755  16.890 -0.0386  0.7634  0.4593
  216MPD1    C2 3280   1.411   0.620  16.899  0.0612 -0.3341 -0.3345
  216MPD1    C3 3281   1.333   0.546  16.816  0.0238 -0.2071  0.6436
  216MPD1    C4 3282   1.262   0.611  16.715 -0.3460  0.0448  0.2696
  216MPD1    C5 3283   1.268   0.750  16.720  0.3570 -0.1988 -0.1457
  216MPD1     H 3284   1.461   0.564  16.978  0.5506  0.9019  0.2237
  216MPD1    H1 3285   1.201   0.562  16.640 -1.0272  2.1899 -0.5639
  216MPD1    H2 3286   1.378   0.933  16.788 -0.2572 -0.5421  0.1807
  216MPD1    H3 3287   1.220   0.795  16.634 -0.5013 -1.1384 -0.1504
  216MPD1     N 3288   1.336   0.409  16.836 -0.1059  0.4147 -0.1022
  216MPD1    H5 3289   1.394   0.365  16.907  1.0207  1.2709 -0.5093
  216MPD1    N1 3290   1.558   0.804  16.944 -0.1106  0.3764  0.5928
  216MPD1    H6 3291   1.584   0.768  17.035 -1.3467  1.2234  1.2786
  216MPD1    H7 3292   1.561   0.905  16.951 -0.2519  0.2361  2.6759
  217MPD1     C 3293   1.795   1.392   8.319 -0.3371 -0.5561  0.8483
  217MPD1    C1 3294   1.812   1.522   8.369  0.8829 -0.1843  0.2539
  217MPD1    C2 3295   1.820   1.548   8.501 -1.2347  1.1431  0.2374
  217MPD1    C3 3296   1.821   1.443   8.596  0.4594 -0.0622  0.5955
  217MPD1    C4 3297   1.798   1.316   8.546  0.4456  0.2860  0.6905
  217MPD1    C5 3298   1.774   1.291   8.410  0.0184 -1.0489 -0.6977
  217MPD1     H 3299   1.846   1.648   8.534 -0.7083  1.2823 -0.5871
  217MPD1    H1 3300   1.799   1.233   8.617 -0.0798 -1.5961 -1.4872
  217MPD1    H2 3301   1.811   1.359   8.217  1.4155  0.7982  0.6958
  217MPD1    H3 3302   1.747   1.194   8.369 -0.5501 -1.3742  0.4422
  217MPD1     N 3303   1.821   1.460   8.736  0.2064 -0.7144  0.1540
  217MPD1    H5 3304   1.839   1.374   8.787  0.1082 -0.3928  0.7400
  217MPD1    N1 3305   1.839   1.629   8.279 -0.1888  0.1206  0.0012
  217MPD1    H6 3306   1.797   1.717   8.310 -2.3834 -1.1522  0.6737
  217MPD1    H7 3307   1.792   1.606   8.192  0.3855  1.7843 -0.7436
  218MPD1     C 3308   3.265   3.566  12.719 -0.3581 -0.3082 -0.7794
  218MPD1    C1 3309   3.382   3.589  12.640 -0.4570  0.4628 -0.2610
  218MPD1    C2 3310   3.453   3.482  12.596  0.9496 -0.3719  0.3436
  218MPD1    C3 3311   3.418   3.350  12.617 -0.5607  0.4234  0.0082
  218MPD1    C4 3312   3.298   3.325  12.682  0.0538 -0.3958  0.7704
  218MPD1    C5 3313   3.230   3.431  12.731 -0.0608 -0.0252 -0.1932
  218MPD1     H 3314   3.548   3.503  12.548  1.7681 -0.9710  1.6946
  218MPD1    H1 3315   3.255   3.226  12.692  1.2600 -0.7955  1.8757
  218MPD1    H2 3316   3.208   3.645  12.766  1.0904  1.8441 -2.6027
  218MPD1    H3 3317   3.139   3.414  12.787 -0.5430 -0.5846 -1.1495
  218MPD1     N 3318   3.506   3.257  12.566  0.2697  0.0553 -0.8978
  218MPD1    H5 3319   3.599   3.291  12.543 -0.6848  2.4156 -1.1638
  218MPD1    N1 3320   3.444   3.712  12.623  0.3701 -0.1735  0.3508
  218MPD1    H6 3321   3.505   3.723  12.542 -2.4600  0.4500 -1.6985
  218MPD1    H7 3322   3.375   3.786  12.613  0.0487 -0.7064 -1.4360
  219MPD1     C 3323   4.038   3.204  11.808  0.5634  0.2513 -0.5429
  219MPD1    C1 3324   4.118   3.188  11.923  0.4383 -0.5623 -0.4402
  219MPD1    C2 3325   4.058   3.126  12.034  0.1835  0.3174  0.6763
  219MPD1    C3 3326   3.921   3.119  12.049  0.1379 -0.0620  0.3750
  219MPD1    C4 3327   3.844   3.152  11.940 -0.1574  0.5208  0.5386
  219MPD1    C5 3328   3.900   3.191  11.819 -0.0758  0.2006 -0.5799
  219MPD1     H 3329   4.124   3.090  12.112  0.7027 -2.1561 -0.9209
  219MPD1    H1 3330   3.736   3.142  11.945 -0.1445  0.7816  1.2843
  219MPD1    H2 3331   4.083   3.221  11.711  1.3082  0.6691 -0.1240
  219MPD1    H3 3332   3.836   3.182  11.732 -0.9498  0.6031  0.0169
  219MPD1     N 3333   3.857   3.087  12.173  0.2459  0.1103  0.0885
  219MPD1    H5 3334   3.757   3.087  12.155  0.7689  0.7698 -2.8289
  219MPD1    N1 3335   4.260   3.178  11.908 -0.2519  0.1193  0.3754
  219MPD1    H6 3336   4.313   3.197  11.992  0.4875 -0.5426  0.0538
  219MPD1    H7 3337   4.293   3.242  11.836 -1.7286  0.2941 -0.1481
  220MPD1     C 3338   4.006   3.083   9.850  0.0609  0.4350 -0.1025
  220MPD1    C1 3339   4.009   3.140   9.972  0.0756  0.2568 -0.2317
  220MPD1    C2 3340   3.911   3.110  10.069 -0.0777  0.1576  0.2226
  220MPD1    C3 3341   3.798   3.039  10.026 -0.4425  0.5977 -0.1896
  220MPD1    C4 3342   3.808   2.985   9.903  0.0542  0.8613 -0.2888
  220MPD1    C5 3343   3.909   3.002   9.816  0.6735  0.0164  0.5545
  220MPD1     H 3344   3.927   3.143  10.171  0.3574  1.3133 -0.2232
  220MPD1    H1 3345   3.728   2.923   9.865  0.1518 -0.4925  1.6923
  220MPD1    H2 3346   4.081   3.100   9.774 -1.1035 -1.0922 -1.6037
  220MPD1    H3 3347   3.905   2.965   9.715 -0.5481  0.2382  0.5257
  220MPD1     N 3348   3.699   3.007  10.115 -0.8964  0.6135 -0.7283
  220MPD1    H5 3349   3.703   3.022  10.215 -0.2202 -2.9031 -0.2449
  220MPD1    N1 3350   4.127   3.203  10.018 -0.0667  0.0680 -0.0305
  220MPD1    H6 3351   4.097   3.251  10.102  0.0065  1.2800 -0.6906
  220MPD1    H7 3352   4.157   3.278   9.955  0.2180  0.9169  1.1152
  221MPD1     C 3353   1.066   1.982  16.627 -0.3333 -0.8530 -0.1216
  221MPD1    C1 3354   1.097   2.112  16.652  0.1584  0.1610 -0.0128
  221MPD1    C2 3355   1.209   2.166  16.590 -0.1782 -0.4979 -0.7545
  221MPD1    C3 3356   1.277   2.089  16.497 -0.3116 -0.2869  0.8610
  221MPD1    C4 3357   1.231   1.959  16.464 -0.3681  0.2189 -0.2390
  221MPD1    C5 3358   1.127   1.905  16.534 -0.4479  0.2011  0.3380
  221MPD1     H 3359   1.242   2.266  16.613  1.3172 -0.9400 -1.0187
  221MPD1    H1 3360   1.281   1.898  16.390  0.7411  2.0573 -1.0019
  221MPD1    H2 3361   0.988   1.931  16.683 -0.0412 -0.2396  0.8390
  221MPD1    H3 3362   1.088   1.807  16.510 -1.4777  0.7774 -0.3082
  221MPD1     N 3363   1.394   2.135  16.422  0.3163 -0.0247 -0.2933
  221MPD1    H5 3364   1.454   2.071  16.371  0.3677 -0.1899 -0.0232
  221MPD1    N1 3365   1.036   2.186  16.753 -0.2653  0.6456  0.3353
  221MPD1    H6 3366   1.044   2.287  16.745 -1.8291  0.6535 -1.0237
  221MPD1    H7 3367   0.939   2.159  16.763  0.3263 -1.5365  0.3569
  222MPD1     C 3368   1.942   0.850  17.306 -0.2236  0.1493 -0.9203
  222MPD1    C1 3369   1.953   0.970  17.238  0.0924  0.4711  0.5972
  222MPD1    C2 3370   1.834   1.034  17.222  0.2665  0.1798  0.2572
  222MPD1    C3 3371   1.715   0.970  17.233  0.4838  0.5481 -0.3611
  222MPD1    C4 3372   1.707   0.845  17.290  0.5240  0.5357 -0.0876
  222MPD1    C5 3373   1.824   0.794  17.329  0.6564 -0.0968  0.0536
  222MPD1     H 3374   1.841   1.132  17.177 -0.5853  1.2236  2.3616
  222MPD1    H1 3375   1.612   0.796  17.305  1.1912 -0.6191  0.3700
  222MPD1    H2 3376   2.028   0.800  17.348 -1.9066 -1.9200  0.0467
  222MPD1    H3 3377   1.829   0.696  17.375 -0.4124  0.4856  1.4021
  222MPD1     N 3378   1.590   1.022  17.191 -0.0695  0.5906  0.2344
  222MPD1    H5 3379   1.515   0.955  17.179 -1.0836  1.6904  0.4842
  222MPD1    N1 3380   2.072   1.041  17.230  0.1574  0.6424  0.3347
  222MPD1    H6 3381   2.061   1.110  17.156 -0.1616 -1.3696 -1.4988
  222MPD1    H7 3382   2.151   0.981  17.208 -0.6873  0.0668 -1.1487
  223MPD1     C 3383   0.919   0.562  17.138  1.2671  0.2765  0.6382
  223MPD1    C1 3384   1.009   0.581  17.037 -0.3116  0.4990  0.3407
  223MPD1    C2 3385   1.092   0.687  17.045 -0.1294 -0.8376 -0.5591
  223MPD1    C3 3386   1.053   0.793  17.121 -0.3136 -0.8219 -0.5051
  223MPD1    C4 3387   0.956   0.783  17.214  0.1014 -0.5482  0.5294
  223MPD1    C5 3388   0.898   0.663  17.226  1.1790 -0.5666  0.2990
  223MPD1     H 3389   1.165   0.711  16.969  0.6464 -0.3355  0.3464
  223MPD1    H1 3390   0.923   0.867  17.273 -0.5858 -0.5972  0.2161
  223MPD1    H2 3391   0.859   0.473  17.150 -0.8921  1.3511 -2.2134
  223MPD1    H3 3392   0.828   0.638  17.305  2.1539  1.9002  1.9199
  223MPD1     N 3393   1.126   0.904  17.094 -0.0584 -0.2298  0.2224
  223MPD1    H5 3394   1.208   0.883  17.038  0.8157 -0.6760  1.6699
  223MPD1    N1 3395   1.023   0.476  16.946  0.2509 -0.1471 -0.2720
  223MPD1    H6 3396   0.933   0.443  16.912 -0.1455  2.5702 -1.8681
  223MPD1    H7 3397   1.087   0.495  16.868  2.4101 -1.0959  1.2702
  224MPD1     C 3398   2.621   2.628   9.493  0.9426 -0.6419 -0.9481
  224MPD1    C1 3399   2.688   2.517   9.538  0.2808 -0.9379 -0.1253
  224MPD1    C2 3400   2.616   2.414   9.593  1.1520  0.3071 -0.3940
  224MPD1    C3 3401   2.478   2.433   9.617  0.7530  0.2421 -0.6196
  224MPD1    C4 3402   2.420   2.550   9.573 -0.6699  0.6759 -0.2138
  224MPD1    C5 3403   2.488   2.651   9.521  0.6776 -0.3741  0.7723
  224MPD1     H 3404   2.665   2.333   9.647  0.9286  0.0240 -0.6150
  224MPD1    H1 3405   2.313   2.557   9.589 -0.7595 -0.8818 -0.0884
  224MPD1    H2 3406   2.682   2.714   9.468 -1.0876  0.8999 -0.6102
  224MPD1    H3 3407   2.439   2.739   9.482 -0.8147 -1.8249 -0.6011
  224MPD1     N 3408   2.397   2.333   9.683  0.3819  0.0923  0.2512
  224MPD1    H5 3409   2.301   2.360   9.704  0.5811 -0.7916  2.2372
  224MPD1    N1 3410   2.825   2.498   9.509  0.1410  0.0714  0.1615
  224MPD1    H6 3411   2.875   2.587   9.497  0.2324  0.2851  2.1357
  224MPD1    H7 3412   2.868   2.434   9.575  0.5527  0.2332  0.0569
  225MPD1     C 3413   3.340   4.060  12.613 -0.4126  0.2653 -0.4234
  225MPD1    C1 3414   3.215   4.014  12.645 -0.8440 -0.5748 -0.0542
  225MPD1    C2 3415   3.134   3.965  12.544 -0.5840  0.0340  0.2534
  225MPD1    C3 3416   3.173   3.957  12.413  0.1845 -0.1519  0.6639
  225MPD1    C4 3417   3.297   4.012  12.383  0.1273 -0.4980  0.2010
  225MPD1    C5 3418   3.380   4.065  12.481 -0.7080 -0.4692  0.5723
  225MPD1     H 3419   3.029   3.955  12.570 -0.9358  3.0759  0.0330
  225MPD1    H1 3420   3.334   4.018  12.281 -0.0668 -0.5179  0.1293
  225MPD1    H2 3421   3.415   4.091  12.684 -1.1428  0.2721  0.3375
  225MPD1    H3 3422   3.482   4.097  12.464 -0.3174 -0.5078  2.8717
  225MPD1     N 3423   3.075   3.928  12.311  0.0363  0.2799  0.6397
  225MPD1    H5 3424   3.107   3.956  12.219  0.9532 -1.9996  0.2723
  225MPD1    N1 3425   3.165   4.023  12.776 -0.6124 -0.3518  0.0165
  225MPD1    H6 3426   3.243   4.032  12.840  0.2398  0.0882 -1.0741
  225MPD1    H7 3427   3.117   3.937  12.802 -2.6045  0.7149 -0.1620
  226MPD1     C 3428   1.755   2.042   8.917 -0.1961  0.5184  0.2758
  226MPD1    C1 3429   1.653   2.124   8.879  0.1754 -0.1151  0.0272
  226MPD1    C2 3430   1.639   2.236   8.955  0.2058  0.0420  0.9015
  226MPD1    C3 3431   1.702   2.253   9.081 -0.4921  0.0712 -0.5846
  226MPD1    C4 3432   1.790   2.155   9.127 -0.1995 -0.0323 -0.2525
  226MPD1    C5 3433   1.826   2.059   9.037  0.2248  0.4087  0.3174
  226MPD1     H 3434   1.576   2.316   8.920 -0.8386 -1.9145 -1.7035
  226MPD1    H1 3435   1.840   2.151   9.223 -0.0669 -1.2462 -0.3671
  226MPD1    H2 3436   1.785   1.954   8.862 -2.2453 -1.5083  2.3577
  226MPD1    H3 3437   1.901   1.985   9.063  0.6921  0.8173  0.1341
  226MPD1     N 3438   1.657   2.360   9.163  0.2154  0.1849  0.2875
  226MPD1    H5 3439   1.592   2.421   9.114  0.2913 -0.1473 -0.2312
  226MPD1    N1 3440   1.591   2.099   8.757  0.3254  0.1538 -0.3571
  226MPD1    H6 3441   1.577   1.999   8.744  0.0350  0.2993 -1.1696
  226MPD1    H7 3442   1.496   2.134   8.768  0.7884  0.9278  1.2447
  227MPD1     C 3443   0.765   2.779   9.266  0.4583  0.2328 -0.3342
  227MPD1    C1 3444   0.853   2.878   9.310 -0.9744  0.2612 -0.1155
  227MPD1    C2 3445   0.989   2.849   9.332 -0.7749 -0.0026 -1.2383
  227MPD1    C3 3446   1.039   2.731   9.289 -0.7347  0.6428 -0.1765
  227MPD1    C4 3447   0.958   2.639   9.228 -0.0391  0.0943 -0.1787
  227MPD1    C5 3448   0.829   2.667   9.222 -0.3501 -0.6732 -0.3430
  227MPD1     H 3449   1.055   2.920   9.382 -2.3540 -0.5247  1.5924
  227MPD1    H1 3450   0.983   2.538   9.198 -0.9221 -0.0355 -0.4722
  227MPD1    H2 3451   0.658   2.776   9.252  0.0428 -1.1592  3.0864
  227MPD1    H3 3452   0.772   2.589   9.172  1.0210 -2.1560  0.3880
  227MPD1     N 3453   1.176   2.708   9.320 -0.4393 -0.3380  0.3048
  227MPD1    H5 3454   1.228   2.781   9.368 -1.8721  1.4781 -0.9444
  227MPD1    N1 3455   0.789   2.987   9.369 -0.1548 -0.0409 -0.1702
  227MPD1    H6 3456   0.848   3.070   9.362 -1.1344  0.6312 -0.4135
  227MPD1    H7 3457   0.698   3.003   9.328 -0.1341 -2.6286 -1.2430
  228MPD1     C 3458   4.684   1.403  12.831 -0.1718 -0.4328 -0.2612
  228MPD1    C1 3459   4.606   1.367  12.717  0.1985  0.0465  0.2227
  228MPD1    C2 3460   4.493   1.285  12.743  0.4907 -0.6796 -0.3849
  228MPD1    C3 3461   4.469   1.235  12.869 -0.3894 -0.0104 -0.4565
  228MPD1    C4 3462   4.549   1.272  12.978 -0.1791  0.4894  0.0790
  228MPD1    C5 3463   4.656   1.354  12.954  0.5256 -0.4224  0.3866
  228MPD1     H 3464   4.428   1.266  12.658  0.8382  1.5576 -1.1554
  228MPD1    H1 3465   4.531   1.235  13.078 -1.1193 -0.8026 -0.5621
  228MPD1    H2 3466   0.041   1.470  12.828  0.7700 -1.5199  2.3608
  228MPD1    H3 3467   4.722   1.372  13.039  2.6341 -4.1836 -0.4853
  228MPD1     N 3468   4.358   1.148  12.879 -0.3502 -0.1629 -0.5790
  228MPD1    H5 3469   4.308   1.124  12.794 -1.2802 -0.6265  0.1029
  228MPD1    N1 3470   4.645   1.402  12.585  0.2979  0.7928  0.3331
  228MPD1    H6 3471   4.569   1.423  12.521 -0.3927  0.4240  1.0285
  228MPD1    H7 3472   4.704   1.486  12.587  1.4968 -0.0842  1.7548
  229MPD1     C 3473   4.663   0.134  14.431  0.4997  0.7420 -0.2788
  229MPD1    C1 3474   4.552   0.079  14.493 -0.0345 -0.4572  0.3983
  229MPD1    C2 3475   4.551   4.675  14.535  0.5815  0.0437 -0.2145
  229MPD1    C3 3476   4.658   4.590  14.509  0.2011  0.1847 -0.3648
  229MPD1    C4 3477   0.040   4.646  14.447  0.4674 -0.2127 -0.0731
  229MPD1    C5 3478   0.035   0.052  14.408 -0.1529  0.2551  0.0385
  229MPD1     H 3479   4.474   4.639  14.602  2.3490 -2.0988  0.6848
  229MPD1    H1 3480   0.123   4.584  14.414 -0.1927 -0.9495 -0.3626
  229MPD1    H2 3481   4.675   0.232  14.386  1.4904  0.0630 -1.4882
  229MPD1    H3 3482   0.125   0.090  14.363 -0.2695  0.5040  0.0152
  229MPD1     N 3483   4.660   4.454  14.545 -0.3831 -0.2278  0.6267
  229MPD1    H5 3484   0.022   4.406  14.542  0.4148  1.2512  0.5762
  229MPD1    N1 3485   4.448   0.161  14.542  0.2038  0.3518  0.2548
  229MPD1    H6 3486   4.365   0.103  14.553  0.8197 -0.9583 -1.9385
  229MPD1    H7 3487   4.430   0.245  14.487 -1.0466  1.6945  2.7153
  230MPD1     C 3488   4.375   4.363  15.443 -1.0137  0.3354  0.5091
  230MPD1    C1 3489   4.288   4.389  15.333  0.3634 -0.5342  0.0526
  230MPD1    C2 3490   4.339   4.338  15.211 -0.3979  0.8802 -0.3886
  230MPD1    C3 3491   4.463   4.288  15.193  0.0625  0.4487  0.3721
  230MPD1    C4 3492   4.543   4.261  15.306 -0.5595 -0.0587 -0.4845
  230MPD1    C5 3493   4.495   4.299  15.431 -0.0803 -0.3775  0.2276
  230MPD1     H 3494   4.267   4.344  15.130 -0.3661 -2.2297 -0.6446
  230MPD1    H1 3495   4.645   4.226  15.302 -0.4111  0.2970  0.0526
  230MPD1    H2 3496   4.352   4.396  15.543  0.6233  0.8991  0.6930
  230MPD1    H3 3497   4.559   4.279  15.516  0.3740  1.8355  0.4166
  230MPD1     N 3498   4.502   4.251  15.065 -0.0503 -0.2082 -0.1057
  230MPD1    H5 3499   4.437   4.270  14.990  0.6158 -0.9854 -0.8846
  230MPD1    N1 3500   4.161   4.419  15.356  0.2041 -0.1442 -0.5854
  230MPD1    H6 3501   4.122   4.466  15.275  0.3941  0.3753 -0.3774
  230MPD1    H7 3502   4.164   4.487  15.432  1.6621 -0.3077 -0.5095
  231MPD1     C 3503   2.988   1.399  15.230  0.0725 -0.0124  0.4113
  231MPD1    C1 3504   3.038   1.408  15.103 -0.3931  0.0486  0.3323
  231MPD1    C2 3505   3.071   1.536  15.060 -0.1746 -0.1703 -0.0676
  231MPD1    C3 3506   3.071   1.645  15.141  0.5866  0.4835  0.0866
  231MPD1    C4 3507   3.050   1.625  15.277  0.4251  0.2348 -0.4122
  231MPD1    C5 3508   3.013   1.499  15.323 -0.1491 -0.5509  0.6514
  231MPD1     H 3509   3.125   1.560  14.968 -2.7270 -0.8306 -1.7251
  231MPD1    H1 3510   3.060   1.705  15.350 -1.4851  0.4632 -0.4008
  231MPD1    H2 3511   2.953   1.305  15.272  0.0412 -0.7409 -1.2589
  231MPD1    H3 3512   2.988   1.484  15.427  0.8535  2.2884  1.3024
  231MPD1     N 3513   3.098   1.773  15.088 -0.4207 -0.6892  0.7999
  231MPD1    H5 3514   3.096   1.766  14.986 -1.7777 -2.2476  0.9427
  231MPD1    N1 3515   3.057   1.298  15.026  0.3414  0.1959 -0.6804
  231MPD1    H6 3516   3.127   1.313  14.954  0.5403  2.9543  0.0992
  231MPD1    H7 3517   3.090   1.216  15.077  0.0154  0.1287 -0.5716
  232MPD1     C 3518   0.372   0.946   0.237  0.0945 -0.7806  0.2395
  232MPD1    C1 3519   0.257   0.937   0.316 -0.1887  0.0319 -0.0910
  232MPD1    C2 3520   0.191   0.819   0.303  0.2286  0.6069 -0.9263
  232MPD1    C3 3521   0.229   0.721   0.212  0.6499 -0.1717 -0.1982
  232MPD1    C4 3522   0.342   0.735   0.131  0.0079  0.1999 -0.3451
  232MPD1    C5 3523   0.417   0.847   0.154 -0.7351 -0.6819 -0.4355
  232MPD1     H 3524   0.098   0.807   0.358  0.7347 -3.2375 -0.8968
  232MPD1    H1 3525   0.386   0.666   0.060 -3.1802 -2.3704  0.1799
  232MPD1    H2 3526   0.429   1.037   0.224 -1.0083 -0.0973  0.2175
  232MPD1    H3 3527   0.505   0.871   0.095 -0.6715 -0.1034 -0.1168
  232MPD1     N 3528   0.141   0.613   0.191 -0.0047  0.1995  0.5329
  232MPD1    H5 3529   0.048   0.616   0.231 -1.1063  0.1202 -2.0283
  232MPD1    N1 3530   0.226   1.024   0.425  0.3205  0.7868  0.0135
  232MPD1    H6 3531   0.255   1.121   0.408  0.7452  0.8250  0.9241
  232MPD1    H7 3532   0.125   1.032   0.434 -0.1176 -2.6152 -2.1806
  233MPD1     C 3533   0.355   2.569   1.454 -0.4382 -0.2257  0.1132
  233MPD1    C1 3534   0.417   2.690   1.469 -0.2971  0.0185 -0.3813
  233MPD1    C2 3535   0.550   2.694   1.490 -0.1901  0.5982 -0.4632
  233MPD1    C3 3536   0.634   2.583   1.481 -0.5829 -0.0351 -0.4339
  233MPD1    C4 3537   0.575   2.464   1.448  0.2351 -0.1450  0.6177
  233MPD1    C5 3538   0.435   2.458   1.442  0.2339  0.3562  0.1208
  233MPD1     H 3539   0.601   2.789   1.500  2.6116 -0.9516 -0.1188
  233MPD1    H1 3540   0.646   2.381   1.442 -0.7939 -1.0399  0.7488
  233MPD1    H2 3541   0.249   2.563   1.431  0.3673 -5.1104 -2.1714
  233MPD1    H3 3542   0.386   2.369   1.404  1.2259 -0.1289 -0.0094
  233MPD1     N 3543   0.769   2.581   1.496  0.8186 -0.2940  0.7655
  233MPD1    H5 3544   0.817   2.497   1.466 -3.5733 -2.3530 -0.4745
  233MPD1    N1 3545   0.341   2.808   1.453 -0.2297 -0.1512  0.2486
  233MPD1    H6 3546   0.381   2.891   1.495 -0.8640 -0.5754  1.7035
  233MPD1    H7 3547   0.249   2.788   1.492 -0.6903  1.1164 -0.2141
  234MPD1     C 3548   2.414   0.197   9.649  0.2120 -0.4348  0.6296
  234MPD1    C1 3549   2.446   0.263   9.528 -0.5684 -0.6405 -0.2618
  234MPD1    C2 3550   2.460   0.400   9.546 -0.0212 -0.5332 -0.0469
  234MPD1    C3 3551   2.462   0.470   9.671  0.0252  0.7200 -0.2014
  234MPD1    C4 3552   2.428   0.396   9.780  0.2617  0.7606 -0.2736
  234MPD1    C5 3553   2.411   0.262   9.774 -0.7678 -0.9604  0.3649
  234MPD1     H 3554   2.496   0.458   9.462  0.9751  0.0979  0.8067
  234MPD1    H1 3555   2.413   0.434   9.881 -1.8467 -2.5243  0.6447
  234MPD1    H2 3556   2.405   0.089   9.654  1.8042 -0.5024  1.8312
  234MPD1    H3 3557   2.389   0.214   9.868  0.2424 -0.8373  0.6672
  234MPD1     N 3558   2.491   0.603   9.671  0.1138  0.0947  0.0157
  234MPD1    H5 3559   2.511   0.641   9.579  2.1252 -1.0554 -0.0198
  234MPD1    N1 3560   2.444   0.201   9.402 -0.1738  0.3584 -0.1336
  234MPD1    H6 3561   2.438   0.100   9.387 -0.3581  0.4659 -0.8033
  234MPD1    H7 3562   2.509   0.235   9.332  1.3110 -0.1898  0.9806
  235MPD1     C 3563   3.177   3.188  10.550  0.6934  0.4178 -0.1061
  235MPD1    C1 3564   3.098   3.199  10.442 -0.2257  0.2433 -0.2454
  235MPD1    C2 3565   3.145   3.276  10.339 -0.1641  0.9274 -0.3711
  235MPD1    C3 3566   3.280   3.294  10.322  0.2683  0.5909  0.3531
  235MPD1    C4 3567   3.369   3.255  10.420 -0.6348  0.5782  0.1595
  235MPD1    C5 3568   3.310   3.217  10.541  0.1732 -0.2889 -0.2420
  235MPD1     H 3569   3.073   3.307  10.264 -0.1548  1.6066 -0.0992
  235MPD1    H1 3570   3.476   3.266  10.413 -0.4243 -1.9213 -0.6930
  235MPD1    H2 3571   3.138   3.151  10.645 -0.7148  2.3289  0.0429
  235MPD1    H3 3572   3.367   3.180  10.626  1.8003  1.8328 -0.3933
  235MPD1     N 3573   3.321   3.343  10.193  0.1531 -0.1469  0.3115
  235MPD1    H5 3574   3.249   3.366  10.126  1.2023 -0.7887 -1.0185
  235MPD1    N1 3575   2.959   3.177  10.450  0.3963 -0.3273 -0.5343
  235MPD1    H6 3576   2.917   3.159  10.359  0.0620 -0.1011 -0.4246
  235MPD1    H7 3577   2.928   3.094  10.501  0.2282  0.9815  1.5152
  236MPD1     C 3578   3.351   0.077  10.024  0.6854 -0.9058  0.0863
  236MPD1    C1 3579   3.354   4.674  10.002  0.3493  0.7765  0.6944
  236MPD1    C2 3580   3.426   4.590  10.086  0.2765 -0.2398 -1.1014
  236MPD1    C3 3581   3.504   4.641  10.190 -0.1974 -0.3642  0.4241
  236MPD1    C4 3582   3.507   0.048  10.202 -0.1862  0.2993  0.8411
  236MPD1    C5 3583   3.431   0.131  10.118  0.2616 -0.6547 -0.1688
  236MPD1     H 3584   3.418   4.485  10.061 -2.3394 -0.9721  2.7575
  236MPD1    H1 3585   3.565   0.094  10.281 -0.3923 -0.7998  1.6266
  236MPD1    H2 3586   3.284   0.144   9.971 -0.3107 -2.4573 -0.6313
  236MPD1    H3 3587   3.427   0.237  10.137  0.5516 -0.6067 -0.3662
  236MPD1     N 3588   3.587   4.559  10.276 -0.0611  0.3076 -0.2297
  236MPD1    H5 3589   3.641   4.600  10.350  0.2752  0.6809 -0.6802
  236MPD1    N1 3590   3.281   4.628   9.888  0.1857 -0.3172  0.0813
  236MPD1    H6 3591   3.310   4.679   9.805  2.0948 -0.1029  0.8802
  236MPD1    H7 3592   3.289   4.529   9.865 -0.7978  0.0235 -1.7214
  237MPD1     C 3593   3.562   3.291  15.390  0.1601  0.2121 -0.3583
  237MPD1    C1 3594   3.517   3.364  15.284 -0.2494 -0.3525 -0.0009
  237MPD1    C2 3595   3.377   3.381  15.279  0.0364  0.5772 -0.0994
  237MPD1    C3 3596   3.299   3.341  15.385  0.2253 -0.5259 -0.2053
  237MPD1    C4 3597   3.348   3.268  15.487  0.2246  0.0536  0.3379
  237MPD1    C5 3598   3.479   3.244  15.488 -0.2277 -0.1622  0.1783
  237MPD1     H 3599   3.333   3.433  15.194  1.2382  2.1745  0.2605
  237MPD1    H1 3600   3.284   3.224  15.563 -0.3450  0.3653  0.0380
  237MPD1    H2 3601   3.663   3.251  15.386 -0.5602 -1.6972  0.2853
  237MPD1    H3 3602   3.524   3.176  15.559  2.4770  1.0879 -0.3306
  237MPD1     N 3603   3.156   3.364  15.388  0.6362  0.1275 -0.5136
  237MPD1    H5 3604   3.105   3.328  15.468  0.3423  0.1968 -0.6677
  237MPD1    N1 3605   3.588   3.399  15.168 -0.2403 -1.0029 -0.8389
  237MPD1    H6 3606   3.560   3.486  15.124  2.4621 -1.5651 -3.6818
  237MPD1    H7 3607   3.689   3.394  15.179 -0.3099 -0.1587  0.2356
  238MPD1     C 3608   0.895   1.689  14.887  0.1482 -0.0581  0.1117
  238MPD1    C1 3609   0.823   1.571  14.903  0.1399  0.2046  0.1732
  238MPD1    C2 3610   0.683   1.583  14.914 -0.2726  0.0618  0.2844
  238MPD1    C3 3611   0.617   1.709  14.901 -0.1893  0.0126 -0.5407
  238MPD1    C4 3612   0.692   1.814  14.870 -0.2744  0.3694  0.1075
  238MPD1    C5 3613   0.829   1.811  14.880 -0.3947  0.0965 -1.0394
  238MPD1     H 3614   0.616   1.501  14.934  0.6080 -0.6917  0.1280
  238MPD1    H1 3615   0.646   1.909  14.844 -0.0032  0.7177  0.9071
  238MPD1    H2 3616   1.003   1.686  14.899  0.0907  2.0570  1.1591
  238MPD1    H3 3617   0.891   1.897  14.858 -0.3931  0.1557 -0.8010
  238MPD1     N 3618   0.479   1.736  14.908 -0.7678 -0.0741  0.1056
  238MPD1    H5 3619   0.450   1.830  14.883  0.3990  0.4397  0.7204
  238MPD1    N1 3620   0.894   1.450  14.931 -0.1730  0.2352  0.7132
  238MPD1    H6 3621   0.994   1.460  14.912 -0.0089 -1.9807  0.4244
  238MPD1    H7 3622   0.856   1.372  14.879  2.5552 -0.2338 -0.5842
  239MPD1     C 3623   4.242   2.263  13.802  0.4019 -0.0649  0.2013
  239MPD1    C1 3624   4.200   2.310  13.926  0.1507  0.1011 -0.0906
  239MPD1    C2 3625   4.274   2.414  13.976 -0.3548 -0.0549  0.4545
  239MPD1    C3 3626   4.380   2.468  13.896 -0.3684 -0.9410 -0.2023
  239MPD1    C4 3627   4.414   2.422  13.769  0.3439 -0.5389 -0.2762
  239MPD1    C5 3628   4.344   2.309  13.730  0.3663  0.3882 -0.2011
  239MPD1     H 3629   4.241   2.459  14.069  0.4014 -1.9942  1.6435
  239MPD1    H1 3630   4.486   2.462  13.699 -0.7002 -0.7050 -1.4562
  239MPD1    H2 3631   4.188   2.179  13.761  0.4820  1.2251 -2.5675
  239MPD1    H3 3632   4.369   2.273  13.631  2.5063  0.0306  0.4645
  239MPD1     N 3633   4.449   2.590  13.935 -0.3118 -0.4190  0.7444
  239MPD1    H5 3634   4.496   2.631  13.854 -0.3168 -2.1944 -0.1536
  239MPD1    N1 3635   4.098   2.246  13.997  0.0293 -0.6390  0.5128
  239MPD1    H6 3636   4.110   2.145  13.996 -1.2417 -0.7602 -1.5443
  239MPD1    H7 3637   4.088   2.278  14.094 -1.5362 -2.5615  0.9769
  240MPD1     C 3638   0.143   2.543  13.812  0.2809 -0.1932  0.5777
  240MPD1    C1 3639   0.055   2.443  13.820  0.6367  0.8277  0.0525
  240MPD1    C2 3640   0.006   2.420  13.947  0.1846 -0.1633 -0.3350
  240MPD1    C3 3641   0.045   2.480  14.060  0.0079  0.0337  0.8742
  240MPD1    C4 3642   0.151   2.564  14.050  0.5180  0.4858  0.1704
  240MPD1    C5 3643   0.196   2.595  13.926  0.5080  0.1981 -0.3751
  240MPD1     H 3644   4.661   2.340  13.944 -0.8055  0.6920  1.1867
  240MPD1    H1 3645   0.194   2.614  14.136  1.7758 -0.9156  0.3443
  240MPD1    H2 3646   0.175   2.580  13.715  3.3686 -0.5064  1.5062
  240MPD1    H3 3647   0.276   2.667  13.923  0.2251  0.6295  2.1246
  240MPD1     N 3648   4.699   2.449  14.177  0.5309 -0.4087 -0.2135
  240MPD1    H5 3649   4.609   2.405  14.163 -0.2649  0.7031  1.4012
  240MPD1    N1 3650   0.001   2.390  13.704  0.1977 -0.4551 -0.2109
  240MPD1    H6 3651   4.680   2.303  13.724  3.1547 -1.9839  0.3679
  240MPD1    H7 3652   0.074   2.357  13.642  1.4631  2.1357 -0.1245
  241MPD1     C 3653   4.722   1.939  15.148  0.2044  0.2347  0.1342
  241MPD1    C1 3654   0.098   1.987  15.069  0.5603 -0.1838  0.7601
  241MPD1    C2 3655   0.078   2.058  14.959  0.1725  0.9224  0.7608
  241MPD1    C3 3656   4.675   2.076  14.911  0.0442 -0.0932  0.0948
  241MPD1    C4 3657   4.568   2.022  14.984  0.7809  0.3871 -0.2815
  241MPD1    C5 3658   4.593   1.955  15.096  0.1428 -0.5921  0.2139
  241MPD1     H 3659   0.164   2.100  14.906 -0.6050  0.8299 -0.5707
  241MPD1    H1 3660   4.466   2.037  14.950  0.6452  2.0523  0.8982
  241MPD1    H2 3661   0.014   1.887  15.241  0.5607 -2.8609 -1.6771
  241MPD1    H3 3662   4.506   1.915  15.148 -1.0595 -1.5111 -2.5141
  241MPD1     N 3663   4.643   2.138  14.788 -0.3989 -0.4494  0.6393
  241MPD1    H5 3664   4.544   2.149  14.766 -0.0736 -1.6978 -1.4585
  241MPD1    N1 3665   0.230   1.970  15.109  0.2058  0.2745  0.5187
  241MPD1    H6 3666   0.252   1.891  15.170 -1.0835 -1.1510 -0.8630
  241MPD1    H7 3667   0.291   1.978  15.028 -2.2176  1.9992 -1.1267
  242MPD1     C 3668   3.842   0.607  15.979 -0.1318  0.1218 -0.0014
  242MPD1    C1 3669   3.841   0.704  15.884 -0.1670  0.8017 -0.4386
  242MPD1    C2 3670   3.869   0.675  15.753 -0.7904 -0.2747  0.0416
  242MPD1    C3 3671   3.898   0.544  15.720 -0.7329 -0.0898  0.2755
  242MPD1    C4 3672   3.897   0.447  15.812 -0.1206 -0.2875 -0.4850
  242MPD1    C5 3673   3.860   0.474  15.943  0.3034  0.0989  0.2460
  242MPD1     H 3674   3.881   0.752  15.677 -1.2593  0.6888  0.9512
  242MPD1    H1 3675   3.912   0.342  15.790 -2.3465 -0.3796 -1.6047
  242MPD1    H2 3676   3.821   0.633  16.083 -0.1561 -2.8132  0.7196
  242MPD1    H3 3677   3.858   0.391  16.011  2.5223 -1.8947 -2.1125
  242MPD1     N 3678   3.928   0.508  15.583  0.7654  0.0924 -0.0733
  242MPD1    H5 3679   3.975   0.419  15.572 -0.2657 -0.3590 -0.7970
  242MPD1    N1 3680   3.856   0.838  15.937 -0.0418  0.0911  0.2479
  242MPD1    H6 3681   3.846   0.906  15.861 -1.6308 -0.0887  0.2958
  242MPD1    H7 3682   3.794   0.848  16.016  1.0195 -0.5137  1.1545
  243MPD1     C 3683   0.786   3.548  17.433  0.4620  0.2038  0.8275
  243MPD1    C1 3684   0.908   3.481  17.450  0.5419  0.4715  0.9248
  243MPD1    C2 3685   1.003   3.518  17.357  0.0811 -0.8944 -0.5044
  243MPD1    C3 3686   0.986   3.618  17.257  0.3528 -0.3442  0.5950
  243MPD1    C4 3687   0.866   3.678  17.245  0.2607 -0.1209  0.0734
  243MPD1    C5 3688   0.765   3.643  17.336 -0.3091  0.0961 -0.4357
  243MPD1     H 3689   1.084   3.446  17.351  1.2992  0.1995  2.8838
  243MPD1    H1 3690   0.844   3.762  17.180 -0.1705  0.2663  0.7195
  243MPD1    H2 3691   0.701   3.530  17.498 -0.8722  0.7598 -0.7596
  243MPD1    H3 3692   0.676   3.704  17.334 -1.5422 -1.6975 -0.7630
  243MPD1     N 3693   1.093   3.628  17.167 -0.8923 -0.0452 -0.0610
  243MPD1    H5 3694   1.176   3.577  17.196  1.6875  4.7320  0.9708
  243MPD1    N1 3695   0.928   3.365  17.522  0.2285  0.8212 -0.3592
  243MPD1    H6 3696   1.020   3.355  17.564  0.5716 -2.1362 -1.8590
  243MPD1    H7 3697   0.861   3.341  17.594 -0.8125  0.6639 -1.3763
  244MPD1     C 3698   2.069   3.522  17.019  0.1811 -1.0743  0.2716
  244MPD1    C1 3699   2.021   3.488  16.891  0.2206  0.5129 -0.1223
  244MPD1    C2 3700   1.886   3.516  16.872  0.2368 -0.3790  0.1774
  244MPD1    C3 3701   1.805   3.596  16.957  0.2466 -0.2618  0.4161
  244MPD1    C4 3702   1.860   3.631  17.076 -0.6903 -0.3636  0.7107
  244MPD1    C5 3703   1.992   3.596  17.109 -0.1474  0.8902 -0.2102
  244MPD1     H 3704   1.846   3.475  16.780 -0.5803  0.0062  0.3670
  244MPD1    H1 3705   1.815   3.684  17.159 -0.5243 -2.2240  1.9780
  244MPD1    H2 3706   2.171   3.492  17.040  0.8236 -1.3384 -3.1356
  244MPD1    H3 3707   2.034   3.619  17.206 -0.2930  0.9221 -0.1559
  244MPD1     N 3708   1.673   3.626  16.921  0.6981  0.6853 -0.1562
  244MPD1    H5 3709   1.658   3.612  16.822 -2.0792  2.6693 -0.0201
  244MPD1    N1 3710   2.081   3.394  16.811 -0.4286  0.0980  0.2676
  244MPD1    H6 3711   2.182   3.406  16.806 -0.3914 -0.8725 -1.2080
  244MPD1    H7 3712   2.051   3.405  16.715  0.7044 -0.1366 -0.1144
  245MPD1     C 3713   2.491   0.041  13.346 -0.5635 -0.2349 -0.2921
  245MPD1    C1 3714   2.484   0.180  13.359 -0.0130 -0.4077 -0.1130
  245MPD1    C2 3715   2.606   0.249  13.349 -0.1695  0.2851 -0.4132
  245MPD1    C3 3716   2.726   0.185  13.344 -0.0279 -0.5001  0.2686
  245MPD1    C4 3717   2.728   0.045  13.341 -0.0344  0.0139 -0.1186
  245MPD1    C5 3718   2.609   4.702  13.341 -0.6687 -0.2821  0.2248
  245MPD1     H 3719   2.598   0.356  13.364  1.3965  0.4967 -1.1076
  245MPD1    H1 3720   2.824   4.724  13.330 -0.3802 -1.2803  2.7477
  245MPD1    H2 3721   2.400   4.712  13.337 -1.7083  1.4063  1.0398
  245MPD1    H3 3722   2.616   4.601  13.303  0.9579 -0.1377  0.1297
  245MPD1     N 3723   2.841   0.266  13.340  0.2051 -0.3044 -0.0474
  245MPD1    H5 3724   2.823   0.365  13.352 -2.2964 -0.3146 -3.6357
  245MPD1    N1 3725   2.356   0.248  13.370 -0.1022 -0.2288 -0.2912
  245MPD1    H6 3726   2.365   0.332  13.427 -0.5827 -0.3118 -0.0929
  245MPD1    H7 3727   2.284   0.191  13.414  0.9567 -0.9587  0.4971
  246MPD1     C 3728   3.500   1.735  10.004 -0.1883  0.1995 -0.5819
  246MPD1    C1 3729   3.373   1.781   9.985 -0.2860  0.5782  1.1839
  246MPD1    C2 3730   3.319   1.749   9.859  0.5883 -0.1376  0.3655
  246MPD1    C3 3731   3.378   1.660   9.762  0.5002 -0.7851  0.5801
  246MPD1    C4 3732   3.497   1.600   9.801 -0.0752 -0.1323 -0.1837
  246MPD1    C5 3733   3.558   1.638   9.914 -0.1117 -0.5987 -0.1639
  246MPD1     H 3734   3.228   1.798   9.826  1.4397  2.1748  1.4012
  246MPD1    H1 3735   3.560   1.546   9.732 -0.2133 -1.0790  0.4328
  246MPD1    H2 3736   3.558   1.770  10.089  0.5062 -0.2337 -0.8896
  246MPD1    H3 3737   3.656   1.598   9.940  0.2486 -0.5011 -1.3910
  246MPD1     N 3738   3.322   1.642   9.632 -0.0355 -0.5116  0.4822
  246MPD1    H5 3739   3.241   1.700   9.614  0.5332 -0.1498 -0.8415
  246MPD1    N1 3740   3.310   1.864  10.074 -0.2559 -0.4243  0.2001
  246MPD1    H6 3741   3.212   1.838  10.072 -0.9092  1.9020  1.5795
  246MPD1    H7 3742   3.344   1.832  10.165  3.9388 -0.0345 -1.2137
  247MPD1     C 3743   2.299   4.422  16.620 -0.1311 -0.2417 -0.6115
  247MPD1    C1 3744   2.414   4.361  16.657 -0.2502  0.4040  0.1759
  247MPD1    C2 3745   2.480   4.269  16.568  0.0169 -0.1360  0.5101
  247MPD1    C3 3746   2.435   4.265  16.436  0.2281 -0.4010 -0.4555
  247MPD1    C4 3747   2.328   4.332  16.395 -0.4812  0.5844 -0.6856
  247MPD1    C5 3748   2.255   4.399  16.496  0.8597 -0.5066  0.1739
  247MPD1     H 3749   2.558   4.205  16.609  1.2106  0.4088 -0.9281
  247MPD1    H1 3750   2.289   4.326  16.294 -0.9220  1.0549 -0.5454
  247MPD1    H2 3751   2.235   4.473  16.690 -1.7320 -0.6808 -1.7605
  247MPD1    H3 3752   2.157   4.439  16.474  0.3622 -0.9971  1.4661
  247MPD1     N 3753   2.521   4.212  16.333  0.6954 -0.6827  0.3421
  247MPD1    H5 3754   2.494   4.232  16.237 -1.4807  0.9253  1.2889
  247MPD1    N1 3755   2.450   4.364  16.795  0.4419  0.5853 -0.4947
  247MPD1    H6 3756   2.549   4.349  16.811  0.5297  2.0300  0.3529
  247MPD1    H7 3757   2.415   4.440  16.853  0.1138  0.9859 -1.2222
  248MPD1     C 3758   2.886   4.414   0.093  0.4894  0.1074  0.2664
  248MPD1    C1 3759   2.853   4.338   0.199 -0.3174  0.2002  0.0980
  248MPD1    C2 3760   2.819   4.404   0.315  0.4686  0.6583  0.1726
  248MPD1    C3 3761   2.794   4.545   0.322 -0.2854 -0.4870  0.5545
  248MPD1    C4 3762   2.815   4.621   0.204 -0.3466  0.0372 -0.3127
  248MPD1    C5 3763   2.870   4.552   0.098 -0.0195  0.2844  0.7674
  248MPD1     H 3764   2.810   4.345   0.405 -0.4949  0.0376 -0.3202
  248MPD1    H1 3765   2.808   0.001   0.196 -0.6658  0.1706  1.8113
  248MPD1    H2 3766   2.939   4.375   0.006 -3.4366  0.1667 -2.1506
  248MPD1    H3 3767   2.887   4.619   0.014 -1.4907 -1.6092 -1.0241
  248MPD1     N 3768   2.758   4.604   0.444  0.5800  0.4932  0.4773
  248MPD1    H5 3769   2.790   4.563   0.531  1.2864  0.5676  0.2525
  248MPD1    N1 3770   2.882   4.201   0.203  0.1999 -0.1921  0.0222
  248MPD1    H6 3771   2.873   4.150   0.115 -1.7224  1.2060 -0.6074
  248MPD1    H7 3772   2.822   4.159   0.273 -0.1656 -1.4888 -1.0743
  249MPD1     C 3773   3.887   2.465   9.931  0.0051  0.4298 -0.3797
  249MPD1    C1 3774   3.880   2.447   9.797  0.5423  0.1539 -0.0502
  249MPD1    C2 3775   3.963   2.523   9.716  0.6279  0.4321  0.4069
  249MPD1    C3 3776   4.046   2.622   9.769  0.4365 -0.1271 -0.0643
  249MPD1    C4 3777   4.035   2.648   9.903  0.8398 -0.6562  0.7036
  249MPD1    C5 3778   3.966   2.562   9.984 -0.1950  0.2320  0.7061
  249MPD1     H 3779   3.970   2.498   9.611  1.7079 -0.1471  0.6167
  249MPD1    H1 3780   4.104   2.714   9.955  1.0889  0.4130 -0.9793
  249MPD1    H2 3781   3.831   2.403  10.001  1.3570 -1.2171 -0.7528
  249MPD1    H3 3782   3.983   2.571  10.091 -2.3881 -0.8596  1.1436
  249MPD1     N 3783   4.131   2.683   9.679 -0.2465  0.1488  0.2165
  249MPD1    H5 3784   4.132   2.650   9.583  1.7515 -1.7784  0.8846
  249MPD1    N1 3785   3.827   2.327   9.741  0.3752  0.7332 -0.1101
  249MPD1    H6 3786   3.734   2.310   9.780  1.0142  0.5599  1.3254
  249MPD1    H7 3787   3.818   2.345   9.641 -1.7803  0.6088  0.0503
  250MPD2     C 3788   1.360   3.141  13.035 -0.1604 -0.4350  0.1061
  250MPD2    C1 3789   1.277   3.245  12.991 -0.1879  0.4498 -0.0039
  250MPD2    C2 3790   1.157   3.209  12.932  0.1954  0.1339  0.1333
  250MPD2    C3 3791   1.123   3.074  12.910  0.2744  0.3329 -0.4855
  250MPD2    C4 3792   1.203   2.977  12.969  0.0003 -0.3525 -0.3413
  250MPD2    C5 3793   1.321   3.010  13.024  0.3305  0.2646  0.1641
  250MPD2     H 3794   1.092   3.287  12.898 -0.1504 -0.4226 -0.4775
  250MPD2    H1 3795   1.189   2.872  12.943 -1.8417 -0.5202  1.3088
  250MPD2    H2 3796   1.460   3.150  13.076 -0.2854 -0.5368  0.4308
  250MPD2    H3 3797   1.394   2.936  13.054  0.4238  0.2090 -0.2011
  250MPD2     N 3798   1.000   3.030  12.859  0.3382 -0.3771  0.0032
  250MPD2    H5 3799   0.986   2.929  12.858 -0.1326 -0.3108 -0.2374
  250MPD2    N1 3800   1.332   3.374  13.002 -1.0586 -0.3615 -0.6755
  250MPD2    H7 3801   1.424   3.382  13.043 -0.6884  0.4651 -1.6796
  251TMC3    C1 3802   1.325   3.613  13.044  0.8039  0.4476 -0.0787
  251TMC3    C2 3803   1.251   3.713  13.093 -0.4504  0.4107  0.7728
  251TMC3    C3 3804   1.318   3.810  13.162  0.1451 -0.0305 -0.8717
  251TMC3    C4 3805   1.458   3.604  13.076  0.6524  0.2237  0.4739
  251TMC3    C5 3806   1.522   3.704  13.136  0.0867  0.0413 -0.1628
  251TMC3    C6 3807   1.449   3.809  13.191 -0.1382  0.3210 -0.5236
  251TMC3     C 3808   1.255   3.487  13.001  0.1919 -0.3265 -0.3129
  251TMC3     O 3809   1.132   3.504  12.989 -0.3568  0.0799 -0.3881
  251TMC3     H 3810   1.145   3.718  13.071 -0.2574  1.8193  0.1818
  251TMC3    H1 3811   1.524   3.532  13.030  0.4794 -0.2511  0.9647
  251TMC3    H2 3812   1.494   3.886  13.253 -1.8064 -0.5383  1.7842
  251TMC3    C7 3813   1.666   3.710  13.165 -0.0838  0.1628  0.1920
  251TMC3    C8 3814   1.231   3.910  13.220 -0.4345  0.1855 -0.0330
  251TMC3    O1 3815   1.727   3.604  13.168  0.6728  0.5186 -0.0761
  251TMC3    O2 3816   1.114   3.876  13.243  0.4813 -0.1013 -0.6002
  252TMC3    C1 3817   1.709   3.126   9.418 -0.0984 -0.4400  0.2741
  252TMC3    C2 3818   1.802   3.218   9.465 -0.3026  0.2503  0.2432
  252TMC3    C3 3819   1.760   3.308   9.559 -0.2110 -0.3576 -0.0082
  252TMC3    C4 3820   1.581   3.130   9.451 -0.3890 -0.0577  0.0066
  252TMC3    C5 3821   1.551   3.209   9.559  0.4343 -0.0652 -0.2133
  252TMC3    C6 3822   1.634   3.297   9.617 -0.5868 -0.1972 -0.2927
  252TMC3     C 3823   1.756   3.019   9.332  0.0834  0.2925 -0.2209
  252TMC3     O 3824   1.878   3.023   9.316  0.1635 -0.5183  0.0547
  252TMC3     H 3825   1.904   3.220   9.428 -0.9754  1.8506 -1.4909
  252TMC3    H1 3826   1.504   3.062   9.416 -0.8425  0.8711 -0.7701
  252TMC3    H2 3827   1.609   3.345   9.711  1.1706 -0.6725  0.4095
  252TMC3    C7 3828   1.420   3.214   9.603  0.1934  0.0490 -0.6095
  252TMC3    C8 3829   1.880   3.349   9.641 -0.1228 -0.5025 -0.3214
  252TMC3    O1 3830   1.390   3.332   9.631  0.2950 -0.0117 -0.4244
  252TMC3    O2 3831   1.975   3.275   9.636  0.2421 -0.4177 -0.0078
  253MPD2     C 3832   2.405   3.452  15.251 -0.3838 -0.3659  0.0482
  253MPD2    C1 3833   2.282   3.413  15.310  1.2002 -0.0246  0.0819
  253MPD2    C2 3834   2.261   3.432  15.445 -0.2453  0.4981 -0.6662
  253MPD2    C3 3835   2.366   3.477  15.522  0.3232  0.1091 -0.1225
  253MPD2    C4 3836   2.486   3.508  15.465 -0.2257 -0.3655 -0.5838
  253MPD2    C5 3837   2.506   3.501  15.330  0.3123 -0.1403  0.1256
  253MPD2     H 3838   2.168   3.398  15.489  0.0462 -0.9075 -1.1496
  253MPD2    H1 3839   2.572   3.536  15.524 -0.5643  1.2844 -0.8811
  253MPD2    H2 3840   2.422   3.438  15.145  1.5772 -1.2560  0.4818
  253MPD2    H3 3841   2.602   3.528  15.288 -0.3613  3.3334  0.8211
  253MPD2     N 3842   2.352   3.489  15.665  0.1214  0.0970  0.1280
  253MPD2    H5 3843   2.439   3.510  15.714 -0.8342 -0.2760  1.9975
  253MPD2    N1 3844   2.178   3.351  15.239  0.2653  0.0214 -0.1089
  253MPD2    H7 3845   2.089   3.338  15.286 -0.4224 -0.5225 -1.5495
  254TMC3    C1 3846   2.262   3.499  15.881  0.2532 -0.5945  0.3236
  254TMC3    C2 3847   2.156   3.544  15.949  0.0647 -0.1554 -0.4833
  254TMC3    C3 3848   2.170   3.543  16.083 -1.0202  0.3346 -0.6395
  254TMC3    C4 3849   2.384   3.466  15.932  0.1140 -0.2942 -0.0233
  254TMC3    C5 3850   2.388   3.464  16.065 -0.3768  0.4679 -0.4853
  254TMC3    C6 3851   2.283   3.500  16.140 -0.1829 -0.1656 -0.7584
  254TMC3     C 3852   2.239   3.491  15.740 -0.4361 -1.0355 -0.0691
  254TMC3     O 3853   2.120   3.492  15.712  0.2584  0.2322  0.5546
  254TMC3     H 3854   2.070   3.587  15.900 -2.0812 -2.9485  0.8228
  254TMC3    H1 3855   2.458   3.419  15.867  1.4075  1.1321  0.3999
  254TMC3    H2 3856   2.283   3.492  16.248  0.0764 -1.5464 -0.8585
  254TMC3    C7 3857   2.506   3.418  16.137  0.3098 -0.8478 -0.3149
  254TMC3    C8 3858   2.077   3.607  16.173 -0.3052  0.1348 -0.1745
  254TMC3    O1 3859   2.482   3.389  16.252 -0.5811 -0.1935 -0.4241
  254TMC3    O2 3860   2.116   3.643  16.281  0.3989 -0.0237 -0.6832
  255MPD2     C 3861   0.272   1.337   9.036  0.0550  0.0388 -0.3653
  255MPD2    C1 3862   0.277   1.340   9.172  0.3093 -0.8296  0.5641
  255MPD2    C2 3863   0.394   1.325   9.242  0.5524  0.2259 -0.2554
  255MPD2    C3 3864   0.510   1.307   9.169  1.2854  0.1334  0.5435
  255MPD2    C4 3865   0.501   1.303   9.036 -0.4947 -0.3131  0.5007
  255MPD2    C5 3866   0.390   1.323   8.966 -0.8720 -0.5553 -0.2085
  255MPD2     H 3867   0.397   1.318   9.351  2.0027 -3.3404 -0.5355
  255MPD2    H1 3868   0.593   1.306   8.978 -0.3290  0.5767  0.8174
  255MPD2    H2 3869   0.182   1.356   8.979 -0.3321  0.2273  0.3035
  255MPD2    H3 3870   0.389   1.317   8.858 -2.7091  1.3880 -0.3188
  255MPD2     N 3871   0.622   1.271   9.244  0.1946  0.7598  0.3719
  255MPD2    H5 3872   0.610   1.291   9.343 -1.2949 -0.6518  0.4764
  255MPD2    N1 3873   0.154   1.362   9.236  0.9099 -0.1857 -0.5207
  255MPD2    H7 3874   0.071   1.355   9.177  0.5211  0.2492 -0.0274
  256TMC3    C1 3875   0.020   1.454   9.392  0.2958  0.8777 -0.1935
  256TMC3    C2 3876   0.020   1.580   9.443  0.2065 -0.0382  0.2676
  256TMC3    C3 3877   4.644   1.664   9.413 -0.5185 -0.0163 -0.4189
  256TMC3    C4 3878   4.644   1.406   9.319  0.3212  0.0341 -0.5569
  256TMC3    C5 3879   4.535   1.487   9.300 -0.0824 -0.1584  0.1197
  256TMC3    C6 3880   4.537   1.620   9.342 -0.2204 -0.2737 -0.0459
  256TMC3     C 3881   0.153   1.416   9.363 -0.0074 -0.0243 -0.2162
  256TMC3     O 3882   0.241   1.468   9.432 -0.0797  1.1095  0.1933
  256TMC3     H 3883   0.090   1.615   9.519  0.3492  0.0639  0.0897
  256TMC3    H1 3884   4.643   1.299   9.303  0.6323  0.2301 -1.8976
  256TMC3    H2 3885   4.445   1.675   9.329 -0.4046 -0.4109  0.7203
  256TMC3    C7 3886   4.407   1.429   9.245 -0.2842  0.6726  0.5042
  256TMC3    C8 3887   4.676   1.804   9.411  0.0436  0.2287 -0.4856
  256TMC3    O1 3888   4.297   1.477   9.262 -0.1951 -0.4114  0.3224
  256TMC3    O2 3889   4.597   1.894   9.433 -0.0592 -0.0602 -0.1256
  257MPD2     C 3890   4.546   2.819  12.947  0.0473 -0.1113  0.0957
  257MPD2    C1 3891   4.670   2.875  12.934 -0.6904 -0.0758  0.0842
  257MPD2    C2 3892   0.043   2.831  13.022 -0.4789 -0.6942  0.2861
  257MPD2    C3 3893   0.026   2.724  13.103 -0.1933  0.1684  0.0628
  257MPD2    C4 3894   4.618   2.684  13.121  0.0937  0.2126 -0.0085
  257MPD2    C5 3895   4.516   2.728  13.046  0.3498 -0.2397  0.5854
  257MPD2     H 3896   0.142   2.873  13.008 -1.7041  1.9309 -0.5796
  257MPD2    H1 3897   4.580   2.627  13.205 -1.6185  2.9935  1.0774
  257MPD2    H2 3898   4.463   2.844  12.881 -0.4708 -0.2197  0.7011
  257MPD2    H3 3899   4.413   2.699  13.062 -0.7662  2.4075 -1.6675
  257MPD2     N 3900   0.136   2.666  13.168 -0.4718  0.4433 -0.9743
  257MPD2    H5 3901   0.231   2.697  13.147  0.3366 -1.6408 -0.3891
  257MPD2    N1 3902   4.688   2.958  12.822  0.4397  0.7677  1.0658
  257MPD2    H7 3903   4.606   2.967  12.763  2.2448  1.7418 -1.2839
  258TMC3    C1 3904   0.244   2.516  13.314  0.3589 -0.1338  0.3133
  258TMC3    C2 3905   0.231   2.404  13.388  0.8666 -0.0943  0.4088
  258TMC3    C3 3906   0.343   2.347  13.457 -0.3703 -0.2641 -0.1817
  258TMC3    C4 3907   0.364   2.579  13.303 -0.2684  0.0548 -0.1029
  258TMC3    C5 3908   0.460   2.533  13.382 -0.5449  0.0606 -0.1650
  258TMC3    C6 3909   0.457   2.419  13.451  0.1770  0.4925 -0.0812
  258TMC3     C 3910   0.117   2.560  13.261  0.1120 -0.6119 -0.0050
  258TMC3     O 3911   0.016   2.501  13.302  0.7713 -0.1458  0.0602
  258TMC3     H 3912   0.145   2.338  13.380  1.5391 -1.0494  1.1105
  258TMC3    H1 3913   0.374   2.671  13.247  0.0674 -0.9233 -1.6485
  258TMC3    H2 3914   0.543   2.387  13.509  2.4505  0.6692 -3.3507
  258TMC3    C7 3915   0.585   2.609  13.379  1.2477 -0.1397  0.6683
  258TMC3    C8 3916   0.303   2.257  13.565 -0.7757 -0.5052 -0.7297
  258TMC3    O1 3917   0.618   2.665  13.278  0.2395 -0.0948  0.6160
  258TMC3    O2 3918   0.184   2.226  13.564  0.2599  0.0979 -0.1579
  259MPD2     C 3919   3.364   0.383   1.105 -0.1891 -0.1825  0.9633
  259MPD2    C1 3920   3.483   0.323   1.094  0.0507 -0.5478  0.0660
  259MPD2    C2 3921   3.561   0.325   0.976  0.6214  0.1969 -0.1667
  259MPD2    C3 3922   3.517   0.404   0.874 -0.4312  0.4525 -0.0539
  259MPD2    C4 3923   3.410   0.482   0.886 -0.2694 -0.1104 -0.1830
  259MPD2    C5 3924   3.331   0.464   1.002  0.6929 -0.1364  0.7391
  259MPD2     H 3925   3.647   0.262   0.955  1.9352  1.9913 -0.1821
  259MPD2    H1 3926   3.368   0.539   0.804 -1.4322  1.2626  1.3678
  259MPD2    H2 3927   3.293   0.375   1.187  0.5918 -1.2414  1.5313
  259MPD2    H3 3928   3.237   0.519   0.995  0.8981  0.2398  0.9318
  259MPD2     N 3929   3.592   0.412   0.758  0.9300 -0.3607  0.0846
  259MPD2    H5 3930   3.676   0.356   0.757 -0.4982 -2.4886 -0.3335
  259MPD2    N1 3931   3.510   0.254   1.216 -0.1888  0.0118  0.3930
  259MPD2    H7 3932   3.449   0.267   1.296 -2.0019  0.3337 -1.0606
  260TMC3    C1 3933   3.646   0.448   0.538 -0.1505  0.2740  0.0927
  260TMC3    C2 3934   3.690   0.548   0.454  0.4186  0.2934 -0.4444
  260TMC3    C3 3935   3.756   0.511   0.341  0.3448  0.1276 -0.0062
  260TMC3    C4 3936   3.678   0.314   0.518  0.0389 -0.2365  0.0237
  260TMC3    C5 3937   3.740   0.280   0.397  0.0331 -0.8896 -0.1751
  260TMC3    C6 3938   3.777   0.382   0.310  0.4570  0.5282 -0.2247
  260TMC3     C 3939   3.563   0.485   0.649  0.4512  0.2239 -0.7980
  260TMC3     O 3940   3.485   0.576   0.634  0.1634  0.7016 -0.3450
  260TMC3     H 3941   3.683   0.653   0.480  0.1059  0.1138  0.2149
  260TMC3    H1 3942   3.637   0.239   0.584 -2.2750  0.3567 -0.7668
  260TMC3    H2 3943   3.834   0.358   0.220  2.6136 -2.6838  1.9836
  260TMC3    C7 3944   3.750   0.144   0.350 -0.1111  0.0177  0.7784
  260TMC3    C8 3945   3.843   0.610   0.287  0.0651 -0.6669  0.5085
  260TMC3    O1 3946   3.829   0.126   0.257 -0.5275 -0.1745 -0.3014
  260TMC3    O2 3947   3.799   0.726   0.273  0.3179  0.3089  0.2115
  261MPD2     C 3948   0.527   2.816  12.204 -0.1933 -0.7257  0.4162
  261MPD2    C1 3949   0.582   2.936  12.251  0.2475 -0.1685  0.0462
  261MPD2    C2 3950   0.569   3.047  12.166 -0.4048 -1.0857 -0.0578
  261MPD2    C3 3951   0.508   3.041  12.040  0.2199  0.1123 -0.4466
  261MPD2    C4 3952   0.456   2.921  12.002  0.2020 -0.3379  0.2711
  261MPD2    C5 3953   0.467   2.810  12.081  0.0714 -0.3034  0.2467
  261MPD2     H 3954   0.626   3.134  12.195 -2.7490  0.0158  1.2425
  261MPD2    H1 3955   0.407   2.915  11.906 -1.4785 -0.2939  1.1366
  261MPD2    H2 3956   0.528   2.728  12.267 -0.0238 -1.0074  0.0163
  261MPD2    H3 3957   0.446   2.716  12.030 -0.5214  0.0333 -0.1380
  261MPD2     N 3958   0.505   3.159  11.963 -0.6680  0.1477  0.7231
  261MPD2    H5 3959   0.554   3.241  11.999 -1.8570  1.3414 -0.3537
  261MPD2    N1 3960   0.633   2.952  12.387 -0.9333  0.9876 -0.0550
  261MPD2    H7 3961   0.647   3.050  12.414  0.3437  0.9290 -0.4837
  262TMC3    C1 3962   0.457   3.309  11.793 -0.4222 -0.1081 -0.5128
  262TMC3    C2 3963   0.464   3.423  11.863 -0.1804 -0.0344  0.0688
  262TMC3    C3 3964   0.483   3.536  11.792 -0.1316 -0.5733 -0.2747
  262TMC3    C4 3965   0.464   3.304  11.656  0.2908 -0.1193 -1.1642
  262TMC3    C5 3966   0.487   3.413  11.593 -0.0501  0.0947 -0.9879
  262TMC3    C6 3967   0.502   3.539  11.654 -0.0877  0.6347  0.1520
  262TMC3     C 3968   0.444   3.179  11.850 -0.4008  0.3034  0.3433
  262TMC3     O 3969   0.394   3.094  11.778 -0.9624  0.5385 -0.4968
  262TMC3     H 3970   0.460   3.423  11.972  0.3879  2.9117  0.0716
  262TMC3    H1 3971   0.478   3.213  11.599 -0.0323 -0.1772 -1.1501
  262TMC3    H2 3972   0.495   3.629  11.595 -0.0110 -1.2171 -2.6892
  262TMC3    C7 3973   0.533   3.401  11.461 -0.3061 -0.1405  0.3019
  262TMC3    C8 3974   0.456   3.661  11.854  0.2352 -0.5908 -0.4565
  262TMC3    O1 3975   0.528   3.293  11.407  0.4830  0.4740  0.0593
  262TMC3    O2 3976   0.461   3.755  11.777 -0.7167  0.1671  0.2414
  263MPD2     C 3977   1.648   1.975  11.332  0.2803  0.0334  0.6231
  263MPD2    C1 3978   1.681   2.100  11.383 -1.0799 -0.4933 -0.0640
  263MPD2    C2 3979   1.641   2.220  11.321 -0.1213 -0.4551  0.2785
  263MPD2    C3 3980   1.585   2.207  11.197  0.0841  0.5272 -0.0810
  263MPD2    C4 3981   1.552   2.079  11.146 -0.2184 -0.4101 -0.0495
  263MPD2    C5 3982   1.576   1.964  11.216 -0.1886  0.1767 -0.5475
  263MPD2     H 3983   1.683   2.311  11.363  1.9352 -1.0102 -0.5325
  263MPD2    H1 3984   1.500   2.067  11.052 -0.5176  2.4082 -0.2371
  263MPD2    H2 3985   1.689   1.882  11.369 -0.8428 -0.4835  0.5921
  263MPD2    H3 3986   1.575   1.867  11.168 -0.3480  0.3345 -0.8616
  263MPD2     N 3987   1.557   2.317  11.118  0.2056 -0.6735  0.1549
  263MPD2    H5 3988   1.546   2.301  11.018  0.6820  0.7248 -0.1204
  263MPD2    N1 3989   1.770   2.102  11.494 -0.0771 -0.5903  0.5408
  263MPD2    H7 3990   1.816   2.015  11.516 -1.6137 -1.3546  0.7045
  264TMC3    C1 3991   1.503   2.529  11.066 -0.1108 -0.6494  0.2015
  264TMC3    C2 3992   1.447   2.650  11.114 -0.5815 -0.5623 -0.1600
  264TMC3    C3 3993   1.423   2.747  11.025  0.3157 -0.2124 -0.1908
  264TMC3    C4 3994   1.554   2.511  10.939 -0.1515  0.5103  0.6561
  264TMC3    C5 3995   1.541   2.621  10.859 -0.2197  0.3611  0.0812
  264TMC3    C6 3996   1.462   2.725  10.889 -0.6667  0.0339  0.5604
  264TMC3     C 3997   1.544   2.442  11.171 -0.3794  0.0573 -0.1344
  264TMC3     O 3998   1.539   2.476  11.287 -0.1276  0.3952 -0.0756
  264TMC3     H 3999   1.421   2.662  11.219  0.1149  2.7573 -0.3934
  264TMC3    H1 4000   1.628   2.441  10.904  0.6190  2.6305 -1.9918
  264TMC3    H2 4001   1.442   2.805  10.818  1.3330 -0.5786 -0.6935
  264TMC3    C7 4002   1.644   2.661  10.765  0.3770 -0.3979  0.1762
  264TMC3    C8 4003   1.445   2.882  11.074 -0.8811  0.1289 -0.2105
  264TMC3    O1 4004   1.712   2.580  10.712 -0.2495  0.0991  0.0002
  264TMC3    O2 4005   1.503   2.949  10.989 -0.2662 -0.1778  0.1040
  265MPD2     C 4006   3.684   2.869  15.759 -0.2212 -0.2390  0.2128
  265MPD2    C1 4007   3.702   2.994  15.696  0.1301  1.1762 -0.4009
  265MPD2    C2 4008   3.749   2.997  15.568 -0.2487 -0.3382  0.3659
  265MPD2    C3 4009   3.788   2.878  15.503  0.0690  0.6612 -0.6501
  265MPD2    C4 4010   3.759   2.763  15.563 -0.2370  0.1412 -0.9200
  265MPD2    C5 4011   3.702   2.754  15.689 -0.1914 -0.0685  0.2695
  265MPD2     H 4012   3.741   3.086  15.507  1.6020 -0.9830 -0.8319
  265MPD2    H1 4013   3.787   2.666  15.525  2.6894  1.0849 -1.1576
  265MPD2    H2 4014   3.660   2.863  15.865  0.9401 -1.1032  0.4265
  265MPD2    H3 4015   3.694   2.659  15.740  2.1970 -0.0984  0.5656
  265MPD2     N 4016   3.852   2.863  15.376  0.5786 -0.0565 -0.1968
  265MPD2    H5 4017   3.880   2.770  15.347  0.9784  0.5457 -1.7279
  265MPD2    N1 4018   3.659   3.114  15.760  0.7527 -0.5703 -0.3451
  265MPD2    H7 4019   3.692   3.198  15.713 -0.9188 -0.6281 -1.6307
  266TMC3    C1 4020   3.594   3.267  15.926  0.0559  0.2581  0.2138
  266TMC3    C2 4021   3.620   3.296  16.059 -0.0934 -0.5173  0.3117
  266TMC3    C3 4022   3.632   3.427  16.101  0.3463 -0.8036  0.2202
  266TMC3    C4 4023   3.582   3.360  15.833 -0.1840  0.0035  0.5161
  266TMC3    C5 4024   3.593   3.488  15.878  0.3048  0.9007  0.0605
  266TMC3    C6 4025   3.616   3.529  16.010 -0.0741 -0.0206 -1.3679
  266TMC3     C 4026   3.596   3.132  15.879  0.3915  0.0688  0.7339
  266TMC3     O 4027   3.568   3.048  15.964 -0.0279  0.5795 -0.4297
  266TMC3     H 4028   3.652   3.222  16.131  0.4470 -1.8656 -1.3280
  266TMC3    H1 4029   3.547   3.343  15.731  0.4451 -0.7900  0.4264
  266TMC3    H2 4030   3.622   3.636  16.025  3.4957 -0.0668 -2.4625
  266TMC3    C7 4031   3.541   3.591  15.784 -0.2136 -0.1239  0.3183
  266TMC3    C8 4032   3.711   3.446  16.220  0.5211 -0.4181  0.2857
  266TMC3    O1 4033   3.455   3.561  15.702  0.9114  0.5177  0.1818
  266TMC3    O2 4034   3.758   3.350  16.277  0.2406 -0.2194 -0.1724
  267MPD2     C 4035   1.697   4.440  17.419  0.7015 -0.3924  0.8631
  267MPD2    C1 4036   1.699   4.579  17.397 -0.4479 -0.4875 -0.0969
  267MPD2    C2 4037   1.624   4.636  17.295  0.3531  0.9845  0.7878
  267MPD2    C3 4038   1.547   4.559  17.213  0.3814  0.1638 -0.0872
  267MPD2    C4 4039   1.542   4.420  17.235  0.7134  0.2150 -0.3408
  267MPD2    C5 4040   1.615   4.363  17.338  0.5895  0.4549  0.3268
  267MPD2     H 4041   1.630   0.015  17.275 -0.3286  0.8814  0.0727
  267MPD2    H1 4042   1.469   4.363  17.180 -0.2273 -0.4723  1.6328
  267MPD2    H2 4043   1.763   4.401  17.496  2.9235 -0.3347 -1.0059
  267MPD2    H3 4044   1.594   4.261  17.366 -0.7342  1.0611  1.5222
  267MPD2     N 4045   1.477   4.607  17.102  0.1053 -0.5046 -0.0406
  267MPD2    H5 4046   1.420   4.537  17.054 -1.0257  0.7415 -0.5014
  267MPD2    N1 4047   1.784   4.655  17.487  0.6851 -0.0622 -0.4605
  267MPD2    H7 4048   1.804   4.604  17.572  1.3744 -2.0761 -1.8222
  268TMC3    C1 4049   1.902   0.119  17.569 -0.5437  0.0103  0.2816
  268TMC3    C2 4050   1.983   0.216  17.533  0.2752 -0.0024 -0.4116
  268TMC3    C3 4051   2.061   0.270  17.628 -0.2640  0.2847 -0.4327
  268TMC3    C4 4052   1.898   0.065  17.695  0.7143 -0.2608  0.4322
  268TMC3    C5 4053   1.984   0.115   0.077  0.0039  0.3302  0.7592
  268TMC3    C6 4054   2.067   0.218   0.046  0.1326  0.6161 -0.0757
  268TMC3     C 4055   1.814   0.063  17.467 -0.2839 -0.2147  0.3217
  268TMC3     O 4056   1.788   0.145  17.377 -0.0603  0.8670  0.2868
  268TMC3     H 4057   1.988   0.242  17.427  2.4566 -0.4185 -0.4163
  268TMC3    H1 4058   1.818   0.001   0.018 -0.8722  1.3456 -0.2698
  268TMC3    H2 4059   2.133   0.272   0.113  3.6018 -1.5338 -1.7224
  268TMC3    C7 4060   1.980   0.075   0.218 -0.2934 -0.6216 -0.4363
  268TMC3    C8 4061   2.141   0.390  17.598  0.0264 -1.1022  0.4106
  268TMC3    O1 4062   1.877   0.039   0.267 -0.5530  0.0867 -0.2659
  268TMC3    O2 4063   2.221   0.426  17.688 -0.9260  0.3395  0.3638
  269MPD2     C 4064   0.757   3.252  15.918  0.1897 -0.0828  0.2393
  269MPD2    C1 4065   0.857   3.270  15.829 -0.0978 -0.9273  0.7766
  269MPD2    C2 4066   0.889   3.399  15.800  0.3765 -0.6709 -0.4958
  269MPD2    C3 4067   0.815   3.507  15.844  0.6186  0.1909  0.5048
  269MPD2    C4 4068   0.694   3.485  15.910  0.2472  0.5932 -0.0555
  269MPD2    C5 4069   0.676   3.358  15.959  0.1238  0.2817 -0.1047
  269MPD2     H 4070   0.977   3.411  15.738  0.2186 -0.6352 -0.7130
  269MPD2    H1 4071   0.633   3.566  15.947 -2.6361 -2.2202  1.3392
  269MPD2    H2 4072   0.739   3.154  15.961  2.4475  0.5047  2.5670
  269MPD2    H3 4073   0.599   3.338  16.033 -0.3878  0.6443 -0.5395
  269MPD2     N 4074   0.845   3.647  15.825  0.2790 -0.4797  0.1251
  269MPD2    H5 4075   0.778   3.713  15.863 -0.7667 -1.5595  0.1900
  269MPD2    N1 4076   0.941   3.154  15.798 -0.5690  0.0123 -0.1161
  269MPD2    H7 4077   0.912   3.058  15.814  0.9937 -0.6505 -1.2824
  270TMC3    C1 4078   1.095   3.026  15.709  0.0800 -0.0787  0.7558
  270TMC3    C2 4079   1.022   2.980  15.605 -0.3567  0.5673  0.0356
  270TMC3    C3 4080   1.061   2.862  15.551  0.0848  0.5317  0.2800
  270TMC3    C4 4081   1.211   2.964  15.740  0.9461  0.6037  0.4843
  270TMC3    C5 4082   1.253   2.857  15.676  0.3554 -0.2406 -0.3346
  270TMC3    C6 4083   1.180   2.801  15.582 -0.2466 -0.2874 -0.0141
  270TMC3     C 4084   1.065   3.154  15.757 -0.7964  0.0899 -0.0056
  270TMC3     O 4085   1.139   3.249  15.753 -0.0826  0.2915  0.2576
  270TMC3     H 4086   0.927   3.023  15.574  0.3227  1.9336 -0.1708
  270TMC3    H1 4087   1.268   3.004  15.824 -1.6409  0.0059  2.5235
  270TMC3    H2 4088   1.210   2.708  15.535 -2.6172 -0.3634 -1.4088
  270TMC3    C7 4089   1.367   2.783  15.724  0.3604 -0.4510 -0.0012
  270TMC3    C8 4090   1.007   2.852  15.417 -0.3835 -0.0324  0.6190
  270TMC3    O1 4091   1.466   2.850  15.765 -0.1778 -0.5068 -0.0905
  270TMC3    O2 4092   0.888   2.874  15.412 -0.8981 -0.1234  0.8115
  271MPD2     C 4093   0.728   3.113  13.652 -0.1092  0.5052 -0.0845
  271MPD2    C1 4094   0.702   3.099  13.785 -0.2029  0.6480 -0.4164
  271MPD2    C2 4095   0.586   3.153  13.835  0.0209 -0.3174  0.6362
  271MPD2    C3 4096   0.495   3.217  13.755 -0.3801  0.2725 -0.1226
  271MPD2    C4 4097   0.526   3.229  13.627  0.2522 -0.0692  0.0534
  271MPD2    C5 4098   0.635   3.176  13.573  0.1346  0.0586 -0.4495
  271MPD2     H 4099   0.561   3.141  13.940 -2.1533  1.9557  0.3634
  271MPD2    H1 4100   0.464   3.281  13.554  0.4051  0.5622  0.3702
  271MPD2    H2 4101   0.813   3.073  13.597 -0.2216  1.1824 -0.7561
  271MPD2    H3 4102   0.660   3.186  13.468 -2.3279  3.0237 -0.7473
  271MPD2     N 4103   0.377   3.275  13.804  0.8484 -0.1297 -0.2753
  271MPD2    H5 4104   0.324   3.321  13.730  0.8739  1.3567  0.6291
  271MPD2    N1 4105   0.792   3.019  13.859 -0.1539 -0.4373 -0.2109
  271MPD2    H7 4106   0.758   3.005  13.953 -1.0321 -1.0267 -0.6218
  272TMC3    C1 4107   0.974   2.902  13.940  0.3024  0.3424  0.4984
  272TMC3    C2 4108   1.109   2.910  13.946 -0.2043 -1.1238  0.0468
  272TMC3    C3 4109   1.174   2.861  14.061 -0.2985 -0.7957 -0.8096
  272TMC3    C4 4110   0.889   2.848  14.033  0.8234 -0.4404 -1.1776
  272TMC3    C5 4111   0.958   2.807  14.147  0.1761  0.0285  0.6766
  272TMC3    C6 4112   1.095   2.807  14.164  0.4512  0.4624 -0.1616
  272TMC3     C 4113   0.916   2.962  13.824 -0.3279 -0.3130  0.3002
  272TMC3     O 4114   0.993   2.993  13.732 -0.6871 -0.2616 -0.1879
  272TMC3     H 4115   1.168   2.940  13.860  0.8201  0.6889  1.4006
  272TMC3    H1 4116   0.784   2.825  14.020  0.1516  3.2078 -2.3601
  272TMC3    H2 4117   1.136   2.777  14.260 -1.7654  2.8122  1.5014
  272TMC3    C7 4118   0.876   2.781  14.260  0.1538 -1.0064 -0.0082
  272TMC3    C8 4119   1.323   2.873  14.066  0.9735  0.1231  0.0072
  272TMC3    O1 4120   0.772   2.718  14.233  0.3147  0.3829  0.2199
  272TMC3    O2 4121   1.368   2.931  13.971 -0.1787 -0.4722  0.0603
  273MPD2     C 4122   2.321   1.153  11.894 -0.2264  1.0822  0.1628
  273MPD2    C1 4123   2.453   1.204  11.894  0.1779 -0.0615 -1.2075
  273MPD2    C2 4124   2.504   1.231  11.768 -0.0476  0.0727 -0.7048
  273MPD2    C3 4125   2.444   1.212  11.648  0.6868  0.6708 -0.7586
  273MPD2    C4 4126   2.321   1.155  11.652 -0.3370  0.6256 -0.9648
  273MPD2    C5 4127   2.267   1.121  11.771  0.2251 -0.6383 -0.5662
  273MPD2     H 4128   2.599   1.282  11.763  0.6231 -1.1067  0.0105
  273MPD2    H1 4129   2.254   1.139  11.569 -1.4965 -1.3012  0.3362
  273MPD2    H2 4130   2.263   1.129  11.982 -1.3490 -0.1003 -0.9051
  273MPD2    H3 4131   2.168   1.079  11.757  0.0219 -0.9483  1.8023
  273MPD2     N 4132   2.499   1.261  11.527 -0.6536  0.8704 -0.1656
  273MPD2    H5 4133   2.582   1.318  11.543 -1.1679  1.4814  0.3123
  273MPD2    N1 4134   2.521   1.221  12.013  0.0910  0.3663 -0.2181
  273MPD2    H7 4135   2.456   1.245  12.087 -2.5074 -1.2591 -1.9721
  274TMC3    C1 4136   2.485   1.357  11.306  0.1784  0.0926 -0.2681
  274TMC3    C2 4137   2.425   1.355  11.184 -0.2829  0.0592 -0.1973
  274TMC3    C3 4138   2.413   1.470  11.113 -0.3041  0.3791 -0.2998
  274TMC3    C4 4139   2.539   1.477  11.360  0.6473 -0.2949  0.2032
  274TMC3    C5 4140   2.528   1.587  11.280 -0.6472 -0.2544  0.5755
  274TMC3    C6 4141   2.472   1.585  11.156  0.2304  0.4224  0.0215
  274TMC3     C 4142   2.443   1.252  11.400  0.3398  0.3345 -0.5012
  274TMC3     O 4143   2.370   1.163  11.363  0.0127  0.5392  0.3271
  274TMC3     H 4144   2.366   1.269  11.155  0.6878  0.3217 -2.9718
  274TMC3    H1 4145   2.577   1.479  11.462 -0.1731  0.9667  0.4942
  274TMC3    H2 4146   2.437   1.680  11.116  1.8160  1.2415  0.6117
  274TMC3    C7 4147   2.507   1.710  11.348  0.6148  0.5547 -0.4297
  274TMC3    C8 4148   2.305   1.470  11.017  1.1212 -0.0636  0.6050
  274TMC3    O1 4149   2.428   1.793  11.308 -0.0485  0.1345 -0.2670
  274TMC3    O2 4150   2.214   1.386  11.023  0.4087  1.2340  0.0173
  275MPD2     C 4151   2.139   4.029  14.223 -0.1548  0.0819 -0.6010
  275MPD2    C1 4152   2.073   4.014  14.341  0.7516 -0.1806  0.0843
  275MPD2    C2 4153   1.945   3.952  14.337 -0.2045 -0.0171  0.4313
  275MPD2    C3 4154   1.881   3.917  14.222  0.4724  0.0769 -0.3424
  275MPD2    C4 4155   1.948   3.947  14.106 -0.5301  0.2216 -0.3222
  275MPD2    C5 4156   2.068   4.005  14.108  0.4281 -0.3452 -0.0460
  275MPD2     H 4157   1.909   3.953  14.439 -2.2004  0.4638 -0.2747
  275MPD2    H1 4158   1.907   3.906  14.014 -0.4993  1.0175 -0.6857
  275MPD2    H2 4159   2.236   4.075  14.211 -0.1338 -0.2825 -1.8811
  275MPD2    H3 4160   2.114   4.035  14.014 -3.4128 -1.1103 -2.1652
  275MPD2     N 4161   1.755   3.857  14.218  0.0811  0.1175  0.7908
  275MPD2    H5 4162   1.713   3.850  14.126  2.2341 -0.1061 -0.1773
  275MPD2    N1 4163   2.129   4.045  14.466 -0.1584  0.6191  0.2745
  275MPD2    H7 4164   2.073   4.023  14.547 -0.4701  0.3453 -0.0139
  276TMC3    C1 4165   2.288   4.111  14.627 -0.3014 -0.4203  0.5084
  276TMC3    C2 4166   2.230   4.020  14.714  0.2283 -0.0225 -0.2631
  276TMC3    C3 4167   2.242   4.045  14.851 -0.5668  0.5410  0.1242
  276TMC3    C4 4168   2.330   4.234  14.668 -0.4549  0.6120  0.2990
  276TMC3    C5 4169   2.330   4.258  14.800  0.6704 -0.0099 -0.1436
  276TMC3    C6 4170   2.289   4.166  14.893 -0.0616 -0.1325 -0.8719
  276TMC3     C 4171   2.253   4.098  14.483  0.7536  0.6092 -0.0733
  276TMC3     O 4172   2.330   4.146  14.403  0.2247 -0.9965  0.1020
  276TMC3     H 4173   2.191   3.934  14.662 -0.1738  0.5306 -0.8727
  276TMC3    H1 4174   2.361   4.307  14.593  1.0742  0.6667  0.9816
  276TMC3    H2 4175   2.287   4.198  14.997  0.5339 -5.0734  0.6908
  276TMC3    C7 4176   2.404   4.366  14.848  0.0492 -1.1479 -0.2708
  276TMC3    C8 4177   2.156   3.985  14.947  0.2144 -1.1710 -0.9570
  276TMC3    O1 4178   2.454   4.350  14.955  0.1959 -0.1609  0.4000
  276TMC3    O2 4179   2.114   4.051  15.042  0.1963  0.9883  0.0524
  277MPD2     C 4180   4.659   3.230  13.233  0.8155 -0.9227  0.3003
  277MPD2    C1 4181   4.567   3.143  13.182  0.6272 -0.1258  0.2103
  277MPD2    C2 4182   4.523   3.039  13.259 -1.0577  0.1446 -0.1104
  277MPD2    C3 4183   4.571   3.018  13.381  0.6880  0.2119 -0.8347
  277MPD2    C4 4184   4.651   3.108  13.437  0.0732  0.1970  0.2904
  277MPD2    C5 4185   4.708   3.206  13.359 -0.0902 -0.2962 -0.0856
  277MPD2     H 4186   4.444   2.976  13.222 -3.9742  2.6936  1.7756
  277MPD2    H1 4187   4.689   3.099  13.538  0.2100  0.1721  0.2370
  277MPD2    H2 4188   4.686   3.314  13.170  0.5142 -1.1072 -0.0766
  277MPD2    H3 4189   0.040   3.281  13.410  0.7751 -1.0727  0.0500
  277MPD2     N 4190   4.500   2.911  13.457  0.6928  0.3241 -0.7784
  277MPD2    H5 4191   4.431   2.858  13.404  0.7157 -1.5657  1.0590
  277MPD2    N1 4192   4.493   3.165  13.062  0.4371 -0.2210 -0.5035
  277MPD2    H7 4193   4.408   3.110  13.058  0.8326 -0.7129 -1.8116
  278TMC3    C1 4194   4.400   2.805  13.634  0.2171 -0.3672 -1.3280
  278TMC3    C2 4195   4.356   2.699  13.557  0.0338 -0.7664 -0.8879
  278TMC3    C3 4196   4.230   2.646  13.592 -0.1215 -0.0139  0.1066
  278TMC3    C4 4197   4.325   2.857  13.730 -0.4338 -0.3363 -0.0582
  278TMC3    C5 4198   4.205   2.800  13.768 -0.3537 -0.2552 -0.4474
  278TMC3    C6 4199   4.164   2.683  13.712 -0.4450 -0.0153  0.5837
  278TMC3     C 4200   4.517   2.882  13.591  0.3548  0.3952  0.5441
  278TMC3     O 4201   4.571   2.933  13.684  0.1374 -0.4895  0.0658
  278TMC3     H 4202   4.413   2.648  13.480 -1.1572 -1.2495 -1.4536
  278TMC3    H1 4203   4.353   2.956  13.766 -2.2531 -0.4487  1.6462
  278TMC3    H2 4204   4.079   2.633  13.757 -0.8968 -0.9223 -1.2971
  278TMC3    C7 4205   4.127   2.868  13.868  0.4172 -0.2392  0.5016
  278TMC3    C8 4206   4.192   2.524  13.527 -0.5355 -0.9060  0.0666
  278TMC3    O1 4207   4.190   2.949  13.934  0.6088 -0.7359 -0.6552
  278TMC3    O2 4208   4.285   2.463  13.477  0.0014  0.0100  0.1127
  279MPD2     C 4209   3.531   3.745   0.472 -0.2013  0.3516 -0.2965
  279MPD2    C1 4210   3.414   3.707   0.407 -0.1184 -0.2271 -0.5113
  279MPD2    C2 4211   3.416   3.598   0.320 -0.5340 -0.1770  0.0438
  279MPD2    C3 4212   3.532   3.530   0.295  0.2088 -0.3354 -0.2155
  279MPD2    C4 4213   3.643   3.558   0.380  0.0571 -0.6453 -0.0507
  279MPD2    C5 4214   3.640   3.667   0.461  0.6164  0.7340  0.0553
  279MPD2     H 4215   3.323   3.565   0.275 -1.3030 -0.0824  1.5317
  279MPD2    H1 4216   3.738   3.506   0.375  0.0215 -0.6792 -0.3766
  279MPD2    H2 4217   3.532   3.830   0.539  0.5208  0.5941 -0.6135
  279MPD2    H3 4218   3.723   3.701   0.522  0.5080  0.0404  0.5976
  279MPD2     N 4219   3.548   3.430   0.190  0.3239  0.0467  0.2806
  279MPD2    H5 4220   3.641   3.390   0.184 -0.8163 -2.4389 -1.0994
  279MPD2    N1 4221   3.286   3.761   0.431 -0.1506  0.0463 -0.7859
  279MPD2    H7 4222   3.211   3.713   0.382  0.5025 -2.3499  0.5485
  280TMC3    C1 4223   3.111   3.871   0.514  0.3024  0.0475  0.1211
  280TMC3    C2 4224   3.024   3.771   0.464  0.2923  1.1268 -0.0951
  280TMC3    C3 4225   2.888   3.776   0.479  0.0355  0.2394 -0.9922
  280TMC3    C4 4226   3.061   3.974   0.582 -0.3173 -0.5231 -0.1830
  280TMC3    C5 4227   2.927   3.976   0.594 -0.4057 -0.1081 -0.1110
  280TMC3    C6 4228   2.837   3.874   0.553  0.7303 -0.3727 -0.3642
  280TMC3     C 4229   3.255   3.868   0.504 -0.2442 -0.7636 -0.1128
  280TMC3     O 4230   3.313   3.945   0.577 -0.1966  0.2247 -0.5991
  280TMC3     H 4231   3.067   3.692   0.404  1.1286  0.8338  0.8816
  280TMC3    H1 4232   3.118   4.061   0.615 -0.0460 -0.8864  0.3184
  280TMC3    H2 4233   2.730   3.877   0.572  0.7770 -0.8960 -0.0095
  280TMC3    C7 4234   2.873   4.092   0.668 -0.5769 -0.0634 -0.5248
  280TMC3    C8 4235   2.795   3.668   0.450  0.2156 -0.2411 -0.5284
  280TMC3    O1 4236   2.937   4.131   0.762  0.4760  0.2460 -0.0383
  280TMC3    O2 4237   2.676   3.695   0.438 -0.0745  0.2273 -0.8966
  281TMC3    C1 4238   1.939   3.500  13.433 -0.4352 -0.2131  0.2247
  281TMC3    C2 4239   2.021   3.591  13.364 -0.1966 -0.4590  0.4388
  281TMC3    C3 4240   2.079   3.535  13.255 -0.0978 -0.5846  0.3610
  281TMC3    C4 4241   1.915   3.369  13.398 -1.3616 -0.2650 -0.1093
  281TMC3    C5 4242   1.954   3.330  13.277 -0.5932 -0.3083 -0.2655
  281TMC3    C6 4243   2.033   3.417  13.200 -0.1460 -0.1255 -0.1146
  281TMC3     C 4244   1.876   3.551  13.545  0.2897 -0.1336 -0.1938
  281TMC3     O 4245   1.820   3.474  13.619  0.7740 -0.1800  0.5265
  281TMC3     H 4246   2.054   3.686  13.407 -2.7897  0.5087  0.2748
  281TMC3    H1 4247   1.873   3.307  13.477  2.2510 -0.0968  1.9241
  281TMC3    H2 4248   2.069   3.386  13.102 -1.0494 -0.6832 -0.2671
  281TMC3    C7 4249   1.984   3.188  13.248  0.0664  1.0382 -0.4581
  281TMC3    C8 4250   2.188   3.607  13.184  0.1895 -0.1234  0.4086
  281TMC3    O1 4251   2.014   3.161  13.135  0.0761  0.2997  0.4167
  281TMC3    O2 4252   2.269   3.531  13.127  0.2862 -0.1830 -0.1262
  282MPD2     C 4253   3.756   0.264  15.304  0.8462 -0.2628  0.0789
  282MPD2    C1 4254   3.640   0.347  15.333 -0.3424  0.1549 -0.1165
  282MPD2    C2 4255   3.575   0.400  15.223  0.1107 -0.0874 -0.0046
  282MPD2    C3 4256   3.599   0.355  15.098  0.3111 -0.5586 -0.0111
  282MPD2    C4 4257   3.717   0.290  15.076 -0.7732 -0.0009  0.2407
  282MPD2    C5 4258   3.794   0.242  15.172 -0.6005 -0.5391  0.2302
  282MPD2     H 4259   3.480   0.449  15.239 -0.4047 -2.2281  3.5952
  282MPD2    H1 4260   3.729   0.254  14.974  3.6131  0.4260  0.5971
  282MPD2    H2 4261   3.816   0.213  15.377  1.1648 -0.5872 -0.4113
  282MPD2    H3 4262   3.869   0.167  15.149  0.2047  0.3616 -0.0696
  282MPD2     N 4263   3.501   0.374  14.993 -0.1023  0.1982  0.3420
  282MPD2    H5 4264   3.424   0.435  15.016 -0.7521  0.0247 -1.3593
  282MPD2    N1 4265   3.592   0.382  15.462  0.4822  0.8893 -0.0148
  282MPD2    H7 4266   3.512   0.444  15.469 -0.7448 -0.6039 -0.7105
  283TMC3    C1 4267   3.580   0.363  15.703  0.7821 -0.8171 -1.1750
  283TMC3    C2 4268   3.558   0.498  15.699  0.3895  0.3343 -0.1327
  283TMC3    C3 4269   3.487   0.544  15.804 -0.1090 -0.3056  0.3241
  283TMC3    C4 4270   3.522   0.273  15.780  0.5452  0.0434 -0.4099
  283TMC3    C5 4271   3.455   0.329  15.884  0.0927 -0.3245  0.4020
  283TMC3    C6 4272   3.435   0.463  15.899  0.3436 -0.3185 -0.3330
  283TMC3     C 4273   3.628   0.306  15.576 -0.1369 -0.0417  0.2686
  283TMC3     O 4274   3.684   0.198  15.581  0.1651  0.4256  0.3857
  283TMC3     H 4275   3.611   0.559  15.628  0.7451 -1.0087 -1.0308
  283TMC3    H1 4276   3.518   0.168  15.754 -1.0097  0.0725 -0.3003
  283TMC3    H2 4277   3.377   0.504  15.981  1.7804 -1.2379  1.1589
  283TMC3    C7 4278   3.374   0.250  15.970 -0.5343 -0.4401 -0.1857
  283TMC3    C8 4279   3.508   0.680  15.835  0.6089  0.5226  0.6121
  283TMC3    O1 4280   3.276   0.302  16.023 -0.2589  0.2198  0.4216
  283TMC3    O2 4281   3.493   0.710  15.951  0.0256 -0.4866  0.0429
  284MPD2     C 4282   1.746   3.991  12.407 -0.4861  0.1529 -0.0721
  284MPD2    C1 4283   1.661   3.991  12.296 -0.0931  0.0553  0.0697
  284MPD2    C2 4284   1.572   3.886  12.288  0.0500  0.0729  0.6319
  284MPD2    C3 4285   1.559   3.791  12.381 -0.4391  0.5140 -0.1840
  284MPD2    C4 4286   1.636   3.798  12.504 -0.0707  0.4445 -0.1328
  284MPD2    C5 4287   1.734   3.900  12.506  0.3175  0.3143  0.0039
  284MPD2     H 4288   1.506   3.893  12.202 -0.0114  2.1275  0.8543
  284MPD2    H1 4289   1.623   3.724  12.583  0.9804  1.2026  0.7355
  284MPD2    H2 4290   1.826   4.062  12.424  0.8818 -1.3789 -0.1010
  284MPD2    H3 4291   1.806   3.905  12.587 -0.8583 -0.7168  1.1239
  284MPD2     N 4292   1.474   3.678  12.374  0.3245 -0.6901  0.0451
  284MPD2    H5 4293   1.500   3.602  12.436 -1.4794  0.3858  2.1346
  284MPD2    N1 4294   1.677   4.092  12.198 -0.0066  0.0585 -0.2107
  284MPD2    H7 4295   1.616   4.094  12.117  0.3898  0.2391 -0.5046
  285TMC3    C1 4296   1.760   4.266  12.078 -0.1525 -0.2792 -0.0098
  285TMC3    C2 4297   1.744   4.204  11.959  0.4048 -0.1467  0.3480
  285TMC3    C3 4298   1.797   4.266  11.847  1.2236  0.7826 -0.2558
  285TMC3    C4 4299   1.829   4.378  12.091 -0.3723 -0.4092 -0.7437
  285TMC3    C5 4300   1.883   4.433  11.975 -0.1836  0.6973 -0.3045
  285TMC3    C6 4301   1.860   4.389  11.848  0.7234 -0.7192  0.6779
  285TMC3     C 4302   1.776   4.189  12.203  0.8615 -0.2567 -0.1131
  285TMC3     O 4303   1.868   4.213  12.276 -0.1017  0.1423 -0.0687
  285TMC3     H 4304   1.693   4.109  11.952  3.5292 -2.0828  3.5411
  285TMC3    H1 4305   1.820   4.429  12.186 -0.9751  2.4679 -2.3437
  285TMC3    H2 4306   1.886   4.439  11.755  1.2642 -1.9920  0.1409
  285TMC3    C7 4307   1.959   4.557  11.981  0.6769 -0.1790  0.3713
  285TMC3    C8 4308   1.829   4.178  11.742  0.0452 -0.6620 -0.5830
  285TMC3    O1 4309   1.978   4.615  11.876  0.3408 -0.3530 -0.3380
  285TMC3    O2 4310   1.752   4.081  11.719 -0.2929  0.3626  0.6013
  286MPD2     C 4311   2.388   3.636   1.869 -0.6126 -0.1157  0.1319
  286MPD2    C1 4312   2.345   3.616   1.740  0.4219  0.0726 -0.2731
  286MPD2    C2 4313   2.426   3.554   1.649 -0.1073  0.2836  0.3453
  286MPD2    C3 4314   2.555   3.526   1.675  0.1881 -0.2655 -0.7164
  286MPD2    C4 4315   2.610   3.556   1.800 -0.1757 -0.0962  0.0382
  286MPD2    C5 4316   2.523   3.610   1.895 -0.6119  0.0005 -0.1396
  286MPD2     H 4317   2.385   3.530   1.552 -1.3352 -1.9205  1.4100
  286MPD2    H1 4318   2.715   3.543   1.823 -0.5840  1.0980  2.5265
  286MPD2    H2 4319   2.332   3.678   1.952 -1.5285 -1.0302 -0.0279
  286MPD2    H3 4320   2.567   3.651   1.985  1.1048 -1.1083 -0.4737
  286MPD2     N 4321   2.646   3.463   1.581 -0.2065  0.4853  0.1115
  286MPD2    H5 4322   2.745   3.456   1.602 -0.3387 -0.3910  0.4442
  286MPD2    N1 4323   2.213   3.640   1.701 -0.2444  0.1355  0.5231
  286MPD2    H7 4324   2.192   3.612   1.606 -0.4269  1.3233  0.2046
  287TMC3    C1 4325   2.711   3.320   1.403 -1.1104 -0.4000  1.1564
  287TMC3    C2 4326   2.682   3.264   1.281  0.4486  0.0130 -0.0441
  287TMC3    C3 4327   2.716   3.135   1.246 -0.3147  0.7572 -1.0676
  287TMC3    C4 4328   2.795   3.250   1.485 -0.3452 -0.1495 -0.6018
  287TMC3    C5 4329   2.838   3.128   1.447  0.4873  0.0376 -0.4081
  287TMC3    C6 4330   2.796   3.064   1.333 -0.3238 -0.4981 -0.4689
  287TMC3     C 4331   2.609   3.416   1.456  0.1717 -0.0877 -0.1353
  287TMC3     O 4332   2.502   3.426   1.395  0.3028 -0.4093 -0.1022
  287TMC3     H 4333   2.606   3.308   1.217  1.7976  2.8873  0.3289
  287TMC3    H1 4334   2.832   3.292   1.579  2.1080 -3.3033 -0.1790
  287TMC3    H2 4335   2.829   2.965   1.304  0.9416 -0.3714  0.5370
  287TMC3    C7 4336   2.967   3.095   1.503  0.2497  0.8000 -0.0691
  287TMC3    C8 4337   2.666   3.067   1.131  0.6105  0.1896 -0.5415
  287TMC3    O1 4338   2.988   3.143   1.617  0.3999 -0.4176 -0.0287
  287TMC3    O2 4339   2.651   2.945   1.141 -0.1310 -0.1360  0.4191
  288TMC3    C1 4340   4.178   2.636  14.848 -0.6003 -0.0460 -0.2595
  288TMC3    C2 4341   4.101   2.585  14.947 -0.3206  0.0114 -0.6286
  288TMC3    C3 4342   3.980   2.651  14.962  0.1981  0.5082 -0.0747
  288TMC3    C4 4343   4.137   2.731  14.754 -0.3326 -0.2729  0.7098
  288TMC3    C5 4344   4.012   2.779  14.772 -0.2488  0.4310  0.1320
  288TMC3    C6 4345   3.931   2.744  14.878  0.3644 -0.5163 -0.5273
  288TMC3     C 4346   4.323   2.624  14.861 -0.2947 -0.5948  0.0072
  288TMC3     O 4347   4.389   2.704  14.799 -0.6406 -0.2831  0.3402
  288TMC3     H 4348   4.140   2.514  15.019  0.1663  0.0088 -0.8898
  288TMC3    H1 4349   4.203   2.755  14.672 -0.6675  4.0020  1.6765
  288TMC3    H2 4350   3.836   2.791  14.899 -0.3490 -3.6871  3.3096
  288TMC3    C7 4351   3.969   2.898  14.699  0.4964 -0.3639 -0.0898
  288TMC3    C8 4352   3.905   2.631  15.086  0.3564 -0.0009 -0.8482
  288TMC3    O1 4353   3.865   2.947  14.732 -0.3642 -0.4829  0.2556
  288TMC3    O2 4354   3.967   2.636  15.192 -0.2432  0.2033  0.0832
  289MPD2     C 4355   4.145   1.942  14.550 -0.6028  0.7481 -0.5677
  289MPD2    C1 4356   4.199   2.005  14.441 -0.8675 -0.6785 -0.0711
  289MPD2    C2 4357   4.141   1.977  14.315  1.0019  0.5620  0.8883
  289MPD2    C3 4358   4.029   1.895  14.306 -1.1114 -0.1183  0.3104
  289MPD2    C4 4359   3.993   1.819  14.416 -0.2964  0.0316 -0.6202
  289MPD2    C5 4360   4.052   1.842  14.538 -0.0757  0.6708 -0.2280
  289MPD2     H 4361   4.179   2.033  14.230 -1.1470 -1.2581 -1.2736
  289MPD2    H1 4362   3.914   1.744  14.420 -0.5086  0.2538 -0.6690
  289MPD2    H2 4363   4.184   1.972  14.646 -0.1386  1.3463 -0.9470
  289MPD2    H3 4364   4.016   1.791  14.627 -0.1874 -0.2409 -0.7886
  289MPD2     N 4365   3.961   1.864  14.181  0.1670  0.4482 -0.2635
  289MPD2    H5 4366   3.871   1.816  14.190  0.3004  0.5942  1.6883
  289MPD2    N1 4367   4.311   2.101  14.465 -0.2582 -0.3144 -0.0163
  289MPD2    H7 4368   4.330   2.126  14.562 -2.6411  2.5700 -0.3104
  290TMC3    C1 4369   3.902   1.892  13.948  0.4245  0.0340  0.4855
  290TMC3    C2 4370   3.910   1.989  13.850  0.0342  0.8560  0.2850
  290TMC3    C3 4371   3.806   2.004  13.770 -0.1462  0.3233 -0.3361
  290TMC3    C4 4372   3.794   1.807  13.966 -0.3651  0.3489 -0.4000
  290TMC3    C5 4373   3.686   1.833  13.876 -0.0486  0.2046  0.1170
  290TMC3    C6 4374   3.691   1.931  13.786 -0.1184  0.2155 -0.6729
  290TMC3     C 4375   4.005   1.899  14.052  0.0827 -0.5106  0.7343
  290TMC3     O 4376   4.096   1.969  14.015 -0.2786  0.3980  0.2566
  290TMC3     H 4377   4.002   2.044  13.837  0.1478  1.1754  2.4131
  290TMC3    H1 4378   3.788   1.739  14.051  1.5291  0.5610 -0.1073
  290TMC3    H2 4379   3.603   1.961  13.730 -0.2362 -0.2316 -0.7283
  290TMC3    C7 4380   3.561   1.754  13.893 -0.3610  0.1605  0.4430
  290TMC3    C8 4381   3.780   2.135  13.722  0.1784 -0.2237 -0.2880
  290TMC3    O1 4382   3.459   1.813  13.879  0.1431  0.2998 -0.1388
  290TMC3    O2 4383   3.674   2.156  13.659  0.7835  0.2395  0.4106
  291MPD2     C 4384   3.274   1.781   0.463  0.4525 -0.3729  0.2716
  291MPD2    C1 4385   3.254   1.650   0.429 -0.0422 -0.2972 -0.1708
  291MPD2    C2 4386   3.354   1.562   0.397 -0.0704  1.1305 -0.8996
  291MPD2    C3 4387   3.485   1.615   0.397 -0.3871  0.3158  0.3821
  291MPD2    C4 4388   3.510   1.749   0.421 -0.2731 -0.0230 -0.2776
  291MPD2    C5 4389   3.399   1.833   0.460  0.6080  0.5685 -0.7070
  291MPD2     H 4390   3.327   1.466   0.355 -0.6152  0.9934 -0.2307
  291MPD2    H1 4391   3.611   1.788   0.425 -0.1287 -0.5037  0.8383
  291MPD2    H2 4392   3.196   1.851   0.491  0.0576 -0.0387 -1.6821
  291MPD2    H3 4393   3.416   1.931   0.502  0.7315 -0.5732  1.8623
  291MPD2     N 4394   3.600   1.544   0.358  0.0910  0.4115  0.2494
  291MPD2    H5 4395   3.686   1.592   0.335  0.2403  0.5907  1.1771
  291MPD2    N1 4396   3.121   1.594   0.425 -0.5491 -0.8783 -0.0947
  291MPD2    H7 4397   3.113   1.493   0.416  1.7808 -1.1348  0.9049
  292TMC3    C1 4398   2.888   1.571   0.483 -0.0101  0.6815 -0.0962
  292TMC3    C2 4399   2.770   1.636   0.510  0.3022 -0.0608 -0.4989
  292TMC3    C3 4400   2.661   1.562   0.526  0.3906 -0.5413  0.0466
  292TMC3    C4 4401   2.901   1.434   0.477  0.0584 -0.3395 -0.1466
  292TMC3    C5 4402   2.777   1.369   0.474  0.1926  0.5925  0.4970
  292TMC3    C6 4403   2.659   1.428   0.491 -0.0167 -0.5979 -0.3820
  292TMC3     C 4404   3.004   1.657   0.463 -0.1553 -0.3150  0.1012
  292TMC3     O 4405   2.984   1.775   0.485 -0.1150 -0.1187  0.7203
  292TMC3     H 4406   2.765   1.743   0.527 -0.9770 -0.1365 -0.4201
  292TMC3    H1 4407   2.993   1.379   0.463  0.1774  0.0421 -0.8951
  292TMC3    H2 4408   2.568   1.370   0.477 -0.9206  1.6916 -3.9124
  292TMC3    C7 4409   2.782   1.219   0.479  0.6433  0.7261 -0.7016
  292TMC3    C8 4410   2.540   1.614   0.592 -0.2835  0.6845  0.3142
  292TMC3    O1 4411   2.869   1.166   0.409 -0.7074  0.2747  0.7494
  292TMC3    O2 4412   2.479   1.524   0.658  0.2637  0.5064  0.6786
  293MPD2     C 4413   0.387   3.191  12.382 -0.2323 -0.1876  0.2620
  293MPD2    C1 4414   0.321   3.091  12.445  0.2293  0.0192  0.0163
  293MPD2    C2 4415   0.335   3.066  12.577 -0.4270 -0.1307  0.0827
  293MPD2    C3 4416   0.422   3.143  12.647 -0.2293 -0.1914 -0.1763
  293MPD2    C4 4417   0.498   3.243  12.588  0.0170  0.0954 -0.7244
  293MPD2    C5 4418   0.476   3.263  12.454 -0.7923 -0.4800  0.0715
  293MPD2     H 4419   0.293   2.982  12.631  1.8021 -1.0623  0.3628
  293MPD2    H1 4420   0.568   3.309  12.638  1.6773 -1.0340 -1.5401
  293MPD2    H2 4421   0.367   3.219  12.279 -1.1881 -3.3280 -0.4094
  293MPD2    H3 4422   0.539   3.337  12.406 -1.9879  0.1996 -0.4299
  293MPD2     N 4423   0.420   3.115  12.782 -0.4019 -0.4657  0.0825
  293MPD2    H5 4424   0.354   3.043  12.811 -0.0909 -0.7462  0.0894
  293MPD2    N1 4425   0.243   3.013  12.363 -0.0902  0.5830 -0.1570
  293MPD2    H7 4426   0.237   3.053  12.270  1.0032  1.9551  0.3566
  294TMC3    C1 4427   0.104   2.829  12.304 -0.2786 -0.4811  0.5577
  294TMC3    C2 4428   0.031   2.724  12.354  0.3383 -0.1854 -0.1835
  294TMC3    C3 4429   0.014   2.617  12.275  0.1298 -0.6158 -0.2858
  294TMC3    C4 4430   0.155   2.830  12.178 -0.1018 -0.8556 -0.2766
  294TMC3    C5 4431   0.141   2.721  12.106 -0.1053 -0.0630  0.1319
  294TMC3    C6 4432   0.075   2.607  12.150  0.0588  0.0850  0.5343
  294TMC3     C 4433   0.170   2.903  12.407  0.4591  0.0763  0.1239
  294TMC3     O 4434   0.157   2.847  12.514 -0.0951 -0.3133  0.4763
  294TMC3     H 4435   4.706   2.725  12.448 -1.2245 -0.2309 -1.0619
  294TMC3    H1 4436   0.210   2.912  12.132  1.1120 -4.1423 -4.7089
  294TMC3    H2 4437   0.061   2.525  12.081 -0.7076 -1.3795  2.4284
  294TMC3    C7 4438   0.166   2.734  11.964  0.3037  0.0920 -0.1761
  294TMC3    C8 4439   4.703   2.501  12.348  0.4334 -1.2606 -0.1392
  294TMC3    O1 4440   0.133   2.839  11.915  0.7723 -0.1916  0.0690
  294TMC3    O2 4441   4.709   2.502  12.470 -0.2970  0.3068  0.1305
  295MPD2     C 4442   0.243   1.959  17.526  1.2365 -0.3965  0.0408
  295MPD2    C1 4443   0.304   2.016  17.633 -0.5542 -0.2471  0.4751
  295MPD2    C2 4444   0.234   2.113   0.003 -0.2651 -0.1008 -0.1876
  295MPD2    C3 4445   0.112   2.158  17.674  0.6462  1.0232 -0.0627
  295MPD2    C4 4446   0.046   2.094  17.566  0.3331  0.4784  0.6420
  295MPD2    C5 4447   0.114   1.995  17.490  0.2011  0.2613 -0.2946
  295MPD2     H 4448   0.282   2.158   0.089  1.6491 -3.8163  0.6796
  295MPD2    H1 4449   4.680   2.134  17.529  0.3067 -0.6065 -0.4579
  295MPD2    H2 4450   0.297   1.891  17.460 -0.1588 -2.5126  1.0923
  295MPD2    H3 4451   0.076   1.944  17.402  0.9206  0.8125 -0.9241
  295MPD2     N 4452   0.031   2.246   0.039 -0.5398 -0.0637  0.0024
  295MPD2    H5 4453   4.668   2.272   0.003 -0.1434 -0.0402 -0.9814
  295MPD2    N1 4454   0.431   1.990  17.670  0.1643 -0.1704 -0.0630
  295MPD2    H7 4455   0.465   2.062   0.022 -0.3099  0.0586 -0.0623
  296TMC3    C1 4456   4.704   2.397   0.202  0.1916  1.1550  0.0301
  296TMC3    C2 4457   0.013   2.507   0.276 -0.1871 -0.1802  0.1138
  296TMC3    C3 4458   4.657   2.563   0.362  0.4320 -0.4371 -0.5401
  296TMC3    C4 4459   4.583   2.330   0.219 -0.2503  0.0128 -0.3776
  296TMC3    C5 4460   4.490   2.395   0.294  0.2804 -0.4994 -0.3316
  296TMC3    C6 4461   4.531   2.506   0.371 -0.8288 -0.6607  0.1736
  296TMC3     C 4462   0.079   2.328   0.137  0.0740  0.3608  0.0325
  296TMC3     O 4463   0.190   2.355   0.166  0.3860 -0.0221  0.5267
  296TMC3     H 4464   0.114   2.543   0.262 -0.6027 -0.0563 -2.7484
  296TMC3    H1 4465   4.558   2.230   0.184  0.7187 -0.7969  1.2294
  296TMC3    H2 4466   4.470   2.535   0.456 -1.8618 -0.4261 -0.6560
  296TMC3    C7 4467   4.372   2.318   0.342 -0.4641  0.1742 -0.1836
  296TMC3    C8 4468   4.722   2.624   0.475  0.3704  0.0805  0.0216
  296TMC3    O1 4469   4.299   2.262   0.260 -0.4269 -0.6051  0.3476
  296TMC3    O2 4470   0.114   2.606   0.489 -0.2444 -0.3765  0.3559
  297MPD2     C 4471   2.876   3.849  16.843  0.6038 -0.1447 -0.2543
  297MPD2    C1 4472   2.851   3.899  16.719  0.0687  0.7030  0.0221
  297MPD2    C2 4473   2.917   4.004  16.668 -0.1427  0.0865 -0.1017
  297MPD2    C3 4474   3.006   4.074  16.751  0.6348  0.2953  0.1068
  297MPD2    C4 4475   3.032   4.024  16.879  0.0477  0.1726 -0.9424
  297MPD2    C5 4476   2.964   3.915  16.925 -0.9433  0.2714  0.8519
  297MPD2     H 4477   2.903   4.020  16.562 -0.6166  2.2669  0.3095
  297MPD2    H1 4478   3.104   4.079  16.940 -1.0422  1.9541 -1.2517
  297MPD2    H2 4479   2.830   3.764  16.891 -1.6421  0.1325 -1.8889
  297MPD2    H3 4480   2.977   3.883  17.028 -0.7825 -0.4881  0.5999
  297MPD2     N 4481   3.065   4.184  16.687 -0.2326  0.1084  0.2897
  297MPD2    H5 4482   3.049   4.210  16.591  0.7596 -0.6530 -0.0866
  297MPD2    N1 4483   2.746   3.846  16.637 -0.8486  0.0587 -0.3433
  297MPD2    H7 4484   2.723   3.893  16.550  2.4494  0.1244 -1.2041
  298TMC3    C1 4485   2.555   3.739  16.579 -0.0313  0.4959  0.0835
  298TMC3    C2 4486   2.585   3.738  16.454 -0.5956 -0.4144 -0.2597
  298TMC3    C3 4487   2.491   3.770  16.363  0.3745 -0.4362  0.9692
  298TMC3    C4 4488   2.425   3.747  16.628 -0.5896 -0.6885  0.1947
  298TMC3    C5 4489   2.333   3.788  16.538 -0.3711  0.2474  0.4026
  298TMC3    C6 4490   2.358   3.796  16.399  0.3248 -0.4058  0.2954
  298TMC3     C 4491   2.661   3.750  16.677  0.2501 -0.1782 -0.3403
  298TMC3     O 4492   2.646   3.711  16.792  0.8119  0.3974  0.1537
  298TMC3     H 4493   2.688   3.720  16.426  0.4253  0.4250  3.0054
  298TMC3    H1 4494   2.405   3.752  16.734  1.6665 -0.1654  0.6099
  298TMC3    H2 4495   2.269   3.807  16.338  1.7158  0.3965 -1.5976
  298TMC3    C7 4496   2.239   3.886  16.584 -0.0684  0.6778 -0.0198
  298TMC3    C8 4497   2.539   3.781  16.224 -0.0094  0.2863 -0.2189
  298TMC3    O1 4498   2.235   3.915  16.702  0.0664 -0.7461  0.1954
  298TMC3    O2 4499   2.664   3.776  16.216  0.5865 -0.8503 -0.2703
  299MPD2     C 4500   3.151   3.902  10.063 -0.0808  0.3079 -0.5454
  299MPD2    C1 4501   3.085   3.806  10.137 -0.6446  0.4759 -0.5304
  299MPD2    C2 4502   2.951   3.795  10.128  0.0225 -0.1286  0.1140
  299MPD2    C3 4503   2.873   3.881  10.048 -0.0169 -0.0599 -0.6300
  299MPD2    C4 4504   2.938   3.980   9.977  0.6014 -0.3115 -0.2170
  299MPD2    C5 4505   3.076   3.989   9.987  0.1870 -0.6824 -0.0888
  299MPD2     H 4506   2.903   3.714  10.182 -0.7070  0.9323  1.0337
  299MPD2    H1 4507   2.884   4.057   9.923  1.0699 -0.0308 -0.2791
  299MPD2    H2 4508   3.258   3.918  10.070  0.1154 -0.7289 -1.1827
  299MPD2    H3 4509   3.121   4.067   9.927 -0.8977  0.0673  0.0607
  299MPD2     N 4510   2.733   3.871  10.041  0.3122 -0.0446  0.7782
  299MPD2    H5 4511   2.681   3.947   9.997  1.2259 -0.5392 -1.1473
  299MPD2    N1 4512   3.171   3.737  10.223  0.2994 -0.3220  0.0454
  299MPD2    H7 4513   3.268   3.765  10.219  0.4442 -0.8434 -0.0593
  300TMC3    C1 4514   2.516   3.819  10.124 -0.1605  0.0183 -0.3567
  300TMC3    C2 4515   2.510   3.937  10.187 -0.1960 -0.2126 -0.2103
  300TMC3    C3 4516   2.401   3.961  10.267  0.7020 -0.3647 -0.6352
  300TMC3    C4 4517   2.425   3.718  10.152  0.2045 -0.1877  0.1033
  300TMC3    C5 4518   2.338   3.738  10.251  0.8629  0.3494  0.1212
  300TMC3    C6 4519   2.335   3.859  10.317 -0.5164  0.0810 -0.1236
  300TMC3     C 4520   2.651   3.778  10.103 -0.0961 -0.7140 -0.2500
  300TMC3     O 4521   2.686   3.678  10.163  0.0329 -0.0757  0.1312
  300TMC3     H 4522   2.576   4.020  10.165 -0.3902  0.3887  1.4946
  300TMC3    H1 4523   2.458   3.617  10.128 -0.3515 -0.3923  0.1935
  300TMC3    H2 4524   2.252   3.881  10.384 -0.9143 -0.6426 -0.3798
  300TMC3    C7 4525   2.290   3.616  10.320  0.5572 -0.6718 -0.4815
  300TMC3    C8 4526   2.440   4.064  10.360  0.3149  0.2356  0.5788
  300TMC3    O1 4527   2.306   3.510  10.259 -0.3289 -0.2492  0.1037
  300TMC3    O2 4528   2.556   4.057  10.391 -0.0326  0.2201  0.6853
  301MPD2     C 4529   0.149   0.253   1.774 -0.1802  0.9035 -0.0167
  301MPD2    C1 4530   0.119   0.286   1.641  0.2715  0.6370 -0.6944
  301MPD2    C2 4531   0.220   0.273   1.541  0.5206 -0.4276  0.0851
  301MPD2    C3 4532   0.343   0.219   1.581  0.6683 -0.3629 -0.2984
  301MPD2    C4 4533   0.370   0.206   1.715  0.0231 -0.0962 -1.0681
  301MPD2    C5 4534   0.275   0.236   1.806 -0.3032 -0.4443 -0.0806
  301MPD2     H 4535   0.196   0.290   1.437 -0.3614  0.5350  0.4519
  301MPD2    H1 4536   0.472   0.180   1.741 -0.6123 -1.2093  0.3105
  301MPD2    H2 4537   0.077   0.253   1.855 -0.4117 -1.1254 -0.2346
  301MPD2    H3 4538   0.289   0.232   1.914  4.0417 -0.5854 -0.6545
  301MPD2     N 4539   0.447   0.187   1.487 -0.3217  0.5044 -0.3445
  301MPD2    H5 4540   0.531   0.140   1.520 -1.3258 -1.0092  0.0501
  301MPD2    N1 4541   4.713   0.315   1.608 -0.0673 -0.3041 -0.7930
  301MPD2    H7 4542   4.680   0.327   1.513  1.8206  0.6303 -1.3394
  302TMC3    C1 4543   0.554   0.145   1.275  0.7427 -0.3398  0.3075
  302TMC3    C2 4544   0.590   0.018   1.303 -0.5155  0.1444  0.3743
  302TMC3    C3 4545   0.667   4.681   1.212 -0.5886 -0.7034  0.0539
  302TMC3    C4 4546   0.595   0.209   1.163  0.4716  0.2459  0.3474
  302TMC3    C5 4547   0.667   0.139   1.074 -0.0468 -0.3033 -0.0222
  302TMC3    C6 4548   0.711   0.010   1.094 -0.0034  0.5043  0.1380
  302TMC3     C 4549   0.452   0.218   1.350 -0.5785 -0.0669  0.7330
  302TMC3     O 4550   0.376   0.299   1.297 -0.0066  0.3303 -0.4055
  302TMC3     H 4551   0.554   4.707   1.398 -0.0691  0.8385  0.8333
  302TMC3    H1 4552   0.583   0.316   1.152 -0.0317  0.1440 -0.0984
  302TMC3    H2 4553   0.774   4.684   1.024  0.5233  1.9413 -0.4980
  302TMC3    C7 4554   0.641   0.174   0.935  0.8261 -0.0878 -0.3938
  302TMC3    C8 4555   0.720   4.554   1.245  0.0346  0.1807 -0.1735
  302TMC3    O1 4556   0.721   0.128   0.855  0.0768 -0.3036  0.2426
  302TMC3    O2 4557   0.791   4.507   1.160 -0.1176 -0.5158 -0.3555
  303MPD2     C 4558   0.562   2.798  10.610 -0.5302  0.1168 -0.1727
  303MPD2    C1 4559   0.465   2.711  10.643  0.9038  0.0309 -0.2130
  303MPD2    C2 4560   0.352   2.709  10.562 -0.1076  0.2966 -0.8193
  303MPD2    C3 4561   0.348   2.785  10.442 -0.2329  0.0499 -0.1820
  303MPD2    C4 4562   0.456   2.868  10.411 -0.4784 -0.2221  0.4603
  303MPD2    C5 4563   0.560   2.873  10.496  0.1065  0.3783  0.0375
  303MPD2     H 4564   0.282   2.625  10.566 -0.4680  0.6158 -0.5059
  303MPD2    H1 4565   0.468   2.911  10.312 -0.6056  1.6020  1.2380
  303MPD2    H2 4566   0.648   2.822  10.671  1.1555 -2.7347 -1.4235
  303MPD2    H3 4567   0.646   2.931  10.466 -0.0610  0.7404  0.2631
  303MPD2     N 4568   0.251   2.774  10.334  0.6874  0.0402  0.6762
  303MPD2    H5 4569   0.271   2.820  10.245  2.5215 -1.2458  0.4207
  303MPD2    N1 4570   0.479   2.624  10.757 -0.1038 -0.7704 -0.5188
  303MPD2    H7 4571   0.561   2.635  10.816 -0.4651  1.1506 -0.3723
  304TMC3    C1 4572   0.479   2.432  10.892  0.3085 -0.3340 -0.6230
  304TMC3    C2 4573   0.456   2.485  11.016  0.0699  0.3302  0.0200
  304TMC3    C3 4574   0.427   2.403  11.121  0.0725 -0.6553  0.9251
  304TMC3    C4 4575   0.481   2.300  10.871  0.2211  0.4754  0.0569
  304TMC3    C5 4576   0.464   2.222  10.983 -1.1037  0.1679 -0.1799
  304TMC3    C6 4577   0.437   2.270  11.105 -0.5402  0.2120  0.5762
  304TMC3     C 4578   0.410   2.510  10.787 -0.2742 -0.2103  0.1094
  304TMC3     O 4579   0.319   2.459  10.725  0.1521 -0.0787 -0.6700
  304TMC3     H 4580   0.439   2.590  11.033  1.3968  0.6476 -0.6266
  304TMC3    H1 4581   0.473   2.251  10.775  2.0440 -0.9627  0.6222
  304TMC3    H2 4582   0.420   2.205  11.190 -2.0943 -1.1645 -0.7953
  304TMC3    C7 4583   0.415   2.088  10.956 -0.3734  0.3690 -0.5977
  304TMC3    C8 4584   0.302   2.430  11.190  0.0263 -0.4365 -0.4574
  304TMC3    O1 4585   0.467   2.006  10.884  0.2212  0.0693 -0.0014
  304TMC3    O2 4586   0.251   2.334  11.248 -0.0221  0.2745  0.3399
  305MPD2     C 4587   3.594   0.275  13.817  0.1241 -0.0017 -0.0837
  305MPD2    C1 4588   3.610   0.161  13.888 -0.2596  0.1087 -0.5811
  305MPD2    C2 4589   3.619   0.042  13.823 -0.0708  0.5076 -0.2693
  305MPD2    C3 4590   3.593   0.033  13.687 -0.0271  0.6632  0.4379
  305MPD2    C4 4591   3.570   0.150  13.614 -0.0059 -0.1445 -0.1208
  305MPD2    C5 4592   3.576   0.272  13.685  0.6858  0.0962 -0.0888
  305MPD2     H 4593   3.638   4.677  13.875 -0.3185 -0.7635 -2.4644
  305MPD2    H1 4594   3.546   0.171  13.510  1.1523 -1.9276 -0.7530
  305MPD2    H2 4595   3.598   0.369  13.870  0.6632  1.3714 -2.5523
  305MPD2    H3 4596   3.555   0.364  13.632  2.6062 -0.2243 -1.3963
  305MPD2     N 4597   3.600   4.642  13.604 -0.5837  0.4476 -0.5956
  305MPD2    H5 4598   3.597   4.666  13.505  2.9616 -0.8529 -0.9871
  305MPD2    N1 4599   3.637   0.177  14.026  0.2898 -0.2009  0.3928
  305MPD2    H7 4600   3.648   0.270  14.066  1.8311 -0.2063 -0.0099
  306TMC3    C1 4601   3.645   0.123  14.254  0.0552 -0.3353  0.1668
  306TMC3    C2 4602   3.672   0.026  14.347  0.7414  0.1160 -0.4224
  306TMC3    C3 4603   3.696   0.065  14.478 -0.0913  0.2838 -0.1049
  306TMC3    C4 4604   3.636   0.251  14.296  0.1880  0.4510  0.4720
  306TMC3    C5 4605   3.659   0.280  14.427  0.2199  0.4564  0.7153
  306TMC3    C6 4606   3.694   0.191  14.520  0.2164  0.4831  0.1683
  306TMC3     C 4607   3.625   0.081  14.118  0.7748 -0.6062 -0.2293
  306TMC3     O 4608   3.592   4.693  14.114 -0.5436  0.2344  0.1441
  306TMC3     H 4609   3.692   4.651  14.317 -0.2858 -0.3862  0.6111
  306TMC3    H1 4610   3.613   0.333  14.229  0.1971  1.3194  1.5231
  306TMC3    H2 4611   3.716   0.223  14.621  0.5184  0.1957  0.1936
  306TMC3    C7 4612   3.632   0.421  14.463 -0.2618 -0.5015  0.2856
  306TMC3    C8 4613   3.754   4.687  14.562  0.1956 -0.3409 -0.0253
  306TMC3    O1 4614   3.546   0.492  14.407 -0.0185 -0.3384  0.5095
  306TMC3    O2 4615   3.800   4.585  14.512 -0.0740  0.6663 -0.2202
  307MPD2     C 4616   1.403   2.885   0.370 -0.7842  0.4607  0.1511
  307MPD2    C1 4617   1.356   3.014   0.393  0.6620  0.3259 -0.0915
  307MPD2    C2 4618   1.258   3.034   0.486  0.8021  0.1309 -0.1612
  307MPD2    C3 4619   1.200   2.927   0.558  0.0371 -0.2508  0.1150
  307MPD2    C4 4620   1.252   2.799   0.534  0.4025 -0.0965 -0.8637
  307MPD2    C5 4621   1.343   2.785   0.431 -0.2219 -0.6828 -0.4125
  307MPD2     H 4622   1.238   3.138   0.510  0.9250 -0.1200  1.0103
  307MPD2    H1 4623   1.219   2.711   0.589 -0.0627  0.1416 -0.7652
  307MPD2    H2 4624   1.478   2.863   0.295 -2.3676  1.1793 -1.6718
  307MPD2    H3 4625   1.381   2.687   0.403  0.5829 -0.6710  0.6355
  307MPD2     N 4626   1.101   2.953   0.657 -0.3503  0.2769 -0.5071
  307MPD2    H5 4627   1.088   3.048   0.691 -1.1719 -0.6391  1.7434
  307MPD2    N1 4628   1.415   3.130   0.335  0.0528 -0.4944 -0.6557
  307MPD2    H7 4629   1.373   3.221   0.350 -2.1633 -2.0795  2.6717
  308TMC3    C1 4630   0.692   2.950   0.815 -0.2643 -0.6061  0.4413
  308TMC3    C2 4631   0.715   3.060   0.890 -0.2953 -0.0915 -0.8145
  308TMC3    C3 4632   0.842   3.097   0.911  0.1570  0.2008 -0.1208
  308TMC3    C4 4633   0.795   2.865   0.781 -0.3652  0.2488  0.0143
  308TMC3    C5 4634   0.924   2.915   0.794  0.1259  0.3223  0.4096
  308TMC3    C6 4635   0.950   3.036   0.855  0.0300  0.2168 -0.0978
  308TMC3     C 4636   0.560   2.914   0.758 -0.0770  0.1200  0.0311
  308TMC3     O 4637   0.539   2.797   0.737  0.6657 -0.2311  0.2118
  308TMC3     H 4638   0.635   3.129   0.913  0.0590  0.2869 -0.7148
  308TMC3    H1 4639   0.790   2.781   0.712  1.0005 -0.2851  0.5687
  308TMC3    H2 4640   1.050   3.064   0.886 -0.5938  0.4826  1.6884
  308TMC3    C7 4641   1.018   2.855   0.708 -0.2456  0.8827  0.6734
  308TMC3    C8 4642   0.870   3.230   0.965 -0.7067  0.1673  0.5054
  308TMC3    O1 4643   1.005   2.735   0.690  0.3716  1.1077  0.5009
  308TMC3    O2 4644   0.963   3.292   0.917 -0.5136 -0.4030  0.0163
  309MPD2     C 4645   0.592   3.313  17.184 -0.0813  0.1199 -0.6338
  309MPD2    C1 4646   0.601   3.441  17.134  0.7539  0.1255  0.1625
  309MPD2    C2 4647   0.499   3.532  17.165  0.3008 -0.2737 -0.0278
  309MPD2    C3 4648   0.389   3.496  17.240 -0.4403  0.6666  0.2983
  309MPD2    C4 4649   0.384   3.368  17.286  0.1994 -1.0511  0.0307
  309MPD2    C5 4650   0.481   3.281  17.253  0.0090  0.0031 -0.5719
  309MPD2     H 4651   0.510   3.631  17.122 -2.7213  0.0531 -0.0308
  309MPD2    H1 4652   0.294   3.344  17.343  0.4796 -0.5447  0.6861
  309MPD2    H2 4653   0.658   3.233  17.154  1.2768  0.6894  0.8531
  309MPD2    H3 4654   0.471   3.174  17.267  2.6349  0.0977  2.0083
  309MPD2     N 4655   0.275   3.579  17.269  0.1618  0.0352 -0.2979
  309MPD2    H5 4656   0.197   3.543  17.323 -1.8887  3.4481 -0.9851
  309MPD2    N1 4657   0.703   3.477  17.044  0.7750 -0.2087  0.4722
  309MPD2    H7 4658   0.698   3.571  17.006  0.3353 -0.1654  0.6386
  310TMC3    C1 4659   0.877   3.455  16.891  0.4063 -0.0895 -0.0405
  310TMC3    C2 4660   0.801   3.502  16.790  0.3438 -0.2125 -0.0788
  310TMC3    C3 4661   0.869   3.508  16.675  0.5134  0.1646 -0.1672
  310TMC3    C4 4662   1.014   3.432  16.886 -0.4875 -0.0745  0.1023
  310TMC3    C5 4663   1.082   3.450  16.771  0.1888  0.4014 -0.1262
  310TMC3    C6 4664   1.008   3.483  16.662 -0.1720  0.1485 -0.4723
  310TMC3     C 4665   0.809   3.401  17.007  0.2346  0.2952 -0.4979
  310TMC3     O 4666   0.851   3.299  17.063  0.2723 -0.2907 -0.3703
  310TMC3     H 4667   0.697   3.529  16.804  0.1588  0.2802 -2.4078
  310TMC3    H1 4668   1.058   3.391  16.976 -2.2840  1.4481  1.6928
  310TMC3    H2 4669   1.055   3.507  16.568  1.9957 -1.5517  0.1868
  310TMC3    C7 4670   1.228   3.431  16.768 -0.4378 -0.2705 -0.6677
  310TMC3    C8 4671   0.791   3.540  16.558  0.0513  0.8167  0.4768
  310TMC3    O1 4672   1.278   3.383  16.868 -0.0766  0.1990  0.4831
  310TMC3    O2 4673   0.672   3.526  16.566  0.6682 -0.1602 -0.5131
  311MPD2     C 4674   2.537   4.396  13.023 -0.4234  0.0749 -0.8124
  311MPD2    C1 4675   2.554   4.532  13.010 -0.0425  0.4248  0.1500
  311MPD2    C2 4676   2.450   4.620  13.046  0.6551 -0.1900 -0.2567
  311MPD2    C3 4677   2.328   4.581  13.096 -0.3865 -0.3209  0.5389
  311MPD2    C4 4678   2.313   4.446  13.104 -0.5141  0.5756 -0.3283
  311MPD2    C5 4679   2.415   4.362  13.059 -0.4119  0.0931  0.0522
  311MPD2     H 4680   2.480   4.724  13.053  1.2785 -0.2437 -2.1180
  311MPD2    H1 4681   2.226   4.398  13.148 -1.8237  1.4841 -1.9407
  311MPD2    H2 4682   2.601   4.315  12.993 -1.9907 -1.0235 -1.1563
  311MPD2    H3 4683   2.406   4.255  13.079 -0.3354 -0.5432 -3.3229
  311MPD2     N 4684   2.230   4.679  13.138 -0.1545 -0.1239 -0.3910
  311MPD2    H5 4685   2.251   0.050  13.137  0.3746 -0.2321 -0.1190
  311MPD2    N1 4686   2.677   4.592  12.976 -0.0236 -0.6145  0.0630
  311MPD2    H7 4687   2.685   4.690  13.001  1.1349 -1.0660  1.4771
  312TMC3    C1 4688   2.009   0.032  13.163 -1.0010 -0.3019  0.6373
  312TMC3    C2 4689   1.884   0.005  13.109  0.0394  0.0654  0.4519
  312TMC3    C3 4690   1.804   0.117  13.106 -0.4081 -0.2780 -0.3318
  312TMC3    C4 4691   2.052   0.150  13.213  0.4571 -0.4275 -0.1635
  312TMC3    C5 4692   1.964   0.256  13.218  0.6820  0.4661 -0.6240
  312TMC3    C6 4693   1.842   0.245  13.150  0.2055 -0.1938  0.1890
  312TMC3     C 4694   2.097   4.647  13.143 -0.1313 -0.1265  0.2087
  312TMC3     O 4695   2.048   4.533  13.148 -0.5718 -0.6288  0.5015
  312TMC3     H 4696   1.859   4.636  13.068 -0.9777  1.2173 -1.6460
  312TMC3    H1 4697   2.150   0.158  13.259  2.4700 -0.3685 -4.5072
  312TMC3    H2 4698   1.798   0.334  13.107  0.8808 -0.7369 -1.6456
  312TMC3    C7 4699   2.012   0.389  13.257 -0.3325 -0.2443 -0.3669
  312TMC3    C8 4700   1.665   0.103  13.067 -0.3091 -0.3946 -0.1925
  312TMC3    O1 4701   1.972   0.481  13.183  0.1301  0.0884 -0.2516
  312TMC3    O2 4702   1.629   0.012  12.995 -0.0623 -0.2757  0.0757
  313MPD2     C 4703   1.645   3.752  10.938 -0.3166 -0.3790 -0.2867
  313MPD2    C1 4704   1.728   3.830  10.857  0.4445 -0.0543  0.1391
  313MPD2    C2 4705   1.787   3.765  10.750 -0.0820 -0.0927  0.2446
  313MPD2    C3 4706   1.765   3.632  10.725  0.5099 -0.1398  0.1489
  313MPD2    C4 4707   1.676   3.556  10.799 -0.3872  0.7761 -0.4984
  313MPD2    C5 4708   1.617   3.622  10.906 -0.2903 -0.0641  0.0797
  313MPD2     H 4709   1.837   3.832  10.681  0.0442 -1.1641 -0.7029
  313MPD2    H1 4710   1.651   3.452  10.782  0.4269  0.2283  1.7435
  313MPD2    H2 4711   1.582   3.789  11.018  0.6153  0.7011 -0.0469
  313MPD2    H3 4712   1.544   3.569  10.966 -1.6531  1.6067 -0.0807
  313MPD2     N 4713   1.837   3.579  10.616 -0.2389 -0.5498  0.7540
  313MPD2    H5 4714   1.884   3.645  10.556 -0.5967 -0.6115  0.4060
  313MPD2    N1 4715   1.735   3.972  10.873  0.2593  0.7228 -0.6519
  313MPD2    H7 4716   1.767   4.025  10.793  1.3920 -1.1237 -1.4328
  314TMC3    C1 4717   1.728   4.183  10.956  0.3717  0.0570  0.0879
  314TMC3    C2 4718   1.792   4.261  11.052 -0.4424  0.3656 -0.4393
  314TMC3    C3 4719   1.801   4.391  11.021 -0.1987  0.0732 -0.0713
  314TMC3    C4 4720   1.665   4.227  10.849 -0.1265 -1.0969 -0.3102
  314TMC3    C5 4721   1.663   4.361  10.829  0.7633 -0.2465 -0.2405
  314TMC3    C6 4722   1.738   4.441  10.916 -0.6298 -0.4259  0.4986
  314TMC3     C 4723   1.710   4.042  10.986  0.2109 -0.1728 -0.7722
  314TMC3     O 4724   1.680   4.007  11.100  0.7952  0.0312 -0.8077
  314TMC3     H 4725   1.825   4.207  11.140  0.5966  2.1649  0.2796
  314TMC3    H1 4726   1.610   4.161  10.783 -0.0154 -1.0998 -0.4007
  314TMC3    H2 4727   1.761   4.544  10.890  0.1154 -0.1818  2.1815
  314TMC3    C7 4728   1.634   4.411  10.699  0.8585 -0.6943  0.0099
  314TMC3    C8 4729   1.917   4.462  11.070 -0.6199  0.8722 -0.4714
  314TMC3    O1 4730   1.602   4.531  10.696  0.4620  0.3722  0.2119
  314TMC3    O2 4731   1.974   4.534  10.990 -0.7565  0.0353 -0.1502
  315MPD2     C 4732   1.689   3.853   0.358 -0.1615 -0.2777  0.0795
  315MPD2    C1 4733   1.769   3.896   0.469 -0.1925  0.1226  0.1654
  315MPD2    C2 4734   1.840   4.016   0.471 -0.1896  0.3187  0.4191
  315MPD2    C3 4735   1.852   4.090   0.356 -0.9932 -0.3520  0.3185
  315MPD2    C4 4736   1.779   4.044   0.242  0.5958 -0.2395  0.1365
  315MPD2    C5 4737   1.704   3.932   0.239 -0.1496  0.7443 -0.3591
  315MPD2     H 4738   1.900   4.038   0.558  0.6139  0.7661 -0.2477
  315MPD2    H1 4739   1.786   4.092   0.144  2.6169 -0.4900  0.1452
  315MPD2    H2 4740   1.627   3.764   0.351 -1.1297  0.5909 -2.5105
  315MPD2    H3 4741   1.656   3.896   0.149 -0.3290 -2.3821  0.9612
  315MPD2     N 4742   1.939   4.196   0.358  0.2361 -0.2061 -0.0407
  315MPD2    H5 4743   1.985   4.205   0.448 -0.4588  1.8104  0.1039
  315MPD2    N1 4744   1.775   3.825   0.591 -0.6871 -0.0194 -0.0148
  315MPD2    H7 4745   1.840   3.858   0.662 -0.6902  1.8573 -0.8880
  316TMC3    C1 4746   2.074   4.367   0.265  0.8039  0.6717  0.2563
  316TMC3    C2 4747   2.115   4.405   0.389 -0.4129  0.0293  0.1546
  316TMC3    C3 4748   2.214   4.498   0.402  0.4343 -0.4838  0.1245
  316TMC3    C4 4749   2.123   4.422   0.150  0.1671 -0.2556 -0.0072
  316TMC3    C5 4750   2.220   4.516   0.156 -0.0641  0.4334 -0.3230
  316TMC3    C6 4751   2.270   4.551   0.285  0.4152  0.2859 -1.2547
  316TMC3     C 4752   1.970   4.270   0.244  0.1890  0.0173 -0.0861
  316TMC3     O 4753   1.920   4.269   0.132  0.3101 -0.5947  0.7477
  316TMC3     H 4754   2.068   4.367   0.479 -0.3862 -1.4907 -0.4798
  316TMC3    H1 4755   2.075   4.392   0.058 -0.1809 -1.7387  0.6693
  316TMC3    H2 4756   2.345   4.628   0.295  0.9591 -0.5270  0.8880
  316TMC3    C7 4757   2.244   4.608   0.040  0.5246  0.5092  0.0805
  316TMC3    C8 4758   2.300   4.498   0.520 -0.0333  0.2856  0.2597
  316TMC3    O1 4759   2.298   4.709   0.089  0.2180  0.1119  0.4163
  316TMC3    O2 4760   2.253   4.525   0.629  0.8196 -0.3078  0.2361
  317MPD2     C 4761   3.589   1.884  12.879 -0.6316 -0.0581 -0.0102
  317MPD2    C1 4762   3.611   1.749  12.859 -0.5471 -0.6777  0.0158
  317MPD2    C2 4763   3.688   1.684  12.951  0.1581  0.7008  0.1249
  317MPD2    C3 4764   3.748   1.747  13.057 -0.3869 -0.0864  0.2655
  317MPD2    C4 4765   3.734   1.880  13.073 -1.0062 -0.0715 -0.2486
  317MPD2    C5 4766   3.650   1.949  12.992  0.3820  0.4480 -0.4246
  317MPD2     H 4767   3.700   1.577  12.938  1.2968  0.6694  1.4500
  317MPD2    H1 4768   3.770   1.930  13.163  2.3686 -0.2393 -1.5088
  317MPD2    H2 4769   3.508   1.936  12.831  0.1553 -0.7842 -2.1595
  317MPD2    H3 4770   3.625   2.052  13.016 -0.9040  0.2780 -1.0379
  317MPD2     N 4771   3.821   1.666  13.146  0.2480 -0.0879 -0.0318
  317MPD2    H5 4772   3.820   1.565  13.137 -1.1140 -0.0593 -0.2156
  317MPD2    N1 4773   3.542   1.680  12.754  0.4439 -0.1473 -0.1633
  317MPD2    H7 4774   3.558   1.580  12.744 -0.0068 -0.6230  3.7956
  318TMC3    C1 4775   3.947   1.605  13.348  0.0198  0.8095 -0.1539
  318TMC3    C2 4776   3.871   1.492  13.369  0.2787 -0.0315  0.3926
  318TMC3    C3 4777   3.937   1.382  13.424 -0.0863  0.2477  0.0124
  318TMC3    C4 4778   4.080   1.599  13.381 -0.2822  0.3945  0.0288
  318TMC3    C5 4779   4.140   1.489  13.430 -0.8273  0.1607  0.0925
  318TMC3    C6 4780   4.065   1.384  13.461  0.0546 -0.4341  0.2522
  318TMC3     C 4781   3.903   1.715  13.253 -0.0949 -0.0862 -0.0093
  318TMC3     O 4782   3.949   1.825  13.268 -0.0307 -0.9770 -0.5090
  318TMC3     H 4783   3.765   1.493  13.346  0.2337  0.9330  0.6646
  318TMC3    H1 4784   4.130   1.690  13.349  1.1653  0.2821  1.9823
  318TMC3    H2 4785   4.112   1.306  13.519 -1.4659 -1.3876  0.1827
  318TMC3    C7 4786   4.286   1.494  13.428 -0.4466 -0.0309  0.1230
  318TMC3    C8 4787   3.877   1.254  13.442  0.3298 -0.3645 -0.6980
  318TMC3    O1 4788   4.344   1.604  13.440  0.5008  0.1529  0.1613
  318TMC3    O2 4789   3.942   1.164  13.495 -0.1056  0.2656  0.1871
  319MPD2     C 4790   0.195   3.295  16.889  0.3723 -0.2251  0.0628
  319MPD2    C1 4791   0.076   3.228  16.899 -1.0952 -0.1754  0.0761
  319MPD2    C2 4792   0.032   3.173  16.785 -0.6581  0.2808  0.0871
  319MPD2    C3 4793   0.093   3.173  16.659  0.0870 -0.3767  0.5154
  319MPD2    C4 4794   0.211   3.237  16.654 -0.1318 -0.5407 -0.2657
  319MPD2    C5 4795   0.266   3.287  16.771 -0.9572 -0.7639  0.2152
  319MPD2     H 4796   4.668   3.119  16.804 -0.2920 -0.4928 -0.3487
  319MPD2    H1 4797   0.265   3.243  16.560 -0.0073 -0.7832 -0.2105
  319MPD2    H2 4798   0.237   3.352  16.971  2.1129 -1.6227  0.1488
  319MPD2    H3 4799   0.367   3.327  16.768 -1.5271  0.7247  0.8500
  319MPD2     N 4800   0.038   3.119  16.539 -1.1474  0.6383 -0.4595
  319MPD2    H5 4801   0.091   3.136  16.454 -0.0147 -1.9380 -0.2739
  319MPD2    N1 4802   4.722   3.227  17.013  0.0638 -0.4524 -0.5289
  319MPD2    H7 4803   4.639   3.170  17.009 -0.8347  0.9041 -1.1219
  320TMC3    C1 4804   4.609   2.999  16.409  0.3122 -0.3439  0.4700
  320TMC3    C2 4805   4.562   3.100  16.331  0.8342 -0.1352  0.2871
  320TMC3    C3 4806   4.458   3.081  16.247 -0.6055 -0.2262  0.0026
  320TMC3    C4 4807   4.551   2.875  16.395  0.1952 -0.0512  0.6338
  320TMC3    C5 4808   4.455   2.854  16.305  0.0871  0.3686  0.2419
  320TMC3    C6 4809   4.410   2.957  16.228 -0.4314  0.1707  0.1116
  320TMC3     C 4810   4.649   3.039  16.536 -0.5073 -0.0730  0.5621
  320TMC3     O 4811   4.582   3.003  16.630  0.4258  0.6141  0.3956
  320TMC3     H 4812   4.587   3.203  16.354 -1.2800  0.3971  0.1675
  320TMC3    H1 4813   4.587   2.786  16.446  0.2124  0.3146  1.2632
  320TMC3    H2 4814   4.332   2.939  16.155 -2.0576 -0.2025  1.9264
  320TMC3    C7 4815   4.468   2.733  16.240 -0.0112  0.4698  0.0630
  320TMC3    C8 4816   4.377   3.199  16.220 -0.0077 -0.2173 -0.1401
  320TMC3    O1 4817   4.368   2.671  16.199  0.0077  0.1178 -0.1798
  320TMC3    O2 4818   4.409   3.311  16.255 -0.4877 -0.1818 -0.2883
  321TMC3    C1 4819   4.622   3.289  17.215  0.3985  0.0533  0.1548
  321TMC3    C2 4820   4.631   3.158  17.261 -0.0740 -0.1180  0.5046
  321TMC3    C3 4821   4.620   3.125  17.396  0.5593 -0.5876 -0.5307
  321TMC3    C4 4822   4.621   3.391  17.308 -0.4838 -0.1798 -0.3065
  321TMC3    C5 4823   4.622   3.358  17.443 -0.6239 -0.8868 -0.4487
  321TMC3    C6 4824   4.612   3.227  17.490  0.6360 -0.2992  0.2161
  321TMC3     C 4825   4.720   3.320  17.114  0.0053  0.1049 -0.5737
  321TMC3     O 4826   0.055   3.425  17.126 -0.7680 -0.3684 -0.3206
  321TMC3     H 4827   4.655   3.082  17.188  1.4153  0.4208  0.4469
  321TMC3    H1 4828   4.618   3.492  17.271 -1.8656 -0.6519 -1.4688
  321TMC3    H2 4829   4.601   3.209  17.596 -1.7198  2.2103  0.4092
  321TMC3    C7 4830   4.721   3.435  17.519 -0.0331 -0.6785  0.6454
  321TMC3    C8 4831   0.005   3.043  17.436  0.1329  0.0902 -0.1478
  321TMC3    O1 4832   4.698   3.554  17.528 -0.2302  0.7894  0.6405
  321TMC3    O2 4833   0.077   3.092  17.520  0.2354  0.0821 -0.9058
  322MPD2     C 4834   3.303   3.996  13.673 -0.1733  0.0258 -0.0227
  322MPD2    C1 4835   3.358   3.982  13.798  0.2264  0.8636 -0.6335
  322MPD2    C2 4836   3.423   3.867  13.826  0.2018 -0.4627 -0.0965
  322MPD2    C3 4837   3.426   3.756  13.743 -0.0544 -0.0541  0.0981
  322MPD2    C4 4838   3.362   3.774  13.620  0.0702  0.4580 -0.3580
  322MPD2    C5 4839   3.298   3.889  13.587 -0.1463 -0.0079 -0.3895
  322MPD2     H 4840   3.475   3.847  13.919  0.0192 -2.6442 -0.4413
  322MPD2    H1 4841   3.357   3.701  13.540 -0.9942  0.9608 -0.7439
  322MPD2    H2 4842   3.248   4.086  13.650  0.1359  0.3332  0.4259
  322MPD2    H3 4843   3.256   3.900  13.488  0.7153 -0.5559 -0.8126
  322MPD2     N 4844   3.499   3.643  13.775 -0.2358 -0.3009 -0.5283
  322MPD2    H5 4845   3.553   3.645  13.861  0.5793 -0.1149 -1.0526
  322MPD2    N1 4846   3.364   4.088  13.888 -0.4633 -0.0495 -0.1001
  322MPD2    H7 4847   3.350   4.179  13.844 -3.0062 -1.0544 -1.3682
  323TMC3    C1 4848   3.424   4.228  14.067 -0.3176 -0.2529 -0.4485
  323TMC3    C2 4849   3.538   4.298  14.024  0.3136 -0.0863  0.2464
  323TMC3    C3 4850   3.606   4.376  14.112 -0.0260 -0.0507  0.9267
  323TMC3    C4 4851   3.381   4.243  14.197  0.3040 -0.7567 -0.2186
  323TMC3    C5 4852   3.459   4.315  14.288 -0.0521 -0.4219 -0.5234
  323TMC3    C6 4853   3.564   4.392  14.241  0.4644  0.0084 -0.5358
  323TMC3     C 4854   3.401   4.092  14.017 -0.4805 -0.0325 -0.5817
  323TMC3     O 4855   3.382   3.996  14.095 -0.0180  0.2397 -0.2990
  323TMC3     H 4856   3.592   4.268  13.935  2.5575 -0.0992  1.6268
  323TMC3    H1 4857   3.304   4.180  14.241  0.1593  1.2539  2.3569
  323TMC3    H2 4858   3.624   4.453  14.308 -0.2830 -1.0634  1.0991
  323TMC3    C7 4859   3.466   4.245  14.414  0.0497  0.0521  0.0414
  323TMC3    C8 4860   3.753   4.404  14.088 -0.0198  0.5684 -0.8590
  323TMC3    O1 4861   3.458   4.123  14.409  0.3850  0.6341  0.2337
  323TMC3    O2 4862   3.825   4.417  14.188 -0.1237  0.9245  0.3091
  324MPD2     C 4863   0.219   0.398  13.976 -0.1823  0.3113  0.3036
  324MPD2    C1 4864   0.174   0.454  14.087 -0.4203 -0.3804  0.2820
  324MPD2    C2 4865   0.053   0.515  14.084  0.0515 -0.1226 -0.4932
  324MPD2    C3 4866   4.699   0.523  13.975 -0.5779  0.4626  0.5997
  324MPD2    C4 4867   0.025   0.467  13.862 -0.1544  0.1786  0.0852
  324MPD2    C5 4868   0.137   0.399  13.867  0.1697  0.0318  0.3056
  324MPD2     H 4869   0.010   0.557  14.174  0.8286  1.3689 -0.8133
  324MPD2    H1 4870   4.692   0.470  13.772  1.8510 -1.2966 -1.3245
  324MPD2    H2 4871   0.319   0.355  13.970 -0.7675 -1.0685  0.4486
  324MPD2    H3 4872   0.170   0.369  13.769 -4.6401 -0.4122 -1.1830
  324MPD2     N 4873   4.572   0.579  13.979 -0.3804  0.1105  0.0469
  324MPD2    H5 4874   4.512   0.578  13.896  0.5138 -2.4873 -0.5798
  324MPD2    N1 4875   0.247   0.469  14.211  0.2890 -0.2411 -0.2270
  324MPD2    H7 4876   0.217   0.542  14.275  0.6402 -1.6013  1.5255
  325TMC3    C1 4877   4.395   0.712  14.032  0.2139 -0.1156 -0.6247
  325TMC3    C2 4878   4.322   0.620  13.965  0.4097  0.1691  0.1655
  325TMC3    C3 4879   4.236   0.665  13.867 -0.9103 -0.0753  0.0849
  325TMC3    C4 4880   4.393   0.849  14.003  0.3338  0.0025  0.4864
  325TMC3    C5 4881   4.303   0.886  13.906  0.7761 -0.0468 -0.0544
  325TMC3    C6 4882   4.223   0.796  13.837  0.3282 -0.1588 -0.8096
  325TMC3     C 4883   4.525   0.662  14.079 -1.2708  0.5965 -0.8529
  325TMC3     O 4884   4.578   0.730  14.164  0.1418 -0.0084  0.0670
  325TMC3     H 4885   4.324   0.516  13.994  1.4884  0.3404  0.6945
  325TMC3    H1 4886   4.468   0.913  14.048 -0.4432  0.9386  0.4548
  325TMC3    H2 4887   4.168   0.833  13.751  1.1288 -0.0908 -1.2867
  325TMC3    C7 4888   4.315   1.019  13.849  0.4731  0.1899 -0.5754
  325TMC3    C8 4889   4.178   0.570  13.774  0.4506  0.2630  0.7731
  325TMC3    O1 4890   4.299   1.033  13.731  0.9627  0.0544 -0.3088
  325TMC3    O2 4891   4.159   0.614  13.659 -0.2011  0.0185  0.1230
  326MPD2     C 4892   1.624   1.436  11.238 -0.2162 -0.1371 -0.3296
  326MPD2    C1 4893   1.649   1.510  11.131 -0.5387 -0.2804 -0.2959
  326MPD2    C2 4894   1.737   1.615  11.136  0.0770 -0.0776 -0.2046
  326MPD2    C3 4895   1.801   1.637  11.256  0.1446  0.1720  0.7554
  326MPD2    C4 4896   1.780   1.563  11.372  0.2513  0.4494  0.1049
  326MPD2    C5 4897   1.691   1.463  11.353 -0.5646 -0.2079 -0.2321
  326MPD2     H 4898   1.770   1.656  11.041 -0.4733 -0.6997 -0.6616
  326MPD2    H1 4899   1.829   1.579  11.468 -2.0508  1.6452  1.0632
  326MPD2    H2 4900   1.557   1.351  11.232 -0.1420 -0.0591 -2.5453
  326MPD2    H3 4901   1.663   1.400  11.437  0.2668 -1.8846 -1.2224
  326MPD2     N 4902   1.913   1.722  11.256 -0.0306 -0.0152  0.3004
  326MPD2    H5 4903   1.969   1.724  11.341  4.1125  0.0183 -2.4373
  326MPD2    N1 4904   1.607   1.465  10.998  0.5238 -0.2568 -0.1494
  326MPD2    H7 4905   1.616   1.531  10.921 -0.8197  1.4430  1.1501
  327TMC3    C1 4906   1.552   1.337  10.812 -0.2255  0.2806  0.2876
  327TMC3    C2 4907   1.436   1.361  10.744  0.0174  0.6238  0.1242
  327TMC3    C3 4908   1.444   1.425  10.625  0.6434 -0.0596 -0.8299
  327TMC3    C4 4909   1.671   1.382  10.765  0.0343 -0.3399  0.9860
  327TMC3    C5 4910   1.677   1.431  10.643 -0.7378 -0.2929 -0.1443
  327TMC3    C6 4911   1.566   1.456  10.571 -0.5965 -0.5167 -0.8843
  327TMC3     C 4912   1.546   1.346  10.953 -0.4753 -0.6224 -0.3026
  327TMC3     O 4913   1.485   1.268  11.020  0.0991  0.7772  0.0889
  327TMC3     H 4914   1.345   1.319  10.784 -2.0048  2.2608 -2.8193
  327TMC3    H1 4915   1.761   1.359  10.821  0.4061 -0.4320  0.3564
  327TMC3    H2 4916   1.565   1.503  10.473  1.3233  0.9573 -0.1909
  327TMC3    C7 4917   1.797   1.492  10.600 -0.0819 -0.3674  0.2939
  327TMC3    C8 4918   1.327   1.482  10.555 -0.9856  0.0634 -0.7082
  327TMC3    O1 4919   1.796   1.524  10.481 -0.1989 -0.6287  0.1312
  327TMC3    O2 4920   1.348   1.560  10.459 -0.7454  0.4270 -0.2591
  328MPD2     C 4921   4.368   1.451  17.218 -0.5295 -0.3186 -0.0375
  328MPD2    C1 4922   4.291   1.438  17.097  1.1427 -0.3612 -0.3905
  328MPD2    C2 4923   4.249   1.549  17.031  0.1566  0.7769 -0.2382
  328MPD2    C3 4924   4.289   1.681  17.069  0.1631 -0.4393 -0.4811
  328MPD2    C4 4925   4.372   1.686  17.182 -0.0604 -0.0847 -0.0006
  328MPD2    C5 4926   4.412   1.575  17.256  0.6160 -1.1716  0.4028
  328MPD2     H 4927   4.191   1.540  16.940 -0.3694  0.0927  0.1637
  328MPD2    H1 4928   4.402   1.780  17.226 -3.3920  0.7308  0.5146
  328MPD2    H2 4929   4.398   1.364  17.274 -2.6452 -1.1894 -0.2582
  328MPD2    H3 4930   4.460   1.584  17.352  0.4770 -0.7657  0.4362
  328MPD2     N 4931   4.236   1.801  17.018 -0.0842  0.2987 -0.3724
  328MPD2    H5 4932   4.263   1.882  17.072 -0.5552  0.5336 -0.4921
  328MPD2    N1 4933   4.250   1.312  17.066 -0.2282 -0.4258  0.3853
  328MPD2    H7 4934   4.260   1.236  17.132  1.4067 -1.8255 -1.5101
  329TMC3    C1 4935   4.199   1.124  16.930 -0.4407  0.8224 -0.2960
  329TMC3    C2 4936   4.130   1.065  17.033  0.1439  0.0010  0.0325
  329TMC3    C3 4937   4.088   0.932  17.015  0.3677  0.0961 -0.2542
  329TMC3    C4 4938   4.193   1.070  16.807  0.6214 -0.4216  0.2620
  329TMC3    C5 4939   4.133   0.951  16.794  0.3676  0.5768 -0.4443
  329TMC3    C6 4940   4.096   0.870  16.893  0.0991 -0.1211 -1.2192
  329TMC3     C 4941   4.218   1.269  16.936  1.2081  0.6398 -0.5522
  329TMC3     O 4942   4.240   1.331  16.830  0.2219 -0.3120 -0.3418
  329TMC3     H 4943   4.107   1.119  17.124  0.2738  0.1630 -0.0291
  329TMC3    H1 4944   4.222   1.129  16.720  2.1255 -0.6070  0.6250
  329TMC3    H2 4945   4.054   0.770  16.882  0.9212 -0.5959 -0.0465
  329TMC3    C7 4946   4.112   0.900  16.658 -0.1620 -0.4759  0.0790
  329TMC3    C8 4947   4.033   0.849  17.124 -0.9213 -0.5468  0.7820
  329TMC3    O1 4948   4.086   0.993  16.587  0.4081 -0.5342 -0.1361
  329TMC3    O2 4949   3.959   0.760  17.095 -0.1029  0.1765 -0.0205
  330TMC3    C1 4950   2.079   0.760   9.968  0.3090 -0.0992 -1.0249
  330TMC3    C2 4951   1.952   0.723   9.995  0.1847 -0.4386  0.2343
  330TMC3    C3 4952   1.930   0.620  10.087 -0.7860  0.5500  0.5017
  330TMC3    C4 4953   2.179   0.721  10.049  0.1588  0.2134  0.1171
  330TMC3    C5 4954   2.150   0.632  10.148  0.3154  0.1834  0.1643
  330TMC3    C6 4955   2.029   0.574  10.159 -0.5024 -0.1378  0.4031
  330TMC3     C 4956   2.096   0.886   9.907  0.4484 -0.5940  0.4971
  330TMC3     O 4957   2.184   0.956   9.962  0.4407 -0.1158 -0.2076
  330TMC3     H 4958   1.869   0.761   9.935  1.7571  1.7931 -0.5365
  330TMC3    H1 4959   2.278   0.762  10.031 -0.1335  0.9279  0.1723
  330TMC3    H2 4960   2.012   0.497  10.234  0.9867  0.6509  1.5377
  330TMC3    C7 4961   2.238   0.622  10.262  0.1312 -0.1030  0.2508
  330TMC3    C8 4962   1.796   0.555  10.086  0.0294  0.1564  0.3050
  330TMC3    O1 4963   2.202   0.553  10.357 -0.0857  0.0604  0.1039
  330TMC3    O2 4964   1.765   0.477  10.176  0.1866  0.4050  0.4894
  331MPD2     C 4965   4.202   4.695  12.815  0.0645 -0.7700 -0.0254
  331MPD2    C1 4966   4.304   0.040  12.755  0.2473 -0.5126 -0.2605
  331MPD2    C2 4967   4.431   4.713  12.735 -0.1660 -0.6265 -0.6902
  331MPD2    C3 4968   4.451   4.578  12.756 -0.0779 -0.8581  0.3856
  331MPD2    C4 4969   4.347   4.503  12.806 -0.4298 -0.4485 -0.1124
  331MPD2    C5 4970   4.228   4.562  12.842 -0.5606 -0.1333 -0.1350
  331MPD2     H 4971   4.510   0.050  12.699  0.7719 -0.6969  1.2081
  331MPD2    H1 4972   4.337   4.396  12.822 -1.5914 -0.3732 -0.3169
  331MPD2    H2 4973   4.108   0.014  12.842  1.0400  0.1567  1.7033
  331MPD2    H3 4974   4.149   4.503  12.887  0.2319 -0.9468  0.1633
  331MPD2     N 4975   4.566   4.522  12.692 -0.8843 -0.2852  0.4653
  331MPD2    H5 4976   4.623   4.591  12.645  0.0089 -1.4580 -0.1665
  331MPD2    N1 4977   4.293   0.171  12.710 -0.1489 -0.3180  0.1771
  331MPD2    H7 4978   4.378   0.226  12.715 -0.3799  0.1630 -1.1153
  332TMC3    C1 4979   4.702   4.351  12.596  0.1760 -0.3953  0.1072
  332TMC3    C2 4980   4.718   4.429  12.485  0.1530 -0.0999  0.5036
  332TMC3    C3 4981   0.086   4.398  12.398 -0.0135  0.2686 -0.3456
  332TMC3    C4 4982   0.051   4.237  12.611  0.3075  0.4177  0.8725
  332TMC3    C5 4983   0.140   4.206  12.515  0.2943 -0.0150 -0.1331
  332TMC3    C6 4984   0.166   4.293  12.409 -1.2245  1.3206  0.2218
  332TMC3     C 4985   4.598   4.386  12.696 -0.7767 -0.1986 -0.5566
  332TMC3     O 4986   4.549   4.300  12.771 -0.2093  0.1603  0.2641
  332TMC3     H 4987   4.654   4.513  12.462 -0.3933 -0.4132  0.8743
  332TMC3    H1 4988   0.034   4.170  12.694  1.9589 -1.7410 -0.5419
  332TMC3    H2 4989   0.251   4.287  12.342 -0.4931  3.5490  0.9657
  332TMC3    C7 4990   0.254   4.134  12.561  0.7383  0.1818 -0.2236
  332TMC3    C8 4991   0.124   4.509  12.309 -0.2259  0.1470 -0.0662
  332TMC3    O1 4992   0.237   4.031  12.623  0.0144 -0.2985 -0.3163
  332TMC3    O2 4993   0.085   4.625  12.336  0.3394 -0.1641  0.0119
  333MPD2     C 4994   0.000   0.029  11.354 -0.7547  0.8525  0.8834
  333MPD2    C1 4995   0.057   4.649  11.293  0.4938 -0.6697  0.1343
  333MPD2    C2 4996   0.036   4.518  11.354 -0.2429  0.2181 -0.0697
  333MPD2    C3 4997   4.688   4.504  11.464  0.4457  0.1768  0.2479
  333MPD2    C4 4998   4.619   4.614  11.507  0.5280 -0.1608 -0.1640
  333MPD2    C5 4999   4.645   0.013  11.456 -0.6515 -0.0171  0.2861
  333MPD2     H 5000   0.082   4.427  11.316  0.5622  0.9857 -0.9554
  333MPD2    H1 5001   4.547   4.616  11.588  0.7219  0.2285 -0.0049
  333MPD2    H2 5002   0.016   0.125  11.306  1.2747  0.3630  0.5616
  333MPD2    H3 5003   4.591   0.100  11.492 -0.7705 -0.0987  0.3057
  333MPD2     N 5004   4.657   4.380  11.507  0.0552  0.1555 -0.3523
  333MPD2    H5 5005   4.715   4.306  11.469 -2.0512 -2.8538  2.1688
  333MPD2    N1 5006   0.138   4.673  11.180  0.3052  0.2656  0.1478
  333MPD2    H7 5007   0.142   0.045  11.162  0.4176  0.2813  0.2632
  334TMC3    C1 5008   0.297   4.633  10.993  0.4374  0.0431 -0.2925
  334TMC3    C2 5009   0.404   4.547  10.953  0.7574  0.6308  0.0450
  334TMC3    C3 5010   0.512   4.605  10.896  0.3798  0.4374  0.6582
  334TMC3    C4 5011   0.295   0.035  10.950  0.9080  0.1162 -0.8109
  334TMC3    C5 5012   0.400   0.082  10.874  0.1040  0.1458 -0.1063
  334TMC3    C6 5013   0.512   0.003  10.845  1.3306 -0.1459 -0.9149
  334TMC3     C 5014   0.214   4.580  11.108 -0.2411 -0.3304 -0.1689
  334TMC3     O 5015   0.224   4.458  11.125  0.2251 -0.2380  0.1053
  334TMC3     H 5016   0.415   4.444  10.985  0.0005  1.0287  1.5757
  334TMC3    H1 5017   0.204   0.090  10.971  1.0029 -0.3494  0.8529
  334TMC3    H2 5018   0.603   0.031  10.794 -0.4867  1.1592 -3.4679
  334TMC3    C7 5019   0.401   0.210  10.804  0.9531 -1.0701  0.1998
  334TMC3    C8 5020   0.639   4.531  10.901 -0.1109 -0.8012 -0.6737
  334TMC3    O1 5021   0.513   0.242  10.764 -0.2991  0.4945  0.4017
  334TMC3    O2 5022   0.632   4.413  10.924  0.3813  0.1878  0.0522
  335TMC3    C1 5023   0.377   2.325  17.471 -0.3226  1.0263 -0.0025
  335TMC3    C2 5024   0.283   2.287  17.378 -0.0794 -0.5245  0.1975
  335TMC3    C3 5025   0.327   2.186  17.296 -0.0182 -0.6949 -0.0347
  335TMC3    C4 5026   0.502   2.273  17.490 -0.8992  0.1493  0.3608
  335TMC3    C5 5027   0.536   2.169  17.402  0.7073  0.1585 -0.2580
  335TMC3    C6 5028   0.456   2.141  17.291  0.9388  0.4094 -0.8304
  335TMC3     C 5029   0.342   2.429  17.572 -0.5327 -0.0066  0.0001
  335TMC3     O 5030   0.434   2.467  17.646  0.0585  0.4025 -0.3504
  335TMC3     H 5031   0.182   2.323  17.362  0.1481 -0.9998 -2.2223
  335TMC3    H1 5032   0.568   2.308  17.569 -0.7567 -0.2382  0.4116
  335TMC3    H2 5033   0.483   2.060  17.224  0.3656  0.3245 -0.9561
  335TMC3    C7 5034   0.677   2.139  17.373 -0.4748  0.0250  0.1774
  335TMC3    C8 5035   0.229   2.147  17.202 -0.9924  0.1483 -0.5933
  335TMC3    O1 5036   0.705   2.034  17.313  0.0772 -0.1158  0.0277
  335TMC3    O2 5037   0.156   2.232  17.153  0.1481 -0.3258  0.4342
  336MPD2     C 5038   4.670   4.328  16.314  0.1324 -0.2743  0.6289
  336MPD2    C1 5039   4.609   4.255  16.208  0.1271 -0.3758  0.2162
  336MPD2    C2 5040   4.602   4.115  16.211 -0.4404 -0.0829 -0.3336
  336MPD2    C3 5041   4.670   4.052  16.311 -0.2755  0.3969 -0.0089
  336MPD2    C4 5042   0.007   4.119  16.412  0.6591 -0.5771 -0.5750
  336MPD2    C5 5043   4.726   4.255  16.412  0.3423  0.4867  0.1216
  336MPD2     H 5044   4.551   4.055  16.137  0.7041  1.5306 -2.4374
  336MPD2    H1 5045   0.063   4.074  16.493  1.1382  0.6810 -0.2136
  336MPD2    H2 5046   4.692   4.434  16.318  0.2014 -0.2860  0.5552
  336MPD2    H3 5047   0.046   4.313  16.490  0.3748  2.5851 -1.4778
  336MPD2     N 5048   4.692   3.912  16.327 -0.5779 -0.3264  0.0038
  336MPD2    H5 5049   0.018   3.886  16.409 -0.3110 -1.1542 -0.4238
  336MPD2    N1 5050   4.530   4.326  16.120  0.4792 -0.5928 -0.0525
  336MPD2    H7 5051   4.483   4.269  16.050  0.6274  1.8589 -2.1449
  337TMC3    C1 5052   4.438   4.502  15.997 -0.3697  0.6262 -0.4313
  337TMC3    C2 5053   4.332   4.426  15.959  0.4376  0.3692  0.1950
  337TMC3    C3 5054   4.238   4.477  15.874  0.8518 -0.2424  0.7034
  337TMC3    C4 5055   4.454   4.634  15.948 -0.8335 -0.6077  0.2258
  337TMC3    C5 5056   4.359   4.678  15.862 -0.1357  0.4964  0.3054
  337TMC3    C6 5057   4.252   4.599  15.827 -0.1350 -0.1271 -0.1207
  337TMC3     C 5058   4.527   4.465  16.101 -0.3079  0.1131 -0.7133
  337TMC3     O 5059   4.607   4.550  16.138  0.5805  0.1020 -0.4807
  337TMC3     H 5060   4.316   4.334  16.013  1.9728 -0.7644 -1.2746
  337TMC3    H1 5061   4.547   4.686  15.963 -1.0654 -0.5338  1.4023
  337TMC3    H2 5062   4.173   4.634  15.761 -1.0047  1.2127  1.6335
  337TMC3    C7 5063   4.321   0.092  15.860 -0.7889  0.3641  0.1200
  337TMC3    C8 5064   4.095   4.415  15.881 -0.0542  0.0638  0.0836
  337TMC3    O1 5065   4.218   0.125  15.804 -0.3576 -0.4788 -0.6310
  337TMC3    O2 5066   4.076   4.333  15.971 -0.4334 -0.1077 -0.2317
  338MPD2     C 5067   0.292   3.726   0.936  0.4539 -0.1590 -0.0824
  338MPD2    C1 5068   0.204   3.802   0.866  0.4318 -0.2627 -0.6093
  338MPD2    C2 5069   0.216   3.937   0.867  0.3541  0.6718  0.6192
  338MPD2    C3 5070   0.316   3.999   0.935  0.1683 -0.5888  0.0696
  338MPD2    C4 5071   0.407   3.918   1.009  0.2892  0.1474 -0.2311
  338MPD2    C5 5072   0.394   3.782   1.005 -0.0422  0.1168 -0.0230
  338MPD2     H 5073   0.141   3.992   0.813  2.6996  1.2570 -2.0711
  338MPD2    H1 5074   0.482   3.968   1.069 -0.2748  1.3631 -0.5443
  338MPD2    H2 5075   0.286   3.618   0.946 -0.3085 -0.3271 -2.3482
  338MPD2    H3 5076   0.447   3.719   1.075 -0.1422 -1.0699 -1.0213
  338MPD2     N 5077   0.332   4.134   0.908 -0.2725  0.3788 -0.1625
  338MPD2    H5 5078   0.259   4.180   0.856 -1.8065 -1.9779 -0.0842
  338MPD2    N1 5079   0.103   3.738   0.786 -0.3981  0.4779 -0.0315
  338MPD2    H7 5080   0.029   3.791   0.741  1.3435  2.2988 -0.7429
  339TMC3    C1 5081   0.406   4.355   0.931 -0.0257 -0.2581 -0.8416
  339TMC3    C2 5082   0.403   4.439   1.046 -0.4334 -0.1417  0.2633
  339TMC3    C3 5083   0.339   4.561   1.040  0.1206  0.1319  0.0408
  339TMC3    C4 5084   0.350   4.395   0.816  0.8449 -0.3563  0.1023
  339TMC3    C5 5085   0.309   4.526   0.816 -0.0963  0.5065 -0.0328
  339TMC3    C6 5086   0.307   4.615   0.922  0.0946  0.2422  0.4129
  339TMC3     C 5087   0.432   4.216   0.953 -0.9074 -0.5940 -0.3741
  339TMC3     O 5088   0.516   4.186   1.037  0.7322 -0.1570 -0.1280
  339TMC3     H 5089   0.444   4.409   1.141 -1.0154  0.9000  0.8430
  339TMC3    H1 5090   0.368   4.342   0.723  0.4234 -2.3808  1.1840
  339TMC3    H2 5091   0.277   4.719   0.917 -0.9811  0.0063  1.9989
  339TMC3    C7 5092   0.262   4.580   0.688  0.3705 -0.4710  0.3791
  339TMC3    C8 5093   0.289   4.615   1.163  0.6211 -0.2000  0.4020
  339TMC3    O1 5094   0.273   4.700   0.668 -0.4658 -0.1640  0.5752
  339TMC3    O2 5095   0.261   0.009   1.153  0.4060 -0.3599  0.2953
  340MPD2     C 5096   4.164   1.018   9.064  0.1112 -0.3228 -0.0923
  340MPD2    C1 5097   4.295   0.985   9.064 -0.1090  1.0937 -0.0738
  340MPD2    C2 5098   4.378   1.091   9.088 -0.1579 -0.5755 -0.1800
  340MPD2    C3 5099   4.337   1.220   9.125  0.9040 -0.1142  0.7761
  340MPD2    C4 5100   4.204   1.252   9.109 -0.0759  0.1404  0.1891
  340MPD2    C5 5101   4.119   1.148   9.074  0.5436  0.0342  0.0366
  340MPD2     H 5102   4.485   1.072   9.095  0.0626  0.4794 -0.8026
  340MPD2    H1 5103   4.165   1.351   9.122 -4.1087 -1.1833 -1.8346
  340MPD2    H2 5104   4.093   0.938   9.049 -0.2423 -0.1007  0.4052
  340MPD2    H3 5105   4.015   1.173   9.058 -0.1340 -4.1295 -2.1399
  340MPD2     N 5106   4.433   1.306   9.182  0.1567  0.0391  0.5802
  340MPD2    H5 5107   4.531   1.280   9.181 -0.2552 -1.3974 -0.9686
  340MPD2    N1 5108   4.331   0.846   9.048 -0.7471 -0.1094 -0.7040
  340MPD2    H7 5109   4.256   0.778   9.046 -1.5692  0.7876 -0.5901
  341TMC3    C1 5110   4.480   0.660   9.067  0.3151  0.3053 -0.1763
  341TMC3    C2 5111   4.382   0.578   9.125  0.3795 -0.0561  0.0277
  341TMC3    C3 5112   4.417   0.445   9.140 -0.0038  0.3766  0.0285
  341TMC3    C4 5113   4.603   0.608   9.026  0.5229  0.4196 -0.2607
  341TMC3    C5 5114   4.636   0.476   9.065 -0.3886  0.1379  0.7842
  341TMC3    C6 5115   4.536   0.390   9.102  0.2285 -0.4955  0.2466
  341TMC3     C 5116   4.460   0.808   9.053 -0.3098  0.1900  0.1624
  341TMC3     O 5117   4.567   0.870   9.036  0.6065 -0.2110  0.4855
  341TMC3     H 5118   4.293   0.622   9.169  0.0942  0.0769 -0.6717
  341TMC3    H1 5119   4.680   0.667   8.978  0.8658 -0.2841 -0.5635
  341TMC3    H2 5120   4.552   0.283   9.111 -1.3509 -0.6378  1.2528
  341TMC3    C7 5121   0.047   0.438   9.039 -0.9642  0.4119  0.5673
  341TMC3    C8 5122   4.320   0.359   9.202 -0.4146 -0.0264  0.5372
  341TMC3    O1 5123   0.109   0.508   8.966 -0.0531  0.2753 -0.1663
  341TMC3    O2 5124   4.362   0.262   9.263  0.4786 -0.5519  0.2800
  342MPD2     C 5125   3.133   4.549   0.513  0.3025 -0.2578  0.1114
  342MPD2    C1 5126   3.145   4.563   0.377 -0.0349  0.3695 -0.5369
  342MPD2    C2 5127   3.111   4.685   0.325  0.6609 -0.7150  0.8273
  342MPD2    C3 5128   3.052   0.060   0.397 -0.6207  0.1486  0.4994
  342MPD2    C4 5129   3.046   0.048   0.533 -0.3897  0.1663  0.1710
  342MPD2    C5 5130   3.092   4.663   0.583  0.1046 -0.0539 -0.0359
  342MPD2     H 5131   3.129   4.690   0.218  2.4994  0.9798  1.2044
  342MPD2    H1 5132   3.019   0.136   0.590 -1.6448 -0.2413  0.2179
  342MPD2    H2 5133   3.169   4.464   0.569 -0.9593 -0.2684  0.8939
  342MPD2    H3 5134   3.126   4.668   0.686 -0.9838  0.7886  0.2710
  342MPD2     N 5135   2.991   0.173   0.331 -0.2498 -0.2838  0.0871
  342MPD2    H5 5136   2.941   0.227   0.402  1.1905  0.2888  0.6783
  342MPD2    N1 5137   3.202   4.464   0.291 -0.1400 -1.0447  0.3631
  342MPD2    H7 5138   3.197   4.487   0.193 -0.8191  0.5938  0.7943
  343TMC3    C1 5139   3.268   4.247   0.218  0.5311  0.1711 -0.3768
  343TMC3    C2 5140   3.348   4.297   0.120 -0.2131 -0.1501 -0.6787
  343TMC3    C3 5141   3.417   4.225   0.032  0.1300 -1.1688 -0.2161
  343TMC3    C4 5142   3.280   4.109   0.231 -0.2825 -0.5113  0.1923
  343TMC3    C5 5143   3.344   4.031   0.136 -0.7322  0.8198 -0.1123
  343TMC3    C6 5144   3.410   4.089   0.033 -0.0043  0.0958 -0.1238
  343TMC3     C 5145   3.220   4.330   0.328  0.6512  0.0771  0.3497
  343TMC3     O 5146   3.207   4.275   0.434  0.3725 -0.3560  0.3287
  343TMC3     H 5147   3.353   4.405   0.110  0.6110 -0.0580  0.8070
  343TMC3    H1 5148   3.217   4.073   0.312 -0.9001  0.0505 -0.0419
  343TMC3    H2 5149   3.447   4.028  17.663  2.8753 -0.1548  1.3612
  343TMC3    C7 5150   3.298   3.900   0.108 -0.0210 -0.4154  0.5555
  343TMC3    C8 5151   3.457   4.303  17.625  0.3548 -0.5670 -0.0973
  343TMC3    O1 5152   3.380   3.827   0.049 -0.4483  0.1564  0.3548
  343TMC3    O2 5153   3.470   4.424  17.645 -0.6969  0.5236 -0.0329
  344MPD2     C 5154   3.853   3.633  10.277  0.5718  0.4172  0.0436
  344MPD2    C1 5155   3.743   3.716  10.264 -0.1918 -0.0352  0.2594
  344MPD2    C2 5156   3.764   3.846  10.208 -0.5710 -0.0639 -0.2562
  344MPD2    C3 5157   3.893   3.895  10.169  0.5978  0.5654 -0.0467
  344MPD2    C4 5158   4.002   3.807  10.182 -0.3934  0.1046 -0.0571
  344MPD2    C5 5159   3.977   3.678  10.235 -0.1977 -0.4788  0.1217
  344MPD2     H 5160   3.679   3.912  10.199 -1.1958 -0.9433 -0.8007
  344MPD2    H1 5161   4.103   3.840  10.165 -0.3984  1.0658  1.7491
  344MPD2    H2 5162   3.847   3.530  10.310  0.5324 -0.0996 -1.5905
  344MPD2    H3 5163   4.062   3.610  10.244  0.5300 -0.0259 -3.2098
  344MPD2     N 5164   3.914   4.028  10.124  0.3605 -0.3164  0.7685
  344MPD2    H5 5165   4.014   4.041  10.113  0.2506 -0.2547 -0.2095
  344MPD2    N1 5166   3.619   3.689  10.324 -0.2202 -0.1007 -0.9486
  344MPD2    H7 5167   3.541   3.753  10.315  0.5493  0.8555 -0.8187
  345TMC3    C1 5168   3.862   4.261  10.057  0.8659  0.1683  0.1551
  345TMC3    C2 5169   3.966   4.310  10.139  0.3382  0.1384 -0.1513
  345TMC3    C3 5170   3.972   4.445  10.164 -0.0660  0.2475 -0.2020
  345TMC3    C4 5171   3.773   4.347   9.993 -0.3409 -0.3378  0.1342
  345TMC3    C5 5172   3.791   4.476  10.011  0.0928  0.0837 -0.2271
  345TMC3    C6 5173   3.890   4.532  10.092 -0.6081  0.2961  0.7820
  345TMC3     C 5174   3.822   4.127  10.088 -1.5288 -0.0614 -0.3815
  345TMC3     O 5175   3.701   4.111  10.076  0.4423 -0.2827  0.8728
  345TMC3     H 5176   4.041   4.243  10.180 -0.3894  0.3935  1.5831
  345TMC3    H1 5177   3.695   4.308   9.929 -0.0975 -1.7908  0.7244
  345TMC3    H2 5178   3.911   4.638  10.099 -2.2455  0.5770  1.5703
  345TMC3    C7 5179   3.743   4.575   9.915  0.9045 -0.4867  0.4470
  345TMC3    C8 5180   4.085   4.496  10.235  0.3737  0.3055 -0.2848
  345TMC3    O1 5181   3.792   4.686   9.912 -0.0377 -0.2597 -0.5029
  345TMC3    O2 5182   4.081   4.617  10.250  0.3501 -0.7133  0.2555
  346MPD2     C 5183   4.267   0.869  14.341  0.1949 -0.1374  0.3385
  346MPD2    C1 5184   4.227   0.981  14.277 -0.4156 -0.3712  0.8329
  346MPD2    C2 5185   4.295   1.099  14.317  0.2417 -0.1328  0.0525
  346MPD2    C3 5186   4.399   1.094  14.403 -0.0637 -0.4723  0.6685
  346MPD2    C4 5187   4.442   0.976  14.459  0.1331 -0.6038  0.6278
  346MPD2    C5 5188   4.376   0.865  14.428  0.0301  0.1787 -0.2643
  346MPD2     H 5189   4.260   1.192  14.273  5.0722  1.3289 -0.7193
  346MPD2    H1 5190   4.530   0.974  14.521 -0.3824  0.3977  1.3790
  346MPD2    H2 5191   4.214   0.775  14.329  1.8590 -0.7690 -2.0588
  346MPD2    H3 5192   4.401   0.768  14.470  0.3783  1.8108  3.2847
  346MPD2     N 5193   4.461   1.222  14.432 -0.3228 -0.8791 -0.7568
  346MPD2    H5 5194   4.417   1.302  14.386  1.1969 -0.8918 -2.2369
  346MPD2    N1 5195   4.116   0.988  14.184 -0.0513  0.0023  0.5817
  346MPD2    H7 5196   4.070   1.073  14.154 -2.5860 -2.3313 -2.1014
  347TMC3    C1 5197   4.650   1.372  14.471  0.0028  0.2744 -0.1692
  347TMC3    C2 5198   4.562   1.455  14.420  0.8880 -0.0756 -0.5124
  347TMC3    C3 5199   4.594   1.521  14.301  0.7058 -0.1415  0.2173
  347TMC3    C4 5200   0.049   1.363  14.428 -0.3778 -0.0158 -0.3306
  347TMC3    C5 5201   0.085   1.440  14.314 -0.1234 -0.1661  0.3956
  347TMC3    C6 5202   4.723   1.515  14.245  0.1035  0.2181  0.1492
  347TMC3     C 5203   4.588   1.238  14.491 -0.4570  0.1872  0.2709
  347TMC3     O 5204   4.667   1.146  14.519  0.2944 -0.3971 -0.0964
  347TMC3     H 5205   4.466   1.482  14.462  1.9482  5.0506 -1.3148
  347TMC3    H1 5206   0.113   1.289  14.473  0.4856  0.6291 -0.4885
  347TMC3    H2 5207   0.020   1.578  14.160 -0.6326 -1.0401 -0.9964
  347TMC3    C7 5208   0.203   1.390  14.241  0.4480  0.4466  0.4334
  347TMC3    C8 5209   4.484   1.501  14.207 -0.2729 -0.4828  1.4584
  347TMC3    O1 5210   0.272   1.308  14.304  0.3005  0.0803 -0.4249
  347TMC3    O2 5211   4.384   1.444  14.251 -0.3966  0.2907 -0.1246
  348MPD2     C 5212   2.610   0.701  12.401  0.0585 -0.1215 -0.0310
  348MPD2    C1 5213   2.717   0.663  12.330  0.4870 -0.0799 -0.3578
  348MPD2    C2 5214   2.732   0.705  12.194  0.5492 -0.5576 -0.8644
  348MPD2    C3 5215   2.631   0.787  12.139  0.5496  0.0020 -0.0156
  348MPD2    C4 5216   2.529   0.827  12.217  0.0721  0.1406  0.2499
  348MPD2    C5 5217   2.517   0.781  12.345  0.2979 -0.0317  0.7434
  348MPD2     H 5218   2.816   0.678  12.131  0.5713  0.7972 -1.4233
  348MPD2    H1 5219   2.451   0.893  12.181 -1.7871 -1.4139  1.4359
  348MPD2    H2 5220   2.603   0.680  12.507 -0.8681  1.9786  0.3165
  348MPD2    H3 5221   2.431   0.808  12.405 -0.4404 -0.3385 -0.1715
  348MPD2     N 5222   2.645   0.840  12.010 -0.0581  0.1789  1.2016
  348MPD2    H5 5223   2.735   0.825  11.965 -1.3191  0.8591 -1.5549
  348MPD2    N1 5224   2.812   0.575  12.389  0.0564 -0.0463  0.1805
  348MPD2    H7 5225   2.898   0.564  12.336  0.0539  0.5163  0.0538
  349TMC3    C1 5226   2.895   0.375  12.496  0.7154  0.3363 -0.2763
  349TMC3    C2 5227   2.853   0.255  12.549  0.2855  0.4435  0.5525
  349TMC3    C3 5228   2.907   0.141  12.493  0.1166 -0.2215 -0.4770
  349TMC3    C4 5229   2.992   0.383  12.402  0.3478 -0.1427 -0.1422
  349TMC3    C5 5230   3.047   0.267  12.357 -0.1151 -0.2321  0.2530
  349TMC3    C6 5231   3.011   0.150  12.404  0.4567  0.0626  0.5652
  349TMC3     C 5232   2.797   0.490  12.498  0.3225 -0.1630 -0.0465
  349TMC3     O 5233   2.694   0.478  12.561 -0.7519 -0.1423  0.1710
  349TMC3     H 5234   2.774   0.244  12.622 -0.3686 -0.8861 -0.3483
  349TMC3    H1 5235   3.031   0.469  12.349  0.5628 -0.0664  0.1461
  349TMC3    H2 5236   3.058   0.060  12.365  0.9564  0.1477  0.9679
  349TMC3    C7 5237   3.067   0.267  12.217 -0.2062  0.0848  1.0433
  349TMC3    C8 5238   2.865   0.009  12.537  0.3969 -0.2965 -0.2724
  349TMC3    O1 5239   3.178   0.259  12.168  0.3309 -0.6782  0.2491
  349TMC3    O2 5240   2.801   0.004  12.646 -0.8014  0.3245 -0.1627
  350MPD2     C 5241   1.428   3.247   9.953  0.2758 -1.0156  0.2206
  350MPD2    C1 5242   1.521   3.154  10.001  0.4425 -0.1426  0.3999
  350MPD2    C2 5243   1.646   3.189  10.047  0.6181 -0.5387  0.2849
  350MPD2    C3 5244   1.674   3.328  10.066 -0.1810 -1.0399 -0.4058
  350MPD2    C4 5245   1.582   3.422  10.016 -0.6558  0.0489 -0.4641
  350MPD2    C5 5246   1.463   3.379   9.954 -0.6918  1.0090 -1.0711
  350MPD2     H 5247   1.721   3.118  10.081  2.9025  2.4431  1.5073
  350MPD2    H1 5248   1.589   3.523  10.052  1.3155 -0.4761  0.6150
  350MPD2    H2 5249   1.325   3.226   9.928 -0.1309  0.2946  0.7763
  350MPD2    H3 5250   1.383   3.443   9.921 -1.7805  0.1667 -0.0806
  350MPD2     N 5251   1.793   3.356  10.137  0.6014  0.5101  0.3511
  350MPD2    H5 5252   1.851   3.275  10.160 -0.0947  0.0152  0.3564
  350MPD2    N1 5253   1.480   3.019  10.022 -0.1743 -0.1816 -0.0763
  350MPD2    H7 5254   1.550   2.950  10.047 -0.1729  0.1120  0.7284
  351TMC3    C1 5255   1.362   2.821  10.000  0.0731 -0.3993 -0.9572
  351TMC3    C2 5256   1.474   2.741   9.978  0.2743 -0.6706  0.8578
  351TMC3    C3 5257   1.457   2.601   9.982 -0.3718 -0.1464 -0.9957
  351TMC3    C4 5258   1.240   2.766  10.006 -0.6327 -0.2569 -0.5300
  351TMC3    C5 5259   1.222   2.630   9.989 -0.5267  1.3354 -0.4763
  351TMC3    C6 5260   1.331   2.550   9.977  0.1693  0.0122  0.1583
  351TMC3     C 5261   1.359   2.964   9.998  0.8191 -0.1643  0.5219
  351TMC3     O 5262   1.251   3.022   9.989 -0.2516 -0.0905 -0.3163
  351TMC3     H 5263   1.573   2.785   9.969  0.8416 -2.6766 -2.5923
  351TMC3    H1 5264   1.155   2.832  10.016 -2.2627 -1.9752 -2.8030
  351TMC3    H2 5265   1.330   2.442   9.967 -0.0718 -0.0509  0.8619
  351TMC3    C7 5266   1.083   2.587   9.969  0.1617 -0.2850  0.2739
  351TMC3    C8 5267   1.568   2.513  10.008  0.3029 -0.1710  0.3491
  351TMC3    O1 5268   0.991   2.661   9.999  0.0131 -1.0199 -0.1966
  351TMC3    O2 5269   1.672   2.547   9.956  0.1130  0.1981  0.5221
  352MPD2     C 5270   4.428   1.145   1.485  0.2945 -0.1731  0.8814
  352MPD2    C1 5271   4.362   1.068   1.390  0.7046 -0.2511 -0.3004
  352MPD2    C2 5272   4.338   0.933   1.422 -0.0043 -0.4546 -0.2739
  352MPD2    C3 5273   4.365   0.880   1.543 -0.0878 -0.3911 -0.2229
  352MPD2    C4 5274   4.427   0.958   1.635  0.9641  0.0010 -0.3580
  352MPD2    C5 5275   4.457   1.090   1.608 -0.2660 -0.3136  0.4476
  352MPD2     H 5276   4.305   0.866   1.344  0.0641  0.7490 -1.3352
  352MPD2    H1 5277   4.452   0.914   1.731 -0.6619  1.2145  0.6210
  352MPD2    H2 5278   4.470   1.242   1.460  2.1108 -1.3012 -0.4541
  352MPD2    H3 5279   4.504   1.154   1.682 -0.5211 -0.4480  0.7205
  352MPD2     N 5280   4.345   0.743   1.572  0.1732  0.3865  0.1982
  352MPD2    H5 5281   4.372   0.700   1.660 -1.9354 -1.4016 -0.0584
  352MPD2    N1 5282   4.341   1.128   1.266  0.5792  0.7180  0.3353
  352MPD2    H7 5283   4.355   1.228   1.264 -0.4999  0.9231  2.2749
  353TMC3    C1 5284   4.328   0.520   1.528  0.3351 -0.0942 -0.0943
  353TMC3    C2 5285   4.423   0.507   1.624  0.4715 -0.3373  0.0405
  353TMC3    C3 5286   4.486   0.381   1.628  0.3586 -0.4987  0.0917
  353TMC3    C4 5287   4.303   0.421   1.438 -0.4956 -0.4493  1.1216
  353TMC3    C5 5288   4.372   0.310   1.437 -0.3707  0.2624 -0.5152
  353TMC3    C6 5289   4.466   0.289   1.532 -0.6578 -0.0113  0.4197
  353TMC3     C 5290   4.286   0.645   1.496  0.9431 -0.3524  0.1847
  353TMC3     O 5291   4.214   0.660   1.399 -0.1543 -0.1101  0.1220
  353TMC3     H 5292   4.443   0.577   1.704  1.4115 -1.0086  0.3981
  353TMC3    H1 5293   4.239   0.443   1.353  0.1082  1.3807  1.1253
  353TMC3    H2 5294   4.515   0.194   1.554 -0.1299 -0.2413 -1.6971
  353TMC3    C7 5295   4.384   0.237   1.314  0.3990 -0.1205  0.2146
  353TMC3    C8 5296   4.612   0.365   1.694 -0.5045  0.2021  0.2801
  353TMC3    O1 5297   4.337   0.283   1.209  0.2861 -0.1188 -0.0888
  353TMC3    O2 5298   4.609   0.391   1.812  0.6502 -0.1148 -0.0384
  354TMC3    C1 5299   1.694   1.970  13.555 -0.1681 -0.1250 -0.2916
  354TMC3    C2 5300   1.770   2.082  13.567 -0.4464 -0.1075  0.2891
  354TMC3    C3 5301   1.898   2.084  13.520  0.6081 -0.0579 -0.6811
  354TMC3    C4 5302   1.746   1.867  13.481  0.2344 -1.1909 -0.1447
  354TMC3    C5 5303   1.870   1.872  13.425  1.0217 -0.3328 -0.1893
  354TMC3    C6 5304   1.960   1.970  13.470  0.0931 -0.1884  1.0745
  354TMC3     C 5305   1.633   1.918  13.675 -0.1487  0.4454  0.4222
  354TMC3     O 5306   1.542   1.830  13.654 -0.1221  0.2436  0.2316
  354TMC3     H 5307   1.734   2.167  13.624 -1.1094 -0.0225 -0.2578
  354TMC3    H1 5308   1.677   1.792  13.445  0.0370 -1.5155  0.9112
  354TMC3    H2 5309   2.066   1.965  13.448  0.5350  0.4779  3.0382
  354TMC3    C7 5310   1.859   1.892  13.277 -0.5763 -0.4840  0.1857
  354TMC3    C8 5311   1.913   2.209  13.453  0.3178 -0.5505  0.2883
  354TMC3    O1 5312   1.748   1.899  13.223  0.1960  0.0879 -0.0732
  354TMC3    O2 5313   1.811   2.269  13.413  0.0396  0.4229 -0.7058
  355MPD2     C 5314   1.576   2.559  11.950  0.5700 -0.0369  0.0531
  355MPD2    C1 5315   1.584   2.619  11.828  0.2702  0.4226  0.8852
  355MPD2    C2 5316   1.707   2.665  11.793 -0.5958  0.3157  0.2533
  355MPD2    C3 5317   1.814   2.672  11.883 -0.1823 -0.0649  0.1623
  355MPD2    C4 5318   1.800   2.617  12.010  0.0668  0.3190  0.3342
  355MPD2    C5 5319   1.678   2.563  12.044  0.2067  0.5093  0.2573
  355MPD2     H 5320   1.722   2.703  11.692  0.0313  2.6600  1.2327
  355MPD2    H1 5321   1.883   2.615  12.079  0.9089 -0.0728 -0.6967
  355MPD2    H2 5322   1.476   2.532  11.983  0.9785 -2.4227 -0.6568
  355MPD2    H3 5323   1.677   2.513  12.140 -1.4808 -0.0530 -0.0587
  355MPD2     N 5324   1.933   2.738  11.854  0.3797 -0.2421  0.1244
  355MPD2    H5 5325   2.005   2.736  11.926  0.3156 -0.3847  0.1858
  355MPD2    N1 5326   1.469   2.607  11.748  0.1302 -0.6468  0.1322
  355MPD2    H7 5327   1.415   2.524  11.771 -1.0246 -0.2713 -1.2695
  356TMC3    C1 5328   2.073   2.893  11.745  0.1986 -0.1386  0.3922
  356TMC3    C2 5329   2.119   2.948  11.632  0.4700  0.4109  0.2724
  356TMC3    C3 5330   2.197   3.064  11.645  0.2807 -0.3240 -0.6435
  356TMC3    C4 5331   2.102   2.942  11.871 -0.0784  0.1195 -0.2334
  356TMC3    C5 5332   2.173   3.054  11.883  0.2279  0.5344  0.5330
  356TMC3    C6 5333   2.229   3.116  11.768  0.3378 -0.0554 -0.4882
  356TMC3     C 5334   1.964   2.800  11.735  0.4984 -0.1125  0.3110
  356TMC3     O 5335   1.899   2.799  11.632  0.0037  0.3042 -0.2677
  356TMC3     H 5336   2.103   2.901  11.536  1.4756 -0.8386  0.7163
  356TMC3    H1 5337   2.051   2.913  11.962 -2.8085  0.2186 -1.7117
  356TMC3    H2 5338   2.289   3.206  11.777  1.3513 -1.1288  3.5385
  356TMC3    C7 5339   2.230   3.092  12.015  0.1494  0.4126 -0.4151
  356TMC3    C8 5340   2.256   3.118  11.523  0.4716  0.4517 -0.6470
  356TMC3    O1 5341   2.219   3.007  12.102 -0.1688 -0.2497  0.6752
  356TMC3    O2 5342   2.235   3.055  11.423 -0.2563  0.3271  0.0276
  357MPD2     C 5343   1.504   3.250   1.689 -0.6156 -0.0060 -0.0035
  357MPD2    C1 5344   1.555   3.157   1.609 -1.0534  1.2246 -0.7563
  357MPD2    C2 5345   1.485   3.046   1.563 -0.1104  0.0769 -0.5654
  357MPD2    C3 5346   1.360   3.030   1.623  0.3238 -0.1288  0.0682
  357MPD2    C4 5347   1.299   3.127   1.704 -0.7353  0.6015 -0.1292
  357MPD2    C5 5348   1.375   3.234   1.733  0.2565  0.3414 -0.3139
  357MPD2     H 5349   1.531   2.971   1.499  2.0694 -0.4113  1.5652
  357MPD2    H1 5350   1.202   3.128   1.754 -0.0344 -0.8373  1.2809
  357MPD2    H2 5351   1.545   3.341   1.731 -0.0612 -0.5797  0.6998
  357MPD2    H3 5352   1.339   3.312   1.800  0.1439 -0.8461  1.0255
  357MPD2     N 5353   1.277   2.920   1.607  0.2914  0.3294 -0.0261
  357MPD2    H5 5354   1.184   2.916   1.648  1.4906 -0.8649  2.5717
  357MPD2    N1 5355   1.691   3.172   1.566  1.0217 -0.0872 -0.4966
  357MPD2    H7 5356   1.723   3.108   1.493  0.6158  0.1013 -0.8390
  358TMC3    C1 5357   1.911   3.261   1.561 -0.0512 -0.3705 -0.4719
  358TMC3    C2 5358   1.928   3.226   1.425 -0.0696 -0.4642  0.2370
  358TMC3    C3 5359   2.055   3.237   1.386 -0.1102  0.1620 -0.9092
  358TMC3    C4 5360   2.013   3.284   1.648  0.1301 -0.8771  0.4676
  358TMC3    C5 5361   2.142   3.272   1.602 -0.2444  0.3563  0.2360
  358TMC3    C6 5362   2.163   3.268   1.469  0.7090  0.0930 -0.5376
  358TMC3     C 5363   1.782   3.254   1.628 -0.9639 -0.0704 -0.2802
  358TMC3     O 5364   1.772   3.337   1.713  0.5202  0.2319  0.1680
  358TMC3     H 5365   1.846   3.185   1.367 -0.2207  0.8041 -0.4419
  358TMC3    H1 5366   2.003   3.297   1.755  0.6303 -1.1394  0.5494
  358TMC3    H2 5367   2.263   3.270   1.425  1.4322 -1.1554  1.0721
  358TMC3    C7 5368   2.247   3.272   1.699 -0.6901 -0.6209  0.8007
  358TMC3    C8 5369   2.084   3.201   1.251  0.0768 -0.2615  0.0387
  358TMC3    O1 5370   2.216   3.312   1.812  0.1838  0.3675 -0.4379
  358TMC3    O2 5371   2.023   3.105   1.203 -0.0161  0.6318 -0.4590
  359MPD2     C 5372   2.586   1.254  12.722  0.3482  0.8162 -0.0680
  359MPD2    C1 5373   2.490   1.282  12.629  1.0621 -0.1088  0.3977
  359MPD2    C2 5374   2.358   1.265  12.653  0.0750 -0.2846 -0.8141
  359MPD2    C3 5375   2.310   1.220  12.780  0.4082  0.1546 -0.0496
  359MPD2    C4 5376   2.410   1.183  12.867 -0.4482  0.1155  0.1154
  359MPD2    C5 5377   2.543   1.197  12.842  0.7415  0.2593  0.0525
  359MPD2     H 5378   2.288   1.288  12.573 -0.0063 -0.5077 -0.8081
  359MPD2    H1 5379   2.382   1.139  12.962 -1.3836 -0.6000 -0.4889
  359MPD2    H2 5380   2.691   1.271  12.702  0.8197 -0.3962  1.3719
  359MPD2    H3 5381   2.619   1.174  12.917 -0.4829 -0.4866  1.0701
  359MPD2     N 5382   2.175   1.214  12.811  0.4572 -0.4739  0.2612
  359MPD2    H5 5383   2.156   1.170  12.900  0.5868 -0.2726  0.3892
  359MPD2    N1 5384   2.531   1.334  12.504 -0.6563  0.4961  0.3829
  359MPD2    H7 5385   2.456   1.370  12.446  1.1907  2.2749 -0.9215
  360TMC3    C1 5386   2.666   1.401  12.327 -0.8046  0.6382 -0.2973
  360TMC3    C2 5387   2.765   1.486  12.294 -0.2044 -0.5411  0.5650
  360TMC3    C3 5388   2.847   1.461  12.188  0.6435 -0.0297  0.0694
  360TMC3    C4 5389   2.637   1.297  12.245 -0.2940  0.1290 -1.1899
  360TMC3    C5 5390   2.718   1.275  12.142  0.0017  0.4519  0.4462
  360TMC3    C6 5391   2.821   1.353  12.105  0.6123  0.8687 -0.4353
  360TMC3     C 5392   2.654   1.368  12.467  0.1693  0.8418  0.1143
  360TMC3     O 5393   2.767   1.356  12.513 -0.7167  0.9418  0.2524
  360TMC3     H 5394   2.796   1.566  12.360  0.2466 -1.1755  1.1228
  360TMC3    H1 5395   2.551   1.234  12.260 -0.6425  0.9881  0.4184
  360TMC3    H2 5396   2.872   1.340  12.010 -0.8090  0.3487 -1.1239
  360TMC3    C7 5397   2.657   1.213  12.023 -0.1925 -0.2814 -0.4478
  360TMC3    C8 5398   2.895   1.577  12.125 -0.3211 -0.8483 -0.3063
  360TMC3    O1 5399   2.736   1.173  11.941 -0.2499 -0.1684  0.4399
  360TMC3    O2 5400   2.844   1.689  12.150 -0.1087 -0.0689 -0.1044
  361MPD2     C 5401   3.817   0.478  16.655  0.0101  0.1661 -0.1012
  361MPD2    C1 5402   3.847   0.542  16.779 -0.1863 -0.7453  0.0233
  361MPD2    C2 5403   3.941   0.482  16.862 -0.3505  0.1248 -0.0020
  361MPD2    C3 5404   4.009   0.364  16.818  0.1143 -0.4768 -0.3498
  361MPD2    C4 5405   3.982   0.303  16.699 -0.4826  0.9424  0.0107
  361MPD2    C5 5406   3.885   0.366  16.615  0.6320 -0.0086  0.7040
  361MPD2     H 5407   3.967   0.531  16.955  0.1095 -0.8397  0.3809
  361MPD2    H1 5408   4.011   0.204  16.665  2.4706  1.5272  0.8265
  361MPD2    H2 5409   3.732   0.507  16.596  0.8977  0.2823 -1.3118
  361MPD2    H3 5410   3.863   0.322  16.519 -0.6588 -2.5178  2.1565
  361MPD2     N 5411   4.086   0.284  16.908  0.1590 -0.0652  0.1267
  361MPD2    H5 5412   4.122   0.197  16.871  0.7673  0.1770  0.1493
  361MPD2    N1 5413   3.784   0.667  16.820  0.3120 -0.0574 -0.0379
  361MPD2    H7 5414   3.792   0.704  16.914  0.8840  2.4807 -1.1078
  362TMC3    C1 5415   3.613   0.839  16.786  0.2816 -0.2824  0.2367
  362TMC3    C2 5416   3.530   0.800  16.889 -0.3552  0.5436 -0.1610
  362TMC3    C3 5417   3.414   0.876  16.906  0.0860 -0.5297  0.5131
  362TMC3    C4 5418   3.582   0.935  16.698 -0.3356 -0.0836  0.6733
  362TMC3    C5 5419   3.459   0.996  16.712  0.4585  0.3466  0.4463
  362TMC3    C6 5420   3.376   0.971  16.817 -0.3951  0.6536  0.3757
  362TMC3     C 5421   3.704   0.737  16.730  0.2632 -0.5368 -0.0481
  362TMC3     O 5422   3.704   0.743  16.608 -0.2539 -0.0307  0.2167
  362TMC3     H 5423   3.543   0.702  16.934  0.8249  0.9832  0.4538
  362TMC3    H1 5424   3.654   0.960  16.620 -0.0879 -1.3458  0.4988
  362TMC3    H2 5425   3.274   1.007  16.812 -0.5853  0.2708  1.4865
  362TMC3    C7 5426   3.397   1.050  16.604  0.3643 -0.0933  0.7368
  362TMC3    C8 5427   3.319   0.846  17.009  0.0272  0.2073 -0.2230
  362TMC3    O1 5428   3.325   1.141  16.625  0.6621  0.0514 -0.1536
  362TMC3    O2 5429   3.297   0.731  17.036  0.1018 -0.5169 -0.0993
  363TMC3    C1 5430   2.511   2.714   9.872 -0.1290 -1.3149  0.0234
  363TMC3    C2 5431   2.550   2.592   9.915  0.0932 -0.0026 -0.4044
  363TMC3    C3 5432   2.457   2.521   9.994  0.6133 -0.2368 -0.6343
  363TMC3    C4 5433   2.383   2.761   9.880 -0.1846 -0.4959 -0.3810
  363TMC3    C5 5434   2.292   2.681   9.949 -0.6554 -0.1022  0.0549
  363TMC3    C6 5435   2.329   2.569  10.016 -0.2015  0.3814  0.1313
  363TMC3     C 5436   2.595   2.794   9.791  0.1516  0.3291  0.3235
  363TMC3     O 5437   2.545   2.885   9.724 -0.2212 -0.3166 -0.1330
  363TMC3     H 5438   2.647   2.546   9.900  1.1577  1.7660  0.9667
  363TMC3    H1 5439   2.354   2.852   9.829  1.3304 -0.4215 -1.0948
  363TMC3    H2 5440   2.247   2.505  10.048 -0.5142 -0.7854 -3.0728
  363TMC3    C7 5441   2.155   2.702   9.914 -0.4222 -0.2094 -0.7990
  363TMC3    C8 5442   2.492   2.379  10.025  0.4769 -0.8902  0.4867
  363TMC3    O1 5443   2.085   2.608   9.928 -0.1999 -0.4226  0.5059
  363TMC3    O2 5444   2.587   2.322   9.977 -0.1508  0.0327 -0.3272
  364MPD2     C 5445   0.837   1.598  10.535  0.1351  0.4940 -1.0053
  364MPD2    C1 5446   0.947   1.668  10.493 -0.3471  0.1950 -0.1646
  364MPD2    C2 5447   1.073   1.615  10.503 -0.1988 -0.4297  0.2499
  364MPD2    C3 5448   1.087   1.490  10.558 -0.5721 -0.8236  0.6456
  364MPD2    C4 5449   0.976   1.415  10.592  0.1169  0.5805 -0.3720
  364MPD2    C5 5450   0.852   1.470  10.574 -0.1657  1.2345 -0.1505
  364MPD2     H 5451   1.157   1.674  10.469 -2.0343  3.1367  1.9505
  364MPD2    H1 5452   0.982   1.313  10.629  3.1449  0.6783 -0.5721
  364MPD2    H2 5453   0.740   1.645  10.520  0.1523  1.8134  3.0815
  364MPD2    H3 5454   0.765   1.411  10.600  0.7041  0.4242  0.8936
  364MPD2     N 5455   1.210   1.427  10.584 -0.2483  0.1402  0.2322
  364MPD2    H5 5456   1.208   1.343  10.641 -0.0190  1.2468  1.9072
  364MPD2    N1 5457   0.918   1.798  10.440  0.2659 -0.5151  0.3193
  364MPD2    H7 5458   0.826   1.839  10.448  1.2060  1.2767  2.0177
  365TMC3    C1 5459   0.969   2.002  10.310 -0.0072  0.5050 -0.1337
  365TMC3    C2 5460   1.019   2.024  10.183  0.2788 -0.5774  0.0196
  365TMC3    C3 5461   1.093   2.136  10.159 -0.1305 -0.5034  0.2792
  365TMC3    C4 5462   0.985   2.096  10.406  0.2983 -0.0936 -0.5638
  365TMC3    C5 5463   1.054   2.207  10.373 -0.1513 -0.2302 -0.0980
  365TMC3    C6 5464   1.111   2.236  10.253 -0.2363 -0.0387  0.2688
  365TMC3     C 5465   1.010   1.876  10.369  0.6728 -0.2185 -0.3980
  365TMC3     O 5466   1.119   1.848  10.318  0.1071 -0.3469 -0.1460
  365TMC3     H 5467   1.012   1.947  10.108  1.3917  2.1748 -2.8923
  365TMC3    H1 5468   0.942   2.078  10.504  0.3145  1.1016 -0.3315
  365TMC3    H2 5469   1.183   2.316  10.234 -1.9962  1.4331 -0.2595
  365TMC3    C7 5470   1.111   2.299  10.473  0.1720 -0.1997 -0.1234
  365TMC3    C8 5471   1.220   2.103  10.095  0.1856  0.5010 -0.3494
  365TMC3    O1 5472   1.160   2.410  10.457 -0.1819  0.6558 -0.1828
  365TMC3    O2 5473   1.271   2.183  10.016  0.9385 -0.0089 -0.8076
  366MPD2     C 5474   4.044   3.128  15.620  0.2028 -0.3356  0.7489
  366MPD2    C1 5475   4.105   3.233  15.555  0.0234  0.1362 -0.2398
  366MPD2    C2 5476   4.225   3.210  15.494 -0.3386  0.2759 -0.0811
  366MPD2    C3 5477   4.281   3.083  15.481  0.2341  0.2984  0.3045
  366MPD2    C4 5478   4.223   2.980  15.559 -0.4842 -0.2207 -0.3723
  366MPD2    C5 5479   4.104   3.005  15.619 -0.0581  0.7095 -0.3560
  366MPD2     H 5480   4.276   3.295  15.449  1.0947 -0.4966  0.1027
  366MPD2    H1 5481   4.258   2.878  15.558  0.7922  0.1893  2.9874
  366MPD2    H2 5482   3.949   3.130  15.671  0.7467 -0.4991  1.7562
  366MPD2    H3 5483   4.059   2.917  15.664  0.6191  2.1844  3.2510
  366MPD2     N 5484   4.397   3.067  15.405 -0.4832  0.5242 -0.3771
  366MPD2    H5 5485   4.425   3.149  15.353  1.2460  0.5248  0.5539
  366MPD2    N1 5486   4.043   3.356  15.547  0.2612 -0.4461  0.4108
  366MPD2    H7 5487   4.096   3.436  15.516 -2.3064  0.4144 -1.7953
  367TMC3    C1 5488   3.893   3.526  15.601  0.0406 -0.3054 -0.2161
  367TMC3    C2 5489   3.988   3.585  15.680 -0.4513 -0.5762  0.1329
  367TMC3    C3 5490   4.007   3.718  15.681  0.6409 -0.1875  0.4503
  367TMC3    C4 5491   3.807   3.601  15.522 -0.7780  0.5548 -0.1074
  367TMC3    C5 5492   3.838   3.737  15.511 -0.3101  1.0115  0.6268
  367TMC3    C6 5493   3.925   3.798  15.592 -0.2902 -0.0963 -0.3507
  367TMC3     C 5494   3.912   3.385  15.575 -0.1249  0.0138  0.2370
  367TMC3     O 5495   3.821   3.314  15.613  0.0050  0.3137  0.3965
  367TMC3     H 5496   4.057   3.522  15.734 -1.1246 -0.6038  0.9707
  367TMC3    H1 5497   3.739   3.544  15.461 -0.1133  1.0322 -1.2935
  367TMC3    H2 5498   3.941   3.904  15.577 -1.2317 -0.2995 -2.8382
  367TMC3    C7 5499   3.758   3.826  15.426 -0.7415  0.5440 -0.5126
  367TMC3    C8 5500   4.138   3.764  15.725  0.4452 -0.1394 -0.1167
  367TMC3    O1 5501   3.799   3.942  15.402 -0.0099  0.2015  0.2948
  367TMC3    O2 5502   4.210   3.681  15.779 -0.1103 -0.2329 -0.0251
  368MPD2     C 5503   0.440   0.817  12.920 -0.3405  0.4972 -0.1242
  368MPD2    C1 5504   0.414   0.952  12.887  0.3752 -0.0568  1.6071
  368MPD2    C2 5505   0.524   1.037  12.879 -0.1602  0.4738 -0.0623
  368MPD2    C3 5506   0.660   0.989  12.897  0.4865  0.5482  0.2477
  368MPD2    C4 5507   0.673   0.861  12.941 -1.0096  0.2538 -0.5678
  368MPD2    C5 5508   0.568   0.769  12.938 -0.1313  0.5654  0.2866
  368MPD2     H 5509   0.510   1.143  12.867  0.9348  0.5170 -1.0041
  368MPD2    H1 5510   0.771   0.816  12.955 -0.5049  0.9675 -1.8213
  368MPD2    H2 5511   0.356   0.750  12.932  0.8364 -1.1888 -1.3096
  368MPD2    H3 5512   0.598   0.670  12.970  0.2147  0.3308 -0.7659
  368MPD2     N 5513   0.770   1.074  12.874  0.5718  0.2114  0.2166
  368MPD2    H5 5514   0.860   1.039  12.907  1.0870  1.3579  0.0345
  368MPD2    N1 5515   0.284   0.994  12.849  0.1693 -0.1826 -0.7687
  368MPD2    H7 5516   0.206   0.930  12.851 -0.2561  0.3633  0.3348
  369TMC3    C1 5517   0.121   1.101  12.731 -0.4367 -0.3227  0.6148
  369TMC3    C2 5518   0.108   1.158  12.608 -0.2894 -0.3320 -0.3331
  369TMC3    C3 5519   0.014   1.119  12.515 -0.0805 -0.4872  0.2920
  369TMC3    C4 5520   0.028   1.006  12.772  0.3822  0.0106 -0.0610
  369TMC3    C5 5521   4.654   0.976  12.685 -0.0764  0.4752  0.1886
  369TMC3    C6 5522   4.649   1.029  12.559 -0.4513  0.1377 -0.4810
  369TMC3     C 5523   0.251   1.107  12.785 -0.0549 -0.3873  0.2441
  369TMC3     O 5524   0.317   1.199  12.755  0.2955 -0.6454  0.2835
  369TMC3     H 5525   0.173   1.239  12.579  1.6763 -1.6541  0.4197
  369TMC3    H1 5526   0.035   0.960  12.870 -1.6255 -0.9288 -0.3549
  369TMC3    H2 5527   4.565   1.004  12.496 -0.5999 -1.8618  0.5202
  369TMC3    C7 5528   4.546   0.896  12.737 -0.3708  0.3516  0.0070
  369TMC3    C8 5529   0.029   1.163  12.377 -0.0168  0.6428 -0.2998
  369TMC3    O1 5530   4.567   0.858  12.853  0.4243  0.3851  0.8009
  369TMC3    O2 5531   4.658   1.140  12.307 -0.0844  0.1178 -0.2469
  370TMC3    C1 5532   0.487   1.368  16.261  0.3187  0.1595  0.5198
  370TMC3    C2 5533   0.421   1.302  16.370 -0.0501  0.3818 -0.9876
  370TMC3    C3 5534   0.319   1.220  16.333 -0.4789  0.2616  0.5801
  370TMC3    C4 5535   0.445   1.350  16.135 -0.0663 -0.1739  0.5133
  370TMC3    C5 5536   0.335   1.269  16.105 -0.2416  0.1335 -0.1570
  370TMC3    C6 5537   0.278   1.203  16.204  0.3165 -0.1332 -0.7672
  370TMC3     C 5538   0.599   1.454  16.290  0.0362 -0.2023 -0.3546
  370TMC3     O 5539   0.630   1.446  16.403  0.6163 -0.0563 -0.8923
  370TMC3     H 5540   0.482   1.293  16.459 -0.7174  1.4713 -0.4257
  370TMC3    H1 5541   0.504   1.375  16.048  0.6875  0.0609  1.0941
  370TMC3    H2 5542   0.200   1.131  16.183 -1.0794  0.8403  1.0868
  370TMC3    C7 5543   0.337   1.206  15.977 -0.1380  0.2865 -0.3221
  370TMC3    C8 5544   0.258   1.141  16.434  0.4349 -0.4864 -0.2179
  370TMC3    O1 5545   0.287   1.270  15.891 -0.5368 -0.6044  0.0318
  370TMC3    O2 5546   0.187   1.050  16.392 -0.3028  0.5322  0.2397
  371TMC3    C1 5547   0.941   3.847  15.743 -0.0922  0.6606 -0.4547
  371TMC3    C2 5548   0.863   3.922  15.824  1.1234 -0.9820 -0.3029
  371TMC3    C3 5549   0.877   4.058  15.822  0.8833 -0.3749  0.4966
  371TMC3    C4 5550   1.025   3.905  15.651  0.1062  0.9289 -0.5989
  371TMC3    C5 5551   1.037   4.044  15.644  0.2434 -0.0533  0.8997
  371TMC3    C6 5552   0.970   4.112  15.739 -0.1764 -0.4347 -0.1797
  371TMC3     C 5553   0.952   3.696  15.750 -0.2684 -0.2306  0.1926
  371TMC3     O 5554   1.022   3.633  15.674  0.1516 -0.1860 -0.2112
  371TMC3     H 5555   0.793   3.885  15.898  0.7484 -0.8929 -0.6120
  371TMC3    H1 5556   1.091   3.845  15.590  1.1026  1.8151 -0.4050
  371TMC3    H2 5557   0.966   4.221  15.735 -1.1635 -0.4015  1.5521
  371TMC3    C7 5558   1.118   4.109  15.549 -0.1733 -0.3531 -0.2464
  371TMC3    C8 5559   0.752   4.131  15.835 -0.6821 -0.4934  0.0491
  371TMC3    O1 5560   1.125   4.230  15.558  0.4354 -0.8536  0.0010
  371TMC3    O2 5561   0.649   4.066  15.842  0.6964 -0.3675  0.3454
  372MPD2     C 5562   1.303   0.538  14.308 -0.1232  0.1812  0.2666
  372MPD2    C1 5563   1.330   0.469  14.192 -0.4320  0.0487  0.2726
  372MPD2    C2 5564   1.229   0.411  14.119 -0.1156 -1.0192 -0.5781
  372MPD2    C3 5565   1.094   0.417  14.164 -0.6201 -0.4763 -0.2427
  372MPD2    C4 5566   1.066   0.481  14.288  0.0171  0.8332  0.1184
  372MPD2    C5 5567   1.174   0.539  14.358 -0.8491 -0.0518 -0.0325
  372MPD2     H 5568   1.253   0.369  14.022  2.1381 -2.0586  0.4342
  372MPD2    H1 5569   0.966   0.486  14.330  0.4220 -0.3810  1.2413
  372MPD2    H2 5570   1.379   0.601  14.353  0.7348  0.1111 -1.0570
  372MPD2    H3 5571   1.162   0.591  14.453 -2.4853 -1.3935  0.4937
  372MPD2     N 5572   0.998   0.364  14.076 -0.0140 -0.3559  0.5015
  372MPD2    H5 5573   1.045   0.318  13.999 -0.6929  1.0264 -0.7348
  372MPD2    N1 5574   1.463   0.450  14.141  0.4698 -0.2073  0.4582
  372MPD2    H7 5575   1.471   0.386  14.062  1.4857  1.2619 -0.6527
  373TMC3    C1 5576   0.794   0.323  13.972  0.0092  0.4527  0.4889
  373TMC3    C2 5577   0.682   0.260  14.021  0.2838 -0.5056  0.1322
  373TMC3    C3 5578   0.633   0.144  13.966  0.5731  0.3319  0.1411
  373TMC3    C4 5579   0.868   0.263  13.871  0.2262  0.5053  0.4823
  373TMC3    C5 5580   0.818   0.153  13.809  0.0430 -0.0970 -0.2304
  373TMC3    C6 5581   0.697   0.096  13.851  0.4369 -0.2944 -0.8429
  373TMC3     C 5582   0.865   0.383  14.087 -0.1803 -0.5415  0.7605
  373TMC3     O 5583   0.801   0.437  14.176 -0.1950 -0.1932 -0.3581
  373TMC3     H 5584   0.637   0.299  14.111  0.9359 -0.4195  0.4181
  373TMC3    H1 5585   0.969   0.284  13.838  0.4430  1.2097  1.6029
  373TMC3    H2 5586   0.664   0.012  13.790  2.6932  0.1282 -2.6607
  373TMC3    C7 5587   0.920   0.054  13.800  0.2157 -0.2257 -0.3115
  373TMC3    C8 5588   0.624   0.043  14.071  0.2012  0.2065  0.8467
  373TMC3    O1 5589   1.031   0.087  13.760 -0.2311 -0.0632 -0.8570
  373TMC3    O2 5590   0.670   4.661  14.048  0.5933 -0.2508  0.0173
  374TMC3    C1 5591   1.145   0.712  10.118 -0.4834  0.2280 -0.0185
  374TMC3    C2 5592   1.268   0.770  10.139 -0.0096  0.5805 -0.0168
  374TMC3    C3 5593   1.315   0.843  10.031 -0.6441 -0.2709 -0.5800
  374TMC3    C4 5594   1.068   0.726  10.009 -0.1778  0.0448 -0.1195
  374TMC3    C5 5595   1.120   0.790   9.898 -0.4058  0.6829  0.4714
  374TMC3    C6 5596   1.238   0.854   9.912  0.1223  0.1749  0.0963
  374TMC3     C 5597   1.088   0.668  10.244 -0.1470  0.0041 -0.3552
  374TMC3     O 5598   1.171   0.644  10.334 -0.3387  0.0340  0.1925
  374TMC3     H 5599   1.317   0.768  10.235 -0.8925  0.8639  0.4385
  374TMC3    H1 5600   0.987   0.657   9.988 -0.1906  0.8351 -2.6790
  374TMC3    H2 5601   1.266   0.928   9.838 -1.0326  1.5715  1.0278
  374TMC3    C7 5602   1.043   0.822   9.781 -0.4093  0.1994 -0.4406
  374TMC3    C8 5603   1.448   0.902  10.029  0.0635 -0.1929 -0.8375
  374TMC3    O1 5604   1.108   0.862   9.686  0.6394 -0.4280 -0.0040
  374TMC3    O2 5605   1.464   0.988   9.940 -0.1330 -0.1318  0.0162
  375MPD2     C 5606   1.814   2.032  16.543  0.1790  0.3402 -0.5300
  375MPD2    C1 5607   1.702   1.952  16.535  0.8451 -0.2153 -0.0123
  375MPD2    C2 5608   1.709   1.837  16.449  0.4492  0.1929 -0.1682
  375MPD2    C3 5609   1.823   1.802  16.378  1.0179  0.3066 -0.8244
  375MPD2    C4 5610   1.939   1.876  16.401 -0.3758 -0.4891  0.3633
  375MPD2    C5 5611   1.932   1.982  16.486  0.5768 -0.6746 -0.4498
  375MPD2     H 5612   1.627   1.767  16.456  3.0706 -2.7144  1.4098
  375MPD2    H1 5613   2.032   1.852  16.352 -0.8846 -0.8502 -0.4232
  375MPD2    H2 5614   1.825   2.122  16.603  4.6166 -0.6995  0.2071
  375MPD2    H3 5615   2.019   2.043  16.504 -0.2206  0.0999  0.8337
  375MPD2     N 5616   1.841   1.682  16.305  0.7060 -0.0013 -0.0148
  375MPD2    H5 5617   1.937   1.650  16.297  0.8990  0.3244  0.9155
  375MPD2    N1 5618   1.598   1.953  16.628 -0.0790  0.2510  0.2378
  375MPD2    H7 5619   1.532   1.876  16.620 -0.7273  1.0196 -2.1027
  376TMC3    C1 5620   1.787   1.497  16.180 -0.4154 -0.0055 -0.1559
  376TMC3    C2 5621   1.894   1.428  16.233  0.4159  0.9758 -0.0503
  376TMC3    C3 5622   1.910   1.306  16.188  0.5841  0.6297 -0.7359
  376TMC3    C4 5623   1.718   1.457  16.072  0.1402 -0.5725  1.3251
  376TMC3    C5 5624   1.737   1.331  16.024  0.5800 -0.2067 -0.1889
  376TMC3    C6 5625   1.841   1.259  16.083 -0.0126  0.2497 -0.0343
  376TMC3     C 5626   1.736   1.616  16.245 -0.9657 -0.5156 -0.3194
  376TMC3     O 5627   1.624   1.653  16.229  0.1828  0.1224  0.2657
  376TMC3     H 5628   1.932   1.455  16.331  1.0899 -0.3869  0.0544
  376TMC3    H1 5629   1.644   1.526  16.034  0.8017 -0.8087 -0.4254
  376TMC3    H2 5630   1.865   1.164  16.035 -2.3285 -0.6523  0.5820
  376TMC3    C7 5631   1.741   1.318  15.877  0.3942  0.2067 -0.5786
  376TMC3    C8 5632   2.046   1.245  16.205 -0.4566  0.3506  0.1752
  376TMC3    O1 5633   1.756   1.423  15.810 -0.3404 -0.6829 -0.1327
  376TMC3    O2 5634   2.069   1.131  16.168 -0.8852 -0.0470  0.4856
  377MPD2     C 5635   3.841   0.786  12.129 -0.5680 -0.4504  0.2317
  377MPD2    C1 5636   3.930   0.713  12.202 -0.3596  0.4322 -0.4994
  377MPD2    C2 5637   3.885   0.665  12.323 -0.1162  0.6731  0.1703
  377MPD2    C3 5638   3.759   0.695  12.370 -0.1071  0.0599  0.8351
  377MPD2    C4 5639   3.673   0.769  12.289 -0.1206  0.1723  0.0080
  377MPD2    C5 5640   3.712   0.812  12.163  0.2047  0.2347  0.3460
  377MPD2     H 5641   3.954   0.622  12.395 -0.5550  2.7769  1.8577
  377MPD2    H1 5642   3.570   0.794  12.309 -0.3524 -1.9868  1.5319
  377MPD2    H2 5643   3.858   0.831  12.032  1.0475 -0.9173  0.3057
  377MPD2    H3 5644   3.656   0.879  12.098 -1.7186  0.2265  1.9783
  377MPD2     N 5645   3.717   0.666  12.506 -0.0835 -0.4400 -0.2338
  377MPD2    H5 5646   3.643   0.725  12.543  0.6280 -0.0422  0.5487
  377MPD2    N1 5647   4.062   0.710  12.157 -0.1298 -0.1131  0.4600
  377MPD2    H7 5648   4.086   0.768  12.078  3.7178 -1.8432  0.3508
  378TMC3    C1 5649   4.404   0.675  11.947  0.5497  0.4734 -0.1693
  378TMC3    C2 5650   4.285   0.662  12.004 -0.0073 -0.0144 -0.6314
  378TMC3    C3 5651   4.285   0.651  12.141 -0.5936 -0.3581  0.7190
  378TMC3    C4 5652   4.520   0.694  12.021  0.2775 -0.0519 -0.3700
  378TMC3    C5 5653   4.513   0.682  12.154  0.1540  0.1175  0.9278
  378TMC3    C6 5654   4.395   0.658  12.223  0.5042 -0.0628 -0.2726
  378TMC3     C 5655   4.422   0.628  11.808  0.0362  0.1437 -0.1577
  378TMC3     O 5656   4.332   0.650  11.727 -0.2721  0.4769 -0.3308
  378TMC3     H 5657   4.198   0.661  11.938 -1.8237  1.2708  1.7294
  378TMC3    H1 5658   4.613   0.720  11.972  0.9795  1.8218  1.9540
  378TMC3    H2 5659   4.400   0.655  12.331 -2.3869 -1.3311 -0.1548
  378TMC3    C7 5660   4.617   0.745  12.233 -1.0736  0.1289  0.2370
  378TMC3    C8 5661   4.164   0.647  12.219 -0.6021  0.1270  0.5348
  378TMC3    O1 5662   4.581   0.783  12.344  0.1000 -0.1202  0.3128
  378TMC3    O2 5663   4.167   0.583  12.324 -0.8370  0.3821  0.1778
  379MPD2     C 5664   0.704   3.827  16.138 -0.5270  0.1984 -0.2713
  379MPD2    C1 5665   0.638   3.725  16.200  0.1131 -0.3094 -0.0236
  379MPD2    C2 5666   0.685   3.650  16.305  0.4556 -0.1657  0.3012
  379MPD2    C3 5667   0.807   3.683  16.363  0.2984 -0.5432 -0.5184
  379MPD2    C4 5668   0.878   3.780  16.293  0.3666 -0.0006  0.2872
  379MPD2    C5 5669   0.827   3.852  16.188 -0.3654  0.2756  0.3250
  379MPD2     H 5670   0.620   3.574  16.347  0.7025 -0.5194  0.0424
  379MPD2    H1 5671   0.978   3.812  16.321  0.4376  0.2805 -0.3001
  379MPD2    H2 5672   0.654   3.894  16.070 -0.6912  2.5143  2.1328
  379MPD2    H3 5673   0.890   3.932  16.152 -0.1656 -0.0618 -0.0621
  379MPD2     N 5674   0.859   3.621  16.479  0.4673 -0.3446  0.0521
  379MPD2    H5 5675   0.952   3.648  16.509 -1.0917  3.2046  1.6782
  379MPD2    N1 5676   0.509   3.694  16.154 -0.5174  0.0446 -0.1723
  379MPD2    H7 5677   0.477   3.606  16.193 -0.0039 -0.5414 -1.0776
  380TMC3    C1 5678   0.299   3.728  16.044  0.2183 -0.4655  0.5344
  380TMC3    C2 5679   0.306   3.616  15.963 -0.1595  0.0629  0.6022
  380TMC3    C3 5680   0.220   3.603  15.858  0.5178 -0.0580  0.0071
  380TMC3    C4 5681   0.204   3.820  16.021  0.8018 -0.2470 -0.0760
  380TMC3    C5 5682   0.115   3.802  15.913 -0.1683 -0.1530 -0.2641
  380TMC3    C6 5683   0.113   3.688  15.843  0.1967  0.5748  0.0820
  380TMC3     C 5684   0.424   3.785  16.099 -0.1197  0.2086 -0.0389
  380TMC3     O 5685   0.421   3.905  16.129  0.2672 -0.3893  0.3072
  380TMC3     H 5686   0.402   3.564  15.960 -0.0390  0.2987  0.3615
  380TMC3    H1 5687   0.185   3.909  16.079 -0.6364  0.9322 -2.3713
  380TMC3    H2 5688   0.062   3.676  15.748  2.1236 -1.2043 -0.7431
  380TMC3    C7 5689   0.032   3.912  15.867  0.4660 -0.2860 -0.0707
  380TMC3    C8 5690   0.287   3.579  15.730 -0.1678 -0.3005 -1.1416
  380TMC3    O1 5691   0.061   4.021  15.913 -0.1680  0.0997  0.6735
  380TMC3    O2 5692   0.262   3.653  15.637 -0.1045 -0.1041 -0.6857
  381TMC3    C1 5693   0.254   0.617  16.087 -0.7429  0.2690 -0.4944
  381TMC3    C2 5694   0.374   0.628  16.152 -0.1294 -0.1788 -0.0917
  381TMC3    C3 5695   0.384   0.691  16.269  0.2121  0.5485  0.0642
  381TMC3    C4 5696   0.145   0.676  16.140 -1.1269  0.1318  0.4227
  381TMC3    C5 5697   0.153   0.742  16.250  0.3229 -0.3121 -0.2400
  381TMC3    C6 5698   0.272   0.752  16.314 -0.0748 -0.4444  0.0556
  381TMC3     C 5699   0.247   0.517  15.987 -0.1217 -0.3890  0.2335
  381TMC3     O 5700   0.347   0.449  15.967  0.0808  0.4079  0.1271
  381TMC3     H 5701   0.463   0.575  16.121 -0.2947  0.7235 -2.1157
  381TMC3    H1 5702   0.045   0.665  16.099 -1.2547 -2.3077  1.3956
  381TMC3    H2 5703   0.264   0.806  16.408  1.1385 -1.2073  0.6051
  381TMC3    C7 5704   0.044   0.713  16.343  0.1741  0.3570 -0.1415
  381TMC3    C8 5705   0.488   0.780  16.277 -0.0240  0.1528 -0.2566
  381TMC3    O1 5706   4.703   0.609  16.328  0.0249  0.6805 -0.0449
  381TMC3    O2 5707   0.568   0.784  16.186 -0.2439  0.1257  0.2673
  382MPD2     C 5708   4.286   2.967  17.518  0.6097 -0.4135 -0.0934
  382MPD2    C1 5709   4.166   3.025  17.543 -0.7225 -0.3559  0.3480
  382MPD2    C2 5710   4.066   2.938  17.588  0.5288  0.0776  0.3642
  382MPD2    C3 5711   4.085   2.800  17.596 -0.2462 -0.2521  0.7151
  382MPD2    C4 5712   4.208   2.753  17.562 -0.3474 -0.2245  0.3432
  382MPD2    C5 5713   4.305   2.839  17.536 -0.0323  0.7968 -0.2852
  382MPD2     H 5714   3.969   2.982  17.606  0.5465  0.3792 -0.2943
  382MPD2    H1 5715   4.235   2.650  17.579  2.3686  0.3626 -0.4015
  382MPD2    H2 5716   4.371   3.032  17.501  1.0258 -0.4125  2.0590
  382MPD2    H3 5717   4.406   2.798  17.535  0.4931  2.1725 -3.1160
  382MPD2     N 5718   3.988   2.701  17.628  0.0064  0.4720  0.1226
  382MPD2    H5 5719   4.013   2.604  17.641 -1.8292 -0.2585 -1.6986
  382MPD2    N1 5720   4.138   3.165  17.537  0.0709  0.0824  0.1000
  382MPD2    H7 5721   4.052   3.200  17.577 -1.2785 -1.3278 -1.5716
  383TMC3    C1 5722   3.780   2.605  17.697 -1.2344  0.3579 -0.3778
  383TMC3    C2 5723   3.790   2.493  17.617 -0.4901 -0.2306 -0.0594
  383TMC3    C3 5724   3.698   2.393  17.632  0.3455 -0.6149  0.6003
  383TMC3    C4 5725   3.685   2.611   0.083 -0.5412 -0.3140  0.0659
  383TMC3    C5 5726   3.598   2.507   0.100  0.0997 -0.1587 -0.2945
  383TMC3    C6 5727   3.604   2.394   0.021 -0.0173  0.0305  0.2314
  383TMC3     C 5728   3.860   2.728  17.666 -0.6206 -0.1695 -0.4821
  383TMC3     O 5729   3.820   2.836  17.706  0.0152  0.3812 -0.2462
  383TMC3     H 5730   3.863   2.491  17.537  0.1291  1.2401  0.4638
  383TMC3    H1 5731   3.685   2.701   0.143  1.8729  0.7961 -1.6064
  383TMC3    H2 5732   3.524   2.321   0.023  1.3149 -1.4913 -1.9360
  383TMC3    C7 5733   3.499   2.513   0.203 -0.0431 -0.2904 -0.5082
  383TMC3    C8 5734   3.662   2.301  17.511  0.3872  0.2864  0.4699
  383TMC3    O1 5735   3.480   2.626   0.250 -0.1760 -0.3151  0.0073
  383TMC3    O2 5736   3.543   2.260  17.511 -0.2498  0.0314 -0.2021
  384MPD2     C 5737   0.838   3.364  11.803  0.8373  0.6200  0.8812
  384MPD2    C1 5738   0.864   3.341  11.939 -0.0518  1.1358  0.2527
  384MPD2    C2 5739   0.873   3.207  11.980  0.6659  0.7540  0.5813
  384MPD2    C3 5740   0.855   3.106  11.894  0.8273  0.0379 -0.2863
  384MPD2    C4 5741   0.819   3.129  11.762  0.1179 -0.3124  0.1573
  384MPD2    C5 5742   0.806   3.256  11.719 -0.3450  0.3042 -0.1543
  384MPD2     H 5743   0.903   3.198  12.083 -1.7975 -0.0141  1.2292
  384MPD2    H1 5744   0.796   3.059  11.683 -1.0763  0.0132  0.2139
  384MPD2    H2 5745   0.825   3.462  11.759 -2.3740  0.2011  0.8711
  384MPD2    H3 5746   0.777   3.270  11.616  2.5752  0.6121 -0.9365
  384MPD2     N 5747   0.874   2.982  11.952 -1.0665  0.4982 -0.3082
  384MPD2    H5 5748   0.888   2.984  12.053 -1.8320  1.4969 -0.2258
  384MPD2    N1 5749   0.892   3.445  12.033 -0.3339 -0.0179 -0.2334
  384MPD2    H7 5750   0.929   3.413  12.122 -1.8286 -1.0040  0.0391
  385TMC3    C1 5751   0.918   2.773  11.981  0.3340 -0.2125  0.1680
  385TMC3    C2 5752   1.014   2.687  11.944  0.8292 -0.3178  0.3306
  385TMC3    C3 5753   1.113   2.666  12.035 -0.0170  0.0989  0.1062
  385TMC3    C4 5754   0.911   2.815  12.112  0.9829 -0.6578 -0.6916
  385TMC3    C5 5755   1.009   2.792  12.202 -0.0003  0.3971  0.3036
  385TMC3    C6 5756   1.125   2.730  12.156  0.0627 -0.0920 -0.0954
  385TMC3     C 5757   0.864   2.863  11.884  0.6609  0.3113  0.2606
  385TMC3     O 5758   0.854   2.828  11.763  0.0055 -0.9866  0.3766
  385TMC3     H 5759   1.005   2.640  11.847 -3.3880 -2.1311  1.6021
  385TMC3    H1 5760   0.818   2.853  12.153  1.4685 -0.6211  0.3877
  385TMC3    H2 5761   1.211   2.710  12.220 -2.5140 -2.8397  2.5064
  385TMC3    C7 5762   1.024   2.908  12.291 -0.4153  0.1825 -0.4740
  385TMC3    C8 5763   1.177   2.531  12.039 -0.0067 -0.2288  0.2384
  385TMC3    O1 5764   0.946   3.000  12.278 -0.1643 -0.4432  0.0750
  385TMC3    O2 5765   1.212   2.494  12.155 -0.2812  0.3359 -0.1137
  386TMC3    C1 5766   0.994   0.613  11.419 -0.7900  0.5329 -0.1289
  386TMC3    C2 5767   1.044   0.551  11.309 -0.5700 -0.0174  0.3925
  386TMC3    C3 5768   0.956   0.480  11.233 -0.2253 -0.5610  0.2718
  386TMC3    C4 5769   0.862   0.605  11.457 -0.0953  0.5017  0.0820
  386TMC3    C5 5770   0.780   0.520  11.389 -0.0940 -0.7412  0.4772
  386TMC3    C6 5771   0.825   0.461  11.273 -0.1696 -0.8177 -0.1629
  386TMC3     C 5772   1.089   0.621  11.529 -0.5495  0.9964  0.2735
  386TMC3     O 5773   1.069   0.719  11.597 -0.2254  0.1598 -0.3789
  386TMC3     H 5774   1.147   0.574  11.285 -0.1938 -3.6225 -1.4293
  386TMC3    H1 5775   0.837   0.664  11.544 -1.6988  0.1265 -0.1193
  386TMC3    H2 5776   0.766   0.386  11.222 -0.3536 -1.4268  0.9560
  386TMC3    C7 5777   0.644   0.562  11.376 -0.0221 -0.4220 -0.1355
  386TMC3    C8 5778   0.966   0.507  11.089  0.0913 -0.8360  0.9051
  386TMC3    O1 5779   0.593   0.595  11.482  0.1270  0.5910 -0.2532
  386TMC3    O2 5780   0.862   0.519  11.026 -0.3691 -0.0643 -0.1359
  387MPD2     C 5781   3.135   1.096   9.375  0.3193  0.4273 -0.1224
  387MPD2    C1 5782   3.231   1.105   9.471  0.2470  0.1921 -0.1155
  387MPD2    C2 5783   3.338   1.017   9.470  0.6930 -0.0223 -0.2136
  387MPD2    C3 5784   3.354   0.921   9.372  0.7043 -0.5540  0.3273
  387MPD2    C4 5785   3.258   0.922   9.263  0.3425  0.7764  0.5870
  387MPD2    C5 5786   3.151   1.009   9.271 -0.4262  0.1037  0.6729
  387MPD2     H 5787   3.413   1.021   9.549 -0.4825  0.1755  0.8937
  387MPD2    H1 5788   3.275   0.873   9.168 -2.5979 -1.3491  1.1588
  387MPD2    H2 5789   3.056   1.170   9.377 -0.7845 -0.7553 -0.0642
  387MPD2    H3 5790   3.079   1.002   9.190 -0.4375  0.9117  0.6124
  387MPD2     N 5791   3.468   0.829   9.382  0.1016  0.9377  1.0106
  387MPD2    H5 5792   3.520   0.844   9.468  0.7972 -0.4900  0.8437
  387MPD2    N1 5793   3.218   1.175   9.589 -1.1288 -0.6016  0.3437
  387MPD2    H7 5794   3.296   1.160   9.651 -1.8119  0.4458  1.4481
  388TMC3    C1 5795   3.126   1.294   9.770  1.1379  0.0889  0.1197
  388TMC3    C2 5796   3.098   1.421   9.808 -0.0989  0.1915 -0.1262
  388TMC3    C3 5797   3.144   1.460   9.930 -0.0926  0.2105  0.1440
  388TMC3    C4 5798   3.199   1.204   9.846 -0.0158  0.2394  0.0886
  388TMC3    C5 5799   3.262   1.261   9.961 -0.9460 -0.8060 -0.3062
  388TMC3    C6 5800   3.230   1.385  10.010  0.3417  0.5647 -0.5251
  388TMC3     C 5801   3.121   1.260   9.627 -0.7441 -1.0890  0.1702
  388TMC3     O 5802   3.038   1.317   9.561 -0.0080  0.1534  0.3392
  388TMC3     H 5803   3.028   1.484   9.754  0.5608  1.1658  0.1626
  388TMC3    H1 5804   3.219   1.101   9.819  0.3019  0.3105  0.0591
  388TMC3    H2 5805   3.278   1.439  10.091 -1.0403  0.8962  0.0789
  388TMC3    C7 5806   3.371   1.191  10.024 -0.1100  0.1672  0.5161
  388TMC3    C8 5807   3.078   1.582   9.986 -0.0923  0.2643 -0.3368
  388TMC3    O1 5808   3.404   1.212  10.139 -0.1306 -0.6704  0.5878
  388TMC3    O2 5809   2.985   1.623   9.920 -0.0744 -0.6050  0.3095
  389MPD2     C 5810   2.692   4.340  11.577 -0.4254 -0.2124  0.0067
  389MPD2    C1 5811   2.667   4.232  11.498 -0.0309  0.3460  0.0153
  389MPD2    C2 5812   2.579   4.126  11.544 -0.4948  0.7646  0.2456
  389MPD2    C3 5813   2.515   4.143  11.664  0.0335  0.1561 -1.0806
  389MPD2    C4 5814   2.520   4.258  11.726 -0.4253  0.9481 -0.1847
  389MPD2    C5 5815   2.621   4.350  11.691 -0.3646 -0.0716  0.3402
  389MPD2     H 5816   2.557   4.037  11.486 -0.3966  0.8345  0.0997
  389MPD2    H1 5817   2.470   4.277  11.820  1.7032  2.9966  0.5520
  389MPD2    H2 5818   2.765   4.415  11.548 -0.5722  0.0610  0.3450
  389MPD2    H3 5819   2.629   4.439  11.752  0.0217  1.0803 -1.4274
  389MPD2     N 5820   2.427   4.045  11.710  0.3754  0.0641  0.1838
  389MPD2    H5 5821   2.377   4.076  11.793  0.3129 -0.7107  0.4407
  389MPD2    N1 5822   2.727   4.226  11.371  0.1875  0.4364  0.2881
  389MPD2    H7 5823   2.780   4.307  11.341  0.6091 -0.3597 -1.0606
  390TMC3    C1 5824   2.283   3.867  11.733  0.0970 -1.0305 -0.0977
  390TMC3    C2 5825   2.276   3.733  11.732  0.4762 -0.3262  0.0484
  390TMC3    C3 5826   2.216   3.677  11.842 -0.5075 -0.1610 -0.0756
  390TMC3    C4 5827   2.226   3.953  11.825  0.3677  0.9007  0.0735
  390TMC3    C5 5828   2.163   3.889  11.927 -0.0845 -0.1472  0.0318
  390TMC3    C6 5829   2.157   3.757  11.933 -0.2123  0.1139  0.0055
  390TMC3     C 5830   2.400   3.920  11.669  0.0233 -0.0035 -0.5819
  390TMC3     O 5831   2.449   3.844  11.579  0.7236 -0.0001  0.0158
  390TMC3     H 5832   2.309   3.669  11.651 -1.4653 -0.7537 -0.4099
  390TMC3    H1 5833   2.197   4.056  11.808  1.2917  1.5898  2.5958
  390TMC3    H2 5834   2.096   3.709  12.009 -0.1831  1.0117  0.5908
  390TMC3    C7 5835   2.053   3.965  11.990  0.5443 -0.3069  0.1732
  390TMC3    C8 5836   2.168   3.540  11.816 -0.0302 -0.0899 -0.0587
  390TMC3    O1 5837   2.097   4.073  12.026 -0.2555  0.0422  0.3249
  390TMC3    O2 5838   2.163   3.497  11.702  0.1860  0.2250 -0.2423
  391MPD2     C 5839   2.055   0.833  11.466 -0.0495 -0.3024  0.0183
  391MPD2    C1 5840   2.183   0.822  11.413  0.4488  0.6814  0.0614
  391MPD2    C2 5841   2.198   0.806  11.278 -0.3294 -0.2750 -0.9210
  391MPD2    C3 5842   2.090   0.785  11.197 -0.1020 -0.2666  0.3335
  391MPD2    C4 5843   1.963   0.782  11.248 -0.3147 -0.3454  0.1005
  391MPD2    C5 5844   1.950   0.813  11.380 -0.3080 -0.1076  0.1784
  391MPD2     H 5845   2.292   0.816  11.224  0.7720  0.0380  1.0448
  391MPD2    H1 5846   1.870   0.770  11.194 -0.8340  0.7855  0.7363
  391MPD2    H2 5847   2.039   0.841  11.573  0.7488  1.2961  0.0091
  391MPD2    H3 5848   1.851   0.819  11.424 -0.2471  0.1202  0.2842
  391MPD2     N 5849   2.112   0.765  11.056  0.2117 -0.0286 -0.0975
  391MPD2    H5 5850   2.209   0.758  11.028  0.7289  1.7505  1.2184
  391MPD2    N1 5851   2.290   0.844  11.496 -0.1305 -0.6489  0.0016
  391MPD2    H7 5852   2.277   0.883  11.589  0.4538  0.9666 -0.5934
  392TMC3    C1 5853   2.062   0.796  10.836 -0.9434  0.5555 -0.7658
  392TMC3    C2 5854   1.980   0.795  10.729  0.2489 -0.2370  0.5792
  392TMC3    C3 5855   2.026   0.829  10.601  1.1152  0.4043 -0.3752
  392TMC3    C4 5856   2.192   0.853  10.817  0.3410 -1.0059  0.3971
  392TMC3    C5 5857   2.241   0.863  10.690  0.2562 -1.2270  0.6965
  392TMC3    C6 5858   2.157   0.864  10.581 -0.1262  0.3373 -0.7708
  392TMC3     C 5859   2.013   0.754  10.959  0.3566 -0.1666  0.3293
  392TMC3     O 5860   1.891   0.732  10.975  0.4892 -0.1324 -0.1595
  392TMC3     H 5861   1.882   0.752  10.744  0.5239 -1.3104 -0.7773
  392TMC3    H1 5862   2.262   0.851  10.899 -1.4255  0.0330  1.9222
  392TMC3    H2 5863   2.179   0.887  10.477  0.1696 -0.1266 -0.8088
  392TMC3    C7 5864   2.370   0.930  10.677 -0.5190  0.0174  0.4636
  392TMC3    C8 5865   1.925   0.815  10.494 -0.2271 -0.2390 -0.3558
  392TMC3    O1 5866   2.419   0.966  10.782 -0.8172  0.0953  0.3008
  392TMC3    O2 5867   1.825   0.753  10.518  0.4414 -0.8565 -0.0969
  393TMC3    C1 5868   1.092   3.032  10.533  0.5754  0.2963 -0.5761
  393TMC3    C2 5869   0.990   2.949  10.571  0.1311  0.0896  0.5214
  393TMC3    C3 5870   1.021   2.815  10.560 -0.7118 -0.2939  0.4662
  393TMC3    C4 5871   1.211   3.000  10.475 -0.1140  0.0659 -0.1779
  393TMC3    C5 5872   1.221   2.864  10.448  0.0631  0.0741 -0.0345
  393TMC3    C6 5873   1.126   2.770  10.484 -0.3354  0.6547 -0.7667
  393TMC3     C 5874   1.075   3.168  10.571 -0.2103  0.5650  0.0909
  393TMC3     O 5875   0.957   3.207  10.568  0.3474  0.4755  0.3126
  393TMC3     H 5876   0.906   2.993  10.624 -0.9072  0.3687 -1.3766
  393TMC3    H1 5877   1.277   3.065  10.420 -0.8333  0.8156 -0.1640
  393TMC3    H2 5878   1.133   2.670  10.445 -1.0124  1.0814 -1.9753
  393TMC3    C7 5879   1.343   2.817  10.387 -0.1577 -0.4943 -0.0183
  393TMC3    C8 5880   0.916   2.719  10.597  0.8258 -0.6940 -0.3088
  393TMC3    O1 5881   1.338   2.730  10.307  0.3197  0.0852  1.2319
  393TMC3    O2 5882   0.883   2.721  10.714 -0.2440 -0.3055 -0.4249
  394TMC3    C1 5883   2.759   4.154  11.161  0.2574  0.6010  0.4783
  394TMC3    C2 5884   2.688   4.266  11.118 -0.5935 -0.5129  0.6419
  394TMC3    C3 5885   2.714   4.318  10.996  0.1353  0.5839 -0.3896
  394TMC3    C4 5886   2.856   4.103  11.079  0.0407  0.2976 -0.4789
  394TMC3    C5 5887   2.875   4.156  10.959 -0.8695  0.3748  0.0784
  394TMC3    C6 5888   2.797   4.259  10.907  0.6640  0.2266  0.1079
  394TMC3     C 5889   2.742   4.109  11.299  0.0931 -0.3933 -0.9236
  394TMC3     O 5890   2.735   3.997  11.347  0.4973  0.2051 -0.1554
  394TMC3     H 5891   2.607   4.306  11.177 -0.2682  1.1442 -0.0353
  394TMC3    H1 5892   2.916   4.023  11.121  0.1586 -1.1550 -3.3698
  394TMC3    H2 5893   2.808   4.305  10.810 -0.5484 -1.2472 -0.7293
  394TMC3    C7 5894   2.999   4.142  10.883 -0.4628  0.5500 -0.3086
  394TMC3    C8 5895   2.592   4.370  10.936 -0.6835  0.2252 -0.2031
  394TMC3    O1 5896   3.027   4.223  10.799 -0.2390 -0.4592 -0.3941
  394TMC3    O2 5897   2.510   4.414  11.017  0.7584  0.1930 -0.4759
  395TMC3    C1 5898   2.553   1.380  14.474 -0.3738 -0.3540 -0.0242
  395TMC3    C2 5899   2.415   1.361  14.475 -0.5645 -0.0138 -0.2190
  395TMC3    C3 5900   2.348   1.454  14.404 -1.3404 -0.4735 -0.2105
  395TMC3    C4 5901   2.618   1.485  14.410 -0.8812  0.1531 -0.2350
  395TMC3    C5 5902   2.539   1.576  14.353 -0.1390  0.5211  0.1998
  395TMC3    C6 5903   2.402   1.561  14.347  0.4893  0.3951  0.3624
  395TMC3     C 5904   2.619   1.330  14.585 -0.4772  0.4041  0.4581
  395TMC3     O 5905   2.713   1.401  14.629 -0.5461 -0.1742  0.0427
  395TMC3     H 5906   2.357   1.281  14.518  0.3398 -0.9701 -0.7964
  395TMC3    H1 5907   2.725   1.487  14.396 -0.7677 -0.0419  0.6466
  395TMC3    H2 5908   2.346   1.636  14.292 -0.2123  0.6048  1.3764
  395TMC3    C7 5909   2.587   1.707  14.324 -0.1484 -0.0906  0.6715
  395TMC3    C8 5910   2.208   1.419  14.376 -0.4181 -0.0853  0.9881
  395TMC3    O1 5911   2.538   1.779  14.237 -0.1835 -0.3907  0.2547
  395TMC3    O2 5912   2.127   1.512  14.372  0.2079  0.1233 -0.1759
  396MPD2     C 5913   2.614   2.802  17.256  0.1964  0.0836  0.4371
  396MPD2    C1 5914   2.739   2.852  17.259  0.4183 -0.5470 -0.5392
  396MPD2    C2 5915   2.768   2.978  17.202  0.0174  0.4705 -0.1050
  396MPD2    C3 5916   2.669   3.049  17.123  0.5996  0.2839 -0.2691
  396MPD2    C4 5917   2.548   2.984  17.113  0.1334 -0.8678 -0.3605
  396MPD2    C5 5918   2.529   2.862  17.174 -0.2046 -1.2004 -0.2620
  396MPD2     H 5919   2.860   3.033  17.222  2.0137 -2.8170 -0.2793
  396MPD2    H1 5920   2.471   3.028  17.051  0.8833  0.8241 -0.0958
  396MPD2    H2 5921   2.591   2.702  17.290  0.2351  0.1491  0.6570
  396MPD2    H3 5922   2.434   2.813  17.155 -0.3458 -0.3021 -1.8714
  396MPD2     N 5923   2.705   3.180  17.068  0.1074  0.0160 -0.1747
  396MPD2    H5 5924   2.797   3.200  17.106 -0.0380  1.9037 -0.8357
  396MPD2    N1 5925   2.841   2.769  17.315 -0.6453  0.1068 -0.1375
  396MPD2    H7 5926   2.819   2.672  17.334 -1.4257 -0.0250 -1.6926
  397TMC3    C1 5927   3.049   2.694  17.383 -0.7213 -0.5820  0.3504
  397TMC3    C2 5928   3.136   2.649  17.289  0.2697 -0.3963 -0.6476
  397TMC3    C3 5929   3.119   2.525  17.231  0.6931 -0.4428 -0.6547
  397TMC3    C4 5930   2.971   2.602  17.444 -0.0066 -0.2925 -0.6059
  397TMC3    C5 5931   2.971   2.473  17.400 -0.8354  0.0981  0.2468
  397TMC3    C6 5932   3.044   2.434  17.292  0.5014 -1.4911  0.5974
  397TMC3     C 5933   2.976   2.806  17.329  0.8235  0.6166  0.4657
  397TMC3     O 5934   3.044   2.905  17.310  0.1858  0.2814  0.3407
  397TMC3     H 5935   3.188   2.726  17.234 -0.2876  0.3883 -0.0821
  397TMC3    H1 5936   2.919   2.628  17.535  1.5429  1.1128 -0.1349
  397TMC3    H2 5937   3.014   2.343  17.240  1.1201 -0.3044 -1.8316
  397TMC3    C7 5938   2.886   2.368  17.465  0.4909  0.1145 -0.2039
  397TMC3    C8 5939   3.088   2.529  17.085  0.4793 -0.0928  0.4382
  397TMC3    O1 5940   2.911   2.252  17.427  0.2250  0.1377  0.2160
  397TMC3    O2 5941   2.990   2.461  17.047 -0.2384  0.3335 -0.0528
  398MPD2     C 5942   0.236   3.905   0.378  0.4720 -0.7473 -0.0858
  398MPD2    C1 5943   0.298   3.806   0.444 -0.0771  0.4452  0.1591
  398MPD2    C2 5944   0.388   3.833   0.539 -0.3763  0.5127  0.2714
  398MPD2    C3 5945   0.420   3.966   0.565 -0.7047  0.0870 -0.3101
  398MPD2    C4 5946   0.363   4.068   0.501  0.0912 -0.0720  0.0026
  398MPD2    C5 5947   0.275   4.034   0.401 -0.0876  0.1720  0.3848
  398MPD2     H 5948   0.429   3.753   0.600 -0.0685  0.6386  0.2313
  398MPD2    H1 5949   0.373   4.174   0.522  1.8001  0.3796 -3.1466
  398MPD2    H2 5950   0.157   3.892   0.305  0.6248 -0.4718 -0.2965
  398MPD2    H3 5951   0.243   4.120   0.343  0.1378  0.8749  1.3007
  398MPD2     N 5952   0.529   3.977   0.653  0.0416 -0.2946 -0.2788
  398MPD2    H5 5953   0.570   3.892   0.692  2.4057  0.7086 -0.5722
  398MPD2    N1 5954   0.292   3.668   0.403 -0.0425  0.7776 -0.0584
  398MPD2    H7 5955   0.340   3.605   0.467  1.7126  2.7034  0.5199
  399TMC3    C1 5956   0.234   3.474   0.272 -0.2070  0.3131  0.2161
  399TMC3    C2 5957   0.352   3.413   0.308 -0.8321 -0.3797  0.1617
  399TMC3    C3 5958   0.364   3.282   0.298 -0.0281  0.5524  0.0360
  399TMC3    C4 5959   0.125   3.402   0.233  0.8793  0.2023  0.5987
  399TMC3    C5 5960   0.128   3.267   0.240 -0.6348 -0.5138 -0.4076
  399TMC3    C6 5961   0.250   3.203   0.277 -0.1777  0.5199 -0.4033
  399TMC3     C 5962   0.220   3.617   0.293  0.1147  0.4977 -0.3603
  399TMC3     O 5963   0.164   3.671   0.200 -0.3627 -0.2957  0.9913
  399TMC3     H 5964   0.429   3.481   0.343  0.6901 -2.0037  0.0022
  399TMC3    H1 5965   0.037   3.450   0.193  1.4815  0.2240 -0.7192
  399TMC3    H2 5966   0.256   3.095   0.280 -0.9921  0.4832 -0.1238
  399TMC3    C7 5967   0.018   3.179   0.215  0.2845 -0.3069  0.5917
  399TMC3    C8 5968   0.493   3.225   0.326 -0.4732 -0.4698  0.2065
  399TMC3    O1 5969   0.028   3.059   0.220 -0.3719 -0.3421  0.4281
  399TMC3    O2 5970   0.579   3.297   0.376 -0.0152  0.4944 -0.2281
  400TMC3    C1 5971   4.081   1.937  16.901 -0.5715  0.0291  0.2305
  400TMC3    C2 5972   3.977   1.957  16.817  0.3583  0.5727  0.6581
  400TMC3    C3 5973   3.913   2.078  16.812 -0.3446 -0.1691  0.2865
  400TMC3    C4 5974   4.122   2.042  16.981 -0.7020  0.0704  0.0998
  400TMC3    C5 5975   4.054   2.161  16.980  0.0040  0.1756 -0.0780
  400TMC3    C6 5976   3.962   2.181  16.884 -0.3755 -0.5581 -0.5240
  400TMC3     C 5977   4.144   1.808  16.915 -0.3021 -0.3922 -0.4858
  400TMC3     O 5978   4.089   1.716  16.854 -0.3826  0.3547 -0.2033
  400TMC3     H 5979   3.942   1.873  16.759  1.6572  0.4463  0.0618
  400TMC3    H1 5980   4.196   2.036  17.060 -0.3576  2.1056 -0.0507
  400TMC3    H2 5981   3.921   2.281  16.871  0.3272 -0.2485 -0.3127
  400TMC3    C7 5982   4.097   2.272  17.066  0.4256 -0.2572  0.2693
  400TMC3    C8 5983   3.779   2.087  16.759  0.6868 -0.0063 -0.4137
  400TMC3    O1 5984   4.209   2.265  17.107 -0.5348  0.0678 -0.0371
  400TMC3    O2 5985   3.710   2.178  16.798 -0.2127  0.1223 -0.7333
  401MPD2     C 5986   1.607   1.250   1.298 -0.6259 -0.5232 -1.0323
  401MPD2    C1 5987   1.727   1.229   1.236 -0.4346  0.5490 -0.5501
  401MPD2    C2 5988   1.751   1.104   1.182 -0.3401  0.5689 -0.6912
  401MPD2    C3 5989   1.669   0.998   1.199 -0.4679 -0.1615 -0.2244
  401MPD2    C4 5990   1.554   1.020   1.273  0.0802  0.3637  0.2468
  401MPD2    C5 5991   1.513   1.147   1.315  0.1631  0.1006  0.1346
  401MPD2     H 5992   1.840   1.100   1.120 -0.4140  1.5086 -0.8624
  401MPD2    H1 5993   1.481   0.941   1.283 -0.2836  0.4611 -1.6454
  401MPD2    H2 5994   1.583   1.351   1.328  0.0247 -0.0717 -2.0465
  401MPD2    H3 5995   1.414   1.164   1.358  1.4694  1.2812  2.7142
  401MPD2     N 5996   1.716   0.877   1.147  0.3116  0.2191 -0.4939
  401MPD2    H5 5997   1.808   0.870   1.103  1.1837  0.1352  1.3401
  401MPD2    N1 5998   1.823   1.329   1.205  0.4407 -0.7219 -0.0772
  401MPD2    H7 5999   1.908   1.307   1.154  0.5815 -1.2049  0.3665
  402TMC3    C1 6000   1.722   0.638   1.098 -0.1836 -0.8819 -0.8506
  402TMC3    C2 6001   1.740   0.527   1.179  0.3420  0.1963 -0.6340
  402TMC3    C3 6002   1.820   0.424   1.131 -0.9379  0.2778  0.4877
  402TMC3    C4 6003   1.787   0.654   0.977 -0.0344 -0.6458 -0.4507
  402TMC3    C5 6004   1.867   0.554   0.940 -0.1559 -0.2498 -0.5769
  402TMC3    C6 6005   1.893   0.438   1.011  0.1004 -0.1626 -0.3073
  402TMC3     C 6006   1.654   0.757   1.164  0.0225 -0.4205  0.3390
  402TMC3     O 6007   1.566   0.725   1.242  0.0830  0.1069  0.5439
  402TMC3     H 6008   1.712   0.536   1.283  0.4358  1.6689 -0.7371
  402TMC3    H1 6009   1.783   0.749   0.926 -1.1563  0.0111  0.8538
  402TMC3    H2 6010   1.948   0.359   0.961 -1.4129 -0.7447 -1.0558
  402TMC3    C7 6011   1.945   0.574   0.817 -0.3829 -0.0754 -0.0923
  402TMC3    C8 6012   1.892   0.346   1.232  0.7941 -0.0938 -0.8627
  402TMC3    O1 6013   1.895   0.649   0.734 -0.4500 -0.1298 -0.0175
  402TMC3    O2 6014   2.006   0.325   1.201 -0.1662 -0.4158  0.0043
  403MPD2     C 6015   0.437   3.639  13.454  0.5144  0.2423  0.2341
  403MPD2    C1 6016   0.536   3.554  13.400 -0.1684  0.0250  0.3126
  403MPD2    C2 6017   0.672   3.579  13.426 -0.5341 -0.2578 -0.6852
  403MPD2    C3 6018   0.710   3.692  13.498  0.4022  0.2047 -0.5797
  403MPD2    C4 6019   0.611   3.773  13.548  0.1780 -0.1665  0.4331
  403MPD2    C5 6020   0.476   3.750  13.522 -0.1050 -0.3470 -0.5564
  403MPD2     H 6021   0.747   3.511  13.386  1.0954  1.3276 -0.3078
  403MPD2    H1 6022   0.631   3.853  13.618 -1.5695  1.1054 -0.5220
  403MPD2    H2 6023   0.335   3.630  13.417  0.6956 -0.1392 -0.1772
  403MPD2    H3 6024   0.396   3.804  13.572  2.0884  1.7080  0.7022
  403MPD2     N 6025   0.848   3.705  13.528  0.4017 -0.4840 -0.1804
  403MPD2    H5 6026   0.906   3.625  13.505 -0.9346 -1.0159 -1.7141
  403MPD2    N1 6027   0.506   3.456  13.297 -0.2822 -0.4246 -0.4629
  403MPD2    H7 6028   0.587   3.409  13.258 -0.0174  0.8855 -1.5055
  404TMC3    C1 6029   0.381   3.289  13.192  0.7880 -0.4741 -0.5180
  404TMC3    C2 6030   0.302   3.179  13.226  0.4569 -0.0339  0.0753
  404TMC3    C3 6031   0.303   3.066  13.154 -0.9470  0.4691 -0.2768
  404TMC3    C4 6032   0.447   3.291  13.073  1.0453 -0.8557  0.3069
  404TMC3    C5 6033   0.447   3.171  13.004 -0.6872 -0.4974 -0.1081
  404TMC3    C6 6034   0.386   3.055  13.048  0.1209 -0.2905 -0.6413
  404TMC3     C 6035   0.386   3.393  13.278  0.8475 -0.3434 -0.2326
  404TMC3     O 6036   0.280   3.418  13.330 -0.2629  0.2552  0.0602
  404TMC3     H 6037   0.242   3.181  13.316 -0.2802  0.1655 -0.4237
  404TMC3    H1 6038   0.515   3.372  13.052 -0.8616  0.2292 -1.6269
  404TMC3    H2 6039   0.387   2.963  12.990  2.6598 -1.3182  1.0247
  404TMC3    C7 6040   0.496   3.171  12.877 -0.1491 -0.5205 -0.8574
  404TMC3    C8 6041   0.348   2.965  13.249  0.4591  0.3477  0.1434
  404TMC3    O1 6042   0.587   3.254  12.873  0.0331  0.5518  0.3288
  404TMC3    O2 6043   0.465   2.924  13.239  0.2186  0.0431  0.0537
  405MPD2     C 6044   0.604   4.145  14.675  0.9942  0.5871 -0.2934
  405MPD2    C1 6045   0.625   4.082  14.552 -0.3067 -0.5103 -0.2436
  405MPD2    C2 6046   0.535   4.118  14.452 -0.6619 -0.3810  0.1231
  405MPD2    C3 6047   0.432   4.207  14.463  0.1885  0.6151  0.2546
  405MPD2    C4 6048   0.423   4.286  14.575  0.5529 -0.2422  0.0622
  405MPD2    C5 6049   0.507   4.245  14.680 -0.0295  0.8886 -0.7176
  405MPD2     H 6050   0.531   4.052  14.366 -1.5079 -0.6070  0.3368
  405MPD2    H1 6051   0.342   4.356  14.589  1.8242  1.2470  0.0713
  405MPD2    H2 6052   0.663   4.123  14.764 -0.7137  0.6524  0.8629
  405MPD2    H3 6053   0.515   4.308  14.767 -0.5698  1.0809 -0.8089
  405MPD2     N 6054   0.358   4.230  14.341 -0.1145 -0.6557 -0.1229
  405MPD2    H5 6055   0.389   4.168  14.266 -0.6354 -2.3754  1.0737
  405MPD2    N1 6056   0.717   3.972  14.538 -0.5542  0.5981 -0.5385
  405MPD2    H7 6057   0.769   3.950  14.622 -3.5707 -0.2315  1.1088
  406TMC3    C1 6058   4.701   4.190  14.092  0.5364 -0.2646 -0.3002
  406TMC3    C2 6059   0.034   4.139  13.991 -0.3745  0.2648 -0.2035
  406TMC3    C3 6060   0.173   4.131  13.997  0.0310 -0.2867  0.1674
  406TMC3    C4 6061   0.040   4.256  14.195 -0.3112  0.0559  0.6674
  406TMC3    C5 6062   0.181   4.260  14.196 -0.2530 -0.0466  0.2832
  406TMC3    C6 6063   0.244   4.189  14.097 -0.3328 -0.3653 -0.4002
  406TMC3     C 6064   4.553   4.198  14.092 -0.2532  0.4180  0.4723
  406TMC3     O 6065   4.487   4.173  13.990 -0.1405 -0.6500  0.1673
  406TMC3     H 6066   4.705   4.082  13.918  0.0678 -0.9772  0.4227
  406TMC3    H1 6067   4.717   4.305  14.277 -0.7047  0.2698  0.3000
  406TMC3    H2 6068   0.350   4.207  14.091  0.2004 -1.9912  3.9501
  406TMC3    C7 6069   0.242   4.298  14.321  0.2321  0.1510  0.5802
  406TMC3    C8 6070   0.237   4.017  13.927  0.7998 -0.2993 -0.3743
  406TMC3    O1 6071   0.187   4.367  14.403 -0.3717  0.2416  0.2868
  406TMC3    O2 6072   0.198   3.982  13.817  0.6281  0.1980  0.0749
  407MPD2     C 6073   2.970   0.480   9.222 -0.1283  0.0510 -0.1645
  407MPD2    C1 6074   3.103   0.511   9.228 -0.1899 -0.2144 -0.2799
  407MPD2    C2 6075   3.147   0.540   9.359  0.5218  0.6139  0.0097
  407MPD2    C3 6076   3.060   0.555   9.465  0.1833  0.8004  0.2535
  407MPD2    C4 6077   2.926   0.550   9.450  0.5597  0.3069  0.4612
  407MPD2    C5 6078   2.879   0.513   9.329  0.3751 -0.0601  0.1565
  407MPD2     H 6079   3.253   0.557   9.373  0.6210  0.7923 -0.9554
  407MPD2    H1 6080   2.852   0.567   9.527 -1.8828 -0.6637 -1.6600
  407MPD2    H2 6081   2.922   0.449   9.130  0.5078  0.5243 -0.6584
  407MPD2    H3 6082   2.773   0.502   9.312 -0.3087 -0.1719  4.5533
  407MPD2     N 6083   3.098   0.607   9.591  0.2244 -0.2437 -0.5590
  407MPD2    H5 6084   3.024   0.646   9.648  0.4734 -1.9428  0.9070
  407MPD2    N1 6085   3.196   0.503   9.127  0.2458 -0.3327 -0.3132
  407MPD2    H7 6086   3.287   0.541   9.152  0.4347 -0.5168 -0.7191
  408TMC3    C1 6087   3.272   0.541   8.912  0.6021 -0.7414  0.1133
  408TMC3    C2 6088   3.403   0.537   8.952  0.6002 -0.7406  0.4290
  408TMC3    C3 6089   3.484   0.620   8.889 -0.1672  0.1233 -0.4578
  408TMC3    C4 6090   3.224   0.644   8.840 -0.8467  0.6901 -0.4767
  408TMC3    C5 6091   3.307   0.745   8.796 -0.5686  0.9760  0.0652
  408TMC3    C6 6092   3.442   0.722   8.810  0.3634  0.0130  0.3147
  408TMC3     C 6093   3.165   0.485   8.999 -0.4382 -0.2336 -0.0651
  408TMC3     O 6094   3.057   0.462   8.953  0.1257  0.6906 -0.5089
  408TMC3     H 6095   3.439   0.455   9.013 -2.9201 -1.2544  1.7960
  408TMC3    H1 6096   3.121   0.641   8.805 -0.3157  1.6878 -2.0980
  408TMC3    H2 6097   3.505   0.799   8.766 -0.6749  0.1194 -0.9882
  408TMC3    C7 6098   3.267   0.876   8.833 -0.3008  0.3770  0.0160
  408TMC3    C8 6099   3.616   0.642   8.949 -0.1351 -1.2008 -0.1151
  408TMC3    O1 6100   3.352   0.958   8.857 -0.1305 -0.3511  0.2812
  408TMC3    O2 6101   3.677   0.551   9.004 -0.3378 -0.8791 -0.1438
  409MPD2     C 6102   2.512   1.901  17.042 -0.7874  0.5257  0.3155
  409MPD2    C1 6103   2.633   1.847  17.062 -0.4073  0.0247 -0.1960
  409MPD2    C2 6104   2.746   1.918  17.033  0.0119 -0.1116  0.2264
  409MPD2    C3 6105   2.735   2.050  16.986  0.1644  0.3013 -0.0310
  409MPD2    C4 6106   2.614   2.106  16.956 -0.2776  0.3577 -0.6585
  409MPD2    C5 6107   2.509   2.026  16.986  0.1016  0.0400 -0.4244
  409MPD2     H 6108   2.841   1.869  17.049 -0.5744 -0.9572  1.0759
  409MPD2    H1 6109   2.603   2.206  16.914 -1.7909  0.4449 -0.0684
  409MPD2    H2 6110   2.414   1.856  17.055 -0.3341  0.1237  2.4227
  409MPD2    H3 6111   2.409   2.067  16.976 -0.2298 -0.2728  1.4980
  409MPD2     N 6112   2.849   2.125  16.963  0.6659  0.0543 -0.3444
  409MPD2    H5 6113   2.846   2.214  16.914 -0.5366  0.6812  0.8497
  409MPD2    N1 6114   2.645   1.714  17.117  0.0086  0.3546 -0.0377
  409MPD2    H7 6115   2.735   1.691  17.156 -0.1751  3.0430  1.9879
  410TMC3    C1 6116   3.077   2.192  16.966 -0.5448 -0.2713 -0.3388
  410TMC3    C2 6117   3.194   2.186  17.035  0.6522 -0.9907 -0.6485
  410TMC3    C3 6118   3.297   2.259  16.982  0.1058  0.1186  0.4403
  410TMC3    C4 6119   3.067   2.263  16.850  0.1165 -0.3924  0.5091
  410TMC3    C5 6120   3.168   2.336  16.805 -0.3357 -0.0990 -0.2474
  410TMC3    C6 6121   3.283   2.342  16.879  0.8887 -0.0835  0.0799
  410TMC3     C 6122   2.975   2.102  17.015 -0.4307  0.2865 -0.3086
  410TMC3     O 6123   3.009   2.020  17.102 -0.2536 -0.5425 -0.2803
  410TMC3     H 6124   3.212   2.127  17.124  2.3844 -0.6017 -0.7375
  410TMC3    H1 6125   2.977   2.246  16.793 -0.1602 -0.0491  0.8494
  410TMC3    H2 6126   3.379   2.373  16.840  0.4404  1.4977  0.2008
  410TMC3    C7 6127   3.178   2.353  16.662  0.1600 -0.7220  0.1177
  410TMC3    C8 6128   3.418   2.261  17.049  0.3653  0.9524 -0.4540
  410TMC3    O1 6129   3.107   2.266  16.607 -0.0466 -0.0097  0.1135
  410TMC3    O2 6130   3.463   2.372  17.074 -0.5441 -0.1511  0.5421
  411MPD2     C 6131   3.578   3.009  15.099 -0.1841 -1.1299  0.6027
  411MPD2    C1 6132   3.472   3.048  15.023 -0.0767  0.1374 -0.0572
  411MPD2    C2 6133   3.437   2.968  14.919  0.4243 -0.0126 -0.5461
  411MPD2    C3 6134   3.477   2.833  14.908  0.0048  0.6580 -0.0842
  411MPD2    C4 6135   3.577   2.791  14.993 -0.3718 -0.0150  0.2170
  411MPD2    C5 6136   3.630   2.881  15.086  0.0366 -0.2126 -0.2138
  411MPD2     H 6137   3.361   3.003  14.850  0.5309 -0.5094 -0.9136
  411MPD2    H1 6138   3.611   2.688  14.990 -0.7513 -0.2384  3.8780
  411MPD2    H2 6139   3.601   3.072  15.185 -0.3500 -0.6471  0.2947
  411MPD2    H3 6140   3.707   2.848  15.154  1.5127  0.2531 -1.6601
  411MPD2     N 6141   3.417   2.745  14.816  0.5129 -0.2401 -0.3108
  411MPD2    H5 6142   3.464   2.657  14.797 -1.9844 -1.6160 -0.0584
  411MPD2    N1 6143   3.427   3.176  15.041  0.0981 -0.1439 -0.7918
  411MPD2    H7 6144   3.488   3.234  15.097  1.0282 -1.3203 -0.5778
  412TMC3    C1 6145   3.262   2.667  14.652 -0.5945 -0.2428  0.1098
  412TMC3    C2 6146   3.129   2.637  14.644 -0.7115 -0.6047  0.1516
  412TMC3    C3 6147   3.098   2.510  14.598 -0.1035  0.1247 -0.2773
  412TMC3    C4 6148   3.367   2.588  14.600 -0.0656 -0.4388 -0.0869
  412TMC3    C5 6149   3.333   2.459  14.556 -0.3190 -0.5108 -0.5607
  412TMC3    C6 6150   3.199   2.423  14.559 -0.3427 -0.0569  1.1683
  412TMC3     C 6151   3.296   2.770  14.753 -0.2972 -0.3722 -0.5557
  412TMC3     O 6152   3.215   2.862  14.764  0.1031 -0.2023  0.2989
  412TMC3     H 6153   3.043   2.696  14.672 -1.9200 -2.5054  0.4675
  412TMC3    H1 6154   3.469   2.624  14.593 -0.7206  1.0111 -2.0252
  412TMC3    H2 6155   3.168   2.330  14.512  0.0476  0.4669 -0.1498
  412TMC3    C7 6156   3.379   2.438  14.422 -0.1179 -0.4644 -0.3822
  412TMC3    C8 6157   2.972   2.494  14.524 -0.0288  0.3108  0.3306
  412TMC3    O1 6158   3.316   2.490  14.331  0.1748  0.3959 -0.4348
  412TMC3    O2 6159   2.865   2.538  14.561  0.2007 -0.2942  0.1587
  413MPD2     C 6160   4.409   0.162  15.478 -0.1240  0.0358  0.6868
  413MPD2    C1 6161   4.364   0.194  15.353  0.8890 -0.5316  0.1711
  413MPD2    C2 6162   4.406   0.130  15.240  0.2036 -0.0266 -0.1494
  413MPD2    C3 6163   4.490   0.026  15.251 -0.9880  0.0172  0.2742
  413MPD2    C4 6164   4.514   4.702  15.376 -0.5770  0.8188  0.4749
  413MPD2    C5 6165   4.475   0.040  15.485  0.7071  0.8637  0.2709
  413MPD2     H 6166   4.391   0.172  15.141  0.7155 -0.4737 -0.4171
  413MPD2    H1 6167   4.587   4.623  15.387 -2.8976 -1.5603 -1.1081
  413MPD2    H2 6168   4.380   0.211  15.571  1.8284  0.1097  1.2597
  413MPD2    H3 6169   4.515   0.018  15.583  0.3755 -0.9365  0.0001
  413MPD2     N 6170   4.543   4.702  15.132 -0.5845 -0.8501 -0.0252
  413MPD2    H5 6171   4.499   0.005  15.046 -1.5023  0.6536  0.9897
  413MPD2    N1 6172   4.298   0.316  15.346 -0.7965 -0.0608  0.0358
  413MPD2    H7 6173   4.308   0.372  15.430 -0.6689  1.4861 -1.0117
  414TMC3    C1 6174   4.701   4.579  14.990 -0.6647 -0.5531  0.1239
  414TMC3    C2 6175   0.048   4.466  14.975  0.2064 -0.1561 -0.2790
  414TMC3    C3 6176   0.139   4.469  14.877  0.0369 -0.3915  0.9935
  414TMC3    C4 6177   4.718   4.693  14.919 -0.8079  0.2620  0.3583
  414TMC3    C5 6178   0.095   4.695  14.827 -0.1198  1.0044 -0.3115
  414TMC3    C6 6179   0.163   4.580  14.802  0.3783  0.1368  0.7117
  414TMC3     C 6180   4.639   4.601  15.125  0.7328  0.9734 -0.4475
  414TMC3     O 6181   4.701   4.547  15.213  0.4172 -0.2203  0.0808
  414TMC3     H 6182   0.050   4.388  15.050 -1.7409 -0.3011 -0.3787
  414TMC3    H1 6183   4.665   0.058  14.932 -0.8140  0.3010  0.0517
  414TMC3    H2 6184   0.245   4.582  14.731  0.8703  0.4940  1.2969
  414TMC3    C7 6185   0.193   0.080  14.842  0.7249  0.1123  0.3015
  414TMC3    C8 6186   0.259   4.398  14.915  0.8234  0.1120 -0.8464
  414TMC3    O1 6187   0.307   0.045  14.861  0.1692  0.1700 -0.7448
  414TMC3    O2 6188   0.251   4.281  14.949 -0.1866 -0.2891 -0.1050
  415TMC3    C1 6189   0.048   2.710  10.239  0.1728  0.1154 -0.4053
  415TMC3    C2 6190   0.091   2.693  10.112  0.1671  0.2316  0.1989
  415TMC3    C3 6191   4.715   2.683  10.019  0.5906 -0.2518 -0.7568
  415TMC3    C4 6192   4.646   2.716  10.279  0.1362  0.1067  0.5421
  415TMC3    C5 6193   4.554   2.700  10.181  0.5797  0.3467 -0.1409
  415TMC3    C6 6194   4.583   2.697  10.045 -0.0194  1.0746 -0.2847
  415TMC3     C 6195   0.137   2.695  10.349  0.4012 -1.1576 -0.5118
  415TMC3     O 6196   0.096   2.631  10.446  0.4754  0.5861  0.3488
  415TMC3     H 6197   0.197   2.687  10.092  0.2976 -1.7363  1.4733
  415TMC3    H1 6198   4.622   2.747  10.380 -2.5068  0.8240 -0.3027
  415TMC3    H2 6199   4.505   2.668   9.976 -0.3679 -0.9543  0.9634
  415TMC3    C7 6200   4.420   2.647  10.218  0.0866 -0.4064  0.0489
  415TMC3    C8 6201   0.012   2.664   9.881  0.3527  0.5412 -0.1645
  415TMC3    O1 6202   4.336   2.649  10.129  0.0020  0.2672 -0.5994
  415TMC3    O2 6203   4.640   2.671   9.806  0.1998 -0.2595 -0.5568
  416MPD2     C 6204   2.587   2.045  11.718  0.5324  0.1877 -0.1056
  416MPD2    C1 6205   2.471   2.010  11.653  0.3896 -0.0050  0.4157
  416MPD2    C2 6206   2.478   1.908  11.560  0.3298  0.1630  0.9615
  416MPD2    C3 6207   2.596   1.838  11.541 -0.4602 -0.1185  0.1892
  416MPD2    C4 6208   2.709   1.863  11.625 -0.1590  1.1326  0.3181
  416MPD2    C5 6209   2.707   1.975  11.704 -0.3664  0.1677  0.3417
  416MPD2     H 6210   2.390   1.867  11.513  1.1995 -1.0901  0.4059
  416MPD2    H1 6211   2.806   1.817  11.617  0.0955  1.6250  0.5695
  416MPD2    H2 6212   2.580   2.124  11.792  1.7600  0.6089 -0.4293
  416MPD2    H3 6213   2.795   2.017  11.752 -1.0834 -1.0187  2.6588
  416MPD2     N 6214   2.600   1.732  11.448  0.2405 -0.4886 -0.2886
  416MPD2    H5 6215   2.683   1.674  11.455  1.9297  1.9295 -0.3957
  416MPD2    N1 6216   2.353   2.073  11.696 -0.2759 -0.0236 -0.5218
  416MPD2    H7 6217   2.363   2.144  11.768 -2.7802 -1.0268  0.8081
  417TMC3    C1 6218   2.119   2.133  11.691  0.1220 -1.0177 -0.7665
  417TMC3    C2 6219   2.129   2.192  11.816  0.0073 -0.0184  0.3196
  417TMC3    C3 6220   2.011   2.245  11.863 -0.1590  0.2894  0.5570
  417TMC3    C4 6221   2.008   2.136  11.614 -0.0543  0.2927  0.5643
  417TMC3    C5 6222   1.898   2.197  11.668  0.5008 -0.3635  0.7422
  417TMC3    C6 6223   1.894   2.250  11.790  0.7951  0.6368 -1.0680
  417TMC3     C 6224   2.228   2.039  11.649 -0.5404 -0.2040 -0.1578
  417TMC3     O 6225   2.190   1.948  11.573 -0.1490 -0.3296  0.6546
  417TMC3     H 6226   2.209   2.159  11.882  0.2956  0.2143  0.0909
  417TMC3    H1 6227   2.013   2.097  11.512 -1.0642 -1.5332  1.2142
  417TMC3    H2 6228   1.816   2.318  11.822 -0.7327 -2.8341  2.6246
  417TMC3    C7 6229   1.779   2.200  11.595  0.7948 -0.2281  0.3414
  417TMC3    C8 6230   2.000   2.292  11.996  0.0969  0.4921  0.1515
  417TMC3    O1 6231   1.708   2.295  11.614 -0.1055  0.0526 -1.0217
  417TMC3    O2 6232   1.890   2.298  12.046 -0.6723  0.2519  0.1038
  418TMC3    C1 6233   0.931   4.017   0.597 -0.6847 -0.1240 -0.3683
  418TMC3    C2 6234   0.826   4.096   0.611 -0.2850  1.1000 -0.6665
  418TMC3    C3 6235   0.733   4.059   0.713 -0.8111  0.0186  0.4618
  418TMC3    C4 6236   0.952   3.903   0.668  0.1687  0.7044 -0.0196
  418TMC3    C5 6237   0.862   3.872   0.766  0.2134  0.3183 -0.0756
  418TMC3    C6 6238   0.749   3.950   0.792 -0.1924 -0.8754 -0.0340
  418TMC3     C 6239   1.028   4.060   0.506 -0.1939 -0.1635  0.2971
  418TMC3     O 6240   1.035   4.175   0.470  0.2825 -0.2707  0.2995
  418TMC3     H 6241   0.801   4.171   0.537 -0.1421 -1.3615 -3.2063
  418TMC3    H1 6242   1.034   3.833   0.657  0.3498  0.9569 -0.3009
  418TMC3    H2 6243   0.670   3.910   0.853  0.4153 -0.0022  1.3137
  418TMC3    C7 6244   0.895   3.755   0.847 -0.5816 -0.2444  0.4028
  418TMC3    C8 6245   0.601   4.094   0.666  0.4104  0.6916  0.5079
  418TMC3    O1 6246   0.961   3.663   0.805  0.1616 -0.2060 -0.3282
  418TMC3    O2 6247   0.579   4.206   0.627 -0.0489 -0.8674  0.3999
  419MPD2     C 6248   3.982   1.492  12.278 -0.3467 -0.5408 -0.0838
  419MPD2    C1 6249   4.011   1.623  12.265  0.0961  1.0804  0.1957
  419MPD2    C2 6250   3.995   1.709  12.369 -0.1604 -0.2455  0.3868
  419MPD2    C3 6251   3.943   1.661  12.485 -0.8036 -0.1826  0.4597
  419MPD2    C4 6252   3.920   1.528  12.502  0.6216 -0.2276  0.6593
  419MPD2    C5 6253   3.946   1.441  12.397  0.1490  0.3155 -0.3371
  419MPD2     H 6254   4.010   1.814  12.344  0.4743 -0.7729 -1.4442
  419MPD2    H1 6255   3.889   1.489  12.599 -0.4271 -2.4172 -0.5395
  419MPD2    H2 6256   3.992   1.418  12.200 -0.3722 -1.5148  0.8471
  419MPD2    H3 6257   3.939   1.333  12.397  1.8003  0.2180  0.6898
  419MPD2     N 6258   3.943   1.755  12.591 -0.4718  0.5642  0.2041
  419MPD2    H5 6259   3.959   1.854  12.574  1.5987  0.2374  0.2354
  419MPD2    N1 6260   4.079   1.675  12.155 -0.2076 -0.2041 -0.2014
  419MPD2    H7 6261   4.104   1.773  12.168 -0.4605 -0.4574  2.1779
  420TMC3    C1 6262   3.981   1.835  12.811  0.0276 -0.9356  0.8070
  420TMC3    C2 6263   3.934   1.959  12.768 -0.2607  0.7942 -0.4930
  420TMC3    C3 6264   3.959   2.069  12.850  0.8612 -0.4467 -0.4100
  420TMC3    C4 6265   4.059   1.825  12.926  0.2050 -0.7457  0.7217
  420TMC3    C5 6266   4.093   1.937  12.994  0.0578  0.0024 -0.4641
  420TMC3    C6 6267   4.045   2.059  12.959  0.2957 -0.0419 -0.1706
  420TMC3     C 6268   3.979   1.723  12.721 -0.6239  0.6547  0.1598
  420TMC3     O 6269   4.008   1.614  12.763  0.3310  0.6032  0.5536
  420TMC3     H 6270   3.878   1.968  12.677 -0.2622  0.2035 -0.5551
  420TMC3    H1 6271   4.115   1.734  12.944 -0.2238 -1.1248  0.1335
  420TMC3    H2 6272   4.055   2.146  13.022 -0.7555 -0.1884  0.1961
  420TMC3    C7 6273   4.205   1.930  13.092  0.4523  0.1536 -0.1114
  420TMC3    C8 6274   3.904   2.201  12.813 -0.1531  0.5720  0.9534
  420TMC3    O1 6275   4.240   1.824  13.146 -0.5147  0.2145 -0.3110
  420TMC3    O2 6276   3.967   2.305  12.837 -0.6097  0.0686  0.1490
  421TMC3    C1 6277   1.045   3.824  13.584 -0.6421 -0.3201 -0.5885
  421TMC3    C2 6278   1.091   3.924  13.662 -0.3012  0.0422 -0.2834
  421TMC3    C3 6279   1.222   3.959  13.672 -0.3079  0.5497  0.8969
  421TMC3    C4 6280   1.135   3.739  13.532  0.3606 -0.8369 -0.0713
  421TMC3    C5 6281   1.267   3.762  13.547  0.4643  0.7611 -0.2915
  421TMC3    C6 6282   1.308   3.874  13.618  0.6539  0.8544 -0.1937
  421TMC3     C 6283   0.901   3.822  13.570  0.5878 -0.6087 -0.3267
  421TMC3     O 6284   0.844   3.931  13.588 -0.6614  0.1056 -0.0148
  421TMC3     H 6285   1.022   3.998  13.699  1.1739  1.5539 -0.5681
  421TMC3    H1 6286   1.101   3.652  13.476  0.4274 -0.7713 -0.2142
  421TMC3    H2 6287   1.411   3.879  13.651  0.7931  0.2812 -0.5417
  421TMC3    C7 6288   1.350   3.641  13.547  0.1535  0.5588  0.5203
  421TMC3    C8 6289   1.278   4.018  13.784 -0.8108 -0.3932 -0.1057
  421TMC3    O1 6290   1.457   3.636  13.488  0.7854  0.1332  0.4211
  421TMC3    O2 6291   1.376   4.088  13.776  0.6154 -0.2622 -0.5630
  422TMC3    C1 6292   3.104   4.699  12.822  0.2683 -0.4172 -1.0633
  422TMC3    C2 6293   3.087   0.097  12.877 -0.0383  0.7763  0.5123
  422TMC3    C3 6294   2.985   0.122  12.957 -0.6032 -0.5304  0.2456
  422TMC3    C4 6295   3.013   4.600  12.848 -0.1943 -0.4251 -0.3468
  422TMC3    C5 6296   2.915   4.632  12.939 -0.0452 -1.0503 -1.1875
  422TMC3    C6 6297   2.898   0.026  12.998 -0.2103 -0.4583 -0.0813
  422TMC3     C 6298   3.187   4.702  12.697  0.0967 -0.8853  0.2192
  422TMC3     O 6299   3.239   0.082  12.663  0.3925 -0.0998  0.1142
  422TMC3     H 6300   3.139   0.188  12.847  1.2838  0.4031  1.6698
  422TMC3    H1 6301   3.029   4.503  12.804  4.5568 -0.7802  2.1438
  422TMC3    H2 6302   2.818   0.051  13.068  0.4087  0.1175  0.4143
  422TMC3    C7 6303   2.797   4.537  12.935 -0.0992  0.5040  0.5099
  422TMC3    C8 6304   2.953   0.263  12.979 -0.2330  0.4744  0.2928
  422TMC3    O1 6305   2.816   4.421  12.897  0.1746  0.3934 -0.4606
  422TMC3    O2 6306   3.045   0.333  13.021  0.0685 -0.0186  0.0971
  423MPD2     C 6307   4.670   1.478   0.587  0.7282 -1.0164 -0.0872
  423MPD2    C1 6308   4.606   1.356   0.581 -0.0585  0.0311  0.2191
  423MPD2    C2 6309   4.622   1.273   0.477 -0.2992 -0.0476 -0.1159
  423MPD2    C3 6310   4.705   1.317   0.375 -0.0325 -0.3152  0.3969
  423MPD2    C4 6311   0.046   1.437   0.381 -0.3778  0.5864  0.1022
  423MPD2    C5 6312   0.020   1.524   0.490 -0.1546 -0.2479 -0.5284
  423MPD2     H 6313   4.577   1.175   0.475  1.0685 -0.7216  1.8322
  423MPD2    H1 6314   0.108   1.471   0.300 -0.6721 -1.8965 -1.1578
  423MPD2    H2 6315   4.649   1.545   0.668 -0.5287 -2.6188  0.9119
  423MPD2    H3 6316   0.053   1.626   0.480  0.0588 -0.1065  1.6197
  423MPD2     N 6317   0.007   1.241   0.262  0.0797 -0.2502 -0.3566
  423MPD2    H5 6318   0.057   1.291   0.189 -1.6518  1.9222 -0.0751
  423MPD2    N1 6319   4.533   1.311   0.699 -0.4171 -0.2467  0.3615
  423MPD2    H7 6320   4.510   1.386   0.763 -1.8831  0.6071 -1.1442
  424TMC3    C1 6321   4.362   1.198   0.814 -0.0983  0.1294  0.2031
  424TMC3    C2 6322   4.369   1.117   0.923 -0.2815 -0.3405  0.4460
  424TMC3    C3 6323   4.319   1.162   1.042  0.7357 -0.8217  0.5398
  424TMC3    C4 6324   4.305   1.324   0.823 -0.1331  0.0639 -0.6674
  424TMC3    C5 6325   4.255   1.373   0.944  0.3316  0.4433  0.0925
  424TMC3    C6 6326   4.261   1.287   1.056  0.7225  0.9071  0.2064
  424TMC3     C 6327   4.469   1.191   0.719 -0.3757  0.4188 -0.4968
  424TMC3     O 6328   4.484   1.084   0.659 -0.2562  0.6194  0.3921
  424TMC3     H 6329   4.401   1.015   0.906  0.8007  0.1397 -0.4173
  424TMC3    H1 6330   4.307   1.395   0.741  1.0220  0.2431 -0.4862
  424TMC3    H2 6331   4.223   1.327   1.149 -1.2634  0.5275 -0.4311
  424TMC3    C7 6332   4.155   1.473   0.938 -0.8178 -0.2547  0.5977
  424TMC3    C8 6333   4.319   1.064   1.148  0.6390 -0.2996  0.1208
  424TMC3    O1 6334   4.124   1.527   0.832  0.2982 -0.0352 -0.1489
  424TMC3    O2 6335   4.316   0.944   1.117  0.2279 -0.0364 -0.2656
  425MPD2     C 6336   3.455   0.788  17.435  0.1145 -0.0373 -0.0878
  425MPD2    C1 6337   3.418   0.660  17.400 -0.3457  0.7663 -0.2999
  425MPD2    C2 6338   3.319   0.599  17.479 -0.2337  0.0808  0.5260
  425MPD2    C3 6339   3.267   0.665  17.590  0.0120  0.1636  0.2114
  425MPD2    C4 6340   3.327   0.787  17.630 -0.6731 -0.1622  0.2061
  425MPD2    C5 6341   3.417   0.847  17.554 -0.7648 -0.3393  0.1114
  425MPD2     H 6342   3.284   0.500  17.453  0.3966 -0.0409  0.1342
  425MPD2    H1 6343   3.304   0.832   0.014 -1.9414 -0.0923 -0.1322
  425MPD2    H2 6344   3.533   0.834  17.375  0.3683 -0.2007  0.1168
  425MPD2    H3 6345   3.461   0.942  17.583 -2.4865  0.5834 -0.3474
  425MPD2     N 6346   3.170   0.594  17.666  0.3281 -0.4372  0.7808
  425MPD2    H5 6347   3.163   0.496  17.642 -0.2110 -0.7180  2.1427
  425MPD2    N1 6348   3.484   0.608  17.291  0.3282  0.1745  0.6677
  425MPD2    H7 6349   3.551   0.670  17.245 -2.3921  2.2335 -0.4747
  426TMC3    C1 6350   3.586   0.436  17.175 -0.2445 -0.0406  0.1962
  426TMC3    C2 6351   3.567   0.328  17.094 -0.2972 -0.5198  0.4642
  426TMC3    C3 6352   3.683   0.257  17.064 -0.1146 -0.2551 -0.1154
  426TMC3    C4 6353   3.714   0.466  17.225  0.1630  1.1895 -0.9460
  426TMC3    C5 6354   3.826   0.392  17.201  0.0763  0.5673 -0.8952
  426TMC3    C6 6355   3.811   0.291  17.116 -0.1183  0.7513 -0.9155
  426TMC3     C 6356   3.466   0.479  17.243  0.2770  0.1354 -0.2254
  426TMC3     O 6357   3.380   0.392  17.264  0.8415 -0.2072 -0.2588
  426TMC3     H 6358   3.472   0.306  17.046 -0.1597  2.3403 -1.1433
  426TMC3    H1 6359   3.721   0.535  17.309 -1.1311  1.5890 -1.1730
  426TMC3    H2 6360   3.882   0.212  17.099 -0.6838 -0.2164  1.2993
  426TMC3    C7 6361   3.876   0.355  17.331 -0.4302 -0.4838  0.3748
  426TMC3    C8 6362   3.674   0.130  17.000 -0.3632 -0.5763 -0.2926
  426TMC3    O1 6363   3.885   0.439  17.422  0.7203  0.0760 -0.5409
  426TMC3    O2 6364   3.763   0.104  16.925 -0.3001  0.5246  0.6923
  427MPD2     C 6365   2.567   2.881  14.742 -0.4325 -0.0317  0.0551
  427MPD2    C1 6366   2.553   2.752  14.778  0.5204 -0.5800 -1.1601
  427MPD2    C2 6367   2.431   2.696  14.764  0.3314 -0.1635 -0.1380
  427MPD2    C3 6368   2.320   2.761  14.723 -0.3395  0.4120 -0.8035
  427MPD2    C4 6369   2.339   2.892  14.682 -0.0970  0.4763  0.6384
  427MPD2    C5 6370   2.459   2.956  14.696  0.0133  0.0977  0.4659
  427MPD2     H 6371   2.424   2.597  14.809  0.4261 -0.1577 -0.1097
  427MPD2    H1 6372   2.261   2.949  14.633 -1.8142 -1.5400  1.0176
  427MPD2    H2 6373   2.663   2.931  14.742 -0.6460  0.3722  0.8453
  427MPD2    H3 6374   2.464   3.058  14.660  0.1428 -0.1880 -0.3320
  427MPD2     N 6375   2.190   2.703  14.716 -0.0672  0.7753 -0.5388
  427MPD2    H5 6376   2.117   2.765  14.684 -0.6252 -0.4127 -1.5483
  427MPD2    N1 6377   2.661   2.677  14.835  0.6748 -0.7053 -0.6108
  427MPD2    H7 6378   2.652   2.575  14.834  1.6844 -0.7979  0.6898
  428TMC3    C1 6379   2.846   2.611  14.948  0.4813  0.2526  0.1831
  428TMC3    C2 6380   2.794   2.485  14.955  0.0778  0.6000  0.1665
  428TMC3    C3 6381   2.870   2.391  15.022  0.0185 -0.3048 -0.4167
  428TMC3    C4 6382   2.959   2.639  15.022 -0.4824  0.8387  0.4139
  428TMC3    C5 6383   3.034   2.541  15.089 -0.1307 -0.2403  0.3369
  428TMC3    C6 6384   2.990   2.412  15.083 -0.2374  0.3583 -0.5005
  428TMC3     C 6385   2.776   2.723  14.889 -0.9107 -0.0390  0.0701
  428TMC3     O 6386   2.812   2.837  14.908 -0.3382 -0.3340 -0.1940
  428TMC3     H 6387   2.692   2.458  14.932  0.3666 -1.6123  1.4202
  428TMC3    H1 6388   2.986   2.744  15.026  1.1527  0.4298  0.2153
  428TMC3    H2 6389   3.045   2.333  15.132  1.3967 -0.0534 -2.9976
  428TMC3    C7 6390   3.098   2.571  15.218  0.3892  0.6180  0.1076
  428TMC3    C8 6391   2.814   2.258  15.056  0.2039  0.0718 -0.3811
  428TMC3    O1 6392   3.071   2.501  15.317  0.3970 -0.5645 -0.0544
  428TMC3    O2 6393   2.845   2.203  15.163 -0.0211 -0.3342  0.4377
  429MPD2     C 6394   2.996   2.584   0.161  0.2606 -0.1823 -0.7681
  429MPD2    C1 6395   3.081   2.503   0.091 -0.5762 -0.1269 -0.2945
  429MPD2    C2 6396   3.169   2.553   0.001 -0.3975  0.1010 -0.5211
  429MPD2    C3 6397   3.181   2.691  17.701  0.0669  0.1205 -0.5244
  429MPD2    C4 6398   3.086   2.773   0.043 -0.5619 -0.5257 -0.2400
  429MPD2    C5 6399   2.998   2.723   0.132 -0.6159  0.8095 -1.0366
  429MPD2     H 6400   3.239   2.486  17.665 -2.4831 -1.1017 -1.8930
  429MPD2    H1 6401   3.081   2.880   0.029 -0.8950 -0.7067 -1.5174
  429MPD2    H2 6402   2.916   2.551   0.226  1.2592 -0.3567  0.3739
  429MPD2    H3 6403   2.931   2.794   0.180  0.3156  1.1697 -0.2770
  429MPD2     N 6404   3.284   2.740  17.622  0.4585  0.2539 -0.3477
  429MPD2    H5 6405   3.336   2.671  17.569  1.8256  3.3661 -3.1024
  429MPD2    N1 6406   3.077   2.362   0.106 -0.2466 -0.3197  0.2046
  429MPD2    H7 6407   3.147   2.321   0.045  1.5104  0.3080  1.8173
  430TMC3    C1 6408   3.400   2.889  17.484  0.6700  0.5038  0.1772
  430TMC3    C2 6409   3.368   2.973  17.386  0.5273  0.1017  0.5901
  430TMC3    C3 6410   3.462   2.995  17.288 -0.2050  0.2619 -0.5126
  430TMC3    C4 6411   3.510   2.801  17.477 -0.0856 -0.3163  0.4370
  430TMC3    C5 6412   3.592   2.819  17.370  0.7683  0.6234 -0.3886
  430TMC3    C6 6413   3.578   2.925  17.283  0.4046  0.5035  0.1050
  430TMC3     C 6414   3.302   2.876  17.592  0.0241  0.3273  0.4040
  430TMC3     O 6415   3.238   2.980  17.618 -0.4350 -0.0225 -0.0948
  430TMC3     H 6416   3.279   3.035  17.392  0.2717 -0.1978 -0.1430
  430TMC3    H1 6417   3.521   2.710  17.535  1.9040 -0.0100  0.5321
  430TMC3    H2 6418   3.650   2.932  17.203  1.0858 -2.5080  0.4638
  430TMC3    C7 6419   3.678   2.709  17.330 -0.4327 -0.9801  0.1125
  430TMC3    C8 6420   3.431   3.059  17.161 -0.1312 -0.2270 -0.7483
  430TMC3    O1 6421   3.634   2.595  17.340  0.4447  0.6108  0.0417
  430TMC3    O2 6422   3.519   3.098  17.086  0.1746  0.5077  0.0069
  431MPD2     C 6423   4.610   2.236  12.435  0.2814  0.1123  0.3999
  431MPD2    C1 6424   4.612   2.279  12.305  0.0181  0.0166 -0.3057
  431MPD2    C2 6425   4.561   2.196  12.207 -0.3144  0.4711  0.0732
  431MPD2    C3 6426   4.506   2.073  12.243 -0.9166  0.0858 -0.2588
  431MPD2    C4 6427   4.512   2.027  12.370 -0.1579 -0.4896  0.3894
  431MPD2    C5 6428   4.564   2.112  12.468 -0.0709  0.9007  0.1608
  431MPD2     H 6429   4.550   2.221  12.102  0.0662 -0.6785 -0.2480
  431MPD2    H1 6430   4.469   1.931  12.397 -0.5633  0.1456  2.0107
  431MPD2    H2 6431   4.649   2.297  12.516  1.6073  0.5787 -0.5984
  431MPD2    H3 6432   4.566   2.069  12.567  0.4220  0.6573  0.0444
  431MPD2     N 6433   4.457   1.979  12.148  0.5869 -0.2155 -0.3348
  431MPD2    H5 6434   4.426   1.894  12.193 -1.7526 -0.0026 -1.5384
  431MPD2    N1 6435   4.654   2.407  12.265 -0.3451 -0.0596 -0.2101
  431MPD2    H7 6436   4.638   2.429  12.167  1.5543  1.0330 -0.2747
  432TMC3    C1 6437   4.371   1.878  11.959  0.6440 -0.0795 -0.7369
  432TMC3    C2 6438   4.438   1.830  11.846  0.1377  0.1879  0.5148
  432TMC3    C3 6439   4.386   1.706  11.812 -0.2442 -1.1576  0.2588
  432TMC3    C4 6440   4.278   1.811  12.030 -0.2585 -0.4701 -0.1414
  432TMC3    C5 6441   4.231   1.690  11.981 -0.2189 -0.1866 -0.3641
  432TMC3    C6 6442   4.281   1.642  11.867  0.0267  0.0521 -0.2755
  432TMC3     C 6443   4.449   1.986  12.011  0.2291  0.1480 -0.5043
  432TMC3     O 6444   4.482   2.072  11.935 -0.3463  0.0984  0.2715
  432TMC3     H 6445   4.512   1.883  11.789  1.0053 -1.3103  0.2439
  432TMC3    H1 6446   4.258   1.844  12.132 -1.2419 -0.3711 -0.3697
  432TMC3    H2 6447   4.268   1.536  11.846  0.3365  0.3740 -2.0874
  432TMC3    C7 6448   4.131   1.609  12.051  0.6708 -0.5705 -0.3045
  432TMC3    C8 6449   4.481   1.612  11.750 -0.7274 -0.1849  0.1777
  432TMC3    O1 6450   4.093   1.501  12.002  0.3590 -0.5985  0.3692
  432TMC3    O2 6451   4.442   1.508  11.695 -0.0259 -0.6960 -0.3945
  433MPD2     C 6452   3.004   1.174  10.717  0.1845 -0.0597 -1.0565
  433MPD2    C1 6453   3.044   1.064  10.788  0.0620 -0.2994  0.0721
  433MPD2    C2 6454   3.092   1.087  10.918  0.2336  0.5925 -0.0088
  433MPD2    C3 6455   3.113   1.216  10.969  0.1547  0.4618 -0.5654
  433MPD2    C4 6456   3.067   1.327  10.893  0.0509  0.5575 -0.1789
  433MPD2    C5 6457   3.023   1.301  10.765  0.3296 -0.8126 -0.4188
  433MPD2     H 6458   3.124   1.004  10.980  0.1736  0.2332 -0.4515
  433MPD2    H1 6459   3.088   1.431  10.915 -1.5068  0.5607  1.3215
  433MPD2    H2 6460   2.963   1.160  10.618 -3.4782 -1.5354  0.6585
  433MPD2    H3 6461   2.992   1.377  10.695  3.8301  1.1183  0.1283
  433MPD2     N 6462   3.181   1.231  11.096  0.0543 -0.7010  0.1591
  433MPD2    H5 6463   3.213   1.153  11.152 -0.4123 -0.6890  0.4452
  433MPD2    N1 6464   3.027   0.935  10.733  0.3467 -0.3653 -0.1171
  433MPD2    H7 6465   3.002   0.931  10.635  1.0820 -0.8189 -0.2805
  434TMC3    C1 6466   3.052   0.701  10.706 -0.4967 -0.4741  0.1578
  434TMC3    C2 6467   3.078   0.591  10.780  0.5884 -0.4559 -0.1295
  434TMC3    C3 6468   3.150   0.476  10.726  0.2616 -0.2970 -0.0922
  434TMC3    C4 6469   3.098   0.708  10.573  0.0774 -0.6329 -0.1408
  434TMC3    C5 6470   3.159   0.591  10.521  0.1324 -0.0758  0.6712
  434TMC3    C6 6471   3.195   0.484  10.598 -0.1601  0.5890 -0.6389
  434TMC3     C 6472   3.053   0.818  10.794  0.0440 -0.0098  0.1520
  434TMC3     O 6473   3.073   0.801  10.909 -0.7278  0.3489  0.7091
  434TMC3     H 6474   3.040   0.587  10.882  0.2787  0.2432 -0.2206
  434TMC3    H1 6475   3.077   0.791  10.506  0.5658 -0.6357 -0.2949
  434TMC3    H2 6476   3.243   0.398  10.552 -0.6822  1.0029 -1.9316
  434TMC3    C7 6477   3.134   0.561  10.378 -0.3733  0.3172  0.1611
  434TMC3    C8 6478   3.223   0.403  10.832  0.3523 -0.0936 -0.3025
  434TMC3    O1 6479   3.111   0.647  10.295 -0.1013  0.4945  0.4747
  434TMC3    O2 6480   3.206   0.426  10.950  0.3570  0.5338 -0.3577
  435MPD2     C 6481   0.439   1.409  15.449  0.4736 -0.3817 -0.1544
  435MPD2    C1 6482   0.409   1.361  15.574  0.0932 -0.1647  0.5693
  435MPD2    C2 6483   0.508   1.332  15.658 -0.3528 -0.1327  0.3296
  435MPD2    C3 6484   0.646   1.349  15.622 -0.4629  0.4510 -0.0563
  435MPD2    C4 6485   0.676   1.409  15.501  0.0182  0.3626 -0.1585
  435MPD2    C5 6486   0.571   1.430  15.411 -0.2874  0.3242 -0.1883
  435MPD2     H 6487   0.487   1.281  15.751  2.4607 -0.3217  0.8534
  435MPD2    H1 6488   0.777   1.434  15.470 -0.3594  2.1597  0.0878
  435MPD2    H2 6489   0.369   1.444  15.373  0.2203  0.2287  0.3632
  435MPD2    H3 6490   0.591   1.461  15.309  0.1395  4.0175  1.0172
  435MPD2     N 6491   0.747   1.303  15.711  0.2691 -0.8610 -0.1438
  435MPD2    H5 6492   0.717   1.256  15.796  0.4060  2.6470  1.8233
  435MPD2    N1 6493   0.279   1.329  15.615  0.0213 -0.3906 -0.1460
  435MPD2    H7 6494   0.282   1.285  15.706  1.2928 -0.6903 -0.3328
  436TMC3    C1 6495   4.631   1.207  15.785  0.0583 -0.1732  0.1377
  436TMC3    C2 6496   0.015   1.272  15.738  0.1138 -1.0808 -0.3650
  436TMC3    C3 6497   0.038   1.289  15.602 -0.1175 -0.2084 -0.3101
  436TMC3    C4 6498   4.538   1.152  15.696 -0.6793  0.1970 -1.3461
  436TMC3    C5 6499   4.555   1.177  15.561 -0.0142 -0.1941 -0.5492
  436TMC3    C6 6500   4.668   1.241  15.515 -0.5697 -0.1864 -0.6043
  436TMC3     C 6501   4.627   1.165  15.917  0.1256  1.0206  0.0921
  436TMC3     O 6502   4.723   1.101  15.961 -0.2445 -0.0423 -0.1367
  436TMC3     H 6503   0.091   1.292  15.813 -1.5801 -1.3382  1.4429
  436TMC3    H1 6504   4.460   1.089  15.738  1.7927 -2.2512 -0.4195
  436TMC3    H2 6505   4.675   1.249  15.408  0.0565 -1.1859 -0.6316
  436TMC3    C7 6506   4.462   1.115  15.467 -0.0350  0.4214  0.6292
  436TMC3    C8 6507   0.158   1.353  15.539 -0.2676  0.0061 -0.3236
  436TMC3    O1 6508   4.507   1.086  15.354 -0.1974  0.0820 -0.2930
  436TMC3    O2 6509   0.148   1.394  15.426  0.6322  0.6205  0.6362
  437TMC3    C1 6510   3.837   3.487  12.377  0.2167  0.6313  0.1191
  437TMC3    C2 6511   3.731   3.453  12.305 -0.2250  0.5786  0.0953
  437TMC3    C3 6512   3.730   3.463  12.169  0.1143  1.0089  0.1933
  437TMC3    C4 6513   3.953   3.521  12.314 -0.2347 -0.4630 -0.0724
  437TMC3    C5 6514   3.956   3.516  12.177 -1.2252  0.1313 -0.1948
  437TMC3    C6 6515   3.842   3.497  12.102 -0.0619 -0.0586  0.0589
  437TMC3     C 6516   3.831   3.460  12.520  0.4993 -0.0734  0.4115
  437TMC3     O 6517   3.750   3.375  12.554  0.1475 -0.2645  0.0250
  437TMC3     H 6518   3.645   3.418  12.362 -0.7536  1.0572 -0.4044
  437TMC3    H1 6519   4.033   3.557  12.377 -0.5158  1.3540 -0.7600
  437TMC3    H2 6520   3.868   3.463  12.003 -1.0915 -0.2362 -0.1465
  437TMC3    C7 6521   4.080   3.506  12.113 -0.5381 -1.0353 -0.0917
  437TMC3    C8 6522   3.632   3.385  12.097  0.0456 -0.3431 -0.2716
  437TMC3    O1 6523   4.068   3.528  11.990  0.3118 -1.0707  0.4719
  437TMC3    O2 6524   3.580   3.293  12.160 -0.4269  0.0835  0.1711
  438MPD2     C 6525   1.278   4.123  16.901  0.6044 -0.8167  0.1219
  438MPD2    C1 6526   1.365   4.085  16.997 -0.2021  0.0893  0.7959
  438MPD2    C2 6527   1.316   4.041  17.121 -0.1791  0.6116 -0.3367
  438MPD2    C3 6528   1.185   4.040  17.146 -0.3797  0.7914  0.5429
  438MPD2    C4 6529   1.101   4.070  17.048 -0.6959 -1.1055 -0.0512
  438MPD2    C5 6530   1.148   4.108  16.925  0.5826  0.3401  0.6454
  438MPD2     H 6531   1.390   4.010  17.194  0.1334 -0.6333 -1.1836
  438MPD2    H1 6532   0.995   4.050  17.053 -0.9365 -0.4379 -2.3576
  438MPD2    H2 6533   1.313   4.161  16.807  0.2253 -0.0273  0.2985
  438MPD2    H3 6534   1.087   4.114  16.835  1.1007  0.1899  0.2835
  438MPD2     N 6535   1.131   4.006  17.267  0.9466 -0.3903  0.7844
  438MPD2    H5 6536   1.031   3.990  17.265  0.9817 -0.4647 -0.1286
  438MPD2    N1 6537   1.505   4.073  16.977 -0.5334 -0.1644  0.3147
  438MPD2    H7 6538   1.569   4.045  17.051 -1.4833 -0.5503  0.9882
  439TMC3    C1 6539   1.688   4.054  16.846 -0.1396  0.1456 -0.9378
  439TMC3    C2 6540   1.707   3.999  16.722 -0.1245  0.8278 -0.3988
  439TMC3    C3 6541   1.822   3.923  16.708 -0.1084  0.0894  0.1890
  439TMC3    C4 6542   1.769   4.029  16.957  0.5005 -0.0481  0.2568
  439TMC3    C5 6543   1.883   3.954  16.930  0.9502 -0.1275 -0.3898
  439TMC3    C6 6544   1.910   3.903  16.810  0.2991 -0.8726  0.2622
  439TMC3     C 6545   1.562   4.117  16.864  0.5598 -0.1867 -0.3557
  439TMC3     O 6546   1.528   4.195  16.778 -0.1034 -0.5406  0.0527
  439TMC3     H 6547   1.638   4.012  16.640  1.7123 -0.7030 -2.2080
  439TMC3    H1 6548   1.753   4.076  17.054 -1.6958 -2.6338  1.1779
  439TMC3    H2 6549   1.997   3.843  16.787 -0.4710 -1.9772  0.2246
  439TMC3    C7 6550   1.990   3.952  17.035  0.2031  0.0593  0.6798
  439TMC3    C8 6551   1.832   3.837  16.594  0.4336  0.7079  0.2636
  439TMC3    O1 6552   1.958   3.992  17.147  0.1602  0.4981  0.4693
  439TMC3    O2 6553   1.916   3.750  16.603 -0.4755 -0.1123  0.4581
  440MPD2     C 6554   0.317   3.801  14.639 -0.0368 -0.2604  0.6188
  440MPD2    C1 6555   0.320   3.891  14.740  0.1363  0.2499 -0.1134
  440MPD2    C2 6556   0.426   3.891  14.832 -0.4535 -0.8091 -0.0282
  440MPD2    C3 6557   0.524   3.793  14.834  1.1259  0.1483  0.3039
  440MPD2    C4 6558   0.517   3.695  14.736  0.7039 -0.3551 -0.1686
  440MPD2    C5 6559   0.417   3.705  14.644 -0.0342 -0.0874 -0.3846
  440MPD2     H 6560   0.425   3.966  14.911 -1.3585 -1.3384  0.4723
  440MPD2    H1 6561   0.586   3.611  14.738  1.0186 -0.0870  0.5550
  440MPD2    H2 6562   0.239   3.797  14.564  1.2907  0.5251 -0.8236
  440MPD2    H3 6563   0.419   3.638  14.559  0.1587 -1.5645  0.7975
  440MPD2     N 6564   0.624   3.790  14.938 -0.0821  0.1651 -0.1533
  440MPD2    H5 6565   0.665   3.697  14.943 -2.5740 -0.9637 -0.8895
  440MPD2    N1 6566   0.217   3.987  14.750 -0.0324 -0.5753 -0.4700
  440MPD2    H7 6567   0.213   4.062  14.818  0.5946 -1.4578  0.5537
  441TMC3    C1 6568   0.787   3.888  15.092  0.6010  0.3072  0.1783
  441TMC3    C2 6569   0.828   4.012  15.128  1.0070 -0.0329  0.7646
  441TMC3    C3 6570   0.818   4.052  15.254 -0.5715 -0.2309  0.7595
  441TMC3    C4 6571   0.755   3.790  15.183 -0.3870 -0.6379 -0.6493
  441TMC3    C5 6572   0.753   3.823  15.315  0.3102 -0.3754  0.3210
  441TMC3    C6 6573   0.772   3.959  15.344  0.3458 -0.3084 -0.3084
  441TMC3     C 6574   0.675   3.905  14.999  0.7655 -0.3731  0.5383
  441TMC3     O 6575   0.652   4.022  14.971  0.5477  0.8589 -0.0827
  441TMC3     H 6576   0.854   4.086  15.053  1.5596  0.4306  1.4030
  441TMC3    H1 6577   0.707   3.697  15.155 -0.7243 -0.2032 -1.5152
  441TMC3    H2 6578   0.785   3.984  15.449 -1.8018  0.0804 -0.1259
  441TMC3    C7 6579   0.684   3.747  15.409 -0.3992  0.3244  0.6358
  441TMC3    C8 6580   0.763   4.173  15.281 -0.1076  0.4673 -0.1776
  441TMC3    O1 6581   0.648   3.805  15.509 -0.3254 -0.4112 -0.1565
  441TMC3    O2 6582   0.752   4.212  15.397 -0.1120  0.0191 -0.1484
  442MPD2     C 6583   3.375   0.478  16.826 -0.0509  0.0373 -0.0531
  442MPD2    C1 6584   3.283   0.397  16.893  0.2015 -0.2343  0.5205
  442MPD2    C2 6585   3.280   0.262  16.856 -0.5547 -0.0596 -0.5526
  442MPD2    C3 6586   3.356   0.211  16.757 -0.4624  0.7267  0.4928
  442MPD2    C4 6587   3.449   0.295  16.698  0.3022  0.2991  0.5000
  442MPD2    C5 6588   3.458   0.427  16.731 -0.4045  0.4200 -0.0803
  442MPD2     H 6589   3.219   0.189  16.907  0.8450  0.2203  1.5235
  442MPD2    H1 6590   3.511   0.254  16.619  0.6027  0.7995  0.4758
  442MPD2    H2 6591   3.380   0.585  16.841  1.6378 -0.0150 -0.3253
  442MPD2    H3 6592   3.538   0.482  16.684  0.2679  2.0420  2.9958
  442MPD2     N 6593   3.336   0.082  16.707  0.0589  0.0448  0.2626
  442MPD2    H5 6594   3.417   0.054  16.651  1.5441  0.1505  2.3487
  442MPD2    N1 6595   3.211   0.461  16.995  0.8261  0.3550  0.2970
  442MPD2    H7 6596   3.238   0.558  17.004 -1.8040  1.1477 -0.4535
  443TMC3    C1 6597   3.049   0.497  17.168  0.5170  0.3936  0.3112
  443TMC3    C2 6598   2.958   0.572  17.107 -0.6640 -0.5794 -0.0423
  443TMC3    C3 6599   2.853   0.611  17.193  0.0495 -0.2944 -0.7261
  443TMC3    C4 6600   3.036   0.444  17.297 -0.1119  0.0180 -0.3214
  443TMC3    C5 6601   2.935   0.486  17.380 -0.2657 -1.0094 -0.1634
  443TMC3    C6 6602   2.833   0.569  17.323  0.2357 -0.5302 -0.1759
  443TMC3     C 6603   3.116   0.404  17.076  0.3930 -0.7586 -0.8415
  443TMC3     O 6604   3.087   0.284  17.081  0.0478  0.5206 -0.4762
  443TMC3     H 6605   2.981   0.627  17.016 -2.2274  0.1403 -0.0022
  443TMC3    H1 6606   3.113   0.373  17.324 -0.9392 -1.1153 -0.8818
  443TMC3    H2 6607   2.737   0.584  17.370  1.3754  0.7007  1.7840
  443TMC3    C7 6608   2.897   0.388  17.476 -0.1918 -0.0528 -0.3922
  443TMC3    C8 6609   2.725   0.625  17.132  0.0287  0.2332 -0.0147
  443TMC3    O1 6610   2.943   0.276  17.455 -0.0263 -0.2200  0.3584
  443TMC3    O2 6611   2.636   0.698  17.179 -0.2559 -0.1400  0.6483
  444MPD2     C 6612   3.584   4.398  17.370 -0.5652  0.5046 -0.3439
  444MPD2    C1 6613   3.531   4.269  17.389  0.1680  0.3625 -0.6107
  444MPD2    C2 6614   3.547   4.172  17.291 -0.3191 -0.9053 -0.2257
  444MPD2    C3 6615   3.622   4.193  17.177 -0.7666  0.0452 -0.2619
  444MPD2    C4 6616   3.670   4.319  17.158 -0.2957  0.0535 -0.1359
  444MPD2    C5 6617   3.638   4.425  17.244 -0.4179 -0.4074 -0.0821
  444MPD2     H 6618   3.494   4.079  17.307 -0.9388 -0.5139 -0.0025
  444MPD2    H1 6619   3.732   4.338  17.072  0.3667 -0.5347  0.2075
  444MPD2    H2 6620   3.574   4.486  17.433 -1.5818  1.4344 -1.7772
  444MPD2    H3 6621   3.668   4.523  17.209 -2.7602  0.3486  0.0306
  444MPD2     N 6622   3.659   4.079  17.100 -0.3296 -0.2569  0.5645
  444MPD2    H5 6623   3.615   3.991  17.124 -0.3798  0.2718  2.4031
  444MPD2    N1 6624   3.470   4.226  17.509  0.2803  0.7531 -0.2531
  444MPD2    H7 6625   3.430   4.133  17.513 -0.7373  1.2117  0.2982
  445TMC3    C1 6626   3.763   3.954  16.931  0.2190  0.1608  0.0879
  445TMC3    C2 6627   3.646   3.890  16.894  0.6616 -0.4833  0.2891
  445TMC3    C3 6628   3.671   3.758  16.854  0.5389  0.0195 -0.3391
  445TMC3    C4 6629   3.893   3.905  16.937  0.5423 -0.2402 -0.0029
  445TMC3    C5 6630   3.907   3.769  16.902  0.6596  0.4143 -0.0249
  445TMC3    C6 6631   3.791   3.700  16.855  0.3998 -0.2881  0.2447
  445TMC3     C 6632   3.751   4.083  16.997  0.0807  0.3162 -0.4155
  445TMC3     O 6633   3.853   4.139  17.013  0.0029  0.2923 -0.3182
  445TMC3     H 6634   3.552   3.942  16.884  1.1390 -0.1190 -2.4577
  445TMC3    H1 6635   3.977   3.964  16.972  1.0615 -0.8056 -0.2796
  445TMC3    H2 6636   3.791   3.594  16.832  0.6141 -1.1133  4.0887
  445TMC3    C7 6637   4.038   3.727  16.860 -0.1893  0.6970  0.5576
  445TMC3    C8 6638   3.588   3.716  16.744  0.8785 -0.0771 -0.8894
  445TMC3    O1 6639   4.109   3.819  16.822 -0.6977  0.0090 -0.2583
  445TMC3    O2 6640   3.636   3.643  16.659  0.3014  0.2362  0.0262
  446MPD2     C 6641   2.876   0.508  11.375 -0.0619 -0.6846  0.0775
  446MPD2    C1 6642   2.888   0.477  11.243  0.1120 -0.0809  0.1929
  446MPD2    C2 6643   2.999   0.523  11.174  0.2190  0.2309 -0.1471
  446MPD2    C3 6644   3.097   0.604  11.228  0.0798 -0.1255  1.0261
  446MPD2    C4 6645   3.091   0.636  11.355  0.5901  0.2742 -0.2675
  446MPD2    C5 6646   2.979   0.584  11.423 -0.4951  0.0050  0.6202
  446MPD2     H 6647   3.007   0.493  11.070  0.1052 -0.5612  0.0750
  446MPD2    H1 6648   3.157   0.700  11.411  0.5113  1.9363 -2.0994
  446MPD2    H2 6649   2.788   0.487  11.436  1.1487 -0.5817  1.8701
  446MPD2    H3 6650   2.952   0.625  11.520  0.1741  2.0931 -0.0655
  446MPD2     N 6651   3.215   0.640  11.152 -0.0667  0.0903 -0.1180
  446MPD2    H5 6652   3.213   0.620  11.053  0.7828 -2.9874  0.4579
  446MPD2    N1 6653   2.796   0.399  11.167 -0.3117  0.3461 -0.7507
  446MPD2    H7 6654   2.813   0.390  11.067 -1.6805 -2.1116 -0.7531
  447TMC3    C1 6655   3.424   0.699  11.097  0.3638 -0.3712  0.2133
  447TMC3    C2 6656   3.396   0.708  10.965  1.2556 -0.2093 -0.7047
  447TMC3    C3 6657   3.492   0.659  10.880 -0.3499  0.0602  0.2380
  447TMC3    C4 6658   3.545   0.651  11.147  0.1536  0.0553 -0.5741
  447TMC3    C5 6659   3.639   0.602  11.058 -0.6355 -0.0869  0.1964
  447TMC3    C6 6660   3.611   0.603  10.924 -0.7376 -0.6882  0.6146
  447TMC3     C 6661   3.320   0.706  11.195 -0.2782  0.0094 -0.0023
  447TMC3     O 6662   3.354   0.741  11.307 -0.2038  0.1026  0.0807
  447TMC3     H 6663   3.307   0.761  10.932  1.2171 -0.8193 -1.5992
  447TMC3    H1 6664   3.552   0.637  11.254  1.5447  0.9499 -0.5478
  447TMC3    H2 6665   3.699   0.597  10.861 -0.8762 -0.0553  0.3556
  447TMC3    C7 6666   3.767   0.539  11.095 -0.4488 -0.2349  0.3509
  447TMC3    C8 6667   3.467   0.659  10.737 -0.3428 -0.0469 -0.5969
  447TMC3    O1 6668   3.831   0.479  11.010 -0.2514  0.2587 -0.5340
  447TMC3    O2 6669   3.394   0.734  10.680  0.2311  0.1034 -0.1210
  448TMC3    C1 6670   1.981   0.940  16.782  0.3717  0.5327 -0.1845
  448TMC3    C2 6671   1.937   0.821  16.728 -0.2673  1.0801 -0.4690
  448TMC3    C3 6672   2.022   0.708  16.750 -0.2970  0.0617  0.7003
  448TMC3    C4 6673   2.086   0.958  16.870 -0.1068  0.1217 -0.7131
  448TMC3    C5 6674   2.146   0.839  16.896 -0.0139 -0.4171  0.3492
  448TMC3    C6 6675   2.127   0.717  16.834  0.0179  1.0455  0.2700
  448TMC3     C 6676   1.913   1.059  16.736  0.3353  0.3197 -0.2847
  448TMC3     O 6677   1.791   1.064  16.719  0.3436 -0.4284  0.3738
  448TMC3     H 6678   1.869   0.831  16.644  0.3662  3.2685 -0.7251
  448TMC3    H1 6679   2.097   1.046  16.933 -3.3359 -0.6932  1.0215
  448TMC3    H2 6680   2.174   0.625  16.868  0.2966  0.2015 -2.4007
  448TMC3    C7 6681   2.219   0.833  17.015  0.2166 -0.0696 -0.7183
  448TMC3    C8 6682   1.979   0.576  16.702 -0.4909 -0.4583 -0.6417
  448TMC3    O1 6683   2.269   0.931  17.058 -0.2363 -0.2841  0.4997
  448TMC3    O2 6684   2.038   0.477  16.739 -0.0028 -0.1895 -0.2127
  449MPD2     C 6685   3.088   3.240  13.484  0.4874  0.0950 -0.0361
  449MPD2    C1 6686   3.011   3.175  13.384  0.8847 -0.2194  0.7259
  449MPD2    C2 6687   2.898   3.105  13.410 -0.6777 -0.5857 -0.2962
  449MPD2    C3 6688   2.854   3.101  13.541 -0.5775  0.0328 -0.2420
  449MPD2    C4 6689   2.933   3.165  13.639  0.2716 -0.0009 -0.4249
  449MPD2    C5 6690   3.056   3.230  13.617 -0.5175 -0.0481 -0.2180
  449MPD2     H 6691   2.855   3.048  13.329 -3.2296  1.6805 -0.5692
  449MPD2    H1 6692   2.905   3.166  13.744 -1.1104 -0.0756 -0.7939
  449MPD2    H2 6693   3.173   3.301  13.457  0.3961  0.1906 -0.1093
  449MPD2    H3 6694   3.107   3.273  13.702  0.4254 -1.3096 -0.1549
  449MPD2     N 6695   2.733   3.032  13.570  0.0903  0.0392 -0.1473
  449MPD2    H5 6696   2.702   2.977  13.491  0.0814 -0.6614  0.3430
  449MPD2    N1 6697   3.046   3.194  13.244  0.4717 -0.1323 -0.4937
  449MPD2    H7 6698   2.987   3.141  13.180 -0.6420  0.0625  0.3739
  450TMC3    C1 6699   3.161   3.218  13.050 -0.0219  0.2931  0.3444
  450TMC3    C2 6700   3.276   3.153  13.016  0.2048 -0.1002 -0.0487
  450TMC3    C3 6701   3.260   3.026  12.971  0.6342 -0.2920  0.5197
  450TMC3    C4 6702   3.038   3.162  13.023  0.5133  0.4193  0.2030
  450TMC3    C5 6703   3.031   3.037  12.974 -0.1317  0.4261 -0.8265
  450TMC3    C6 6704   3.143   2.962  12.953 -0.2821 -1.0353 -0.7985
  450TMC3     C 6705   3.153   3.259  13.187 -0.4738  0.2236 -1.1615
  450TMC3     O 6706   3.254   3.298  13.236  0.4252  0.5390 -0.2262
  450TMC3     H 6707   3.369   3.186  13.062  0.9302 -0.9655 -0.9032
  450TMC3    H1 6708   2.951   3.226  13.012  0.3794  0.3617  0.9183
  450TMC3    H2 6709   3.134   2.862  12.911  0.8655 -2.0067  1.2903
  450TMC3    C7 6710   2.914   2.965  13.035 -0.3896 -0.3702  0.0338
  450TMC3    C8 6711   3.377   2.957  12.936  0.6002  0.0230  0.6378
  450TMC3    O1 6712   2.828   3.041  13.066  0.0185 -0.0083  0.2743
  450TMC3    O2 6713   3.370   2.841  12.907  0.1418  0.1601 -0.1080
  451MPD2     C 6714   4.569   3.131   1.404 -0.1287  0.3028  0.0665
  451MPD2    C1 6715   4.435   3.124   1.396 -0.9779  1.0131  0.3814
  451MPD2    C2 6716   4.373   3.004   1.428 -0.3804 -0.3594  0.9562
  451MPD2    C3 6717   4.445   2.888   1.451 -0.0493  0.2620 -0.2660
  451MPD2    C4 6718   4.581   2.887   1.449  0.3107  0.4760 -0.4663
  451MPD2    C5 6719   4.638   3.011   1.426 -0.1386 -0.1939  0.3619
  451MPD2     H 6720   4.265   3.010   1.436 -0.6286 -2.2746 -0.8008
  451MPD2    H1 6721   4.648   2.803   1.432  2.4064  1.9632  0.5119
  451MPD2    H2 6722   4.632   3.219   1.398 -1.5875  1.3951  0.6836
  451MPD2    H3 6723   0.018   3.023   1.429 -0.1568 -0.7568  3.1953
  451MPD2     N 6724   4.367   2.770   1.454 -0.6847 -0.3724  0.2671
  451MPD2    H5 6725   4.268   2.777   1.434 -0.5513 -1.4351 -0.7705
  451MPD2    N1 6726   4.374   3.250   1.368  0.6224  0.3120  0.6300
  451MPD2    H7 6727   4.437   3.328   1.358 -0.7362  1.2079 -0.9817
  452TMC3    C1 6728   4.282   2.563   1.467  0.0912 -0.3516  0.0908
  452TMC3    C2 6729   4.257   2.449   1.540  0.5996 -0.0270 -0.2523
  452TMC3    C3 6730   4.183   2.349   1.490 -0.6186 -0.0494 -0.7520
  452TMC3    C4 6731   4.231   2.563   1.337 -0.5034  0.0580  0.0847
  452TMC3    C5 6732   4.159   2.453   1.292 -0.0922 -0.1727  0.3986
  452TMC3    C6 6733   4.137   2.341   1.365  0.1152 -0.3505 -0.6067
  452TMC3     C 6734   4.401   2.638   1.480  0.1413 -0.4916  0.5733
  452TMC3     O 6735   4.508   2.583   1.507 -0.2432 -0.0233 -0.4448
  452TMC3     H 6736   4.309   2.441   1.635  2.9746 -2.4313 -1.7829
  452TMC3    H1 6737   4.226   2.657   1.282  1.1693 -0.8749 -1.6806
  452TMC3    H2 6738   4.098   2.252   1.317  1.0580  0.5273 -2.9813
  452TMC3    C7 6739   4.123   2.451   1.156  0.1898  0.0243  0.9865
  452TMC3    C8 6740   4.159   2.236   1.571 -0.0609  0.2991  0.3763
  452TMC3    O1 6741   4.191   2.524   1.091  0.0602 -0.7264  0.1092
  452TMC3    O2 6742   4.251   2.215   1.645  0.0641 -0.2907 -0.5698
  453TMC3    C1 6743   0.835   4.448  12.054 -0.2871 -0.5215 -0.3435
  453TMC3    C2 6744   0.740   4.388  12.134  0.9150 -0.2509  0.2490
  453TMC3    C3 6745   0.639   4.326  12.067  0.2262  0.2144 -0.2847
  453TMC3    C4 6746   0.831   4.452  11.917  0.6449 -0.3624 -0.6430
  453TMC3    C5 6747   0.727   4.391  11.859 -0.0254 -0.3080 -0.1966
  453TMC3    C6 6748   0.625   4.330  11.929 -0.7622 -0.7458  0.1522
  453TMC3     C 6749   0.962   4.493  12.116  0.1533 -0.1731  0.1379
  453TMC3     O 6750   1.027   4.585  12.069 -0.1719  0.3838  0.0621
  453TMC3     H 6751   0.742   4.399  12.242 -0.5289 -0.2464  0.2788
  453TMC3    H1 6752   0.912   4.506  11.868  0.9636  0.4425  0.7726
  453TMC3    H2 6753   0.531   4.292  11.890 -0.2971 -1.6024 -0.1068
  453TMC3    C7 6754   0.711   4.406  11.717 -0.0693  0.0608  0.0168
  453TMC3    C8 6755   0.549   4.241  12.139 -0.2222  0.7702  0.0860
  453TMC3    O1 6756   0.597   4.412  11.677  0.5300 -0.2962 -0.3684
  453TMC3    O2 6757   0.497   4.277  12.245 -0.2109  0.2187 -0.0382
  454MPD2     C 6758   4.360   3.931  16.518  0.4453  0.1421  0.3209
  454MPD2    C1 6759   4.297   4.043  16.471  0.1837  0.4122  0.1884
  454MPD2    C2 6760   4.264   4.144  16.567  0.0678  0.4911  0.0585
  454MPD2    C3 6761   4.301   4.125  16.699 -0.1467 -0.1513 -0.0491
  454MPD2    C4 6762   4.374   4.017  16.733 -0.3591 -0.1043  0.0469
  454MPD2    C5 6763   4.396   3.918  16.643 -0.0506 -0.6705  0.5198
  454MPD2     H 6764   4.223   4.237  16.529  0.5571  0.4899 -0.4660
  454MPD2    H1 6765   4.406   4.007  16.836  0.6152  2.4233 -0.0137
  454MPD2    H2 6766   4.388   3.848  16.454  0.2488  1.2634 -1.2370
  454MPD2    H3 6767   4.443   3.825  16.677 -2.2389 -1.1349  2.2831
  454MPD2     N 6768   4.264   4.215  16.802  0.5180  0.2472  0.6084
  454MPD2    H5 6769   4.330   4.224  16.879 -0.1784  0.3139  1.1974
  454MPD2    N1 6770   4.264   4.060  16.337 -0.1548 -0.7073 -0.1605
  454MPD2    H7 6771   4.241   4.154  16.306  1.9236 -1.1490 -2.9929
  455TMC3    C1 6772   4.049   4.280  16.702 -0.4717 -0.0706  0.5727
  455TMC3    C2 6773   3.985   4.390  16.661  0.7628 -0.3754 -0.7447
  455TMC3    C3 6774   3.850   4.376  16.617 -0.1674  0.3514 -0.3521
  455TMC3    C4 6775   3.991   4.152  16.691  0.2206  0.6599 -0.6006
  455TMC3    C5 6776   3.872   4.144  16.620  0.3865 -0.6623 -0.3306
  455TMC3    C6 6777   3.793   4.253  16.596 -0.7850 -0.6080  0.0605
  455TMC3     C 6778   4.170   4.312  16.788  0.2138 -0.5659 -0.7038
  455TMC3     O 6779   4.157   4.401  16.871  0.2945 -0.7898  0.2452
  455TMC3     H 6780   4.020   4.491  16.681 -2.9891  1.5148 -3.6053
  455TMC3    H1 6781   4.038   4.062  16.728  1.7399  2.1567  1.0691
  455TMC3    H2 6782   3.698   4.251  16.543 -0.3007 -0.0840 -0.8386
  455TMC3    C7 6783   3.835   4.016  16.556 -0.0740  0.1067 -0.3561
  455TMC3    C8 6784   3.760   4.475  16.682  0.5938  0.3445  0.0480
  455TMC3    O1 6785   3.721   3.998  16.525 -0.3212 -0.4309  0.1821
  455TMC3    O2 6786   3.810   4.583  16.692  0.1168  0.0924 -0.1937
  456MPD2     C 6787   1.985   4.058  16.391  0.1662 -0.3667 -0.3233
  456MPD2    C1 6788   2.063   4.032  16.501  0.0705  0.1555 -0.0140
  456MPD2    C2 6789   2.053   4.117  16.614  0.6559 -0.0687  0.5349
  456MPD2    C3 6790   1.949   4.211  16.611 -0.2458 -0.3741  0.0692
  456MPD2    C4 6791   1.878   4.235  16.495 -0.0740 -0.6902  0.4059
  456MPD2    C5 6792   1.901   4.163  16.381 -0.4818  0.1839 -0.0976
  456MPD2     H 6793   2.128   4.125  16.691  0.4446 -1.3241  0.8785
  456MPD2    H1 6794   1.805   4.315  16.479  0.4363 -0.6677 -1.7785
  456MPD2    H2 6795   1.989   3.995  16.302 -1.0947  1.0153 -1.3678
  456MPD2    H3 6796   1.853   4.188  16.287 -1.6648  1.0972  0.7585
  456MPD2     N 6797   1.925   4.291  16.724 -0.1555  0.4842 -0.0783
  456MPD2    H5 6798   1.998   4.301  16.794 -0.0688 -1.8423  0.1817
  456MPD2    N1 6799   2.163   3.933  16.489 -0.3978 -0.2399  0.0270
  456MPD2    H7 6800   2.151   3.887  16.399 -0.4590 -3.0549  1.4624
  457TMC3    C1 6801   1.844   4.484  16.825  0.1926  0.4623  0.7482
  457TMC3    C2 6802   1.781   4.601  16.802 -0.7973 -0.1701 -0.2091
  457TMC3    C3 6803   1.787   4.704  16.892  0.3292 -0.3522  0.3103
  457TMC3    C4 6804   1.902   4.456  16.943  0.2261 -0.0059 -0.1814
  457TMC3    C5 6805   1.888   4.546  17.042  0.3453 -0.3811  0.2807
  457TMC3    C6 6806   1.844   4.675  17.015  0.0120 -0.1214 -0.0660
  457TMC3     C 6807   1.816   4.377  16.732 -0.0474 -0.0443 -0.7567
  457TMC3     O 6808   1.717   4.399  16.665  0.0856  0.1736  0.2627
  457TMC3     H 6809   1.757   4.616  16.697 -1.6564  1.7482  0.2541
  457TMC3    H1 6810   1.960   4.366  16.958 -0.7293 -0.6025 -0.1486
  457TMC3    H2 6811   1.832   0.009  17.104 -1.5060 -1.0346  0.3793
  457TMC3    C7 6812   1.992   4.527  17.138 -0.8256  0.9772  0.5133
  457TMC3    C8 6813   1.777   0.114  16.856  0.1499 -0.0250  0.3396
  457TMC3    O1 6814   2.008   4.418  17.191 -0.0515  0.4733 -0.4162
  457TMC3    O2 6815   1.847   0.189  16.927 -0.4825 -0.4455 -0.0014
  458MPD2     C 6816   4.568   3.365  12.085 -0.0783  0.0233 -0.3953
  458MPD2    C1 6817   4.520   3.321  12.202 -0.5598  0.8445 -0.0176
  458MPD2    C2 6818   4.386   3.353  12.236 -0.5477  0.5020  0.0617
  458MPD2    C3 6819   4.311   3.427  12.152 -0.0346  0.0605 -0.3203
  458MPD2    C4 6820   4.361   3.476  12.034  0.0403 -0.8794  0.8569
  458MPD2    C5 6821   4.488   3.439  11.998  0.6773 -0.0005 -0.9231
  458MPD2     H 6822   4.335   3.319  12.325  2.0903 -0.9215  1.0582
  458MPD2    H1 6823   4.311   3.529  11.954 -0.3430  0.3015  1.8787
  458MPD2    H2 6824   4.668   3.352  12.046  0.0585  2.0001 -0.7253
  458MPD2    H3 6825   4.518   3.479  11.901  1.0880 -1.5965 -1.4662
  458MPD2     N 6826   4.183   3.470  12.199  0.2667  0.4491 -0.2639
  458MPD2    H5 6827   4.163   3.445  12.296  1.6802 -0.1911 -0.1494
  458MPD2    N1 6828   4.608   3.253  12.286 -0.4435 -0.0742 -0.1169
  458MPD2    H7 6829   4.706   3.240  12.265 -0.3962 -1.0056  0.6743
  459TMC3    C1 6830   4.687   3.215  12.502  0.1310 -0.5276 -0.0725
  459TMC3    C2 6831   0.042   3.318  12.493  0.4047 -0.4529  0.0174
  459TMC3    C3 6832   0.112   3.350  12.606  0.6734  0.1688  0.3558
  459TMC3    C4 6833   4.681   3.130  12.611  0.0073  0.4205 -0.6449
  459TMC3    C5 6834   0.030   3.164  12.720  0.1775 -0.0375 -0.4453
  459TMC3    C6 6835   0.113   3.271  12.722 -0.6237  0.0896  0.0715
  459TMC3     C 6836   4.574   3.213  12.412 -0.4949  0.4864  0.4144
  459TMC3     O 6837   4.472   3.163  12.449  0.3410 -0.8960  0.4331
  459TMC3     H 6838   0.043   3.384  12.407  0.5492  1.0616  1.1780
  459TMC3    H1 6839   4.621   3.039  12.612  0.7495 -0.0734 -0.8272
  459TMC3    H2 6840   0.175   3.280  12.811 -0.6759 -0.6743  0.1880
  459TMC3    C7 6841   0.061   3.050  12.811 -0.5298 -0.3810 -0.0935
  459TMC3    C8 6842   0.217   3.452  12.591 -0.1360 -0.9972 -0.3563
  459TMC3    O1 6843   0.176   3.038  12.851 -0.1858 -0.1583 -0.1464
  459TMC3    O2 6844   0.242   3.488  12.477  0.6114 -0.0328  0.5864
  460MPD2     C 6845   3.644   0.421  10.532  0.8287  0.1235  0.3718
  460MPD2    C1 6846   3.554   0.516  10.548 -0.7260  0.1149  0.0779
  460MPD2    C2 6847   3.476   0.566  10.444 -0.0247  0.1943 -0.2301
  460MPD2    C3 6848   3.492   0.516  10.314 -0.3630  0.9177  0.1068
  460MPD2    C4 6849   3.589   0.422  10.290 -0.0110 -0.0459 -0.0066
  460MPD2    C5 6850   3.663   0.373  10.399  0.1550  0.2592 -0.6570
  460MPD2     H 6851   3.409   0.643  10.481 -0.8560 -0.5182 -0.2514
  460MPD2    H1 6852   3.609   0.380  10.192  1.6334  2.0969 -0.5959
  460MPD2    H2 6853   3.700   0.380  10.615  1.3579 -2.7057 -1.3773
  460MPD2    H3 6854   3.736   0.293  10.393  0.9864  1.2085 -3.0842
  460MPD2     N 6855   3.416   0.580  10.211 -0.0540 -0.0378  0.1132
  460MPD2    H5 6856   3.334   0.636  10.234  0.9231  0.6797  1.8129
  460MPD2    N1 6857   3.539   0.560  10.681 -0.2838 -0.2255  0.0203
  460MPD2    H7 6858   3.585   0.508  10.755  1.6208  1.6712  0.1801
  461TMC3    C1 6859   3.333   0.618   9.991  0.0121 -0.5502  0.8940
  461TMC3    C2 6860   3.322   0.583   9.864  0.2991 -0.3479  0.5103
  461TMC3    C3 6861   3.227   0.644   9.789  0.7152  0.3063 -0.6833
  461TMC3    C4 6862   3.261   0.723  10.041 -0.0917 -0.0028 -0.1569
  461TMC3    C5 6863   3.187   0.791   9.956  0.0961 -0.7296  0.2276
  461TMC3    C6 6864   3.160   0.758   9.832 -0.1533  0.0607  0.3995
  461TMC3     C 6865   3.426   0.541  10.081 -0.5118 -0.0487  0.1487
  461TMC3     O 6866   3.503   0.465  10.025 -0.2343 -0.9764 -0.2723
  461TMC3     H 6867   3.381   0.504   9.819  1.1338  0.8443 -0.4875
  461TMC3    H1 6868   3.284   0.765  10.138 -2.3767  1.9111 -0.4699
  461TMC3    H2 6869   3.090   0.807   9.766  0.1645  2.1515  1.6105
  461TMC3    C7 6870   3.097   0.888  10.017 -0.3764  0.8391  0.7908
  461TMC3    C8 6871   3.220   0.589   9.653  0.3250  0.9284  0.9322
  461TMC3    O1 6872   3.008   0.925   9.943 -0.8479  0.4374  0.2876
  461TMC3    O2 6873   3.313   0.524   9.611 -0.1980 -0.3642  0.3087
  462TMC3    C1 6874   3.921   1.415   0.146  0.3215 -0.7737 -0.4055
  462TMC3    C2 6875   3.920   1.295   0.085 -0.7918  0.4205 -0.7444
  462TMC3    C3 6876   3.828   1.208   0.134  0.3400  0.7595  0.3420
  462TMC3    C4 6877   3.821   1.458   0.236  0.1235 -0.2908 -0.0759
  462TMC3    C5 6878   3.732   1.363   0.273 -0.7565 -0.4769  0.6298
  462TMC3    C6 6879   3.724   1.240   0.215  0.1800  0.1407 -0.0219
  462TMC3     C 6880   4.033   1.508   0.119 -0.2642  0.0961 -0.2249
  462TMC3     O 6881   4.131   1.449   0.076  0.4169  0.1177  0.0334
  462TMC3     H 6882   4.000   1.267   0.016 -1.3643  1.0375 -1.6642
  462TMC3    H1 6883   3.843   1.542   0.302 -1.2252  0.7031 -0.8876
  462TMC3    H2 6884   3.677   1.159   0.269 -1.9058  0.6920 -0.9900
  462TMC3    C7 6885   3.611   1.409   0.347 -0.3917  0.1928 -0.4602
  462TMC3    C8 6886   3.832   1.069   0.082  0.3142  0.0614 -0.2697
  462TMC3    O1 6887   3.528   1.321   0.361  0.2742  0.5961 -0.2224
  462TMC3    O2 6888   3.778   0.981   0.145  0.1055 -0.2005 -0.0178
  463MPD2     C 6889   4.355   1.548   1.813 -0.2166 -0.3561  0.4102
  463MPD2    C1 6890   4.256   1.545   1.715  0.2770  0.0244  0.1425
  463MPD2    C2 6891   4.239   1.654   1.641  0.2853  0.4839 -0.1710
  463MPD2    C3 6892   4.333   1.760   1.636  0.8361 -0.1763 -0.5435
  463MPD2    C4 6893   4.421   1.763   1.738 -0.5665 -0.3752 -0.0360
  463MPD2    C5 6894   4.427   1.663   1.827  0.0283  0.7424  0.8974
  463MPD2     H 6895   4.152   1.649   1.576  0.6815 -0.3574 -0.6369
  463MPD2    H1 6896   4.496   1.841   1.749 -0.5780 -0.4859  0.8056
  463MPD2    H2 6897   4.376   1.465   1.879  0.7405  0.3671  1.0093
  463MPD2    H3 6898   4.500   1.690   1.903 -0.8265  0.2251  1.8972
  463MPD2     N 6899   4.334   1.860   1.533 -0.2317 -0.0712  0.1716
  463MPD2    H5 6900   4.402   1.936   1.538  0.1245 -0.3782 -0.0244
  463MPD2    N1 6901   4.168   1.433   1.705 -0.5725 -0.3668 -0.4147
  463MPD2    H7 6902   4.087   1.439   1.644 -2.2660  0.2164  1.8726
  464TMC3    C1 6903   4.096   1.203   1.734  0.1452  0.3128 -0.2047
  464TMC3    C2 6904   3.992   1.226   1.641 -1.0439 -0.1049  0.6951
  464TMC3    C3 6905   3.922   1.123   1.593  0.0851 -0.1777  0.2604
  464TMC3    C4 6906   4.124   1.074   1.779 -0.0793 -0.0209 -0.6800
  464TMC3    C5 6907   4.052   0.973   1.725 -0.2583  0.0418 -0.6281
  464TMC3    C6 6908   3.946   0.993   1.636 -0.1813 -0.8204  0.2907
  464TMC3     C 6909   4.185   1.314   1.776 -0.1906  0.3890  0.1636
  464TMC3     O 6910   4.277   1.270   1.848 -0.2689 -0.1910  0.4409
  464TMC3     H 6911   3.961   1.327   1.616  1.3765  0.0479 -1.7471
  464TMC3    H1 6912   4.205   1.059   1.849 -1.7774  0.2708  1.3655
  464TMC3    H2 6913   3.893   0.906   1.602 -2.5338  1.3280 -1.4902
  464TMC3    C7 6914   4.091   0.845   1.767 -1.0394  0.2252 -0.1249
  464TMC3    C8 6915   3.812   1.157   1.505 -0.1711 -0.1147  0.0947
  464TMC3    O1 6916   4.164   0.835   1.863  0.0707  0.4068  0.6465
  464TMC3    O2 6917   3.815   1.261   1.440 -0.0142  0.2012  0.0540
  465MPD2     C 6918   1.258   4.016  16.414 -0.0794 -0.2596 -0.0048
  465MPD2    C1 6919   1.162   3.988  16.514  0.3230 -0.2793  0.3404
  465MPD2    C2 6920   1.035   4.037  16.493 -0.5370 -0.3798 -0.5334
  465MPD2    C3 6921   0.999   4.109  16.380 -0.3888  0.3587 -0.0965
  465MPD2    C4 6922   1.099   4.135  16.285 -0.1170 -0.2923  0.2139
  465MPD2    C5 6923   1.225   4.084  16.298 -0.2332 -0.0690  0.8020
  465MPD2     H 6924   0.958   4.032  16.569  1.1353  1.1078  1.2703
  465MPD2    H1 6925   1.078   4.198  16.199  1.2681  2.3427  1.8004
  465MPD2    H2 6926   1.362   3.985  16.423  0.3077  0.2897 -2.4742
  465MPD2    H3 6927   1.309   4.107  16.233  0.5342  1.6883  2.4209
  465MPD2     N 6928   0.863   4.143  16.356  0.5889 -0.0351  0.3127
  465MPD2    H5 6929   0.789   4.118  16.421  0.6331  3.5877  1.7916
  465MPD2    N1 6930   1.190   3.916  16.627  0.4284 -0.0328  0.0286
  465MPD2    H7 6931   1.104   3.907  16.679  0.5983  0.2017  0.3476
  466TMC3    C1 6932   0.445   4.148  16.279  0.2386 -0.6695  0.1486
  466TMC3    C2 6933   0.396   4.270  16.250 -0.2635  0.6966 -0.5145
  466TMC3    C3 6934   0.479   4.366  16.194  1.0003  0.0315  0.0542
  466TMC3    C4 6935   0.580   4.123  16.285  0.0782 -1.4846 -0.0481
  466TMC3    C5 6936   0.661   4.225  16.240 -0.8920  0.1343 -0.8477
  466TMC3    C6 6937   0.615   4.343  16.184  0.2678  0.3684 -0.1764
  466TMC3     C 6938   0.371   4.102  16.395  1.0201  0.3019  1.0634
  466TMC3     O 6939   0.338   4.191  16.468 -0.6457 -0.0821 -0.6400
  466TMC3     H 6940   0.289   4.280  16.236 -0.4016  0.0694  0.0695
  466TMC3    H1 6941   0.623   4.039  16.337  2.2177  0.2989  1.0893
  466TMC3    H2 6942   0.683   4.423  16.159  1.7229 -0.9276 -0.3874
  466TMC3    C7 6943   0.812   4.211  16.241  0.8606 -0.2616 -0.6125
  466TMC3    C8 6944   0.426   4.492  16.154  0.0368  0.6764  0.7637
  466TMC3    O1 6945   0.886   4.288  16.181 -0.4891  0.5836 -0.3667
  466TMC3    O2 6946   0.339   4.492  16.069  0.6834  0.4049  0.0455
  467TMC3    C1 6947   2.265   2.571  13.923 -0.2808  0.4406  0.3762
  467TMC3    C2 6948   2.202   2.635  13.819 -0.1351 -0.2782  0.0353
  467TMC3    C3 6949   2.067   2.649  13.832 -0.2284 -0.0543  0.8144
  467TMC3    C4 6950   2.205   2.513  14.028 -0.2006  0.1301  0.9812
  467TMC3    C5 6951   2.067   2.526  14.036  0.6217 -0.7730  0.2112
  467TMC3    C6 6952   1.994   2.601  13.941  0.3327  0.6437  0.1008
  467TMC3     C 6953   2.410   2.582  13.921  0.9392 -0.7052 -0.3305
  467TMC3     O 6954   2.469   2.622  14.020 -0.0579 -0.3551  0.7561
  467TMC3     H 6955   2.257   2.698  13.750  0.5175  0.4695  1.2320
  467TMC3    H1 6956   2.261   2.454  14.099  1.5345 -0.9988 -1.3312
  467TMC3    H2 6957   1.887   2.618  13.942 -0.1028 -2.0982 -0.5885
  467TMC3    C7 6958   2.006   2.458  14.151  0.3956 -0.3649 -0.8205
  467TMC3    C8 6959   1.998   2.736  13.737  0.8364  0.2732 -0.4435
  467TMC3    O1 6960   2.074   2.401  14.234  0.6014  0.6641  0.7633
  467TMC3    O2 6961   1.941   2.837  13.771  0.1882  0.6322 -0.0778
  468MPD2     C 6962   0.191   0.650  10.631  0.3676 -0.4232 -0.3093
  468MPD2    C1 6963   0.325   0.616  10.656  0.8619  0.4058 -0.0884
  468MPD2    C2 6964   0.359   0.497  10.717  0.3882 -0.4858 -0.0652
  468MPD2    C3 6965   0.255   0.408  10.751  0.2395 -0.4527  0.0445
  468MPD2    C4 6966   0.128   0.443  10.736  0.1250 -0.7727 -0.0694
  468MPD2    C5 6967   0.096   0.565  10.682 -0.0934 -0.1993 -0.0170
  468MPD2     H 6968   0.462   0.466  10.731  0.2704 -1.4771 -1.3987
  468MPD2    H1 6969   0.049   0.376  10.768 -1.6605  1.2086 -0.2774
  468MPD2    H2 6970   0.157   0.743  10.587 -3.1083 -2.0529 -1.0656
  468MPD2    H3 6971   4.720   0.596  10.674  0.7506  2.9938  1.6228
  468MPD2     N 6972   0.281   0.282  10.808  0.1755 -0.5808 -0.4278
  468MPD2    H5 6973   0.195   0.237  10.839 -0.7564  1.2337 -0.3832
  468MPD2    N1 6974   0.434   0.709  10.616 -0.6920  0.4562  0.1193
  468MPD2    H7 6975   0.527   0.698  10.655  0.5486 -0.8784 -3.2172
  469TMC3    C1 6976   0.531   0.897  10.512  0.2213  0.6093  0.0188
  469TMC3    C2 6977   0.655   0.848  10.552 -0.9942  0.3436  1.2666
  469TMC3    C3 6978   0.757   0.942  10.535 -0.4118 -0.4495  0.1366
  469TMC3    C4 6979   0.517   1.027  10.461  0.1162 -0.0028 -0.4414
  469TMC3    C5 6980   0.626   1.099  10.432  0.2543  0.0843 -0.0359
  469TMC3    C6 6981   0.751   1.062  10.471 -0.3636 -0.3687  0.0974
  469TMC3     C 6982   0.413   0.825  10.546 -0.0874 -0.0103  0.2889
  469TMC3     O 6983   0.311   0.870  10.501 -0.5091  0.1153  0.0747
  469TMC3     H 6984   0.665   0.744  10.582 -0.7738  0.0438  0.1544
  469TMC3    H1 6985   0.425   1.053  10.409  0.2192 -1.0301 -1.1396
  469TMC3    H2 6986   0.845   1.113  10.453 -0.7200  0.3364  0.2229
  469TMC3    C7 6987   0.624   1.224  10.374  0.0548 -0.2243  0.3554
  469TMC3    C8 6988   0.892   0.894  10.561 -0.0202 -0.5984  0.4069
  469TMC3    O1 6989   0.720   1.262  10.310  0.5519 -0.3095  0.7273
  469TMC3    O2 6990   0.976   0.968  10.517  0.7348  0.6223 -0.1423
  470TMC3    C1 6991   2.756   2.276   1.165  0.5569 -0.0723  0.5579
  470TMC3    C2 6992   2.774   2.374   1.068  0.7057  0.0995 -0.9020
  470TMC3    C3 6993   2.849   2.336   0.962  0.0545  0.2913  0.4747
  470TMC3    C4 6994   2.815   2.155   1.158  0.0986  0.7425 -0.0724
  470TMC3    C5 6995   2.885   2.121   1.045  0.4075 -0.1377  0.0503
  470TMC3    C6 6996   2.910   2.212   0.945 -0.1810 -0.6231  0.3120
  470TMC3     C 6997   2.658   2.297   1.273  0.0694  0.4969 -0.3466
  470TMC3     O 6998   2.606   2.405   1.276 -1.0008  0.6191 -0.1474
  470TMC3     H 6999   2.709   2.461   1.057  2.0220  0.9223 -2.2885
  470TMC3    H1 7000   2.826   2.100   1.251 -3.3092 -0.0817 -0.1660
  470TMC3    H2 7001   2.976   2.200   0.861  0.3398  1.3148  0.4307
  470TMC3    C7 7002   2.973   1.998   1.051  0.8853  0.3003 -0.0388
  470TMC3    C8 7003   2.887   2.438   0.866 -0.7353  0.1006  0.1326
  470TMC3    O1 7004   3.057   1.991   0.964 -0.0968  0.0328  0.5338
  470TMC3    O2 7005   2.896   2.398   0.751  0.1990  0.1181 -0.0927
  471MPD2     C 7006   3.105   3.167  16.798 -0.1329  0.0982 -0.4721
  471MPD2    C1 7007   3.240   3.187  16.803  0.5441 -0.5855 -0.1901
  471MPD2    C2 7008   3.310   3.157  16.917  1.3272 -0.3490  0.0906
  471MPD2    C3 7009   3.238   3.103  17.021 -0.2668  0.3406 -0.2116
  471MPD2    C4 7010   3.104   3.080  17.013  0.3122  0.2831  0.5903
  471MPD2    C5 7011   3.037   3.111  16.899  0.3878 -0.0654 -0.0295
  471MPD2     H 7012   3.416   3.177  16.917  1.4647 -1.0744 -0.2160
  471MPD2    H1 7013   3.054   3.023  17.090 -0.3431 -1.6108 -1.2614
  471MPD2    H2 7014   3.049   3.190  16.708  1.3140  1.1133 -1.1289
  471MPD2    H3 7015   2.932   3.086  16.893 -0.0542  1.3864  1.5434
  471MPD2     N 7016   3.296   3.065  17.144  0.5549  0.4804  0.2043
  471MPD2    H5 7017   3.244   3.012  17.213 -1.4157  0.8881 -0.9533
  471MPD2    N1 7018   3.321   3.223  16.687 -0.4774  0.1506 -0.3487
  471MPD2    H7 7019   3.422   3.212  16.692 -0.2716  1.6426 -1.0932
  472TMC3    C1 7020   3.382   3.228  16.467  0.8919  0.7872 -0.1896
  472TMC3    C2 7021   3.343   3.269  16.345  0.2319 -0.3889  0.3406
  472TMC3    C3 7022   3.362   3.192  16.235  0.4331 -0.2358 -0.2438
  472TMC3    C4 7023   3.462   3.118  16.479 -0.2825  0.6502  0.2937
  472TMC3    C5 7024   3.463   3.033  16.374  0.6846 -0.3765  0.3305
  472TMC3    C6 7025   3.427   3.070  16.246 -0.1947  0.0871  0.6430
  472TMC3     C 7026   3.277   3.251  16.562  0.1379  0.8259  0.6054
  472TMC3     O 7027   3.165   3.270  16.515  0.2863  0.3178 -0.4558
  472TMC3     H 7028   3.291   3.364  16.341 -1.9479 -1.6289 -0.7524
  472TMC3    H1 7029   3.503   3.084  16.574  1.6793  1.1612 -0.3719
  472TMC3    H2 7030   3.430   3.006  16.159  2.5569  1.0723  0.0264
  472TMC3    C7 7031   3.467   2.894  16.404 -0.1345 -0.0281  0.6210
  472TMC3    C8 7032   3.251   3.191  16.140 -0.1077  1.0664 -0.0389
  472TMC3    O1 7033   3.504   2.856  16.514 -0.2620  0.9320  0.2193
  472TMC3    O2 7034   3.271   3.212  16.021  0.0053  0.6279 -0.1766
  473MPD2     C 7035   3.241   0.305  14.003  0.5684 -0.0627 -0.2771
  473MPD2    C1 7036   3.296   0.399  13.924 -0.1311 -0.4948  0.0229
  473MPD2    C2 7037   3.375   0.499  13.976 -0.7717 -0.6257  0.0611
  473MPD2    C3 7038   3.408   0.499  14.110 -0.1453  0.4867  0.1680
  473MPD2    C4 7039   3.359   0.400  14.191 -0.3318 -0.9957 -0.1450
  473MPD2    C5 7040   3.278   0.309  14.136 -0.1289  0.0026 -0.5262
  473MPD2     H 7041   3.416   0.568  13.903 -0.1187 -0.1716  0.8561
  473MPD2    H1 7042   3.375   0.390  14.298 -0.1679 -2.1420 -0.2780
  473MPD2    H2 7043   3.176   0.229  13.961  0.6717 -0.8392  0.9680
  473MPD2    H3 7044   3.237   0.228  14.196 -0.7281  0.9656  0.3576
  473MPD2     N 7045   3.484   0.604  14.165  0.1154  0.3044 -0.0164
  473MPD2    H5 7046   3.512   0.594  14.262  0.0290  0.1172 -0.0115
  473MPD2    N1 7047   3.254   0.420  13.788 -1.2401  0.6524  0.1176
  473MPD2    H7 7048   3.285   0.510  13.751  0.3453  0.5606  1.2278
  474TMC3    C1 7049   3.567   0.831  14.191 -0.1252 -0.2990  0.1698
  474TMC3    C2 7050   3.531   0.966  14.177  0.5579 -0.2642 -0.3149
  474TMC3    C3 7051   3.600   1.050  14.258  0.7341  0.3545  0.5388
  474TMC3    C4 7052   3.647   0.786  14.294  0.5598 -0.5670  0.2792
  474TMC3    C5 7053   3.692   0.886  14.382  0.7522  0.1210  0.3888
  474TMC3    C6 7054   3.676   1.016  14.361  0.1239 -0.5763 -0.4334
  474TMC3     C 7055   3.501   0.733  14.106 -0.4261 -0.2261 -0.8986
  474TMC3     O 7056   3.457   0.773  14.000 -0.0827 -0.4801 -0.7332
  474TMC3     H 7057   3.475   1.000  14.090  0.9952  1.4905  0.1052
  474TMC3    H1 7058   3.689   0.686  14.292  0.8456 -0.4601  0.8318
  474TMC3    H2 7059   3.728   1.095  14.413 -2.0061  0.0413  0.7800
  474TMC3    C7 7060   3.819   0.854  14.454  0.2456 -0.1508 -0.3642
  474TMC3    C8 7061   3.592   1.183  14.212 -0.2874  0.1812  0.8242
  474TMC3    O1 7062   3.897   0.765  14.417 -0.2486 -0.6218 -0.3238
  474TMC3    O2 7063   3.696   1.247  14.211  0.3253  0.5906  0.0072
  475MPD2     C 7064   1.821   2.911  10.228  0.4296 -0.2543  0.0089
  475MPD2    C1 7065   1.786   3.004  10.319  0.3255 -0.0169  0.2349
  475MPD2    C2 7066   1.672   2.986  10.387  1.0331 -0.3858 -0.0260
  475MPD2    C3 7067   1.584   2.889  10.361  0.6596 -1.0944  0.0595
  475MPD2    C4 7068   1.611   2.803  10.257 -0.6646  0.6563  0.7142
  475MPD2    C5 7069   1.738   2.804  10.206  0.5610  0.6012  0.5027
  475MPD2     H 7070   1.655   3.064  10.460 -1.1620  1.4275 -2.4555
  475MPD2    H1 7071   1.546   2.720  10.233 -1.6492  2.0523 -1.4059
  475MPD2    H2 7072   1.921   2.907  10.187  1.2860 -0.6007  2.1618
  475MPD2    H3 7073   1.763   2.723  10.139 -0.7824 -1.8445  2.9206
  475MPD2     N 7074   1.448   2.896  10.424  0.4377 -0.2692  0.3215
  475MPD2    H5 7075   1.444   2.957  10.506 -1.9424 -1.3805  1.0517
  475MPD2    N1 7076   1.880   3.102  10.357 -0.5592  1.2136  0.2340
  475MPD2    H7 7077   1.860   3.165  10.433  2.6115  0.5472  1.5963
  476TMC3    C1 7078   2.033   3.268  10.324  0.0996  0.4515  0.6217
  476TMC3    C2 7079   2.018   3.351  10.217  0.1035  0.2749  0.0743
  476TMC3    C3 7080   1.961   3.473  10.242 -0.1560 -0.3006  0.0489
  476TMC3    C4 7081   1.981   3.298  10.443  0.1974  0.5217 -0.0294
  476TMC3    C5 7082   1.935   3.425  10.467  0.5924 -0.6033 -0.0804
  476TMC3    C6 7083   1.933   3.514  10.369  0.0029 -0.1672 -0.0463
  476TMC3     C 7084   1.999   3.133  10.292 -0.3533 -0.2082  0.0279
  476TMC3     O 7085   2.043   3.098  10.181 -0.4271  0.0024 -0.3633
  476TMC3     H 7086   2.042   3.315  10.118 -0.6814  2.1071 -0.7922
  476TMC3    H1 7087   1.996   3.230  10.526  0.5675  1.7140  0.8961
  476TMC3    H2 7088   1.875   3.604  10.376 -1.1643 -0.9657  0.5228
  476TMC3    C7 7089   1.869   3.446  10.590  0.6971  0.3137 -0.0441
  476TMC3    C8 7090   1.835   3.475  10.164 -0.7992 -0.0223  0.0791
  476TMC3    O1 7091   1.829   3.349  10.649 -0.2971  0.0394 -0.0280
  476TMC3    O2 7092   1.767   3.579  10.174  0.3492 -0.2674 -0.1882
  477MPD2     C 7093   3.897   0.339  12.084  0.4426 -0.0982  0.2934
  477MPD2    C1 7094   3.858   0.237  12.000  0.0411 -0.9238  0.1609
  477MPD2    C2 7095   3.815   0.114  12.050  0.0109 -0.2026  0.4382
  477MPD2    C3 7096   3.818   0.096  12.187 -0.4202  0.6306 -0.2585
  477MPD2    C4 7097   3.854   0.202  12.271  0.2587  0.6353 -0.1073
  477MPD2    C5 7098   3.898   0.319  12.221 -0.6151  0.4042 -0.0814
  477MPD2     H 7099   3.783   0.034  11.984 -2.2393 -0.3140  1.6737
  477MPD2    H1 7100   3.838   0.195  12.377  2.1192  0.9336  0.2007
  477MPD2    H2 7101   3.941   0.427  12.039 -2.2976  0.7034 -0.7636
  477MPD2    H3 7102   3.946   0.384  12.294 -1.8402  3.7215 -2.2393
  477MPD2     N 7103   3.779   4.696  12.240 -0.4563 -0.0697  0.0356
  477MPD2    H5 7104   3.774   4.630  12.164 -3.6096 -1.8050  1.7607
  477MPD2    N1 7105   3.847   0.273  11.860 -0.0551  0.2412  0.0175
  477MPD2    H7 7106   3.890   0.363  11.844 -1.3109  1.4011  3.0427
  478TMC3    C1 7107   3.779   0.271  11.629 -0.2549  0.2059 -0.3339
  478TMC3    C2 7108   3.748   0.404  11.649 -0.6296  0.1238 -0.8638
  478TMC3    C3 7109   3.691   0.468  11.542  0.2019 -0.0031 -0.1928
  478TMC3    C4 7110   3.736   0.199  11.524 -0.3577  0.4240 -0.1825
  478TMC3    C5 7111   3.661   0.261  11.432 -0.2481 -0.7713  0.7551
  478TMC3    C6 7112   3.641   0.399  11.437  0.0220 -0.1372  0.3615
  478TMC3     C 7113   3.797   0.200  11.755 -0.1961  0.0592 -0.4370
  478TMC3     O 7114   3.765   0.081  11.760 -0.2423  0.4180  0.6965
  478TMC3     H 7115   3.786   0.458  11.735  1.1657 -0.1046 -1.5081
  478TMC3    H1 7116   3.770   0.096  11.523  1.1460  0.9119  0.0860
  478TMC3    H2 7117   3.597   0.449  11.352  0.7940 -0.6919 -0.3634
  478TMC3    C7 7118   3.656   0.203  11.299 -0.2692 -0.3562  1.1416
  478TMC3    C8 7119   3.660   0.611  11.544  0.0952  0.5949  0.0868
  478TMC3    O1 7120   3.757   0.133  11.274 -0.1300  0.6770  0.6598
  478TMC3    O2 7121   3.568   0.660  11.481 -0.3817 -0.1460  0.0083
  479MPD2     C 7122   3.321   2.857  15.281  0.4249  0.1432  0.9068
  479MPD2    C1 7123   3.242   2.748  15.318  0.6873  0.2251 -0.4435
  479MPD2    C2 7124   3.229   2.711  15.446  0.2847  0.1362  0.1674
  479MPD2    C3 7125   3.279   2.791  15.545 -0.3738  0.1097 -0.0397
  479MPD2    C4 7126   3.346   2.906  15.510 -0.4945 -0.5363 -0.0569
  479MPD2    C5 7127   3.362   2.934  15.380 -0.7498  0.0791 -0.6028
  479MPD2     H 7128   3.163   2.629  15.470  1.8199 -1.4541 -1.0862
  479MPD2    H1 7129   3.395   2.977  15.576 -0.6767  2.4931 -3.2074
  479MPD2    H2 7130   3.328   2.882  15.176  0.7987 -1.9677  0.4126
  479MPD2    H3 7131   3.429   3.017  15.360 -1.4882  0.2590 -2.4008
  479MPD2     N 7132   3.233   2.768  15.680 -1.0954 -0.3884  0.4522
  479MPD2    H5 7133   3.245   2.848  15.740 -0.9832  0.1694 -0.3176
  479MPD2    N1 7134   3.178   2.680  15.210  0.7118 -0.4326  0.2359
  479MPD2    H7 7135   3.176   2.728  15.121  1.4518  0.3656  0.6437
  480TMC3    C1 7136   2.898   2.573  15.930 -0.0534 -0.0353 -0.6538
  480TMC3    C2 7137   2.815   2.682  15.908  0.0106 -0.3209 -0.7397
  480TMC3    C3 7138   2.854   2.781  15.828 -0.3532  0.6768  0.5291
  480TMC3    C4 7139   3.022   2.564  15.878  0.9228  0.0085  0.2230
  480TMC3    C5 7140   3.062   2.671  15.809  0.4474  0.3587 -0.5133
  480TMC3    C6 7141   2.984   2.783  15.784  0.3289 -0.7324 -0.4244
  480TMC3     C 7142   2.856   2.469  16.021  0.3849 -0.3844  0.3220
  480TMC3     O 7143   2.942   2.389  16.056  0.2458 -0.4053  0.0593
  480TMC3     H 7144   2.715   2.686  15.950  0.8206  0.9906  1.0625
  480TMC3    H1 7145   3.076   2.470  15.884  1.0464  0.1249  0.9357
  480TMC3    H2 7146   3.023   2.870  15.732 -2.3881 -0.1400 -1.4925
  480TMC3    C7 7147   3.173   2.652  15.720 -0.8303 -0.3025 -0.6999
  480TMC3    C8 7148   2.757   2.810  15.728 -0.4930  0.4196  0.1612
  480TMC3    O1 7149   3.218   2.538  15.704 -0.2447 -0.0412  0.0729
  480TMC3    O2 7150   2.642   2.776  15.747 -0.3434  0.1496  0.1641
  481MPD2     C 7151   0.086   2.117  14.225  0.8510 -0.0943  0.4458
  481MPD2    C1 7152   0.014   2.005  14.250  0.7873 -0.4075 -0.2694
  481MPD2    C2 7153   0.020   1.933  14.367  0.2675  0.0394 -0.0670
  481MPD2    C3 7154   0.109   1.970  14.466  0.4743  0.1696  0.3225
  481MPD2    C4 7155   0.185   2.077  14.438 -0.4028 -0.4255  0.4534
  481MPD2    C5 7156   0.176   2.151  14.322  0.0233 -0.1894  0.6657
  481MPD2     H 7157   4.688   1.846  14.390  2.0505 -1.3052 -0.4995
  481MPD2    H1 7158   0.256   2.115  14.510 -0.7199  2.0638 -0.5629
  481MPD2    H2 7159   0.075   2.165  14.129 -0.3683 -1.2236  0.0222
  481MPD2    H3 7160   0.242   2.236  14.306  1.8514 -1.4194  1.7755
  481MPD2     N 7161   0.127   1.902  14.587  0.1345  0.0307  0.4995
  481MPD2    H5 7162   0.202   1.935  14.648  1.1365 -2.7472  0.8017
  481MPD2    N1 7163   4.654   1.972  14.138  0.4035 -0.3294 -0.1350
  481MPD2    H7 7164   4.658   2.037  14.060  2.6186 -0.9730 -0.5571
  482TMC3    C1 7165   4.502   1.855  14.008 -0.7015 -0.0634 -0.0675
  482TMC3    C2 7166   4.385   1.787  14.019 -0.2390 -0.3733 -0.3501
  482TMC3    C3 7167   4.305   1.787  13.905  0.1738 -0.3829  0.4110
  482TMC3    C4 7168   4.529   1.933  13.900 -0.2363  0.2344 -0.5600
  482TMC3    C5 7169   4.443   1.937  13.795 -0.4183  0.9267 -0.5401
  482TMC3    C6 7170   4.327   1.875  13.799 -0.4829 -0.0033  0.4690
  482TMC3     C 7171   4.571   1.869  14.134 -0.2168 -0.0096  0.1500
  482TMC3     O 7172   4.535   1.795  14.223 -0.1135 -0.6132  0.1158
  482TMC3     H 7173   4.366   1.731  14.110  1.4221  1.2479  0.9898
  482TMC3    H1 7174   4.624   1.984  13.895 -0.9303  1.5803 -0.1681
  482TMC3    H2 7175   4.257   1.888  13.717  0.5318  2.7489  0.0362
  482TMC3    C7 7176   4.488   2.006  13.676  0.7960 -0.8591  0.2693
  482TMC3    C8 7177   4.199   1.693  13.894  0.7289  0.0628 -0.5487
  482TMC3    O1 7178   4.594   2.069  13.684  0.5606 -0.1256 -0.5593
  482TMC3    O2 7179   4.178   1.634  14.000  0.2894 -0.6380 -0.0953
  483TMC3    C1 7180   1.948   1.520   1.210 -0.2476 -0.1226  0.5393
  483TMC3    C2 7181   1.956   1.651   1.166 -0.6009  0.1925 -0.4939
  483TMC3    C3 7182   2.074   1.702   1.131 -0.2959  0.3994 -0.2376
  483TMC3    C4 7183   2.061   1.443   1.226  0.1788 -0.4341  0.2237
  483TMC3    C5 7184   2.180   1.500   1.195  0.1839  0.3205  0.6158
  483TMC3    C6 7185   2.187   1.632   1.155 -0.6630  0.3608 -0.1229
  483TMC3     C 7186   1.817   1.465   1.233  0.0553  0.0641 -0.7044
  483TMC3     O 7187   1.728   1.528   1.286 -0.0737  0.1047  0.2130
  483TMC3     H 7188   1.870   1.708   1.133  0.0701  1.1035 -0.6705
  483TMC3    H1 7189   2.058   1.349   1.280 -3.0080 -0.0110  0.8335
  483TMC3    H2 7190   2.282   1.684   1.148 -0.7242  0.6865  1.4736
  483TMC3    C7 7191   2.301   1.418   1.185  0.4974  0.2450  0.0743
  483TMC3    C8 7192   2.086   1.798   1.026  0.2187  0.6381 -0.0820
  483TMC3    O1 7193   2.296   1.308   1.238 -0.4169  0.2505 -0.3434
  483TMC3    O2 7194   1.995   1.884   1.014 -0.4489 -0.2468  0.8020
  484MPD2     C 7195   0.430   3.573  12.852 -0.0611 -0.0041  0.1370
  484MPD2    C1 7196   0.396   3.556  12.725  0.2330 -0.4719 -0.4621
  484MPD2    C2 7197   0.485   3.588  12.615 -0.4805  0.3759 -0.2768
  484MPD2    C3 7198   0.603   3.651  12.646  0.0520  0.3487  0.1392
  484MPD2    C4 7199   0.627   3.691  12.777  0.3091  0.2591  0.0875
  484MPD2    C5 7200   0.541   3.652  12.874  0.2028  1.1703 -0.4042
  484MPD2     H 7201   0.461   3.571  12.511 -0.2300  0.0046 -0.2760
  484MPD2    H1 7202   0.716   3.744  12.809  1.7622 -1.8807 -0.4247
  484MPD2    H2 7203   0.374   3.550  12.942  3.0289 -0.0705  2.0741
  484MPD2    H3 7204   0.569   3.676  12.976  0.9398 -0.4639 -0.2148
  484MPD2     N 7205   0.706   3.686  12.557  0.0664  0.1650 -0.3957
  484MPD2    H5 7206   0.790   3.731  12.591 -1.4226  2.7698 -0.2073
  484MPD2    N1 7207   0.280   3.481  12.709  0.0399  0.2818  0.3796
  484MPD2    H7 7208   0.241   3.453  12.798  0.0279  1.5084  0.7628
  485TMC3    C1 7209   0.825   3.682  12.343 -0.3633 -0.5551  0.0931
  485TMC3    C2 7210   0.939   3.624  12.396 -0.2344  0.1688  0.1310
  485TMC3    C3 7211   1.040   3.582  12.305  0.0843  0.0485  0.1728
  485TMC3    C4 7212   0.812   3.694  12.207 -0.7526  0.7438  0.8978
  485TMC3    C5 7213   0.916   3.660  12.124 -0.1196 -0.3145  0.4162
  485TMC3    C6 7214   1.034   3.608  12.171 -0.0331  0.3807  0.2980
  485TMC3     C 7215   0.701   3.648  12.423  0.1838 -0.4126 -0.0097
  485TMC3     O 7216   0.614   3.590  12.359  0.0715  0.7448  0.6897
  485TMC3     H 7217   0.955   3.595  12.500  1.6383  0.3170 -0.1192
  485TMC3    H1 7218   0.714   3.710  12.164 -1.7317 -0.4849  2.6744
  485TMC3    H2 7219   1.102   3.568  12.097  0.1565 -1.1451  1.2998
  485TMC3    C7 7220   0.875   3.579  12.011 -0.5221 -0.1770  0.5573
  485TMC3    C8 7221   1.079   3.443  12.320  0.1587  0.2617  0.0027
  485TMC3    O1 7222   0.832   3.637  11.914  0.1117  0.8872  0.0517
  485TMC3    O2 7223   1.078   3.378  12.218  0.3940  0.0033 -0.3602
  486MPD2     C 7224   2.929   2.701  12.726 -0.0247 -0.2810 -0.3741
  486MPD2    C1 7225   2.807   2.655  12.777  0.0458 -0.4028 -0.4561
  486MPD2    C2 7226   2.707   2.755  12.788  0.4420 -0.3123  0.1617
  486MPD2    C3 7227   2.726   2.883  12.746  0.3744  0.5420 -0.2850
  486MPD2    C4 7228   2.849   2.925  12.707  0.7109 -0.8353  0.0869
  486MPD2    C5 7229   2.947   2.836  12.693 -0.2797 -0.5150 -0.1215
  486MPD2     H 7230   2.609   2.735  12.832 -0.8799  0.6944 -2.3346
  486MPD2    H1 7231   2.866   3.027  12.674  0.4437 -1.4847 -2.0885
  486MPD2    H2 7232   3.000   2.628  12.688  0.7098 -1.3305  2.9817
  486MPD2    H3 7233   3.044   2.863  12.654 -1.1657 -0.0499 -2.0081
  486MPD2     N 7234   2.613   2.963  12.760 -0.1501  0.6397 -0.3279
  486MPD2    H5 7235   2.536   2.927  12.815  0.0748 -1.5646 -1.4754
  486MPD2    N1 7236   2.788   2.515  12.807  0.8910 -0.0526  0.4518
  486MPD2    H7 7237   2.874   2.461  12.807 -2.9039 -5.9782  1.6391
  487TMC3    C1 7238   2.680   2.304  12.857  0.0381  0.0712 -0.3133
  487TMC3    C2 7239   2.562   2.238  12.862 -0.4641 -0.5466 -0.0860
  487TMC3    C3 7240   2.549   2.103  12.898 -0.2912 -0.4715 -0.1549
  487TMC3    C4 7241   2.794   2.245  12.897  0.4383 -0.2024 -0.5103
  487TMC3    C5 7242   2.780   2.112  12.940  0.1451 -0.6271  0.0261
  487TMC3    C6 7243   2.663   2.037  12.937 -0.2704  0.1096  0.7505
  487TMC3     C 7244   2.672   2.453  12.840  0.8450 -0.6888  0.0788
  487TMC3     O 7245   2.559   2.497  12.846 -0.7193  0.0012 -0.2005
  487TMC3     H 7246   2.482   2.287  12.808 -1.0962 -1.8962 -0.3658
  487TMC3    H1 7247   2.887   2.301  12.900 -0.5744  1.2644  2.6607
  487TMC3    H2 7248   2.656   1.945  12.993 -1.5425 -0.6994 -0.7736
  487TMC3    C7 7249   2.851   2.098  13.061  0.4574  0.0658 -0.5314
  487TMC3    C8 7250   2.425   2.047  12.945  0.5410  0.6151 -0.0897
  487TMC3    O1 7251   2.890   2.205  13.105 -0.8917 -0.0200  0.4572
  487TMC3    O2 7252   2.435   1.974  13.041  0.4531  0.2154 -0.2053
  488MPD2     C 7253   2.732   4.276  16.849 -0.3172  0.6162  0.2454
  488MPD2    C1 7254   2.721   4.410  16.891 -0.2251 -0.3942 -0.4773
  488MPD2    C2 7255   2.686   4.435  17.023 -0.0125  0.2654 -0.3405
  488MPD2    C3 7256   2.652   4.334  17.107 -0.0745  0.2168  0.5237
  488MPD2    C4 7257   2.661   4.202  17.064  0.3351 -0.3003  0.0252
  488MPD2    C5 7258   2.698   4.177  16.940  0.2178  0.2775  0.1115
  488MPD2     H 7259   2.684   4.538  17.057 -0.9378 -0.0665  0.6129
  488MPD2    H1 7260   2.640   4.117  17.128 -2.1524  2.1457  2.5269
  488MPD2    H2 7261   2.750   4.246  16.746 -0.3272 -1.0925  0.7421
  488MPD2    H3 7262   2.700   4.073  16.910 -0.1688  0.6885 -1.3596
  488MPD2     N 7263   2.614   4.368  17.236 -0.6323  0.4498  0.2646
  488MPD2    H5 7264   2.601   4.467  17.256 -0.3827  0.2965  1.1648
  488MPD2    N1 7265   2.745   4.523  16.807  0.7697  0.5609 -0.2071
  488MPD2    H7 7266   2.731   4.615  16.848 -1.5858  0.3806 -0.5791
  489TMC3    C1 7267   2.579   4.336  17.470  0.3833  0.7139  0.2963
  489TMC3    C2 7268   2.654   4.453  17.490  0.1431 -0.3656 -0.2100
  489TMC3    C3 7269   2.628   4.527  17.599  0.4015 -0.2409  0.5436
  489TMC3    C4 7270   2.501   4.291  17.577  0.4802  0.2385  0.1681
  489TMC3    C5 7271   2.512   4.355  17.697 -0.5186  0.3197  0.9082
  489TMC3    C6 7272   2.567   4.474   0.001  0.6726  0.5652  0.8411
  489TMC3     C 7273   2.579   4.276  17.338 -0.5634  0.5597 -0.4121
  489TMC3     O 7274   2.541   4.159  17.330  0.1326  0.2067 -0.6016
  489TMC3     H 7275   2.713   4.495  17.410 -0.8742 -0.6526 -1.1257
  489TMC3    H1 7276   2.453   4.194  17.568  3.2865 -1.2377  1.2905
  489TMC3    H2 7277   2.573   4.517   0.101  0.0885 -0.4447  1.3084
  489TMC3    C7 7278   2.450   4.289   0.105  1.0951 -0.2674 -0.4730
  489TMC3    C8 7279   2.659   4.669  17.586 -0.2309 -0.3369  0.3287
  489TMC3    O1 7280   2.490   4.320   0.219  0.0454  0.6238 -0.2365
  489TMC3    O2 7281   2.745   4.705  17.505  0.1070  0.3506 -0.0055
  490MPD2     C 7282   3.927   3.601  17.302  0.4353 -0.0864 -0.2849
  490MPD2    C1 7283   3.845   3.626  17.406 -1.1398 -0.2317 -0.6416
  490MPD2    C2 7284   3.837   3.758  17.452 -0.1662  0.1751 -0.3259
  490MPD2    C3 7285   3.893   3.864  17.382  0.1961  0.0070  0.3239
  490MPD2    C4 7286   3.972   3.833  17.282  0.5023 -0.4373  0.1813
  490MPD2    C5 7287   3.991   3.703  17.244 -0.1976  0.7937  0.1191
  490MPD2     H 7288   3.773   3.771  17.539 -0.1420 -1.5291 -0.0398
  490MPD2    H1 7289   4.022   3.913  17.227 -1.8916 -0.2273 -1.6884
  490MPD2    H2 7290   3.941   3.499  17.268 -0.5826 -0.1369 -0.5736
  490MPD2    H3 7291   4.048   3.678  17.155 -1.7244  2.8634 -1.4411
  490MPD2     N 7292   3.882   4.005  17.412 -0.2152  0.3246 -0.7245
  490MPD2    H5 7293   3.936   4.074  17.360  0.5768  1.5924  1.7635
  490MPD2    N1 7294   3.765   3.526  17.470  0.4479 -0.0544  0.2311
  490MPD2    H7 7295   3.712   3.553  17.552 -1.6976 -0.8817 -0.8902
  491TMC3    C1 7296   3.662   3.323  17.520 -0.2756 -0.3171 -0.3348
  491TMC3    C2 7297   3.638   3.353  17.646  0.9678 -0.0152  0.1253
  491TMC3    C3 7298   3.511   3.329  17.690 -0.5165  0.4142 -0.2897
  491TMC3    C4 7299   3.565   3.277  17.441  0.1526 -0.4259 -0.3574
  491TMC3    C5 7300   3.437   3.273  17.478 -0.8870 -0.5001  0.4988
  491TMC3    C6 7301   3.411   3.297  17.609 -0.7516  0.0702 -0.0311
  491TMC3     C 7302   3.760   3.393  17.439  0.1041 -0.0964  1.1133
  491TMC3     O 7303   3.811   3.332  17.343 -0.3509  0.3606  0.1960
  491TMC3     H 7304   3.718   3.378   0.003  1.6070  2.8526 -1.6944
  491TMC3    H1 7305   3.590   3.250  17.339 -0.4232  0.4905 -0.7465
  491TMC3    H2 7306   3.311   3.274  17.646 -0.8373  1.9837  0.9279
  491TMC3    C7 7307   3.357   3.359  17.388 -0.2217  0.2927 -1.1486
  491TMC3    C8 7308   3.463   3.403   0.089  0.3441 -0.4748 -0.5153
  491TMC3    O1 7309   3.388   3.357  17.269 -0.7076 -0.1883 -0.3187
  491TMC3    O2 7310   3.353   3.454   0.071  0.3618  0.0507 -0.2417
  492MPD2     C 7311   3.460   3.238  10.951 -0.3585  0.1114 -0.0417
  492MPD2    C1 7312   3.354   3.319  10.922  0.1396 -0.4607 -0.2866
  492MPD2    C2 7313   3.244   3.307  11.004 -0.6691  0.0461  0.0999
  492MPD2    C3 7314   3.249   3.237  11.120 -0.0651  0.0321 -0.0725
  492MPD2    C4 7315   3.354   3.162  11.145  0.1312  0.1735  0.0583
  492MPD2    C5 7316   3.463   3.156  11.058  0.1576 -0.3027 -0.8212
  492MPD2     H 7317   3.158   3.371  10.985 -0.8549 -0.0269  0.6868
  492MPD2    H1 7318   3.369   3.111  11.240  0.8039  1.9753  0.9290
  492MPD2    H2 7319   3.549   3.248  10.890  0.0593 -0.0518  0.5481
  492MPD2    H3 7320   3.546   3.087  11.072 -1.4981 -2.2539 -0.6387
  492MPD2     N 7321   3.155   3.248  11.231  0.2384 -0.2450  0.6680
  492MPD2    H5 7322   3.180   3.192  11.312  2.1839  0.8543  0.8269
  492MPD2    N1 7323   3.374   3.406  10.811  0.0725  0.1810 -0.9058
  492MPD2    H7 7324   3.468   3.410  10.774  0.5386 -0.9044  0.1677
  493TMC3    C1 7325   3.311   3.536  10.627 -0.1324  0.1265 -0.6501
  493TMC3    C2 7326   3.439   3.546  10.587 -0.0143 -0.1039 -0.2352
  493TMC3    C3 7327   3.461   3.586  10.452 -0.1253 -0.5941 -0.2270
  493TMC3    C4 7328   3.205   3.578  10.545  0.0444 -0.7065 -0.6768
  493TMC3    C5 7329   3.238   3.618  10.411  0.0886 -0.0086  0.2703
  493TMC3    C6 7330   3.363   3.623  10.358  0.1308 -0.4972  0.0935
  493TMC3     C 7331   3.268   3.479  10.760 -0.2640 -0.4482 -0.4451
  493TMC3     O 7332   3.157   3.508  10.796 -0.2731  0.0924  0.0651
  493TMC3     H 7333   3.525   3.523  10.649 -2.2465  0.1531  2.9354
  493TMC3    H1 7334   3.105   3.591  10.583 -0.0523 -1.7943 -0.5561
  493TMC3    H2 7335   3.395   3.629  10.254  0.3369  1.4703  0.2758
  493TMC3    C7 7336   3.129   3.663  10.328  0.3971  0.7132 -0.2241
  493TMC3    C8 7337   3.596   3.594  10.419 -0.1069 -0.4901 -0.4085
  493TMC3    O1 7338   3.017   3.649  10.368  0.3086  0.4497  0.5064
  493TMC3    O2 7339   3.668   3.508  10.466  0.7458  0.1084  0.2201
  494TMC3    C1 7340   4.195   1.225   0.443  0.5573  0.3134  0.9419
  494TMC3    C2 7341   4.191   1.088   0.478 -0.0448 -0.0352 -0.0245
  494TMC3    C3 7342   4.245   0.996   0.395 -0.5016  0.3046 -0.3207
  494TMC3    C4 7343   4.251   1.268   0.327  0.1915  0.6306  0.0162
  494TMC3    C5 7344   4.316   1.172   0.253 -0.7884  0.0952  0.6736
  494TMC3    C6 7345   4.319   1.038   0.288  0.1656  0.4948  0.4907
  494TMC3     C 7346   4.083   1.299   0.498  0.0231 -0.5489  0.3319
  494TMC3     O 7347   4.002   1.233   0.560  0.6737  0.0939 -0.4195
  494TMC3     H 7348   4.138   1.052   0.566 -0.3016 -0.9423 -0.5514
  494TMC3    H1 7349   4.232   1.369   0.292  1.3629 -0.0989 -2.7424
  494TMC3    H2 7350   4.346   0.957   0.221 -0.5009  1.5247 -1.0380
  494TMC3    C7 7351   4.394   1.216   0.140 -0.5271 -0.8870  0.1589
  494TMC3    C8 7352   4.273   0.866   0.441 -0.8237  0.4552 -0.7254
  494TMC3    O1 7353   4.438   1.118   0.078  0.6882  0.1459 -0.3559
  494TMC3    O2 7354   4.378   0.819   0.405  0.2582  0.0626  0.2037
  495TMC3    C1 7355   3.212   3.161  14.942 -0.0851 -0.2790  0.3122
  495TMC3    C2 7356   3.142   3.193  14.823 -0.0376  0.1403  0.7276
  495TMC3    C3 7357   3.006   3.168  14.825 -0.2511  0.3866  0.0364
  495TMC3    C4 7358   3.145   3.106  15.048 -0.4517  0.0163 -0.0132
  495TMC3    C5 7359   3.011   3.087  15.046 -0.0885 -0.1369  0.0059
  495TMC3    C6 7360   2.936   3.122  14.937  0.3273  0.6008 -0.0291
  495TMC3     C 7361   3.330   3.237  14.964  0.2315  0.4241 -0.6778
  495TMC3     O 7362   3.322   3.356  14.936 -0.0070 -0.5459 -0.1679
  495TMC3     H 7363   3.195   3.228  14.735  0.3649  1.1507  1.3721
  495TMC3    H1 7364   3.197   3.092  15.142  0.3341  3.4476  0.0294
  495TMC3    H2 7365   2.829   3.104  14.936  0.4480 -0.1303  0.6657
  495TMC3    C7 7366   2.953   3.039  15.165 -0.4514 -0.0821 -0.2238
  495TMC3    C8 7367   2.945   3.128  14.699  0.7011 -0.7129 -0.2221
  495TMC3    O1 7368   3.020   3.063  15.265  0.1700  0.0811 -0.2819
  495TMC3    O2 7369   2.826   3.153  14.671  0.2136 -0.0986 -0.4178
  496MPD2     C 7370   0.213   2.642  15.157  0.2839 -0.3369  0.1877
  496MPD2    C1 7371   0.291   2.584  15.254  0.0255  0.6211 -0.2449
  496MPD2    C2 7372   0.251   2.603  15.389 -0.3580 -0.2342  0.1337
  496MPD2    C3 7373   0.131   2.676  15.408 -0.2682  0.6810  0.1806
  496MPD2    C4 7374   0.060   2.725  15.305  0.6443  0.5115  0.3439
  496MPD2    C5 7375   0.102   2.714  15.178 -0.2522  0.0608  0.4830
  496MPD2     H 7376   0.307   2.563  15.473  0.8964  1.0093 -0.0970
  496MPD2    H1 7377   4.707   2.792  15.331 -1.0190 -0.2602 -2.8776
  496MPD2    H2 7378   0.241   2.626  15.053 -1.4012  1.4315 -0.5406
  496MPD2    H3 7379   0.056   2.765  15.095  0.9093 -0.0776 -0.2515
  496MPD2     N 7380   0.079   2.707  15.533  0.0587  0.0995 -0.2002
  496MPD2    H5 7381   4.720   2.758  15.541  2.0338  3.7484 -1.9061
  496MPD2    N1 7382   0.405   2.514  15.219  0.0713  0.0667 -0.1560
  496MPD2    H7 7383   0.431   2.523  15.121  1.0674  2.3959  0.3238
  497TMC3    C1 7384   0.072   2.761  15.758 -0.1307  0.0344 -0.4646
  497TMC3    C2 7385   4.664   2.774  15.744  0.5871  0.3367  0.0891
  497TMC3    C3 7386   4.601   2.854  15.833 -0.5745 -0.0681  0.7023
  497TMC3    C4 7387   0.148   2.835  15.846  0.1986 -0.2363  0.3893
  497TMC3    C5 7388   0.078   2.924  15.932  0.6281 -0.4947 -0.1967
  497TMC3    C6 7389   4.670   2.933  15.926 -0.0009  0.0806 -0.2481
  497TMC3     C 7390   0.145   2.693  15.652 -0.4191 -0.0320 -0.1066
  497TMC3     O 7391   0.252   2.654  15.681 -0.6382  0.4629  0.7766
  497TMC3     H 7392   4.612   2.699  15.685 -0.6982  1.6679 -0.4767
  497TMC3    H1 7393   0.255   2.817  15.855  0.0353 -2.3098 -1.8695
  497TMC3    H2 7394   4.620   2.995  16.000 -1.1814  2.5586 -3.1479
  497TMC3    C7 7395   0.121   2.933  16.076 -0.4163 -0.2189 -0.1658
  497TMC3    C8 7396   4.452   2.855  15.835  0.5743  0.0155 -0.3499
  497TMC3    O1 7397   0.036   2.956  16.158  0.0978  0.2636  0.1443
  497TMC3    O2 7398   4.391   2.941  15.907 -0.2372 -0.0017  0.4804
  498MPD2     C 7399   0.330   2.547   9.489 -0.4536  0.2366  0.4356
  498MPD2    C1 7400   0.401   2.556   9.608 -0.0576 -0.0316  0.3860
  498MPD2    C2 7401   0.335   2.592   9.720  0.0177  0.4327 -0.2945
  498MPD2    C3 7402   0.198   2.624   9.727  0.1108 -0.4761 -0.5448
  498MPD2    C4 7403   0.129   2.610   9.604 -0.5160 -0.5282  0.0687
  498MPD2    C5 7404   0.195   2.576   9.490  0.4346  0.1718 -0.4459
  498MPD2     H 7405   0.397   2.614   9.806 -0.3563  1.6444 -0.3219
  498MPD2    H1 7406   0.024   2.633   9.592 -0.3073  1.0062  1.2149
  498MPD2    H2 7407   0.370   2.509   9.395  1.0473  1.5856  0.5440
  498MPD2    H3 7408   0.145   2.588   9.395  2.0660  0.6594 -1.2613
  498MPD2     N 7409   0.149   2.663   9.850  0.3191 -0.4082 -0.4283
  498MPD2    H5 7410   0.213   2.655   9.929 -1.3684 -0.8084  0.9103
  498MPD2    N1 7411   0.542   2.537   9.612  0.4616  0.0467 -0.0377
  498MPD2    H7 7412   0.591   2.557   9.699 -0.5299  0.6786  0.3736
  499TMC3    C1 7413   0.759   2.473   9.541  0.0494  0.4526 -0.1050
  499TMC3    C2 7414   0.825   2.369   9.481 -1.0492 -0.1919 -0.4015
  499TMC3    C3 7415   0.963   2.367   9.492 -0.2218  1.0153 -0.4769
  499TMC3    C4 7416   0.822   2.575   9.612 -0.7053 -0.0399 -0.1465
  499TMC3    C5 7417   0.959   2.570   9.619  0.0063 -0.0323  0.0680
  499TMC3    C6 7418   1.028   2.465   9.563  0.1556  0.5652  0.3508
  499TMC3     C 7419   0.617   2.479   9.516  0.3096  0.6023  0.2729
  499TMC3     O 7420   0.577   2.403   9.431 -0.5753 -0.2704 -0.0420
  499TMC3     H 7421   0.769   2.280   9.455 -0.5380 -0.5129 -0.4170
  499TMC3    H1 7422   0.766   2.659   9.651 -3.0562 -2.1658  1.0411
  499TMC3    H2 7423   1.136   2.456   9.566  0.0592 -0.3620  0.8362
  499TMC3    C7 7424   1.048   2.679   9.655 -0.3265  0.5890  0.3339
  499TMC3    C8 7425   1.032   2.273   9.408  0.3329 -0.2579  0.0782
  499TMC3    O1 7426   1.168   2.658   9.657  0.1649  0.6575  0.5482
  499TMC3    O2 7427   0.971   2.227   9.313  0.0015 -0.2819  0.1263
  500MPD2     C 7428   2.516   4.526  10.466 -0.4718  0.3726  0.0260
  500MPD2    C1 7429   2.582   4.468  10.357 -0.4842  0.0760  0.2689
  500MPD2    C2 7430   2.509   4.426  10.246 -0.4548 -0.2500 -0.0756
  500MPD2    C3 7431   2.376   4.455  10.233  0.0574 -0.4314 -0.1939
  500MPD2    C4 7432   2.312   4.522  10.339 -0.2848 -0.2536 -0.2033
  500MPD2    C5 7433   2.383   4.560  10.453  0.1516  0.2594 -1.1526
  500MPD2     H 7434   2.566   4.386  10.163 -2.0450  3.2883 -2.8395
  500MPD2    H1 7435   2.208   4.551  10.331 -0.1593  0.7221  1.6610
  500MPD2    H2 7436   2.567   4.552  10.558  0.5985 -2.1390  0.1204
  500MPD2    H3 7437   2.323   4.613  10.526  2.5590 -0.5123  1.3962
  500MPD2     N 7438   2.289   4.399  10.135  0.5185 -0.3117  0.4039
  500MPD2    H5 7439   2.192   4.414  10.159  0.1602  0.2165 -1.4186
  500MPD2    N1 7440   2.717   4.441  10.360  0.2654  0.0688 -0.5699
  500MPD2    H7 7441   2.755   4.392  10.280  0.5543  0.6205 -0.7697
  501TMC3    C1 7442   2.941   4.444  10.438 -0.0665  0.5575 -0.1977
  501TMC3    C2 7443   2.982   4.482  10.310 -0.1234 -0.1055 -0.1587
  501TMC3    C3 7444   3.116   4.509  10.288 -0.1701  0.5337  0.1711
  501TMC3    C4 7445   3.024   4.425  10.543  0.1089 -0.1565 -0.1979
  501TMC3    C5 7446   3.154   4.431  10.507 -0.6845 -0.5032 -0.3347
  501TMC3    C6 7447   3.208   4.467  10.382 -0.3849  0.2031 -0.1215
  501TMC3     C 7448   2.793   4.462  10.470 -0.2887 -0.1161 -0.0510
  501TMC3     O 7449   2.772   4.469  10.593 -0.4028 -0.5307 -0.3823
  501TMC3     H 7450   2.901   4.530  10.255  1.8030  3.1734 -0.1876
  501TMC3    H1 7451   2.991   4.403  10.644  1.0922 -1.8498 -0.2425
  501TMC3    H2 7452   3.312   4.497  10.376 -0.2894  0.3795  2.2656
  501TMC3    C7 7453   3.256   4.455  10.615  0.1735 -0.1783  0.4519
  501TMC3    C8 7454   3.148   4.650  10.275 -0.2157  0.2603  0.2245
  501TMC3    O1 7455   3.365   4.412  10.589  0.1161 -0.5133 -0.2499
  501TMC3    O2 7456   3.198   4.706  10.373 -0.1438 -0.2504 -0.1757
  502TMC3    C1 7457   2.061   3.229  15.073  0.2993  0.8116  0.0560
  502TMC3    C2 7458   2.025   3.250  14.942 -0.3905  0.1589 -0.3633
  502TMC3    C3 7459   1.895   3.232  14.904 -0.5778  0.2880 -0.0873
  502TMC3    C4 7460   1.975   3.171  15.162  0.6385  0.1683 -0.1805
  502TMC3    C5 7461   1.851   3.143  15.108  0.0465  0.1950  0.7503
  502TMC3    C6 7462   1.808   3.159  14.983 -1.1928  0.0056 -0.7275
  502TMC3     C 7463   2.187   3.301  15.109  0.9029  0.2956 -0.2823
  502TMC3     O 7464   2.256   3.342  15.015  0.2394  0.3010 -0.5103
  502TMC3     H 7465   2.102   3.257  14.866 -2.0366  1.8924 -1.8930
  502TMC3    H1 7466   1.991   3.174  15.269 -0.7086  1.6564 -0.0179
  502TMC3    H2 7467   1.719   3.121  14.935 -0.4960 -2.2211 -0.2468
  502TMC3    C7 7468   1.755   3.121  15.218 -0.7108  0.7949  0.7754
  502TMC3    C8 7469   1.820   3.348  14.880 -0.5593 -0.0502 -0.0062
  502TMC3    O1 7470   1.801   3.105  15.330 -0.4296  0.8090  0.4591
  502TMC3    O2 7471   1.698   3.350  14.890  0.2564  0.1541  0.2669
  503MPD2     C 7472   4.518   4.430  16.819 -0.2967 -0.1485  0.4766
  503MPD2    C1 7473   4.499   4.432  16.955  0.1717 -0.1860 -0.0065
  503MPD2    C2 7474   4.549   4.323  17.030 -0.2680  0.1968  0.5028
  503MPD2    C3 7475   4.607   4.214  16.962 -0.2448  0.3061 -0.3499
  503MPD2    C4 7476   4.624   4.214  16.824  1.2328 -0.6882 -0.1821
  503MPD2    C5 7477   4.582   4.320  16.751 -0.2238 -0.3118 -0.4903
  503MPD2     H 7478   4.550   4.309  17.138 -4.0317  0.6285  0.5600
  503MPD2    H1 7479   4.672   4.132  16.772 -0.8348 -1.8485 -0.2837
  503MPD2    H2 7480   4.495   4.520  16.763  0.5147 -0.4469 -0.3465
  503MPD2    H3 7481   4.601   4.327  16.645  0.4553 -1.3855 -0.4342
  503MPD2     N 7482   4.639   4.107  17.048 -0.2910 -0.7523  0.3464
  503MPD2    H5 7483   4.629   4.126  17.147  1.9670 -2.1979  0.8478
  503MPD2    N1 7484   4.444   4.541  17.023  0.5375 -0.2928 -0.2947
  503MPD2    H7 7485   4.450   4.539  17.125 -0.2131 -0.8950 -0.2577
  504TMC3    C1 7486   4.703   3.895  17.132  0.1426 -0.0321  0.5892
  504TMC3    C2 7487   4.649   3.924  17.254 -0.1902  0.3229 -0.2011
  504TMC3    C3 7488   4.705   3.860  17.362 -0.7380  0.3369 -0.7666
  504TMC3    C4 7489   0.079   3.810  17.115  0.4573  0.6970 -0.0271
  504TMC3    C5 7490   0.121   3.738  17.223  0.1826  0.1366 -0.0961
  504TMC3    C6 7491   0.074   3.763  17.352 -0.2578 -0.0188 -0.2427
  504TMC3     C 7492   4.678   3.984  17.018  0.1396  0.2748  0.1986
  504TMC3     O 7493   4.695   3.935  16.910 -0.2297 -0.2010  0.1416
  504TMC3     H 7494   4.570   3.997  17.264  0.8179  1.5060 -0.8130
  504TMC3    H1 7495   0.108   3.792  17.012  1.5355 -1.1665  0.5889
  504TMC3    H2 7496   0.131   3.729  17.438  0.6325  0.6955 -0.5493
  504TMC3    C7 7497   0.247   3.689  17.192 -0.3423  0.3433 -0.2542
  504TMC3    C8 7498   4.679   3.931  17.486  0.6827 -0.1929  0.2744
  504TMC3    O1 7499   0.311   3.736  17.098  0.1939  0.6922  0.1737
  504TMC3    O2 7500   4.657   4.052  17.482 -0.0504  0.7227 -0.4080
  505MPD2     C 7501   4.586   2.678  11.113 -0.1153  0.0735  0.1783
  505MPD2    C1 7502   4.619   2.544  11.133 -0.2003  0.0996 -0.2175
  505MPD2    C2 7503   0.018   2.504  11.162  0.1092  0.2839 -0.5826
  505MPD2    C3 7504   0.122   2.596  11.159 -0.1780  0.7287 -0.3002
  505MPD2    C4 7505   0.090   2.727  11.125 -0.4511 -0.2174 -0.0250
  505MPD2    C5 7506   4.686   2.773  11.112  0.0983  0.7920 -0.4007
  505MPD2     H 7507   0.052   2.401  11.163  1.5665  0.7791  0.1931
  505MPD2    H1 7508   0.171   2.799  11.120 -1.4652  1.0056  1.1055
  505MPD2    H2 7509   4.482   2.707  11.102 -0.8285 -1.2800  3.1762
  505MPD2    H3 7510   4.670   2.879  11.101 -1.2073  0.6859  0.3875
  505MPD2     N 7511   0.254   2.558  11.168  0.3050  0.1864  0.0491
  505MPD2    H5 7512   0.321   2.634  11.154 -1.4286  1.3003 -2.2082
  505MPD2    N1 7513   4.507   2.455  11.125  0.4045 -0.1426 -0.0091
  505MPD2    H7 7514   4.422   2.492  11.084 -0.1005  0.6069  1.7316
  506TMC3    C1 7515   4.393   2.247  11.099  0.7628 -0.0003 -0.7130
  506TMC3    C2 7516   4.338   2.285  10.979  0.0283 -0.0848  0.3863
  506TMC3    C3 7517   4.269   2.193  10.914  0.4361  1.1802  0.5035
  506TMC3    C4 7518   4.385   2.119  11.142 -0.4071 -0.0460  0.6780
  506TMC3    C5 7519   4.326   2.022  11.062  0.1124  0.2261 -0.2070
  506TMC3    C6 7520   4.260   2.066  10.951  0.8428 -0.1622 -0.2126
  506TMC3     C 7521   4.511   2.318  11.141 -0.1010  0.2782  0.2555
  506TMC3     O 7522   4.596   2.252  11.197 -0.7098  0.2509  0.4469
  506TMC3     H 7523   4.346   2.385  10.940 -0.8780 -0.1334  0.0755
  506TMC3    H1 7524   4.442   2.092  11.230  1.8642  2.3508 -0.0410
  506TMC3    H2 7525   4.211   2.000  10.880  0.8372 -0.8158  0.3977
  506TMC3    C7 7526   4.424   1.923  11.029 -0.8096  0.1197  0.1604
  506TMC3    C8 7527   4.205   2.235  10.786  0.5116  0.2325  0.3220
  506TMC3    O1 7528   4.389   1.832  10.959  0.1223 -0.3783 -0.9828
  506TMC3    O2 7529   4.096   2.191  10.759  0.2013  0.1602  0.1144
  507TMC3    C1 7530   0.847   3.584  14.474  0.3986 -0.4144  0.8989
  507TMC3    C2 7531   0.874   3.550  14.347 -0.8911  0.6338 -0.6932
  507TMC3    C3 7532   0.889   3.647  14.249  0.7041  0.5349 -0.5636
  507TMC3    C4 7533   0.837   3.718  14.511  0.8665  0.4659  0.6466
  507TMC3    C5 7534   0.854   3.815  14.417  1.0432 -0.5418  0.5997
  507TMC3    C6 7535   0.884   3.776  14.283  0.8127  0.5486 -0.9959
  507TMC3     C 7536   0.797   3.483  14.563  0.1202 -0.7031 -0.2673
  507TMC3     O 7537   0.838   3.502  14.677 -0.0046  0.1336 -0.4083
  507TMC3     H 7538   0.869   3.447  14.313 -0.5698  0.3624  0.0885
  507TMC3    H1 7539   0.812   3.747  14.612 -0.1970  0.7401  0.3098
  507TMC3    H2 7540   0.900   3.855  14.210  0.6389  1.5574  0.0607
  507TMC3    C7 7541   0.765   3.927  14.418  0.0055 -1.5340  0.2582
  507TMC3    C8 7542   0.804   3.619  14.131  0.0616 -0.4653  0.2125
  507TMC3    O1 7543   0.733   3.952  14.306 -0.5228  0.9278 -0.1845
  507TMC3    O2 7544   0.792   3.508  14.084  0.5999 -0.0077 -0.4839
  508MPD2     C 7545   1.801   1.020  15.678 -0.4150  0.8566  0.4840
  508MPD2    C1 7546   1.763   1.147  15.704  0.0072  0.1382 -0.1730
  508MPD2    C2 7547   1.749   1.236  15.600 -0.4245  0.1799  0.2341
  508MPD2    C3 7548   1.800   1.200  15.480 -0.2588 -0.5235  0.3728
  508MPD2    C4 7549   1.840   1.076  15.452 -0.0034 -0.4249 -0.4155
  508MPD2    C5 7550   1.832   0.980  15.548  0.1989  0.2940  0.0943
  508MPD2     H 7551   1.696   1.331  15.608  0.2559  0.1488  4.8383
  508MPD2    H1 7552   1.889   1.043  15.361 -0.5909 -2.5481  0.0277
  508MPD2    H2 7553   1.806   0.948  15.760 -2.4861 -1.2111 -1.2283
  508MPD2    H3 7554   1.865   0.878  15.528 -1.0696 -0.2180  0.6443
  508MPD2     N 7555   1.809   1.304  15.384 -0.6406  0.1812 -0.4856
  508MPD2    H5 7556   1.753   1.389  15.387  1.6209  1.6185  0.8819
  508MPD2    N1 7557   1.744   1.186  15.838 -0.1866  0.1582  0.0654
  508MPD2    H7 7558   1.751   1.111  15.905 -1.7095 -0.1500 -0.1182
  509TMC3    C1 7559   1.836   1.630  15.121  0.1277 -0.0153 -0.1394
  509TMC3    C2 7560   1.955   1.693  15.126  0.1699  0.7721  0.0328
  509TMC3    C3 7561   2.063   1.622  15.174 -0.0331  0.4460  0.5029
  509TMC3    C4 7562   1.821   1.506  15.185  0.5759  0.6167 -0.2152
  509TMC3    C5 7563   1.929   1.442  15.239 -0.3685 -0.3553  0.3839
  509TMC3    C6 7564   2.051   1.500  15.234 -0.1717 -0.2390  0.4930
  509TMC3     C 7565   1.722   1.677  15.043 -0.7029 -0.1892 -0.3935
  509TMC3     O 7566   1.626   1.603  15.031 -0.4354  0.2480  0.5901
  509TMC3     H 7567   1.970   1.794  15.090  0.0596  0.7891  0.0361
  509TMC3    H1 7568   1.724   1.460  15.195  0.1058  1.6749  0.1389
  509TMC3    H2 7569   2.139   1.455  15.278  0.3599  1.0904  0.8073
  509TMC3    C7 7570   1.919   1.314  15.301 -0.2846 -0.1453 -0.4345
  509TMC3    C8 7571   2.184   1.689  15.197  0.6087 -0.5081 -0.1361
  509TMC3    O1 7572   2.021   1.243  15.296 -0.3872 -0.3206 -0.0049
  509TMC3    O2 7573   2.279   1.626  15.231 -0.0834 -0.0949 -0.1123
  510MPD2     C 7574   4.311   3.227  14.701  0.4224  0.2568 -0.8456
  510MPD2    C1 7575   4.313   3.088  14.722 -0.8793  0.4525 -0.4591
  510MPD2    C2 7576   4.370   3.011  14.626  0.2732  0.0888  0.2383
  510MPD2    C3 7577   4.436   3.062  14.518 -0.0948  0.2547  0.3989
  510MPD2    C4 7578   4.456   3.197  14.517 -0.3962 -0.4447  0.5090
  510MPD2    C5 7579   4.387   3.278  14.601  0.3000 -0.0636  0.7984
  510MPD2     H 7580   4.346   2.905  14.630  0.0709  0.0496 -2.2354
  510MPD2    H1 7581   4.509   3.249  14.438 -0.4919  1.9717  2.0230
  510MPD2    H2 7582   4.273   3.296  14.776 -1.8075  1.6066 -3.2137
  510MPD2    H3 7583   4.400   3.385  14.599 -2.2464  0.2367  0.1916
  510MPD2     N 7584   4.494   2.983  14.415  0.7000  0.0032 -0.4281
  510MPD2    H5 7585   4.473   2.884  14.421  2.5725 -0.4988 -2.2949
  510MPD2    N1 7586   4.256   3.036  14.841 -0.3279  0.3862 -0.0649
  510MPD2    H7 7587   4.270   2.939  14.870 -1.0452  0.9029  2.0665
  511TMC3    C1 7588   4.136   3.020  15.046  0.4744  0.0080  0.4094
  511TMC3    C2 7589   4.014   3.041  15.103  1.0259  0.4667  0.5067
  511TMC3    C3 7590   3.993   2.961  15.216 -0.5781  0.9242 -0.5619
  511TMC3    C4 7591   4.237   2.943  15.104  0.7397 -0.4603 -0.2289
  511TMC3    C5 7592   4.211   2.869  15.214 -0.7827  1.1511  0.4317
  511TMC3    C6 7593   4.086   2.872  15.265 -0.4392  0.2271  0.1757
  511TMC3     C 7594   4.178   3.102  14.933  0.7855  0.4594  0.5169
  511TMC3     O 7595   4.129   3.215  14.927  0.2359 -0.4913  0.2281
  511TMC3     H 7596   3.942   3.114  15.066  0.5462 -0.0076  0.5048
  511TMC3    H1 7597   4.331   2.938  15.051  0.7799  1.0482 -0.2956
  511TMC3    H2 7598   4.091   2.824  15.362  4.0569  2.3976  1.0580
  511TMC3    C7 7599   4.295   2.757  15.242  0.8216 -0.3102 -0.6231
  511TMC3    C8 7600   3.879   2.972  15.298 -0.5697 -0.0948 -0.1931
  511TMC3    O1 7601   4.413   2.770  15.221  0.0743 -0.3748 -0.0164
  511TMC3    O2 7602   3.815   3.076  15.283 -0.1498  0.4783 -0.5048
  512TMC3    C1 7603   3.339   2.359  13.112 -0.4932 -0.4015 -0.0368
  512TMC3    C2 7604   3.440   2.339  13.203 -0.0542 -0.1297 -0.2654
  512TMC3    C3 7605   3.471   2.208  13.235 -0.0421 -0.8514  0.0754
  512TMC3    C4 7606   3.278   2.257  13.039  0.2129  0.4186  0.2045
  512TMC3    C5 7607   3.315   2.130  13.080  0.1321 -0.2703 -0.3530
  512TMC3    C6 7608   3.414   2.104  13.174  0.3329 -0.1681  0.3808
  512TMC3     C 7609   3.269   2.484  13.119 -0.0661 -0.2950  0.3134
  512TMC3     O 7610   3.151   2.486  13.127 -0.1036 -0.7528  0.1390
  512TMC3     H 7611   3.494   2.415  13.258 -2.7730  0.7022  1.2865
  512TMC3    H1 7612   3.221   2.284  12.951 -0.6789 -1.9305  0.0740
  512TMC3    H2 7613   3.434   2.006  13.214  2.2739 -0.2506 -0.7606
  512TMC3    C7 7614   3.282   2.032  12.982 -0.4260  0.3124  0.7352
  512TMC3    C8 7615   3.594   2.177  13.303 -0.5584 -0.0527 -0.2972
  512TMC3    O1 7616   3.282   2.082  12.865 -0.1011  0.0890 -0.2675
  512TMC3    O2 7617   3.627   2.059  13.308  0.0734  0.0790 -0.0203
  513MPD2     C 7618   0.519   1.944  13.452  0.7305  0.2875 -0.5179
  513MPD2    C1 7619   0.539   1.813  13.428 -0.0885 -0.0542 -0.3007
  513MPD2    C2 7620   0.670   1.771  13.435 -0.0770 -0.6097  0.1904
  513MPD2    C3 7621   0.776   1.842  13.484  0.3347 -0.5430  0.4233
  513MPD2    C4 7622   0.745   1.974  13.517  0.2187  0.6512 -0.0679
  513MPD2    C5 7623   0.618   2.024  13.494 -0.2537  0.6584  0.1295
  513MPD2     H 7624   0.697   1.672  13.402  0.9318 -0.8440  1.6844
  513MPD2    H1 7625   0.823   2.043  13.548 -0.7391  1.0574  1.4220
  513MPD2    H2 7626   0.421   1.981  13.424  0.0369 -1.4560 -0.4015
  513MPD2    H3 7627   0.597   2.130  13.501  0.8788  1.0989 -3.0793
  513MPD2     N 7628   0.898   1.779  13.495  0.0683  0.0275 -0.8398
  513MPD2    H5 7629   0.905   1.680  13.474  0.0084  0.0744 -1.0794
  513MPD2    N1 7630   0.439   1.738  13.365 -0.3324  0.0959 -0.0637
  513MPD2    H7 7631   0.358   1.795  13.342 -2.4904 -1.2752  4.1233
  514TMC3    C1 7632   0.361   1.536  13.263 -0.1055  0.1269 -0.0859
  514TMC3    C2 7633   0.330   1.612  13.155 -0.6123  0.0204 -0.0181
  514TMC3    C3 7634   0.347   1.559  13.032 -0.5934 -0.5673 -1.0017
  514TMC3    C4 7635   0.402   1.403  13.252 -0.2988 -0.1242 -0.1428
  514TMC3    C5 7636   0.428   1.361  13.123 -0.1142  0.4964  0.1905
  514TMC3    C6 7637   0.398   1.436  13.015  0.6025 -0.4473  0.1974
  514TMC3     C 7638   0.439   1.597  13.366 -0.1708  0.3352  0.6852
  514TMC3     O 7639   0.518   1.524  13.428 -0.7214 -0.0525 -0.5976
  514TMC3     H 7640   0.288   1.711  13.166 -0.1314  0.1658  0.5066
  514TMC3    H1 7641   0.431   1.350  13.341 -0.1752  1.3137  0.6770
  514TMC3    H2 7642   0.400   1.392  12.916  0.0455 -0.1823  0.0678
  514TMC3    C7 7643   0.560   1.314  13.117  0.4778  0.2351 -0.8137
  514TMC3    C8 7644   0.268   1.615  12.928  0.0156  0.2237  0.0033
  514TMC3    O1 7645   0.641   1.396  13.074  0.1826  0.7014  0.6377
  514TMC3    O2 7646   0.182   1.700  12.957  0.1742 -0.1311 -0.3898
  515MPD2     C 7647   2.771   4.500  14.844  0.7606 -0.0541 -0.3488
  515MPD2    C1 7648   2.806   4.373  14.865  0.5331  0.7073 -0.4129
  515MPD2    C2 7649   2.894   4.349  14.970 -1.0226 -0.0708  0.1805
  515MPD2    C3 7650   2.936   4.450  15.056 -0.6637  0.7367  0.4058
  515MPD2    C4 7651   2.899   4.586  15.026  0.1430  0.1837 -0.0787
  515MPD2    C5 7652   2.816   4.609  14.918 -0.1494  0.4663  0.1010
  515MPD2     H 7653   2.929   4.248  14.988 -1.2005 -0.0934  0.4058
  515MPD2    H1 7654   2.937   4.670  15.082 -2.4624  0.9320  0.5630
  515MPD2    H2 7655   2.711   4.533  14.760  0.9776 -0.7319 -0.7689
  515MPD2    H3 7656   2.791   4.713  14.896 -0.7105 -0.1925 -2.3732
  515MPD2     N 7657   3.021   4.413  15.167  0.1336  1.0057 -0.3005
  515MPD2    H5 7658   3.042   4.314  15.174  0.5319  0.9497 -2.3431
  515MPD2    N1 7659   2.770   4.268  14.776  1.3673 -0.6713  0.8909
  515MPD2    H7 7660   2.777   4.174  14.812 -1.0713 -1.5382 -0.8372
  516TMC3    C1 7661   2.712   4.144  14.590  1.1297  0.2685  0.0859
  516TMC3    C2 7662   2.754   4.122  14.461  0.1634 -0.0047 -0.8355
  516TMC3    C3 7663   2.736   3.994  14.408 -0.3342  0.9898  0.4515
  516TMC3    C4 7664   2.649   4.044  14.662  0.4469  0.2194  0.0989
  516TMC3    C5 7665   2.637   3.916  14.607  0.3132  1.0209 -0.1490
  516TMC3    C6 7666   2.682   3.887  14.480 -0.3358  0.5471 -0.2838
  516TMC3     C 7667   2.723   4.281  14.648  0.1131 -0.0344 -0.3382
  516TMC3     O 7668   2.722   4.382  14.579  0.5165 -0.1000 -0.5993
  516TMC3     H 7669   2.796   4.210  14.412 -1.3073  1.4370  0.4730
  516TMC3    H1 7670   2.620   4.059  14.765 -0.2769 -0.9536  0.0684
  516TMC3    H2 7671   2.673   3.790  14.433  0.4704  0.6064 -0.5687
  516TMC3    C7 7672   2.615   3.812  14.704  0.1349 -0.6255 -0.4933
  516TMC3    C8 7673   2.768   3.973  14.270 -0.6399  0.2853  0.0656
  516TMC3    O1 7674   2.642   3.834  14.820 -0.5525  0.2335 -0.3122
  516TMC3    O2 7675   2.738   3.865  14.220  0.2924 -0.3728  0.2500
  517MPD2     C 7676   2.584   0.753   0.564  0.3876 -0.0793 -0.0977
  517MPD2    C1 7677   2.681   0.791   0.481  0.3666 -0.0473  0.6734
  517MPD2    C2 7678   2.708   0.927   0.474  0.5723 -0.2349  0.1183
  517MPD2    C3 7679   2.651   1.020   0.560 -0.4995  0.3606 -0.1734
  517MPD2    C4 7680   2.566   0.970   0.651 -0.1663 -0.2720  0.3164
  517MPD2    C5 7681   2.526   0.841   0.651 -0.1269 -0.0480 -0.4666
  517MPD2     H 7682   2.771   0.956   0.391 -2.1182  3.0912 -0.7907
  517MPD2    H1 7683   2.523   1.030   0.730  1.2853  0.0138  0.8921
  517MPD2    H2 7684   2.568   0.646   0.570  0.6270 -0.1415 -0.5443
  517MPD2    H3 7685   2.455   0.815   0.728  0.0695  1.3245  0.1878
  517MPD2     N 7686   2.681   1.157   0.563 -0.2755  0.5564  0.2539
  517MPD2    H5 7687   2.610   1.212   0.611 -1.2068 -1.3640  1.0795
  517MPD2    N1 7688   2.761   0.709   0.395 -0.3507 -0.4184 -0.2879
  517MPD2    H7 7689   2.828   0.758   0.337  1.1705 -2.7299 -0.4728
  518TMC3    C1 7690   2.849   0.524   0.292  0.2503 -0.0361  0.2141
  518TMC3    C2 7691   2.862   0.389   0.274  0.2600  0.4623 -0.2917
  518TMC3    C3 7692   2.948   0.337   0.185  0.8010  0.0037  0.1269
  518TMC3    C4 7693   2.921   0.613   0.214  0.0119  0.7258  0.4848
  518TMC3    C5 7694   3.016   0.558   0.128 -0.2585  0.1372  0.3807
  518TMC3    C6 7695   3.031   0.423   0.124 -0.2215 -0.2089 -0.3264
  518TMC3     C 7696   2.756   0.576   0.391  0.1365 -0.2492  0.0278
  518TMC3     O 7697   2.683   0.491   0.439  0.4211  0.2309  0.0166
  518TMC3     H 7698   2.783   0.328   0.316 -0.4364  1.6692  0.1624
  518TMC3    H1 7699   2.928   0.721   0.219  1.9212  0.7153 -2.0023
  518TMC3    H2 7700   3.116   0.376   0.075  0.2307 -0.3681  0.6047
  518TMC3    C7 7701   3.101   0.651   0.055 -0.0963  0.1698 -0.5368
  518TMC3    C8 7702   3.002   0.206   0.201  1.0308  0.3226  0.0802
  518TMC3    O1 7703   3.088   0.769   0.075  0.0247 -0.4660  0.3128
  518TMC3    O2 7704   3.036   0.153   0.097  0.1087  0.3897  0.0849
  519MPD2     C 7705   4.577   3.777  14.552 -0.0571  0.5825 -0.7173
  519MPD2    C1 7706   4.507   3.746  14.434  0.5459 -0.6024  0.0373
  519MPD2    C2 7707   4.568   3.666  14.340 -0.5816  0.4557  0.2699
  519MPD2    C3 7708   4.691   3.606  14.367  0.4391  0.0747  0.1303
  519MPD2    C4 7709   0.035   3.633  14.482 -0.1350  0.2073  0.2438
  519MPD2    C5 7710   4.702   3.729  14.576  0.4877 -0.0831  0.5869
  519MPD2     H 7711   4.518   3.653  14.244  1.2265 -2.6623 -0.2571
  519MPD2    H1 7712   0.135   3.594  14.500  0.9682  1.5494 -2.8290
  519MPD2    H2 7713   4.531   3.825  14.638  0.6854  0.8469 -0.4691
  519MPD2    H3 7714   0.026   3.761  14.666  0.0151  1.3650  0.3370
  519MPD2     N 7715   0.023   3.507  14.268 -0.2115  0.5493  0.6614
  519MPD2    H5 7716   0.115   3.473  14.294  0.1793  1.4939  0.5302
  519MPD2    N1 7717   4.380   3.809  14.435 -0.0264  0.4321  0.0230
  519MPD2    H7 7718   4.354   3.867  14.515  1.4436  0.7578  0.2599
  520TMC3    C1 7719   0.023   3.350  14.093  0.1761  0.3179 -0.4253
  520TMC3    C2 7720   4.664   3.290  14.012 -0.1547  0.4233 -0.0797
  520TMC3    C3 7721   4.708   3.246  13.888  0.3596  0.5782  0.5029
  520TMC3    C4 7722   0.156   3.365  14.068  0.1095 -0.1162 -0.1428
  520TMC3    C5 7723   0.201   3.310  13.948  0.5783 -0.2294 -0.1132
  520TMC3    C6 7724   0.114   3.251  13.855  0.0048 -0.2210 -0.1989
  520TMC3     C 7725   4.683   3.457  14.157  0.1855  0.3940  0.2043
  520TMC3     O 7726   4.569   3.477  14.119  0.4043  0.0141 -0.0624
  520TMC3     H 7727   4.560   3.281  14.041  0.7998  0.5561  3.2972
  520TMC3    H1 7728   0.222   3.434  14.120  1.7463 -0.3861 -1.8660
  520TMC3    H2 7729   0.137   3.200  13.762 -1.2712  0.9073 -1.1243
  520TMC3    C7 7730   0.343   3.297  13.938  0.1352 -0.2598 -0.8529
  520TMC3    C8 7731   4.621   3.263  13.776 -0.6468  1.0032  0.2833
  520TMC3    O1 7732   0.399   3.281  14.044  0.3854  0.3398  0.0459
  520TMC3    O2 7733   4.676   3.320  13.682  0.0270  0.0366 -0.0495
  521MPD2     C 7734   0.965   2.334  17.448  0.0952 -0.1994 -0.0773
  521MPD2    C1 7735   0.896   2.240  17.384  1.1112 -0.3670 -0.4069
  521MPD2    C2 7736   0.946   2.175  17.275 -0.3942  0.0908  0.0534
  521MPD2    C3 7737   1.079   2.201  17.237  0.8961 -0.7062 -0.3242
  521MPD2    C4 7738   1.155   2.281  17.323  0.4584  0.5889 -0.3125
  521MPD2    C5 7739   1.092   2.351  17.425  0.4975  0.1145 -0.2268
  521MPD2     H 7740   0.879   2.117  17.213  2.4332 -1.1149 -1.8729
  521MPD2    H1 7741   1.259   2.302  17.302  0.8967  0.2886  1.5380
  521MPD2    H2 7742   0.918   2.392  17.527  1.0092  1.3315 -0.6746
  521MPD2    H3 7743   1.145   2.420  17.488 -1.2999 -0.9133  2.4131
  521MPD2     N 7744   1.131   2.139  17.117 -0.0878  0.0832  0.7058
  521MPD2    H5 7745   1.063   2.086  17.064 -1.5702 -0.8352  3.4891
  521MPD2    N1 7746   0.761   2.235  17.418 -0.6267  0.3863  0.5121
  521MPD2    H7 7747   0.717   2.306  17.476  1.6285  3.3515 -1.3734
  522TMC3    C1 7748   1.288   2.066  16.957  0.4286 -0.5751  0.1622
  522TMC3    C2 7749   1.399   2.094  16.878 -0.5332 -0.0781  0.6803
  522TMC3    C3 7750   1.469   1.996  16.816  0.1007  0.5018  0.4112
  522TMC3    C4 7751   1.247   1.938  16.966 -0.6454  0.0563  0.4354
  522TMC3    C5 7752   1.317   1.844  16.891  0.3712  0.1181 -0.3853
  522TMC3    C6 7753   1.426   1.869  16.817  0.6794 -0.9515 -0.4713
  522TMC3     C 7754   1.257   2.154  17.073 -0.2167 -0.4265  0.3641
  522TMC3     O 7755   1.330   2.247  17.093  0.2366  0.2727  0.1074
  522TMC3     H 7756   1.439   2.194  16.890 -0.1391 -0.1400 -0.1885
  522TMC3    H1 7757   1.180   1.901  17.042  1.0250 -0.4005  1.6814
  522TMC3    H2 7758   1.472   1.785  16.766  0.6214  1.2115 -4.0449
  522TMC3    C7 7759   1.261   1.708  16.881  0.1595  0.2632  0.3932
  522TMC3    C8 7760   1.567   2.048  16.721 -0.2489  0.6192  0.1405
  522TMC3    O1 7761   1.328   1.611  16.849  0.2479 -0.6243 -0.0815
  522TMC3    O2 7762   1.604   2.164  16.726  0.6520  0.1235 -0.6375
  523MPD2     C 7763   3.144   1.114  10.310 -0.4990 -0.6371  0.1144
  523MPD2    C1 7764   3.087   1.063  10.200 -0.1582  0.2171 -0.1556
  523MPD2    C2 7765   2.996   1.141  10.140  0.2734 -0.0735  0.7456
  523MPD2    C3 7766   2.949   1.252  10.198 -0.1042  0.2286  0.3077
  523MPD2    C4 7767   2.992   1.297  10.322  0.2539  0.1512 -0.7939
  523MPD2    C5 7768   3.094   1.222  10.375 -0.3198 -0.0031 -0.0839
  523MPD2     H 7769   2.961   1.112  10.041 -0.0587 -0.9341  1.1201
  523MPD2    H1 7770   2.945   1.377  10.379 -0.6457 -0.4195 -0.7353
  523MPD2    H2 7771   3.227   1.067  10.362 -0.4246 -0.3114  0.2861
  523MPD2    H3 7772   3.132   1.247  10.473 -1.0769 -0.4492  0.3185
  523MPD2     N 7773   2.859   1.337  10.134 -0.1420 -0.4161 -0.1272
  523MPD2    H5 7774   2.839   1.424  10.182 -2.8457 -1.6776  0.9878
  523MPD2    N1 7775   3.137   0.945  10.141  0.2256  0.3096 -0.2684
  523MPD2    H7 7776   3.219   0.910  10.189  0.4118  1.8062  0.5001
  524TMC3    C1 7777   2.727   1.436   9.959  0.7681 -0.2188  0.2521
  524TMC3    C2 7778   2.717   1.468   9.826 -0.0691  0.8004 -0.0849
  524TMC3    C3 7779   2.679   1.589   9.783 -0.3883 -1.0870 -0.6598
  524TMC3    C4 7780   2.694   1.532  10.052  0.1967  0.8282  0.2698
  524TMC3    C5 7781   2.652   1.654  10.010 -0.2692 -0.3129  0.6149
  524TMC3    C6 7782   2.639   1.680   9.875  0.7990  0.9215 -0.6603
  524TMC3     C 7783   2.810   1.322  10.003  0.4522  0.2158 -0.3685
  524TMC3     O 7784   2.827   1.243   9.917  0.2722 -0.0259  0.4319
  524TMC3     H 7785   2.773   1.397   9.768  0.4028  1.1023  0.0003
  524TMC3    H1 7786   2.711   1.510  10.157  0.7176 -1.5027 -0.2999
  524TMC3    H2 7787   2.603   1.778   9.845 -0.9357 -0.2593 -2.3203
  524TMC3    C7 7788   2.607   1.739  10.117 -0.6230  0.4773 -0.4023
  524TMC3    C8 7789   2.671   1.619   9.641 -0.0508  0.4769  0.1883
  524TMC3    O1 7790   2.615   1.703  10.230 -0.0229  0.2766  0.1854
  524TMC3    O2 7791   2.773   1.594   9.575  0.6531  0.1627  0.3814
  525MPD2     C 7792   1.100   3.187  14.190  0.1874  0.2085 -0.5386
  525MPD2    C1 7793   1.230   3.223  14.230  0.7634 -0.4807  0.3280
  525MPD2    C2 7794   1.287   3.338  14.181  0.1117 -0.3477 -0.5869
  525MPD2    C3 7795   1.212   3.421  14.093 -0.3053 -0.0987  0.2502
  525MPD2    C4 7796   1.086   3.380  14.057  0.1475 -0.7253  0.1794
  525MPD2    C5 7797   1.032   3.267  14.103 -0.2516 -0.8366 -0.5769
  525MPD2     H 7798   1.385   3.371  14.214 -0.8304 -1.5914  3.4220
  525MPD2    H1 7799   1.021   3.432  13.988 -1.5469 -2.5629  0.3802
  525MPD2    H2 7800   1.054   3.092  14.211  0.7173  0.0992  0.1355
  525MPD2    H3 7801   0.932   3.241  14.069  0.1194 -2.3979 -0.4708
  525MPD2     N 7802   1.263   3.549  14.050 -1.0976  0.5408  0.0403
  525MPD2    H5 7803   1.196   3.622  14.031 -0.8771  1.2075  1.8086
  525MPD2    N1 7804   1.299   3.147  14.329  0.5632  0.1060 -0.1883
  525MPD2    H7 7805   1.394   3.179  14.349  0.2929  0.4811  0.5079
  526TMC3    C1 7806   1.345   3.000  14.502  0.5634 -0.0263  0.1098
  526TMC3    C2 7807   1.298   2.934  14.617  0.1704 -0.8812  0.1923
  526TMC3    C3 7808   1.379   2.931  14.728 -0.6685  0.6189 -0.3155
  526TMC3    C4 7809   1.475   3.047  14.494  1.5104 -0.1653  0.4361
  526TMC3    C5 7810   1.554   3.031  14.604  0.2620 -0.3415  0.7673
  526TMC3    C6 7811   1.504   2.966  14.714 -0.1950  0.8511 -0.0888
  526TMC3     C 7812   1.247   3.044  14.405  1.0962 -0.3477  0.4447
  526TMC3     O 7813   1.134   3.003  14.407  0.0472  0.3538 -0.4595
  526TMC3     H 7814   1.191   2.917  14.619  0.1233 -0.8189 -1.4284
  526TMC3    H1 7815   1.522   3.087  14.405  0.9434 -2.8832 -1.0990
  526TMC3    H2 7816   1.572   2.946  14.795 -1.2541  1.3978  0.9459
  526TMC3    C7 7817   1.690   3.025  14.572 -0.0871  0.3281  0.0659
  526TMC3    C8 7818   1.336   2.882  14.857  0.1296 -0.3222  0.0510
  526TMC3    O1 7819   1.760   2.942  14.630 -0.3827 -0.4915  0.0652
  526TMC3    O2 7820   1.394   2.928  14.955  0.0070 -0.3211  0.4863
  527MPD2     C 7821   3.680   1.630   1.081  0.5625 -0.4249 -0.4209
  527MPD2    C1 7822   3.727   1.533   1.165 -0.0601 -0.5584 -0.4449
  527MPD2    C2 7823   3.857   1.493   1.152 -0.5047 -0.1751 -0.2141
  527MPD2    C3 7824   3.944   1.545   1.056  0.4764 -0.0068 -0.6739
  527MPD2    C4 7825   3.897   1.643   0.968  0.0915 -0.4655  0.2123
  527MPD2    C5 7826   3.767   1.680   0.986 -0.1585  0.2341  0.0349
  527MPD2     H 7827   3.886   1.409   1.214 -0.8792 -0.0857  0.0791
  527MPD2    H1 7828   3.954   1.702   0.898  0.6290  1.0743  1.9385
  527MPD2    H2 7829   3.579   1.666   1.094  0.5746 -0.1871 -0.9842
  527MPD2    H3 7830   3.728   1.767   0.935 -0.4466 -0.4660 -0.9353
  527MPD2     N 7831   4.072   1.486   1.052  0.5699  0.4591 -0.2091
  527MPD2    H5 7832   4.091   1.422   1.129  1.2096 -1.2786 -1.7924
  527MPD2    N1 7833   3.650   1.469   1.266  0.6380  0.2450  0.0147
  527MPD2    H7 7834   3.704   1.408   1.327 -1.6788 -1.4605  0.3420
  528TMC3    C1 7835   3.475   1.431   1.424  0.5834 -0.6247  0.6214
  528TMC3    C2 7836   3.566   1.425   1.522 -0.0462 -0.0891  0.1197
  528TMC3    C3 7837   3.521   1.368   1.634 -0.1211 -0.7269 -0.0155
  528TMC3    C4 7838   3.340   1.396   1.432 -0.3344  0.1892 -0.2455
  528TMC3    C5 7839   3.300   1.344   1.551 -0.2295  1.2424 -0.3895
  528TMC3    C6 7840   3.392   1.341   1.657 -0.1755  0.0101 -0.9035
  528TMC3     C 7841   3.516   1.495   1.299 -0.1617 -0.0364  0.1453
  528TMC3     O 7842   3.428   1.561   1.242 -0.3202  0.2788 -0.2679
  528TMC3     H 7843   3.668   1.460   1.510  0.1396 -0.4811  0.5876
  528TMC3    H1 7844   3.277   1.400   1.344  1.6632 -1.7245 -1.7718
  528TMC3    H2 7845   3.360   1.313   1.757 -0.1584  0.2021 -0.8438
  528TMC3    C7 7846   3.184   1.256   1.564  0.0048  0.1769  0.5318
  528TMC3    C8 7847   3.613   1.385   1.746  0.0614  0.0785  0.3635
  528TMC3    O1 7848   3.081   1.285   1.502  0.0086  0.0219  0.0775
  528TMC3    O2 7849   3.696   1.475   1.721 -0.1620 -0.0421 -0.0675
  529MPD2     C 7850   2.180   0.134   0.694  0.0264 -0.2696 -0.3710
  529MPD2    C1 7851   2.066   0.077   0.646  0.1587 -0.0724 -0.7398
  529MPD2    C2 7852   2.039   0.068   0.513  0.4190 -0.1623 -0.2268
  529MPD2    C3 7853   2.128   0.116   0.422  0.0392 -0.0797  0.6427
  529MPD2    C4 7854   2.250   0.154   0.464  0.7500  0.1757 -0.2823
  529MPD2    C5 7855   2.272   0.165   0.603 -0.0187  0.4949 -0.0662
  529MPD2     H 7856   1.951   0.021   0.472  0.7760 -1.0887  0.0584
  529MPD2    H1 7857   2.326   0.175   0.390 -3.0600  0.7225 -4.0630
  529MPD2    H2 7858   2.206   0.151   0.798 -0.4460 -1.1042 -0.1144
  529MPD2    H3 7859   2.372   0.193   0.633 -0.2181  1.9181 -0.7012
  529MPD2     N 7860   2.099   0.103   0.283 -0.3118 -0.1681 -0.1091
  529MPD2    H5 7861   2.173   0.129   0.218  0.7059 -0.5791  0.9037
  529MPD2    N1 7862   1.964   0.038   0.733  0.1783  0.0486 -0.6671
  529MPD2    H7 7863   1.890   4.710   0.693  1.6918 -2.3581 -0.0952
  530TMC3    C1 7864   1.846   0.010   0.938  0.1717  0.2128  0.2267
  530TMC3    C2 7865   1.859   4.727   1.074 -0.5515  0.1850 -0.0388
  530TMC3    C3 7866   1.750   4.670   1.135 -0.1124  0.5402  0.0635
  530TMC3    C4 7867   1.737   4.697   0.866  0.0605 -0.1298 -0.2018
  530TMC3    C5 7868   1.633   4.652   0.936 -0.0141  0.3311 -0.0185
  530TMC3    C6 7869   1.632   4.637   1.070  0.7318  0.5727 -0.4658
  530TMC3     C 7870   1.965   0.053   0.870  0.7257 -0.5915  0.2020
  530TMC3     O 7871   2.041   0.109   0.942 -0.0502  0.0985  0.0869
  530TMC3     H 7872   1.945   0.032   1.131 -0.8846 -0.2041  0.6819
  530TMC3    H1 7873   1.725   4.694   0.758  1.3943 -0.3042 -0.3427
  530TMC3    H2 7874   1.550   4.591   1.124  2.3843 -2.5674 -0.6406
  530TMC3    C7 7875   1.539   4.576   0.854  0.8668 -0.4875 -0.6569
  530TMC3    C8 7876   1.736   4.672   1.280  0.0181  0.4507  0.3818
  530TMC3    O1 7877   1.501   4.624   0.746  0.1840 -0.0205  0.0471
  530TMC3    O2 7878   1.640   0.003   1.333 -0.5931  0.0647  0.3644
  531MPD2     C 7879   0.925   1.080  13.383 -0.1072  0.0728  0.1388
  531MPD2    C1 7880   0.922   1.213  13.346 -1.3315 -0.0223  0.5093
  531MPD2    C2 7881   0.810   1.262  13.277 -0.0799 -0.3109  0.4001
  531MPD2    C3 7882   0.707   1.168  13.251  0.6495  0.3655  0.0305
  531MPD2    C4 7883   0.703   1.038  13.292 -0.2791 -0.4022  0.4395
  531MPD2    C5 7884   0.821   0.996  13.358 -0.0872 -0.5544 -0.2784
  531MPD2     H 7885   0.794   1.366  13.251  1.8740 -0.4960 -1.6122
  531MPD2    H1 7886   0.619   0.973  13.271 -1.9287  1.4001  1.4228
  531MPD2    H2 7887   1.013   1.040  13.433 -0.2863  1.6806  1.7140
  531MPD2    H3 7888   0.825   0.893  13.390  0.2901  0.1360  1.8963
  531MPD2     N 7889   0.585   1.200  13.189  0.0841  0.6160  0.4256
  531MPD2    H5 7890   0.502   1.143  13.198  0.3601 -0.0355 -1.3160
  531MPD2    N1 7891   1.016   1.298  13.399  0.0253  0.3717  0.3296
  531MPD2    H7 7892   1.073   1.270  13.478 -1.1856  0.1486  1.1327
  532TMC3    C1 7893   1.113   1.504  13.460 -0.0340 -0.8635 -0.1622
  532TMC3    C2 7894   1.083   1.632  13.452  0.0412  0.0686  0.5359
  532TMC3    C3 7895   1.105   1.721  13.554  0.5556  0.5732 -0.1798
  532TMC3    C4 7896   1.160   1.452  13.580 -0.1145  0.2976 -0.5608
  532TMC3    C5 7897   1.183   1.538  13.679  0.1328 -1.0214  0.3938
  532TMC3    C6 7898   1.157   1.671  13.672  0.2739 -0.3794 -0.5617
  532TMC3     C 7899   1.030   1.426  13.369 -0.8763  0.4024 -0.9632
  532TMC3     O 7900   0.977   1.489  13.276  0.2656 -0.0720 -0.0372
  532TMC3     H 7901   1.061   1.678  13.356 -1.4133  0.2509  0.9519
  532TMC3    H1 7902   1.187   1.347  13.584 -0.3816  0.2485 -0.1139
  532TMC3    H2 7903   1.181   1.739  13.752  2.6202 -1.9727  0.0631
  532TMC3    C7 7904   1.282   1.508  13.775 -0.3071  0.1857  0.0989
  532TMC3    C8 7905   1.010   1.830  13.557  0.4412 -0.0963  0.4753
  532TMC3    O1 7906   1.359   1.591  13.816 -0.1517  0.0243 -0.1609
  532TMC3    O2 7907   1.035   1.930  13.618 -0.0736 -0.1774 -0.3951
  533TMC3    C1 7908   1.387   3.716  14.144  0.1415 -0.2230 -0.1841
  533TMC3    C2 7909   1.516   3.749  14.179 -0.2537  0.5010  0.4180
  533TMC3    C3 7910   1.543   3.790  14.304  0.3130  0.7203 -0.5448
  533TMC3    C4 7911   1.286   3.718  14.240  0.4209 -0.1500  0.4298
  533TMC3    C5 7912   1.322   3.751  14.371  0.2628  0.4827 -0.0429
  533TMC3    C6 7913   1.448   3.790  14.398  0.0343 -0.6197 -0.9753
  533TMC3     C 7914   1.392   3.595  14.069  0.0714 -0.5828 -0.0080
  533TMC3     O 7915   1.491   3.529  14.052  0.2614  0.2267  0.1112
  533TMC3     H 7916   1.589   3.740  14.100 -0.8274 -1.1178  0.0728
  533TMC3    H1 7917   1.186   3.677  14.229  1.1485 -1.1224 -2.4389
  533TMC3    H2 7918   1.485   3.806  14.499  0.2664 -2.1705 -0.8148
  533TMC3    C7 7919   1.226   3.736  14.474  0.2086  0.2023  0.4055
  533TMC3    C8 7920   1.682   3.825  14.334 -0.4318 -0.4522 -0.0732
  533TMC3    O1 7921   1.139   3.650  14.455 -0.3508 -0.3095  0.3105
  533TMC3    O2 7922   1.723   3.808  14.450 -0.3175 -0.4601 -0.6293
  534MPD2     C 7923   4.098   0.562   1.848  0.1417 -0.0741 -0.8756
  534MPD2    C1 7924   4.021   0.609   1.749 -0.2170  0.0718  0.4784
  534MPD2    C2 7925   3.935   0.519   1.697  0.2867 -0.7405  0.5683
  534MPD2    C3 7926   3.914   0.391   1.739  0.0728  0.2169  0.2957
  534MPD2    C4 7927   3.986   0.341   1.842 -0.8237 -0.3707 -0.1295
  534MPD2    C5 7928   4.081   0.429   1.888  0.5844 -0.2021 -0.1741
  534MPD2     H 7929   3.874   0.556   1.616  0.5363  0.6739  1.0234
  534MPD2    H1 7930   3.984   0.236   1.869 -2.4864 -0.3489 -0.1688
  534MPD2    H2 7931   4.176   0.621   1.895 -1.6834  1.5887  0.1032
  534MPD2    H3 7932   4.153   0.386   1.956 -0.3515 -1.2493  0.1715
  534MPD2     N 7933   3.826   0.306   1.664  0.2109  0.5124  0.5178
  534MPD2    H5 7934   3.790   0.348   1.579 -1.3358 -3.1300 -0.6421
  534MPD2    N1 7935   4.026   0.741   1.704 -0.6716 -0.1904  0.0819
  534MPD2    H7 7936   3.968   0.757   1.622 -0.5278  2.4291  0.4759
  535TMC3    C1 7937   3.692   0.129   1.601 -0.4698  0.6996  0.7783
  535TMC3    C2 7938   3.565   0.103   1.647 -0.1122 -0.3524 -0.1614
  535TMC3    C3 7939   3.464   0.093   1.553 -0.5483  0.2999  0.1565
  535TMC3    C4 7940   3.715   0.155   1.470 -0.1341 -0.1129 -0.7483
  535TMC3    C5 7941   3.609   0.125   1.380  0.3134  0.7427  0.1253
  535TMC3    C6 7942   3.486   0.101   1.416  0.5004 -1.1287  0.8790
  535TMC3     C 7943   3.775   0.185   1.704 -0.3839  0.1772  0.0580
  535TMC3     O 7944   3.781   0.136   1.815 -0.4215 -0.6350 -0.4647
  535TMC3     H 7945   3.550   0.092   1.754  1.9403 -1.3762  0.0372
  535TMC3    H1 7946   3.809   0.189   1.428 -0.7382  1.2698 -0.9803
  535TMC3    H2 7947   3.408   0.089   1.342  1.2831  0.0178 -0.1345
  535TMC3    C7 7948   3.622   0.185   1.247  0.8682  0.1402  0.0595
  535TMC3    C8 7949   3.319   0.113   1.584 -0.0764 -0.1117 -0.0420
  535TMC3    O1 7950   3.734   0.172   1.194 -0.3123 -0.4844  0.0169
  535TMC3    O2 7951   3.237   0.109   1.491  0.4103  0.5152  0.3004
  536MPD2     C 7952   3.005   3.444  16.268  0.5337 -0.0182 -0.3528
  536MPD2    C1 7953   2.896   3.438  16.348 -0.7593  0.0207 -0.7676
  536MPD2    C2 7954   2.775   3.440  16.289 -0.3234  0.1527 -0.5808
  536MPD2    C3 7955   2.758   3.445  16.150 -0.5599  0.5561  0.1344
  536MPD2    C4 7956   2.874   3.459  16.071 -0.8379 -0.7312 -0.0376
  536MPD2    C5 7957   2.998   3.465  16.134 -0.1372 -0.1719 -0.0259
  536MPD2     H 7958   2.684   3.448  16.346 -0.7332  1.5542 -1.4199
  536MPD2    H1 7959   2.872   3.471  15.963  1.5315 -2.0845 -0.2280
  536MPD2    H2 7960   3.100   3.443  16.321 -0.5025  0.6422  1.4884
  536MPD2    H3 7961   3.087   3.482  16.074 -0.6491  0.9875 -0.4652
  536MPD2     N 7962   2.635   3.442  16.085  0.4701 -0.7387 -0.3143
  536MPD2    H5 7963   2.636   3.466  15.987  2.1720  2.7121  0.5197
  536MPD2    N1 7964   2.918   3.422  16.486  0.4510 -0.2405  0.3126
  536MPD2    H7 7965   3.013   3.409  16.519 -0.9337 -0.3645  4.1455
  537TMC3    C1 7966   2.855   3.378  16.709  0.2601 -0.8735  0.3192
  537TMC3    C2 7967   2.964   3.435  16.782 -0.7270  0.3872 -0.3860
  537TMC3    C3 7968   2.944   3.448  16.912 -0.9770  0.0575 -0.2546
  537TMC3    C4 7969   2.741   3.324  16.766 -0.2360 -0.0203 -0.5329
  537TMC3    C5 7970   2.732   3.334  16.898  0.3547  0.7152  0.5321
  537TMC3    C6 7971   2.830   3.400  16.973  0.2134 -0.0988  0.3206
  537TMC3     C 7972   2.818   3.416  16.575  0.7779  0.1445 -0.2647
  537TMC3     O 7973   2.697   3.439  16.562  0.1839  0.1402 -0.4858
  537TMC3     H 7974   3.046   3.482  16.728 -1.4772 -0.3412 -2.1416
  537TMC3    H1 7975   2.665   3.270  16.710 -0.2181 -1.8806  1.2253
  537TMC3    H2 7976   2.809   3.427  17.076 -0.3863 -1.7839  0.6432
  537TMC3    C7 7977   2.642   3.245  16.964  0.5241  0.0910 -0.3857
  537TMC3    C8 7978   3.044   3.508  16.998  0.5834  0.0284  0.2689
  537TMC3    O1 7979   2.538   3.229  16.907  0.2282 -0.6221  0.3267
  537TMC3    O2 7980   3.164   3.474  16.985 -0.7141  0.1081  0.4552
  538TMC3    C1 7981   3.449   1.080  10.758  0.4460  0.2837  0.2144
  538TMC3    C2 7982   3.506   1.017  10.652 -0.6505 -0.4839 -0.2082
  538TMC3    C3 7983   3.506   1.082  10.531  0.4559  0.1488  0.4773
  538TMC3    C4 7984   3.390   1.203  10.755  0.4282 -0.0049 -0.5808
  538TMC3    C5 7985   3.392   1.268  10.628 -0.2253 -0.0145 -0.5353
  538TMC3    C6 7986   3.446   1.206  10.516  1.0199 -0.2334 -0.4833
  538TMC3     C 7987   3.492   1.051  10.893 -0.1195  0.0907 -0.1834
  538TMC3     O 7988   3.432   1.091  10.985 -0.7168 -0.0562 -0.1097
  538TMC3     H 7989   3.548   0.917  10.653  0.9661  0.2156  2.2148
  538TMC3    H1 7990   3.344   1.242  10.845  0.3602 -1.9474  0.2286
  538TMC3    H2 7991   3.462   1.255  10.421  1.1906  1.3245  0.3608
  538TMC3    C7 7992   3.336   1.401  10.625  0.1068 -0.4116  0.8006
  538TMC3    C8 7993   3.622   1.053  10.453 -0.2991 -0.3315 -0.0140
  538TMC3    O1 7994   3.271   1.432  10.525  0.8946 -0.2996  0.3886
  538TMC3    O2 7995   3.645   0.939  10.420 -0.0946 -0.0967  0.6321
  539MPD2     C 7996   3.848   0.848  11.749 -0.4006 -0.4515 -0.3912
  539MPD2    C1 7997   3.752   0.814  11.659 -0.0788  0.7467  0.1222
  539MPD2    C2 7998   3.684   0.911  11.588 -0.1877  0.0175  0.3677
  539MPD2    C3 7999   3.697   1.046  11.621  0.4466 -0.4579 -0.0767
  539MPD2    C4 8000   3.788   1.086  11.721 -0.0972 -0.5119 -1.6351
  539MPD2    C5 8001   3.864   0.985  11.782  0.3746 -0.2370 -0.8162
  539MPD2     H 8002   3.615   0.883  11.510 -1.3574  1.2416  0.9667
  539MPD2    H1 8003   3.814   1.190  11.730  2.5675 -1.5303  2.1609
  539MPD2    H2 8004   3.910   0.782  11.809 -1.7365 -0.7818  0.5995
  539MPD2    H3 8005   3.944   1.009  11.850  0.5036  3.2761 -2.1899
  539MPD2     N 8006   3.622   1.151  11.557 -0.3298  0.7401 -0.1121
  539MPD2    H5 8007   3.644   1.245  11.587  0.5806  0.4249  0.1845
  539MPD2    N1 8008   3.747   0.676  11.627  0.6729 -0.2765 -0.5264
  539MPD2    H7 8009   3.818   0.621  11.673  0.0676  0.6064  1.4783
  540TMC3    C1 8010   3.462   1.261  11.419 -0.1085 -1.0000  0.0542
  540TMC3    C2 8011   3.380   1.245  11.305  0.2092  0.0289  0.2966
  540TMC3    C3 8012   3.274   1.329  11.290 -0.6221 -0.5697  0.6384
  540TMC3    C4 8013   3.442   1.367  11.504 -0.0895  1.0601  0.1132
  540TMC3    C5 8014   3.332   1.447  11.485  0.2750 -0.6265 -0.2365
  540TMC3    C6 8015   3.238   1.423  11.388  0.4817  0.0671  0.1937
  540TMC3     C 8016   3.521   1.138  11.463  1.0736 -0.6457  0.6054
  540TMC3     O 8017   3.473   1.032  11.421 -0.7235  0.1748 -0.4309
  540TMC3     H 8018   3.405   1.177  11.224  1.3717  1.8810 -0.8760
  540TMC3    H1 8019   3.505   1.375  11.592  0.2222 -1.2513  0.0947
  540TMC3    H2 8020   3.144   1.475  11.378  1.1302  1.3325  0.6191
  540TMC3    C7 8021   3.272   1.488  11.615 -0.2488 -0.1804 -0.1144
  540TMC3    C8 8022   3.204   1.344  11.165  0.8923  0.0212 -0.2265
  540TMC3    O1 8023   3.302   1.417  11.713  0.3016  0.3579 -0.3318
  540TMC3    O2 8024   3.173   1.458  11.135  0.2593  0.2063  0.2387
  541MPD2     C 8025   2.235   2.324  13.292 -0.0011 -0.0619 -0.6921
  541MPD2    C1 8026   2.096   2.299  13.303 -0.3690 -0.2856  0.4489
  541MPD2    C2 8027   2.010   2.345  13.201 -0.9106  0.2126 -0.1048
  541MPD2    C3 8028   2.066   2.416  13.097  0.1835  0.1968  0.3012
  541MPD2    C4 8029   2.201   2.433  13.090  0.0252 -0.5021  0.4534
  541MPD2    C5 8030   2.281   2.396  13.193 -0.6284 -0.4757 -0.7376
  541MPD2     H 8031   1.904   2.323  13.205 -0.5109 -1.9624 -1.4479
  541MPD2    H1 8032   2.249   2.491  13.012 -0.8627 -2.4042 -1.5227
  541MPD2    H2 8033   2.302   2.285  13.367 -1.9785  2.0378  2.1896
  541MPD2    H3 8034   2.387   2.414  13.182 -0.3881 -2.2099 -1.3253
  541MPD2     N 8035   1.985   2.468  12.986  0.0193  0.3284  0.6736
  541MPD2    H5 8036   2.030   2.492  12.898  1.3973 -0.1242  1.2465
  541MPD2    N1 8037   2.049   2.221  13.413  0.6190  0.4941  0.2062
  541MPD2    H7 8038   2.124   2.173  13.462 -1.2428 -1.0517  1.5401
  542TMC3    C1 8039   1.797   2.503  12.853 -0.0140  0.4197 -0.3113
  542TMC3    C2 8040   1.857   2.452  12.741 -0.3955  0.5638  0.2544
  542TMC3    C3 8041   1.786   2.470  12.624 -0.4399 -0.2326  0.1288
  542TMC3    C4 8042   1.666   2.554  12.857 -0.4983 -0.5833  0.6943
  542TMC3    C5 8043   1.593   2.546  12.730  0.2294  0.6675 -0.2390
  542TMC3    C6 8044   1.656   2.513  12.616  0.1077  0.4091 -1.1856
  542TMC3     C 8045   1.845   2.473  12.991 -0.0545 -0.0043  0.0836
  542TMC3     O 8046   1.767   2.482  13.085  0.3850 -0.4071  0.1183
  542TMC3     H 8047   1.955   2.406  12.748 -0.1519  1.3358  1.9239
  542TMC3    H1 8048   1.633   2.594  12.952 -2.7952 -0.3128 -0.1909
  542TMC3    H2 8049   1.623   2.547  12.518  2.6027  1.3822 -1.6872
  542TMC3    C7 8050   1.467   2.611  12.719  0.8487 -0.4469 -0.5353
  542TMC3    C8 8051   1.850   2.445  12.497 -0.3918  0.1533  0.2312
  542TMC3    O1 8052   1.425   2.665  12.818  0.6030 -0.6129 -0.6261
  542TMC3    O2 8053   1.780   2.437  12.399  0.4521 -0.3065 -0.1721
  543TMC3    C1 8054   1.108   3.923  17.490 -0.6806  0.4451  0.0967
  543TMC3    C2 8055   1.165   3.822  17.570 -0.3016 -0.2822  1.0014
  543TMC3    C3 8056   1.089   3.740  17.637 -0.3064 -0.2030  0.5425
  543TMC3    C4 8057   0.974   3.946  17.501  0.5287  0.0185 -0.6437
  543TMC3    C5 8058   0.903   3.872  17.595  0.4274 -0.3984  0.2962
  543TMC3    C6 8059   0.957   3.766  17.666  0.8064 -0.4504 -0.1919
  543TMC3     C 8060   1.198   3.986  17.390  0.1511  0.5593  0.2558
  543TMC3     O 8061   1.315   4.002  17.416  0.2931 -0.0398 -0.0220
  543TMC3     H 8062   1.266   3.785  17.560  1.1236  4.6595 -2.9345
  543TMC3    H1 8063   0.916   4.009  17.433  0.2849 -1.0518 -1.4320
  543TMC3    H2 8064   0.900   3.705   0.023  0.5919 -0.8429 -0.7263
  543TMC3    C7 8065   0.758   3.881  17.594  0.8999  0.6277  0.6898
  543TMC3    C8 8066   1.149   3.615  17.669  0.1037 -0.8301 -0.4350
  543TMC3    O1 8067   0.694   3.787  17.630 -0.3211  0.1412  0.1795
  543TMC3    O2 8068   1.230   3.569  17.591 -0.1220 -0.3354  0.4984
  544MPD2     C 8069   1.114   3.175   0.203 -0.3030  0.6554 -0.4494
  544MPD2    C1 8070   1.164   3.202   0.077 -0.2586 -0.2013  0.5781
  544MPD2    C2 8071   1.174   3.331   0.036  0.4613 -0.3963 -0.0785
  544MPD2    C3 8072   1.115   3.427   0.113  0.3019 -0.3037  0.1309
  544MPD2    C4 8073   1.061   3.399   0.235  0.1444 -0.2864 -0.2166
  544MPD2    C5 8074   1.059   3.269   0.284 -0.3125  0.2236 -0.1176
  544MPD2     H 8075   1.208   3.351  17.647  4.0151  1.9465  1.5824
  544MPD2    H1 8076   1.011   3.475   0.295 -0.1348 -0.4025 -0.3049
  544MPD2    H2 8077   1.097   3.075   0.239  0.0844  1.8328  2.9891
  544MPD2    H3 8078   1.003   3.232   0.369 -1.9955  0.8156 -0.9694
  544MPD2     N 8079   1.096   3.556   0.066  0.3222  0.2384 -0.2519
  544MPD2    H5 8080   1.039   3.617   0.124  1.6721  0.7456  0.5269
  544MPD2    N1 8081   1.181   3.098  17.705 -0.2061 -0.7015  0.1378
  544MPD2    H7 8082   1.171   3.009   0.040  1.3302  0.5242  2.7563
  545TMC3    C1 8083   1.215   2.965  17.515  0.0241  0.3505 -0.7968
  545TMC3    C2 8084   1.165   2.944  17.390  0.0368 -0.0429  0.2458
  545TMC3    C3 8085   1.181   2.822  17.338 -0.1626 -0.3514 -0.3849
  545TMC3    C4 8086   1.284   2.874  17.591  0.2944 -0.2866  0.0553
  545TMC3    C5 8087   1.308   2.757  17.522 -0.1341 -0.3008  0.5054
  545TMC3    C6 8088   1.255   2.720  17.402 -0.2633 -0.1120 -0.3079
  545TMC3     C 8089   1.206   3.101  17.571 -0.6277  0.6132 -0.3786
  545TMC3     O 8090   1.195   3.188  17.487  0.3514 -0.1823  0.6078
  545TMC3     H 8091   1.133   3.034  17.338 -0.0030  0.2739  0.8224
  545TMC3    H1 8092   1.324   2.896  17.689  1.4039 -2.8501  0.1736
  545TMC3    H2 8093   1.258   2.616  17.371  0.3085  0.0345 -0.7514
  545TMC3    C7 8094   1.393   2.654  17.584  0.2875 -0.2110  0.4379
  545TMC3    C8 8095   1.096   2.777  17.235 -0.9556 -0.1549  0.5569
  545TMC3    O1 8096   1.365   2.533  17.572 -0.0780  0.1926  0.6805
  545TMC3    O2 8097   1.109   2.661  17.204 -0.1101 -0.1767 -0.7183
  546MPD2     C 8098   2.909   3.566   0.119 -0.2143 -0.5130  0.1697
  546MPD2    C1 8099   2.849   3.693   0.116  0.0564  0.6075 -0.6227
  546MPD2    C2 8100   2.937   3.802   0.122 -0.0395  0.0822 -0.4424
  546MPD2    C3 8101   3.078   3.786   0.119 -0.1165  0.3617  0.1883
  546MPD2    C4 8102   3.129   3.655   0.115  0.3199  0.2225 -0.7942
  546MPD2    C5 8103   3.046   3.547   0.115  0.1299  0.2354 -0.2506
  546MPD2     H 8104   2.895   3.902   0.114 -2.1372 -0.7441  0.4533
  546MPD2    H1 8105   3.236   3.640   0.101  0.4205 -0.8295  0.9905
  546MPD2    H2 8106   2.850   3.475   0.123 -1.2791  0.2837  2.4821
  546MPD2    H3 8107   3.081   3.444   0.117  0.8200  0.5081  1.7159
  546MPD2     N 8108   3.164   3.897   0.133  0.2548  0.4848  0.5282
  546MPD2    H5 8109   3.123   3.988   0.151  1.3849  0.4990  3.0528
  546MPD2    N1 8110   2.707   3.702   0.108  0.3785 -0.0675 -0.5415
  546MPD2    H7 8111   2.653   3.617   0.118  0.7008 -0.0295  1.5058
  547TMC3    C1 8112   2.487   3.782   0.069  0.1570 -0.4213 -0.1637
  547TMC3    C2 8113   2.432   3.845  17.672 -0.5144  0.4381  0.3436
  547TMC3    C3 8114   2.310   3.794  17.636  0.1630  0.5550 -0.1200
  547TMC3    C4 8115   2.433   3.671   0.133 -0.6051  0.7698 -0.0311
  547TMC3    C5 8116   2.311   3.629   0.093 -0.0395  0.2672  0.4794
  547TMC3    C6 8117   2.247   3.697  17.700  1.1107  0.5949  0.2855
  547TMC3     C 8118   2.626   3.815   0.099 -0.1090 -0.2302  0.2176
  547TMC3     O 8119   2.664   3.928   0.072  0.3508 -0.6242 -0.1235
  547TMC3     H 8120   2.474   3.938  17.633  0.4299 -0.6925 -1.3388
  547TMC3    H1 8121   2.489   3.612   0.204  0.3414  1.6225 -0.0682
  547TMC3    H2 8122   2.151   3.667  17.661  1.0028 -0.7991  1.6120
  547TMC3    C7 8123   2.237   3.560   0.185  0.0286 -0.1241 -0.1326
  547TMC3    C8 8124   2.262   3.822  17.502 -0.8434 -0.3399 -0.0426
  547TMC3    O1 8125   2.285   3.552   0.297  0.0727  0.2605 -0.1369
  547TMC3    O2 8126   2.144   3.808  17.483 -0.1078  0.6291  0.0389
  548MPD2     C 8127   2.500   4.448  12.388 -0.1121 -0.3875  0.0281
  548MPD2    C1 8128   2.480   4.323  12.431 -0.1847 -0.4461  0.1926
  548MPD2    C2 8129   2.514   4.210  12.356  0.3608  0.2544  0.2664
  548MPD2    C3 8130   2.568   4.225  12.231 -0.9644 -0.8217  0.9631
  548MPD2    C4 8131   2.588   4.349  12.182  0.0218  0.0997 -0.2264
  548MPD2    C5 8132   2.551   4.461  12.256  0.7017 -0.6524 -0.5323
  548MPD2     H 8133   2.513   4.110  12.397 -2.5664 -1.1688 -3.2483
  548MPD2    H1 8134   2.631   4.357  12.083  0.9145 -0.3678  0.1248
  548MPD2    H2 8135   2.468   4.539  12.437 -0.5535  0.7299 -2.3167
  548MPD2    H3 8136   2.557   4.561  12.213 -0.6994 -0.6724 -0.7744
  548MPD2     N 8137   2.608   4.109  12.161 -0.7495  0.3991  0.1376
  548MPD2    H5 8138   2.575   4.022  12.202 -0.0510  0.7380  1.4162
  548MPD2    N1 8139   2.428   4.321  12.558 -0.1543 -0.3589 -0.3737
  548MPD2    H7 8140   2.420   4.414  12.597  1.6252 -0.5414  0.4055
  549TMC3    C1 8141   2.317   4.241  12.743 -0.1040 -0.2420  0.0883
  549TMC3    C2 8142   2.254   4.362  12.751  0.9997 -0.1190 -0.3920
  549TMC3    C3 8143   2.144   4.369  12.830 -0.0058  0.6241 -0.6539
  549TMC3    C4 8144   2.267   4.129  12.801 -0.2862  0.3727  0.4398
  549TMC3    C5 8145   2.154   4.140  12.871  0.3177 -0.8622 -0.1061
  549TMC3    C6 8146   2.090   4.257  12.893  0.0558  0.3873  0.5888
  549TMC3     C 8147   2.377   4.211  12.618  0.2243  0.6092 -0.6770
  549TMC3     O 8148   2.355   4.100  12.577  1.1095 -0.1405 -0.3193
  549TMC3     H 8149   2.268   4.453  12.693 -2.4043  0.4025 -0.4180
  549TMC3    H1 8150   2.319   4.033  12.799  0.7208  0.9368 -0.3867
  549TMC3    H2 8151   2.007   4.274  12.960 -0.9904  0.8191 -0.8196
  549TMC3    C7 8152   2.055   4.029  12.869 -0.7337 -0.1675 -0.0875
  549TMC3    C8 8153   2.063   4.487  12.821 -0.2860  0.1212  0.2187
  549TMC3    O1 8154   1.934   4.052  12.858 -0.2868  1.2412 -0.1642
  549TMC3    O2 8155   1.941   4.481  12.814 -0.4515 -0.8550 -0.2483
  550TMC3    C1 8156   1.428   2.211  12.593 -0.3970 -0.4426  0.7263
  550TMC3    C2 8157   1.347   2.251  12.695  0.5973 -0.4912  0.2230
  550TMC3    C3 8158   1.217   2.232  12.688  0.0123  0.2532  0.0832
  550TMC3    C4 8159   1.372   2.150  12.482 -0.6123  0.4535 -0.5885
  550TMC3    C5 8160   1.234   2.129  12.478 -0.7771  0.0835  0.7142
  550TMC3    C6 8161   1.154   2.168  12.584 -0.0757  0.4104 -0.3060
  550TMC3     C 8162   1.558   2.166  12.625  0.9334 -0.7451 -0.2555
  550TMC3     O 8163   1.602   2.228  12.721 -0.3957  0.4073  0.7513
  550TMC3     H 8164   1.396   2.287  12.785  1.1642  0.4394 -0.4515
  550TMC3    H1 8165   1.435   2.132  12.395  1.7799 -2.0109  1.6316
  550TMC3    H2 8166   1.048   2.168  12.560  0.0350  0.5900 -0.8032
  550TMC3    C7 8167   1.174   2.036  12.386 -0.4003 -0.1745  0.2308
  550TMC3    C8 8168   1.127   2.310  12.775 -0.4692  0.3646 -0.0742
  550TMC3    O1 8169   1.056   2.007  12.403  0.6168  1.1954 -0.4744
  550TMC3    O2 8170   1.005   2.317  12.761 -0.5153 -0.2778 -0.1038
  551TMC3    C1 8171   3.517   4.230  13.437 -0.0804 -0.0425 -0.0858
  551TMC3    C2 8172   3.595   4.253  13.327  0.1971 -0.1672  0.1732
  551TMC3    C3 8173   3.676   4.363  13.325  0.3970 -0.1187 -0.5691
  551TMC3    C4 8174   3.524   4.319  13.545  0.4124 -0.5788 -0.0524
  551TMC3    C5 8175   3.604   4.425  13.538  0.0899 -0.0773 -0.2593
  551TMC3    C6 8176   3.674   4.454  13.427  0.3344 -0.0990 -0.1340
  551TMC3     C 8177   3.382   4.198  13.395  0.5104  0.1162 -0.6606
  551TMC3     O 8178   3.359   4.136  13.289  0.3496 -0.5343  0.4115
  551TMC3     H 8179   3.598   4.173  13.255 -0.2219  0.0348 -0.0649
  551TMC3    H1 8180   3.468   4.299  13.636  2.1610  2.1826  1.6502
  551TMC3    H2 8181   3.752   4.529  13.429  0.7033 -0.4710 -1.0348
  551TMC3    C7 8182   3.602   4.511  13.652 -0.0408  0.3561  0.0887
  551TMC3    C8 8183   3.734   4.396  13.197  0.0163 -0.1811 -0.4159
  551TMC3    O1 8184   3.580   4.469  13.765 -1.0913 -0.2234  0.2137
  551TMC3    O2 8185   3.735   4.301  13.122  0.4613 -0.1793  0.1607
  552MPD2     C 8186   1.206   1.957  13.959  0.1206  0.5254 -0.6381
  552MPD2    C1 8187   1.193   1.856  14.046 -1.0742 -0.4423  0.0287
  552MPD2    C2 8188   1.288   1.837  14.147 -0.5425 -0.0616  0.0598
  552MPD2    C3 8189   1.392   1.929  14.163 -0.1953  0.1094 -0.5577
  552MPD2    C4 8190   1.407   2.025  14.071 -0.1243  0.4325  0.6300
  552MPD2    C5 8191   1.306   2.045  13.974  0.5494 -0.9189 -0.3137
  552MPD2     H 8192   1.277   1.747  14.207  0.4296 -1.4405 -1.8219
  552MPD2    H1 8193   1.491   2.094  14.076 -1.4698  2.1105  0.0542
  552MPD2    H2 8194   1.147   1.971  13.869 -2.1072  0.3808  0.7917
  552MPD2    H3 8195   1.315   2.126  13.902  0.4027 -0.9773 -0.3981
  552MPD2     N 8196   1.486   1.918  14.258  0.1642  0.2465  0.0912
  552MPD2    H5 8197   1.557   1.990  14.259  1.7200 -1.3143  3.8501
  552MPD2    N1 8198   1.094   1.762  14.029  0.7086 -0.1029  0.7233
  552MPD2    H7 8199   1.092   1.677  14.085 -1.9443  1.4887  3.0536
  553TMC3    C1 8200   0.882   1.675  13.972 -0.2010 -1.1223 -0.9868
  553TMC3    C2 8201   0.923   1.560  13.909  0.4605  1.3247  0.5376
  553TMC3    C3 8202   0.833   1.454  13.899  0.1198 -0.2420 -0.5795
  553TMC3    C4 8203   0.761   1.686  14.022 -0.5386  0.4027 -0.0486
  553TMC3    C5 8204   0.683   1.576  14.023  0.1849  0.4048 -0.2633
  553TMC3    C6 8205   0.707   1.468  13.946  0.1884  0.0749 -0.8791
  553TMC3     C 8206   0.967   1.789  13.977  0.2924 -0.2736 -0.0118
  553TMC3     O 8207   0.908   1.896  13.958  0.0491  0.3658  0.0794
  553TMC3     H 8208   1.026   1.553  13.878  0.3491  0.2878  0.4051
  553TMC3    H1 8209   0.736   1.772  14.084  0.4604  0.2543  0.5641
  553TMC3    H2 8210   0.647   1.379  13.961 -0.2058  0.8818  2.3143
  553TMC3    C7 8211   0.602   1.564  14.148 -0.1305 -0.6956  0.4487
  553TMC3    C8 8212   0.877   1.328  13.838  0.0239  0.0243 -0.4722
  553TMC3    O1 8213   0.516   1.651  14.160  0.0547  0.1304  0.2038
  553TMC3    O2 8214   0.997   1.304  13.844  0.2374 -0.0559 -0.4389
  554TMC3    C1 8215   2.578   0.906  11.783 -0.2215  0.0246 -1.1316
  554TMC3    C2 8216   2.482   0.872  11.690  0.2984 -0.2791  0.9570
  554TMC3    C3 8217   2.520   0.848  11.563 -0.2424  0.3162 -0.2661
  554TMC3    C4 8218   2.706   0.931  11.745  0.6835 -0.5056  0.2390
  554TMC3    C5 8219   2.743   0.916  11.611 -0.5915 -0.4432  0.5478
  554TMC3    C6 8220   2.653   0.863  11.520  0.5082  0.7929 -0.0076
  554TMC3     C 8221   2.542   0.882  11.922 -0.6400 -0.0527  0.0774
  554TMC3     O 8222   2.424   0.871  11.944  0.2148  0.2512  0.1605
  554TMC3     H 8223   2.381   0.845  11.721  0.3074 -0.4750  0.8126
  554TMC3    H1 8224   2.779   0.972  11.814 -2.2379 -1.7396  4.0249
  554TMC3    H2 8225   2.679   0.845  11.417 -0.5033  0.5272 -0.2224
  554TMC3    C7 8226   2.817   1.025  11.559  0.0526 -0.1975 -0.3763
  554TMC3    C8 8227   2.420   0.820  11.459 -0.0345  0.3811  0.4636
  554TMC3    O1 8228   2.875   1.010  11.454  0.2163  0.2857  0.4099
  554TMC3    O2 8229   2.460   0.770  11.351 -0.7374 -0.3863  0.3801
  555TMC3    C1 8230   1.216   4.710  14.977 -0.0504 -0.2352 -0.8341
  555TMC3    C2 8231   1.191   0.094  15.048  0.3175  0.0303 -0.5062
  555TMC3    C3 8232   1.250   0.108  15.174  0.0683  0.6642 -0.2117
  555TMC3    C4 8233   1.297   4.603  15.029  0.5571  0.2635  0.3063
  555TMC3    C5 8234   1.352   4.622  15.149  0.5591  0.2200 -0.0631
  555TMC3    C6 8235   1.333   0.012  15.223 -0.8730 -0.0382 -0.4307
  555TMC3     C 8236   1.176   4.697  14.837 -0.9152 -0.0170  0.0556
  555TMC3     O 8237   1.225   4.603  14.773 -0.2863  0.3385  0.0139
  555TMC3     H 8238   1.131   0.173  15.004  0.4609  0.2319 -0.3399
  555TMC3    H1 8239   1.323   4.513  14.974  3.2277  1.3551 -0.2154
  555TMC3    H2 8240   1.373   0.018  15.324 -0.1533  2.8701 -0.8793
  555TMC3    C7 8241   1.357   4.504  15.242 -0.5043  0.3744  0.6279
  555TMC3    C8 8242   1.239   0.231  15.253  0.4596  0.0365 -0.0097
  555TMC3    O1 8243   1.308   4.519  15.353 -0.4750 -0.6133  0.2586
  555TMC3    O2 8244   1.142   0.299  15.226 -0.0447 -0.3381 -0.3771
  556MPD2     C 8245   3.773   1.878  11.045  0.1040 -0.2322 -0.3020
  556MPD2    C1 8246   3.902   1.820  11.052 -0.0759  0.1969 -0.9772
  556MPD2    C2 8247   3.970   1.808  10.932  0.0342 -0.2781  0.2919
  556MPD2    C3 8248   3.931   1.868  10.814  0.3843 -0.1705 -0.8654
  556MPD2    C4 8249   3.809   1.928  10.816 -0.1092  0.6716 -0.0183
  556MPD2    C5 8250   3.735   1.940  10.935  0.1000  0.6717  0.4406
  556MPD2     H 8251   4.062   1.749  10.932 -0.1179 -0.5165  0.6230
  556MPD2    H1 8252   3.772   1.982  10.730 -1.2122  0.9801  0.6547
  556MPD2    H2 8253   3.695   1.858  11.118  0.1878 -1.1983 -0.4832
  556MPD2    H3 8254   3.639   1.989  10.949 -0.6258 -0.4743 -0.5788
  556MPD2     N 8255   4.014   1.850  10.699  0.6611 -0.2946  0.8267
  556MPD2    H5 8256   4.109   1.818  10.717  0.8798  0.6485  1.3364
  556MPD2    N1 8257   3.966   1.798  11.175  0.0915  0.1795  0.1726
  556MPD2    H7 8258   4.064   1.772  11.167  0.1707  0.4977  0.1147
  557TMC3    C1 8259   4.080   1.848  10.473  0.6375 -0.6318  0.0687
  557TMC3    C2 8260   4.055   1.909  10.354  0.1445  0.1113  0.3774
  557TMC3    C3 8261   4.050   1.835  10.233 -0.9558  0.2368 -0.4329
  557TMC3    C4 8262   4.107   1.713  10.473  0.2702  0.1448 -0.1558
  557TMC3    C5 8263   4.108   1.642  10.354 -0.0800  0.1384 -0.0423
  557TMC3    C6 8264   4.070   1.698  10.237  0.2346  0.2732 -0.2432
  557TMC3     C 8265   3.981   1.889  10.573  0.1546 -0.2875 -0.0876
  557TMC3     O 8266   3.881   1.939  10.527  0.0894  0.1675 -0.1543
  557TMC3     H 8267   4.050   2.017  10.348  0.1397  0.0511 -0.7449
  557TMC3    H1 8268   4.133   1.665  10.567 -2.0319 -0.3954  0.1908
  557TMC3    H2 8269   4.058   1.639  10.147 -0.3473 -0.1111  0.0910
  557TMC3    C7 8270   4.033   1.524  10.374 -0.1080  0.4864 -0.1938
  557TMC3    C8 8271   3.978   1.898  10.122  0.3680  0.4687  0.5381
  557TMC3    O1 8272   3.958   1.521  10.472 -0.0717  0.7420 -0.1480
  557TMC3    O2 8273   3.930   2.006  10.156 -0.4191 -0.1518  0.0454
  558TMC3    C1 8274   2.206   4.288   9.952 -0.5182 -0.0223 -0.0667
  558TMC3    C2 8275   2.088   4.360   9.976 -0.8710 -0.5305  0.6457
  558TMC3    C3 8276   1.971   4.289   9.986 -0.5542 -0.2383  0.3034
  558TMC3    C4 8277   2.205   4.153   9.943  0.3396 -0.0542 -0.3848
  558TMC3    C5 8278   2.091   4.081   9.955 -0.0308 -0.1784 -0.5202
  558TMC3    C6 8279   1.973   4.148   9.988  0.2720 -0.5888 -0.1378
  558TMC3     C 8280   2.323   4.333  10.021  0.2298 -0.0288  0.0462
  558TMC3     O 8281   2.432   4.316   9.971  0.0410 -0.4941 -0.3176
  558TMC3     H 8282   2.092   4.467   9.996 -0.7843  0.1136 -2.7904
  558TMC3    H1 8283   2.301   4.104   9.932  0.6721  0.9243 -1.8988
  558TMC3    H2 8284   1.886   4.093  10.021  0.6000 -1.5358 -0.8409
  558TMC3    C7 8285   2.102   3.939   9.983  0.8575  0.2777  0.7039
  558TMC3    C8 8286   1.852   4.354  10.021 -0.2241  0.3189 -0.3960
  558TMC3    O1 8287   2.210   3.911  10.031 -0.1609 -0.7366  0.1788
  558TMC3    O2 8288   1.831   4.470   9.989 -0.8859  0.3221 -0.4632
  559MPD2     C 8289   1.942   0.437  10.655 -0.3519  0.2730 -0.4666
  559MPD2    C1 8290   1.931   0.336  10.753  0.7300 -0.1956  0.5564
  559MPD2    C2 8291   2.047   0.293  10.816  0.1467  0.8500 -0.3732
  559MPD2    C3 8292   2.168   0.352  10.787 -0.3724  0.0281  0.0988
  559MPD2    C4 8293   2.179   0.450  10.690 -0.2606  0.0488  0.0805
  559MPD2    C5 8294   2.063   0.486  10.621  0.6771  0.1505  0.0760
  559MPD2     H 8295   2.045   0.234  10.907  0.9603  1.1730 -0.1465
  559MPD2    H1 8296   2.271   0.492  10.652 -0.3409 -0.9634 -1.2208
  559MPD2    H2 8297   1.857   0.457  10.592  0.7366  3.9091 -0.7699
  559MPD2    H3 8298   2.068   0.553  10.536 -0.6543 -0.0151 -0.1323
  559MPD2     N 8299   2.279   0.313  10.862 -0.0179  0.8469 -0.1446
  559MPD2    H5 8300   2.263   0.230  10.918 -1.8510  1.3729  0.0850
  559MPD2    N1 8301   1.802   0.301  10.797  0.0588 -0.2545  0.5650
  559MPD2    H7 8302   1.726   0.366  10.777  0.8698 -0.0421 -1.8875
  560TMC3    C1 8303   2.492   0.285  10.932 -0.3999  0.2241 -0.4816
  560TMC3    C2 8304   2.456   0.155  10.940  0.1622 -0.3302 -0.5905
  560TMC3    C3 8305   2.489   0.081  11.051 -0.3155  0.5775  0.0394
  560TMC3    C4 8306   2.579   0.344  11.017  0.2691  0.1451 -0.7378
  560TMC3    C5 8307   2.619   0.262  11.126 -0.2999 -0.2565  0.3324
  560TMC3    C6 8308   2.578   0.135  11.150 -0.8100 -0.3755  0.7970
  560TMC3     C 8309   2.398   0.372  10.860  0.0411  0.9075 -0.3410
  560TMC3     O 8310   2.442   0.482  10.831 -0.1248 -0.3154  0.5041
  560TMC3     H 8311   2.404   0.110  10.856 -1.1117 -1.1292  0.6266
  560TMC3    H1 8312   2.584   0.451  11.027 -1.8419  0.2782 -1.1811
  560TMC3    H2 8313   2.606   0.076  11.237  0.3781 -2.0458 -0.7271
  560TMC3    C7 8314   2.692   0.325  11.226 -0.3893  0.0018  0.2140
  560TMC3    C8 8315   2.388   4.708  11.082  0.7289 -0.0268 -0.0310
  560TMC3    O1 8316   2.666   0.285  11.340  0.0386  0.2786  0.6372
  560TMC3    O2 8317   2.309   4.683  10.992 -0.1430 -0.1352 -0.1746
  561TMC3    C1 8318   4.670   4.011  11.678 -0.0629 -0.2841  0.2761
  561TMC3    C2 8319   4.619   4.002  11.805 -1.2155 -0.1399  0.2990
  561TMC3    C3 8320   4.535   4.098  11.849  0.1438  0.3884  1.3385
  561TMC3    C4 8321   4.637   4.112  11.599  0.0373  0.1906 -0.3405
  561TMC3    C5 8322   4.559   4.215  11.646  0.6289 -0.0719  1.1918
  561TMC3    C6 8323   4.508   4.203  11.775 -0.3748  0.6793  0.1134
  561TMC3     C 8324   4.712   3.884  11.621  0.2090 -0.5124 -0.6341
  561TMC3     O 8325   4.661   3.780  11.668 -0.1316 -0.0910 -0.0315
  561TMC3     H 8326   4.649   3.922  11.871  1.0227  0.7912  0.4163
  561TMC3    H1 8327   4.672   4.120  11.496  2.4173 -0.1041  0.4400
  561TMC3    H2 8328   4.442   4.274  11.824 -1.1713 -0.8287  1.1868
  561TMC3    C7 8329   4.557   4.352  11.598 -0.2715 -0.5375  1.1119
  561TMC3    C8 8330   4.502   4.087  11.985  0.8615  0.6020  0.4649
  561TMC3    O1 8331   4.461   4.422  11.638 -0.3286 -0.3026 -0.0194
  561TMC3    O2 8332   4.588   4.045  12.064 -0.0038 -0.0157 -0.5282
  562TMC3    C1 8333   1.618   0.758  16.254  0.0399 -0.0383  0.1549
  562TMC3    C2 8334   1.597   0.879  16.185  0.0580  0.9336 -0.6015
  562TMC3    C3 8335   1.502   0.877  16.082 -0.5909  0.4395 -0.0222
  562TMC3    C4 8336   1.544   0.654  16.224 -0.2514  0.2372 -0.4681
  562TMC3    C5 8337   1.451   0.657  16.124 -0.0425  0.0881  0.2551
  562TMC3    C6 8338   1.434   0.767  16.046  0.3765  0.7227  0.4004
  562TMC3     C 8339   1.754   0.719  16.276  0.0043  0.3468 -0.4016
  562TMC3     O 8340   1.777   0.610  16.232  0.6196 -0.4030  0.0968
  562TMC3     H 8341   1.654   0.971  16.199  0.6653  0.8526 -2.5760
  562TMC3    H1 8342   1.553   0.565  16.286  1.5907  1.8501  1.5962
  562TMC3    H2 8343   1.363   0.762  15.964  0.4095  0.5837  0.3797
  562TMC3    C7 8344   1.450   0.532  16.043  0.7366  0.7159 -0.6539
  562TMC3    C8 8345   1.482   0.994  15.997 -0.0414  0.3555 -0.7230
  562TMC3    O1 8346   1.350   0.508  15.979  0.0757  0.8643  0.5677
  562TMC3    O2 8347   1.482   1.107  16.047  1.1612  0.1484 -0.5387
  563MPD2     C 8348   3.686   2.269  15.670 -0.0031 -0.0856 -0.5070
  563MPD2    C1 8349   3.741   2.327  15.783  0.2082  0.7841 -0.0120
  563MPD2    C2 8350   3.874   2.291  15.812  0.0140 -0.0144  0.8057
  563MPD2    C3 8351   3.932   2.190  15.745  0.1952  0.3560 -0.0437
  563MPD2    C4 8352   3.871   2.119  15.642  0.1054  0.1385  0.3695
  563MPD2    C5 8353   3.748   2.169  15.595 -0.2200  0.3139 -0.5217
  563MPD2     H 8354   3.923   2.346  15.891 -3.3916  1.1596  2.1254
  563MPD2    H1 8355   3.927   2.054  15.576 -0.4184  1.1813 -1.0986
  563MPD2    H2 8356   3.585   2.295  15.641 -0.0729 -1.7074 -1.7170
  563MPD2    H3 8357   3.693   2.127  15.511 -1.3072  0.8676 -0.0875
  563MPD2     N 8358   4.063   2.160  15.778  0.0997 -0.4297  0.2494
  563MPD2    H5 8359   4.104   2.220  15.848 -0.1017 -0.8410  0.7165
  563MPD2    N1 8360   3.658   2.403  15.865  0.3306  0.9129  0.4583
  563MPD2    H7 8361   3.559   2.403  15.843  0.4136  1.0734  0.0881
  564TMC3    C1 8362   3.565   2.489  16.068  0.1576  0.9028 -0.2970
  564TMC3    C2 8363   3.444   2.455  16.018  0.1617 -0.4702 -0.1724
  564TMC3    C3 8364   3.363   2.380  16.093 -0.2441  0.4309 -0.5169
  564TMC3    C4 8365   3.601   2.474  16.202  0.0865  0.0969 -0.4891
  564TMC3    C5 8366   3.530   2.378  16.262 -0.5157 -0.2000 -0.2129
  564TMC3    C6 8367   3.415   2.327  16.211 -0.1229  0.4031 -0.0008
  564TMC3     C 8368   3.684   2.456  15.986 -0.1162  0.0924  0.0641
  564TMC3     O 8369   3.789   2.476  16.042  0.3657 -0.0259  0.1819
  564TMC3     H 8370   3.402   2.499  15.928 -1.8794  0.5235  1.2699
  564TMC3    H1 8371   3.700   2.503  16.235  0.2742  0.7542 -1.6189
  564TMC3    H2 8372   3.352   2.256  16.263  2.3667 -0.8969  1.1916
  564TMC3    C7 8373   3.618   2.267  16.282 -0.1632 -0.6449  0.8635
  564TMC3    C8 8374   3.285   2.275  16.023 -0.2796 -0.2479 -0.4629
  564TMC3    O1 8375   3.711   2.296  16.351  0.2058 -0.1394  0.0416
  564TMC3    O2 8376   3.252   2.174  16.085 -0.0013  0.2028 -0.1658
  565TMC3    C1 8377   4.107   2.742  10.727  0.1628  0.2302 -0.8624
  565TMC3    C2 8378   4.150   2.700  10.848  0.1605  0.6488 -0.0587
  565TMC3    C3 8379   4.071   2.614  10.916 -0.2635  0.5944 -0.6900
  565TMC3    C4 8380   3.981   2.716  10.682 -0.0154 -0.2208 -0.0163
  565TMC3    C5 8381   3.901   2.635  10.760  0.4861  0.2315  0.0864
  565TMC3    C6 8382   3.948   2.579  10.874 -0.1387  0.0456  0.4592
  565TMC3     C 8383   4.163   2.872  10.685  0.7791 -0.3961 -0.5996
  565TMC3     O 8384   4.150   2.903  10.568  0.2707  0.7266 -0.1371
  565TMC3     H 8385   4.246   2.712  10.897  1.2006 -1.4088 -1.6294
  565TMC3    H1 8386   3.922   2.765  10.606  0.4420  0.9068  0.3624
  565TMC3    H2 8387   3.885   2.518  10.938 -1.8819 -0.0384 -1.3286
  565TMC3    C7 8388   3.772   2.598  10.718  0.4080 -0.1629 -0.0422
  565TMC3    C8 8389   4.129   2.550  11.032 -0.3689 -0.4578 -0.5998
  565TMC3    O1 8390   3.698   2.541  10.796 -0.4031  0.1723 -0.0620
  565TMC3    O2 8391   4.230   2.598  11.082 -0.0111  0.1683 -0.0849
  566MPD2     C 8392   0.498   4.645  14.561 -0.0921  0.4274 -0.0816
  566MPD2    C1 8393   0.592   4.585  14.481 -0.5591  0.2704  0.8389
  566MPD2    C2 8394   0.599   4.638  14.351 -0.5165 -0.5631 -0.2558
  566MPD2    C3 8395   0.522   0.013  14.298 -0.0754 -0.3381 -0.6361
  566MPD2    C4 8396   0.425   0.058  14.382  0.3959 -0.0769  0.2379
  566MPD2    C5 8397   0.411   0.008  14.513  0.0794 -0.7129  0.8477
  566MPD2     H 8398   0.673   4.591  14.288 -1.1062  1.1786 -2.2367
  566MPD2    H1 8399   0.362   0.138  14.344  1.1404  2.1754  3.8170
  566MPD2    H2 8400   0.473   4.616  14.663  0.8666 -1.9165 -0.5207
  566MPD2    H3 8401   0.329   0.038  14.578 -0.7835 -0.7167 -0.2318
  566MPD2     N 8402   0.538   0.075  14.176  0.8254  0.4623  0.3515
  566MPD2    H5 8403   0.493   0.165  14.161 -0.5126 -0.4262 -1.0498
  566MPD2    N1 8404   0.686   4.484  14.534 -0.2730 -0.2869 -0.6677
  566MPD2    H7 8405   0.678   4.475  14.635  0.5443  0.8283 -0.5045
  567TMC3    C1 8406   0.885   4.364  14.538 -0.4030 -0.2432 -0.7216
  567TMC3    C2 8407   1.009   4.352  14.475 -0.2820 -0.3747  0.2700
  567TMC3    C3 8408   1.126   4.337  14.548  0.5664  0.2453 -0.4592
  567TMC3    C4 8409   0.878   4.361  14.678  0.0320  0.4683 -0.4694
  567TMC3    C5 8410   0.997   4.335  14.746  0.0437  0.2831  0.1666
  567TMC3    C6 8411   1.120   4.334  14.685 -0.0726  0.3059 -0.5005
  567TMC3     C 8412   0.770   4.403  14.454  0.5078  0.3917  0.4869
  567TMC3     O 8413   0.779   4.392  14.333 -0.5838 -0.5671  0.1842
  567TMC3     H 8414   1.020   4.368  14.368 -0.8260  0.0435  0.2753
  567TMC3    H1 8415   0.786   4.345  14.733 -0.6228 -2.2977 -2.3777
  567TMC3    H2 8416   1.203   4.303  14.747 -1.4052  1.1781  1.7132
  567TMC3    C7 8417   0.986   4.329  14.897 -0.0242  0.7948 -0.0041
  567TMC3    C8 8418   1.239   4.402  14.484 -0.9395  0.0720  0.4868
  567TMC3    O1 8419   1.055   4.242  14.953 -0.1089 -0.7388  0.7447
  567TMC3    O2 8420   1.225   4.459  14.376  0.2594  0.1533  0.1891
  568MPD2     C 8421   3.362   0.897  16.267  0.3089  0.0026  0.1568
  568MPD2    C1 8422   3.363   1.000  16.361 -0.3833 -0.3052 -0.5590
  568MPD2    C2 8423   3.341   1.134  16.331 -0.3779  0.4403 -1.2602
  568MPD2    C3 8424   3.302   1.161  16.202 -0.5875  0.1613  0.2653
  568MPD2    C4 8425   3.282   1.060  16.113  0.3205  0.1006 -0.3289
  568MPD2    C5 8426   3.306   0.931  16.144 -0.4008  0.0695 -0.5324
  568MPD2     H 8427   3.349   1.221  16.395  0.4791  0.1512 -0.9710
  568MPD2    H1 8428   3.239   1.079  16.015 -1.0998 -0.0404  0.2575
  568MPD2    H2 8429   3.388   0.793  16.287  1.3042  1.0483  4.1253
  568MPD2    H3 8430   3.296   0.854  16.069  0.0051 -1.2564  0.7708
  568MPD2     N 8431   3.296   1.306  16.162  0.3682 -0.0639 -0.7546
  568MPD2    H5 8432   3.342   1.366  16.230  1.7523  1.6313 -3.2202
  568MPD2    N1 8433   3.412   0.972  16.495 -0.2192 -0.0989  0.5741
  568MPD2    H7 8434   3.468   0.889  16.506 -1.1003 -0.6906  0.5663
  569TMC3    C1 8435   3.316   1.487  16.011  0.2998 -0.1439  0.3999
  569TMC3    C2 8436   3.332   1.557  16.130 -0.5437  0.0674  0.2778
  569TMC3    C3 8437   3.427   1.652  16.135 -0.1677 -0.1239 -0.4348
  569TMC3    C4 8438   3.402   1.513  15.908 -0.2952 -0.2857  0.3464
  569TMC3    C5 8439   3.491   1.616  15.917  0.4491  0.0631  1.0828
  569TMC3    C6 8440   3.514   1.676  16.032  0.0123 -0.0879  0.2480
  569TMC3     C 8441   3.276   1.350  16.035  0.1124  0.0116 -0.1849
  569TMC3     O 8442   3.219   1.293  15.944 -0.6375  0.1668 -0.1308
  569TMC3     H 8443   3.272   1.548  16.220  3.4418  0.2326  3.0140
  569TMC3    H1 8444   3.373   1.478  15.809 -0.3868  1.7800 -0.3528
  569TMC3    H2 8445   3.588   1.753  16.047  0.3327 -0.6004  1.3183
  569TMC3    C7 8446   3.475   1.703  15.801 -0.5827  0.4401  0.2439
  569TMC3    C8 8447   3.395   1.764  16.227  0.6295 -0.2148 -0.5473
  569TMC3    O1 8448   3.497   1.661  15.689  0.5103  0.1184  0.0326
  569TMC3    O2 8449   3.286   1.822  16.223 -0.5388 -0.1854  0.0959
  570TMC3    C1 8450   2.813   4.649  16.618  0.3321  0.1226  0.2254
  570TMC3    C2 8451   2.905   4.654  16.515  0.1582  0.1642  0.7301
  570TMC3    C3 8452   2.911   0.040  16.435 -0.3361  0.6258 -0.2628
  570TMC3    C4 8453   2.729   0.029  16.639 -0.9887 -0.5053  0.0013
  570TMC3    C5 8454   2.728   0.133  16.554 -0.0707 -0.4054  0.4941
  570TMC3    C6 8455   2.831   0.148  16.459  0.5724 -0.6947 -0.2912
  570TMC3     C 8456   2.800   4.518  16.682 -0.0217 -0.1170 -0.0070
  570TMC3     O 8457   2.850   4.422  16.626  0.4827  0.2806 -0.0856
  570TMC3     H 8458   2.968   4.566  16.500 -0.7514 -0.2697 -0.5907
  570TMC3    H1 8459   2.662   0.025  16.724  1.6722 -0.9772  2.0951
  570TMC3    H2 8460   2.852   0.242  16.410 -2.2142  0.1050  0.0861
  570TMC3    C7 8461   2.692   0.261  16.612  0.2853 -0.2785 -0.1519
  570TMC3    C8 8462   3.021   0.052  16.344 -0.1083  0.2474  0.0102
  570TMC3    O1 8463   2.774   0.352  16.596  0.1790  0.0347  0.8424
  570TMC3    O2 8464   3.046   0.168  16.308 -0.3678  0.2000 -0.3126
  571MPD2     C 8465   1.418   1.784  17.252  0.4512 -0.3499 -0.1723
  571MPD2    C1 8466   1.313   1.699  17.260 -0.4481  0.8242  0.4169
  571MPD2    C2 8467   1.206   1.735  17.340  0.0810  0.1690 -1.1279
  571MPD2    C3 8468   1.203   1.854  17.409  0.0871 -0.0068  0.2172
  571MPD2    C4 8469   1.310   1.936  17.395  0.3243  0.1111 -0.0536
  571MPD2    C5 8470   1.418   1.902  17.321 -0.1071 -0.0945  0.2349
  571MPD2     H 8471   1.123   1.664  17.346 -1.3122  1.9289  0.5483
  571MPD2    H1 8472   1.316   2.028  17.453 -1.4201  0.0060  0.3077
  571MPD2    H2 8473   1.513   1.753  17.208  0.4452  0.5563 -0.8203
  571MPD2    H3 8474   1.508   1.962  17.333 -1.2480  1.7102 -0.1317
  571MPD2     N 8475   1.086   1.895  17.475  0.2447  0.7119  0.0746
  571MPD2    H5 8476   1.095   1.983  17.525 -1.9648  1.2573 -0.5122
  571MPD2    N1 8477   1.322   1.577  17.192 -0.4219 -0.0710  0.0475
  571MPD2    H7 8478   1.413   1.569  17.146 -0.8994 -0.8563 -0.7584
  572TMC3    C1 8479   0.873   1.902  17.584 -0.8192 -0.2146  0.6941
  572TMC3    C2 8480   0.746   1.855  17.582 -0.0630  0.0321 -0.0631
  572TMC3    C3 8481   0.652   1.917  17.653 -0.1006 -0.8050 -0.7773
  572TMC3    C4 8482   0.907   2.003  17.668 -0.1115 -0.1980  0.6706
  572TMC3    C5 8483   0.811   2.052   0.031 -0.3787  0.3144  0.6525
  572TMC3    C6 8484   0.680   2.013   0.029 -0.8330 -0.0260  0.3910
  572TMC3     C 8485   0.970   1.828  17.498 -0.3652  0.7244  0.0958
  572TMC3     O 8486   0.933   1.726  17.440  0.4459 -0.3479 -0.4018
  572TMC3     H 8487   0.725   1.768  17.521  1.9071 -1.2784  1.1093
  572TMC3    H1 8488   1.004   2.050  17.656 -0.1802 -0.0490  0.7002
  572TMC3    H2 8489   0.608   2.066   0.089 -0.0635  1.3244  0.1267
  572TMC3    C7 8490   0.833   2.192   0.059  0.0270  0.1534  0.5302
  572TMC3    C8 8491   0.516   1.896  17.614  0.6764 -0.4861  0.1412
  572TMC3    O1 8492   0.734   2.264   0.042  0.7467  0.6199  0.6449
  572TMC3    O2 8493   0.494   1.815  17.527  0.3654 -0.1050 -0.0195
  573MPD2     C 8494   2.343   3.369   1.053 -0.0046  0.8186  0.2101
  573MPD2    C1 8495   2.245   3.281   1.072  0.6476 -0.2962 -0.8734
  573MPD2    C2 8496   2.198   3.202   0.965  0.0401  0.6163 -0.0729
  573MPD2    C3 8497   2.261   3.217   0.844  0.5478 -0.4196 -0.1732
  573MPD2    C4 8498   2.353   3.320   0.824  0.7466  0.3935 -0.4839
  573MPD2    C5 8499   2.391   3.396   0.926 -0.1926 -0.0117  1.1363
  573MPD2     H 8500   2.113   3.138   0.985  1.7861 -1.8060 -0.3398
  573MPD2    H1 8501   2.387   3.335   0.722  2.1649  0.8040  0.0493
  573MPD2    H2 8502   2.383   3.438   1.127  1.2869  1.4946 -1.1144
  573MPD2    H3 8503   2.465   3.474   0.911  0.5614 -0.8684  0.4066
  573MPD2     N 8504   2.233   3.146   0.728 -0.4859  0.1491 -0.5411
  573MPD2    H5 8505   2.263   3.186   0.639 -1.4952 -1.3543 -1.5604
  573MPD2    N1 8506   2.188   3.275   1.201  0.0289  0.2568  0.5589
  573MPD2    H7 8507   2.218   3.354   1.258 -0.7587  2.1109 -1.5823
  574TMC3    C1 8508   2.128   2.978   0.577 -0.4796 -0.0642  0.2539
  574TMC3    C2 8509   2.012   2.902   0.561  0.6382 -0.7279 -0.5836
  574TMC3    C3 8510   1.978   2.883   0.430  1.0656  0.3914 -0.0441
  574TMC3    C4 8511   2.209   3.020   0.475 -0.5106 -0.7158  0.7053
  574TMC3    C5 8512   2.169   2.999   0.346 -0.2022  1.0570  0.4327
  574TMC3    C6 8513   2.054   2.927   0.325  0.2127 -0.2134  0.3301
  574TMC3     C 8514   2.148   3.036   0.714  0.0391 -0.1602  0.2082
  574TMC3     O 8515   2.087   2.974   0.796  0.2193  0.1579 -0.2440
  574TMC3     H 8516   1.963   2.851   0.643  2.0339 -0.7090  0.2527
  574TMC3    H1 8517   2.303   3.070   0.497 -1.8471  1.6714  0.8819
  574TMC3    H2 8518   2.024   2.904   0.223  0.5961 -1.0232  0.4064
  574TMC3    C7 8519   2.263   3.011   0.237 -0.1225 -0.3020  0.3079
  574TMC3    C8 8520   1.881   2.775   0.402  0.3595 -0.5686 -0.2067
  574TMC3    O1 8521   2.379   3.002   0.268  0.4750  0.0242 -0.2339
  574TMC3    O2 8522   1.863   2.694   0.488 -0.4564 -0.1089  0.6264
  575TMC3    C1 8523   4.580   2.449  11.776  0.5110 -0.6641 -0.2096
  575TMC3    C2 8524   4.654   2.331  11.781 -0.1012  0.0085  0.4503
  575TMC3    C3 8525   4.665   2.261  11.666 -1.0430  0.0558  0.2396
  575TMC3    C4 8526   4.516   2.493  11.662 -0.2386 -0.3392  0.2471
  575TMC3    C5 8527   4.528   2.420  11.551 -0.3980  0.0061 -0.2416
  575TMC3    C6 8528   4.595   2.300  11.552 -0.0199  0.1081  0.2106
  575TMC3     C 8529   4.541   2.507  11.900  0.1195 -0.3342  0.0283
  575TMC3     O 8530   4.546   2.441  12.002  0.1688 -0.5263  0.1681
  575TMC3     H 8531   4.682   2.287  11.876  1.6993  2.5215  1.0686
  575TMC3    H1 8532   4.472   2.592  11.670 -1.6782 -1.2165  2.9672
  575TMC3    H2 8533   4.596   2.232  11.468 -2.5314 -0.3104  0.5119
  575TMC3    C7 8534   4.425   2.440  11.457  0.5923  0.7010  0.6299
  575TMC3    C8 8535   0.027   2.147  11.652 -0.0167  0.2214  0.2314
  575TMC3    O1 8536   4.411   2.557  11.421  0.4457  0.2897 -0.2345
  575TMC3    O2 8537   0.035   2.095  11.541 -0.2747  0.2755  0.3318
  576MPD2     C 8538   3.457   4.440  12.939  0.2564  0.7012 -0.1221
  576MPD2    C1 8539   3.484   4.536  12.848 -0.0064 -0.0104  0.5106
  576MPD2    C2 8540   3.479   4.675  12.883  0.2829 -0.0974 -0.4368
  576MPD2    C3 8541   3.433   4.723  13.002 -0.3943  0.0063  0.1007
  576MPD2    C4 8542   3.401   4.628  13.090 -0.6517 -0.4348 -1.2534
  576MPD2    C5 8543   3.422   4.492  13.067 -0.6913  0.0123  0.6585
  576MPD2     H 8544   3.514   0.021  12.812  1.7220  1.5304  1.9717
  576MPD2    H1 8545   3.363   4.648  13.189  0.8050  0.9701 -0.9668
  576MPD2    H2 8546   3.476   4.335  12.920  2.8610  1.3845 -1.2292
  576MPD2    H3 8547   3.401   4.421  13.146 -1.9772  0.1834  0.4663
  576MPD2     N 8548   3.422   0.134  13.025  0.0416  0.1539  0.5979
  576MPD2    H5 8549   3.443   0.191  12.944  0.0712 -0.7794 -0.0417
  576MPD2    N1 8550   3.534   4.506  12.725  0.0353 -0.1958  0.1641
  576MPD2    H7 8551   3.560   4.585  12.668 -0.8167  1.2168  1.7122
  577TMC3    C1 8552   3.615   4.389  12.540 -0.5256  0.4839  0.4595
  577TMC3    C2 8553   3.702   4.289  12.502 -0.1408 -0.5963 -0.2465
  577TMC3    C3 8554   3.797   4.312  12.403 -0.0980 -0.2445 -0.2348
  577TMC3    C4 8555   3.616   4.511  12.489 -0.0327  0.0902  0.1001
  577TMC3    C5 8556   3.716   4.534  12.397 -0.4768 -0.6821 -0.8191
  577TMC3    C6 8557   3.800   4.439  12.342 -0.2304  0.2575  0.9009
  577TMC3     C 8558   3.550   4.381  12.670  0.8797 -0.5522  0.1875
  577TMC3     O 8559   3.552   4.278  12.729 -0.3874 -0.4218  0.1999
  577TMC3     H 8560   3.707   4.186  12.534 -1.5863 -1.1836 -1.8975
  577TMC3    H1 8561   3.552   4.595  12.515  0.9480  1.1269 -0.8265
  577TMC3    H2 8562   3.889   4.465  12.286  1.0318 -0.8623  2.3691
  577TMC3    C7 8563   3.750   4.669  12.371 -0.2632 -0.1237 -0.1690
  577TMC3    C8 8564   3.923   4.243  12.418  0.3087  0.2169  0.3829
  577TMC3    O1 8565   3.720   0.016  12.461 -0.0610 -0.4008 -0.0465
  577TMC3    O2 8566   3.937   4.193  12.529 -0.3955  0.3263 -0.0918
  578MPD2     C 8567   1.777   0.252   1.566 -0.2537 -0.1492  0.6669
  578MPD2    C1 8568   1.863   0.255   1.451  0.7138  0.3758 -0.6511
  578MPD2    C2 8569   1.990   0.193   1.460 -0.0244 -0.1122 -0.2261
  578MPD2    C3 8570   2.022   0.134   1.583  0.3154 -0.6735 -0.3351
  578MPD2    C4 8571   1.931   0.133   1.687  0.2234  0.0343  0.7649
  578MPD2    C5 8572   1.807   0.183   1.683 -0.0975  0.0278 -0.5572
  578MPD2     H 8573   2.054   0.190   1.373 -1.1490  0.0602 -1.0684
  578MPD2    H1 8574   1.958   0.086   1.780 -0.6356 -0.7714  0.5998
  578MPD2    H2 8575   1.685   0.310   1.564 -0.4229 -0.3867  1.7792
  578MPD2    H3 8576   1.734   0.178   1.762 -1.3665  0.9996 -1.6703
  578MPD2     N 8577   2.154   0.085   1.588  0.0743  0.7750 -0.5890
  578MPD2    H5 8578   2.211   0.091   1.504  2.3278 -1.3005  0.7895
  578MPD2    N1 8579   1.812   0.330   1.344  0.5367 -0.2473 -0.5272
  578MPD2    H7 8580   1.714   0.356   1.352  0.6202  0.4904 -1.8679
  579TMC3    C1 8581   2.357   0.007   1.672  0.2488 -0.0293  0.6042
  579TMC3    C2 8582   2.461   0.051   1.752  0.0381  0.0748 -0.1511
  579TMC3    C3 8583   2.587   0.035   1.710 -0.2105 -0.0299  0.0466
  579TMC3    C4 8584   2.377   4.674   1.548  0.1487 -0.4564 -1.0314
  579TMC3    C5 8585   2.508   4.660   1.508  0.2619  0.1021 -0.1191
  579TMC3    C6 8586   2.611   4.702   1.590 -0.4974 -0.6042 -0.9867
  579TMC3     C 8587   2.222   0.049   1.699 -0.2881  0.0007  0.4420
  579TMC3     O 8588   2.194   0.088   1.812  0.1615  0.3770  0.2446
  579TMC3     H 8589   2.437   0.098   1.847 -3.1761 -1.1276 -0.3835
  579TMC3    H1 8590   2.294   4.633   1.491 -1.9769  1.7388  0.4956
  579TMC3    H2 8591   2.714   4.694   1.555  1.1956  1.2082  3.6667
  579TMC3    C7 8592   2.537   4.615   1.377  0.1339  0.7411 -0.1363
  579TMC3    C8 8593   2.697   0.101   1.788 -0.2274 -0.5120 -0.7914
  579TMC3    O1 8594   2.648   4.646   1.345 -0.2148  0.1404  0.1795
  579TMC3    O2 8595   2.658   0.148   1.893  0.6819 -0.4808  0.0607
  580TMC3    C1 8596   1.394   3.514  12.233  0.2155  0.2891  0.5455
  580TMC3    C2 8597   1.397   3.496  12.094  0.3081  0.2138  0.3647
  580TMC3    C3 8598   1.466   3.395  12.044 -0.5614 -0.0217  0.3666
  580TMC3    C4 8599   1.463   3.429  12.316  0.7239 -0.2659 -0.3765
  580TMC3    C5 8600   1.509   3.315  12.258  0.6503  0.1890 -0.6010
  580TMC3    C6 8601   1.517   3.304  12.125 -0.1876  0.5600  0.6319
  580TMC3     C 8602   1.393   3.656  12.263  0.3605  0.1215  1.4827
  580TMC3     O 8603   1.358   3.733  12.175 -0.8212 -0.7096 -0.0293
  580TMC3     H 8604   1.360   3.576  12.032 -2.2276 -1.9676 -0.9522
  580TMC3    H1 8605   1.456   3.431  12.425  1.1349  1.1464 -0.3773
  580TMC3    H2 8606   1.589   3.236  12.082 -0.2762  1.0674 -0.3173
  580TMC3    C7 8607   1.599   3.244  12.346  0.5501  0.4957 -0.3066
  580TMC3    C8 8608   1.553   3.451  11.948 -0.4505 -0.4235 -0.3318
  580TMC3    O1 8609   1.645   3.307  12.439 -0.2567 -0.4607  0.0833
  580TMC3    O2 8610   1.515   3.449  11.833 -0.0400 -0.1396  0.0848
  581MPD2     C 8611   4.550   3.506  14.913  0.5186  0.0504 -0.2919
  581MPD2    C1 8612   4.483   3.474  15.021  0.5493  0.1010 -0.2454
  581MPD2    C2 8613   4.352   3.505  15.040  0.1343  0.2908 -0.1822
  581MPD2    C3 8614   4.280   3.569  14.938 -0.2595  0.3253 -0.2234
  581MPD2    C4 8615   4.345   3.587  14.820  0.5757 -0.1774  0.2443
  581MPD2    C5 8616   4.475   3.563  14.809  0.5923  0.1184 -0.4581
  581MPD2     H 8617   4.305   3.486  15.137  1.5905 -4.2650 -0.3606
  581MPD2    H1 8618   4.302   3.634  14.732 -1.3897 -3.2631 -0.4136
  581MPD2    H2 8619   4.654   3.482  14.894  0.3628 -0.3332 -0.6707
  581MPD2    H3 8620   4.527   3.598  14.720 -1.8868  0.9986 -1.5661
  581MPD2     N 8621   4.143   3.599  14.957  0.2012 -0.0639 -0.4018
  581MPD2    H5 8622   4.110   3.583  15.052 -0.9493  3.0341 -0.2678
  581MPD2    N1 8623   4.564   3.419  15.123  0.0866 -0.2028 -0.4493
  581MPD2    H7 8624   4.664   3.437  15.122  0.2302 -1.0245 -1.0211
  582TMC3    C1 8625   4.618   3.242  15.268 -0.2789  0.0182 -0.4706
  582TMC3    C2 8626   4.688   3.298  15.377 -1.1140  0.3883  0.9203
  582TMC3    C3 8627   0.005   3.214  15.472 -0.0683 -0.1562 -0.2053
  582TMC3    C4 8628   4.592   3.109  15.263  0.8460  0.3112 -0.1417
  582TMC3    C5 8629   4.618   3.032  15.375 -0.1825 -0.3175  0.0516
  582TMC3    C6 8630   4.687   3.085  15.477  0.2272 -0.0639  0.3164
  582TMC3     C 8631   4.514   3.324  15.209  0.1659  0.3483 -0.0015
  582TMC3     O 8632   4.398   3.289  15.228  0.0046 -0.3852 -0.4414
  582TMC3     H 8633   4.695   3.406  15.384 -3.2830  0.7450 -2.2129
  582TMC3    H1 8634   4.534   3.063  15.183  1.3651 -1.9512  0.7650
  582TMC3    H2 8635   4.702   3.025  15.565  2.3929  0.1684  0.1075
  582TMC3    C7 8636   4.500   2.977  15.428  0.2840 -0.2743  0.7302
  582TMC3    C8 8637   0.061   3.276  15.593 -0.0294 -0.2514 -0.2306
  582TMC3    O1 8638   4.519   2.891  15.514 -0.7408  0.6166  0.8342
  582TMC3    O2 8639   0.041   3.393  15.602 -0.5875  0.4729 -0.4317
  583MPD2     C 8640   4.571   0.723  16.560  0.4198  0.3063 -0.4774
  583MPD2    C1 8641   4.677   0.817  16.551 -0.3161 -0.5037 -0.1428
  583MPD2    C2 8642   4.691   0.923  16.641 -0.0076  0.8609  0.5659
  583MPD2    C3 8643   4.609   0.928  16.752  0.1096  0.4701  0.0317
  583MPD2    C4 8644   4.513   0.822  16.771 -0.6427 -0.1018  0.0444
  583MPD2    C5 8645   4.496   0.726  16.675 -0.1072 -0.3566 -0.2100
  583MPD2     H 8646   0.037   1.002  16.631 -1.7466  2.4011 -0.1183
  583MPD2    H1 8647   4.451   0.808  16.859 -1.4438 -0.6087 -0.5979
  583MPD2    H2 8648   4.558   0.646  16.485 -0.3402  1.1890 -1.2583
  583MPD2    H3 8649   4.414   0.659  16.694  0.5210 -0.7346  1.2135
  583MPD2     N 8650   4.627   1.039  16.843 -0.0314  0.8879  0.0297
  583MPD2    H5 8651   4.681   1.114  16.802  1.1517 -0.7863 -1.4374
  583MPD2    N1 8652   0.040   0.812  16.447  0.6479 -0.3272 -0.8781
  583MPD2    H7 8653   0.106   0.888  16.435 -0.4747  0.6257 -1.0256
  584TMC3    C1 8654   4.628   1.151  17.050  0.3435 -0.8070  1.1431
  584TMC3    C2 8655   4.638   1.272  16.982  0.1702  0.0564 -0.6679
  584TMC3    C3 8656   4.667   1.383  17.063 -0.4223 -0.3509 -0.4322
  584TMC3    C4 8657   4.655   1.139  17.186 -0.3476  0.2405  0.0791
  584TMC3    C5 8658   4.694   1.249  17.257  0.7082  0.4213 -0.6368
  584TMC3    C6 8659   4.703   1.373  17.193  0.1135  0.3912  0.4922
  584TMC3     C 8660   4.591   1.031  16.974  0.1370 -0.6102 -0.4594
  584TMC3     O 8661   4.537   0.946  17.037  0.2915  0.1332 -0.3669
  584TMC3     H 8662   4.592   1.281  16.884 -2.8674 -1.0251  0.6456
  584TMC3    H1 8663   4.666   1.042  17.233 -2.2393 -0.5632 -1.1446
  584TMC3    H2 8664   4.717   1.459  17.257 -3.7341  2.1381 -1.0166
  584TMC3    C7 8665   4.675   1.238  17.399 -0.0445 -0.2327  0.2531
  584TMC3    C8 8666   4.669   1.509  16.995  0.5451  0.4550  0.4957
  584TMC3    O1 8667   4.605   1.144  17.437 -0.0537  0.2303 -0.4990
  584TMC3    O2 8668   4.625   1.517  16.882 -0.1646 -0.0584 -0.0038
  585MPD2     C 8669   3.537   4.585   0.460  0.1812 -0.8864  0.5011
  585MPD2    C1 8670   3.629   4.659   0.377  0.3555 -0.3638  0.0418
  585MPD2    C2 8671   3.690   4.598   0.270  0.5072 -0.2552  0.2504
  585MPD2    C3 8672   3.673   4.458   0.248 -0.3760  0.7155 -0.0773
  585MPD2    C4 8673   3.589   4.387   0.335  0.3985  0.4772  0.0751
  585MPD2    C5 8674   3.521   4.451   0.437 -0.7012 -0.0161  0.1104
  585MPD2     H 8675   3.757   4.655   0.207  0.9438 -0.0987  0.8585
  585MPD2    H1 8676   3.588   4.280   0.318  3.1918  0.4875 -0.0970
  585MPD2    H2 8677   3.483   4.632   0.542  0.4083 -0.3546  0.3471
  585MPD2    H3 8678   3.446   4.400   0.497 -1.0456 -0.6258 -0.8346
  585MPD2     N 8679   3.743   4.375   0.150 -0.3069  0.6038  0.1184
  585MPD2    H5 8680   3.723   4.278   0.130 -1.5721  0.7240  0.8022
  585MPD2    N1 8681   3.651   0.069   0.402  0.3478  0.3943  0.0534
  585MPD2    H7 8682   3.599   0.121   0.472  3.0782  4.5087 -1.0077
  586TMC3    C1 8683   3.886   4.350  17.672  0.7256 -0.1539  0.0392
  586TMC3    C2 8684   3.979   4.400  17.587  0.7967  0.9815 -0.5809
  586TMC3    C3 8685   3.974   4.357  17.457  0.6897 -0.1441  0.2867
  586TMC3    C4 8686   3.807   4.244  17.644  0.0260  0.1240 -0.5484
  586TMC3    C5 8687   3.805   4.198  17.516 -0.9579  0.8468 -0.0599
  586TMC3    C6 8688   3.884   4.259  17.421 -0.7219 -0.1070 -1.1483
  586TMC3     C 8689   3.848   4.430   0.078  0.8050 -0.7537 -0.3303
  586TMC3     O 8690   3.908   4.535   0.098  0.5293  0.2361  1.3003
  586TMC3     H 8691   4.058   4.461  17.630  1.3840  0.4411 -0.8974
  586TMC3    H1 8692   3.742   4.186  17.708  0.8209 -1.1599 -0.9130
  586TMC3    H2 8693   3.880   4.236  17.315  2.5515 -0.3371 -1.2291
  586TMC3    C7 8694   3.791   4.053  17.498  0.2112 -0.1957 -0.3129
  586TMC3    C8 8695   4.099   4.291  17.432 -0.4412  0.2153  0.9096
  586TMC3    O1 8696   3.704   3.987  17.557 -0.7429 -0.1022 -0.0395
  586TMC3    O2 8697   4.166   4.260  17.526  0.0935 -0.0560 -0.3150
  587TMC3    C1 8698   1.863   2.861  16.719  0.2158  0.1328 -0.2280
  587TMC3    C2 8699   1.810   2.978  16.675 -0.7882  0.4911 -0.2467
  587TMC3    C3 8700   1.896   3.085  16.666 -0.4485  0.2740 -0.0908
  587TMC3    C4 8701   2.001   2.843  16.729 -0.0455 -0.4744  0.5761
  587TMC3    C5 8702   2.083   2.947  16.702 -0.2226  0.2553 -0.2568
  587TMC3    C6 8703   2.032   3.067  16.665 -0.5914 -0.2539  0.5034
  587TMC3     C 8704   1.776   2.754  16.768  0.0329 -0.3584  0.2343
  587TMC3     O 8705   1.831   2.661  16.821 -0.5461 -0.1021  0.2898
  587TMC3     H 8706   1.704   2.998  16.686 -0.5603  2.4242 -1.4998
  587TMC3    H1 8707   2.039   2.744  16.750 -2.2852 -1.1698  1.3478
  587TMC3    H2 8708   2.089   3.160  16.657 -0.7161 -0.2658 -0.4911
  587TMC3    C7 8709   2.222   2.928  16.720  0.8457 -0.0764  0.6785
  587TMC3    C8 8710   1.848   3.209  16.607 -0.4096  0.2388  0.0461
  587TMC3    O1 8711   2.260   2.824  16.772 -0.2847 -0.2168 -0.5368
  587TMC3    O2 8712   1.907   3.261  16.511 -0.1403 -0.6322 -0.2433
  588TMC3    C1 8713   3.577   0.620   9.376 -0.6006 -0.5407 -0.0296
  588TMC3    C2 8714   3.556   0.485   9.361  0.6047  0.0826 -0.3336
  588TMC3    C3 8715   3.594   0.388   9.453  0.6102  0.6009  0.3736
  588TMC3    C4 8716   3.644   0.659   9.489  0.7824 -0.4349  0.6317
  588TMC3    C5 8717   3.678   0.563   9.583  0.4618  0.2004 -0.6659
  588TMC3    C6 8718   3.656   0.429   9.566  0.3804 -0.5787  0.6307
  588TMC3     C 8719   3.481   0.716   9.316  0.7853 -0.0753  0.3102
  588TMC3     O 8720   3.415   0.669   9.226 -0.3877  0.7551  0.0931
  588TMC3     H 8721   3.489   0.447   9.284  0.5187  0.1102 -0.2724
  588TMC3    H1 8722   3.675   0.763   9.491 -0.4365 -0.1144  2.5434
  588TMC3    H2 8723   3.670   0.369   9.656 -1.4936  0.2265  1.4567
  588TMC3    C7 8724   3.711   0.614   9.715  0.4107 -0.4547 -0.8330
  588TMC3    C8 8725   3.536   0.258   9.445 -0.4588  0.2266 -0.0733
  588TMC3    O1 8726   3.757   0.536   9.799  0.3192 -0.0972  0.1057
  588TMC3    O2 8727   3.443   0.233   9.368 -0.1043 -0.0928 -0.2650
  589TMC3    C1 8728   2.974   3.419   1.071 -0.5178  0.2524 -0.6838
  589TMC3    C2 8729   3.070   3.451   1.161  0.8792 -0.3685  0.1771
  589TMC3    C3 8730   3.156   3.353   1.205 -0.1184 -1.1290 -0.5285
  589TMC3    C4 8731   2.976   3.300   1.011 -0.1424 -0.4880 -0.1285
  589TMC3    C5 8732   3.065   3.206   1.051  0.4539 -0.0965  0.0051
  589TMC3    C6 8733   3.157   3.226   1.154 -0.3288 -0.1047 -0.2779
  589TMC3     C 8734   2.843   3.486   1.086  0.2932 -0.2893  0.9499
  589TMC3     O 8735   2.748   3.433   1.030  0.2900  0.1141  0.0617
  589TMC3     H 8736   3.080   3.548   1.208 -0.2693 -1.5315  2.8380
  589TMC3    H1 8737   2.896   3.279   0.941 -1.2958 -1.5730  1.5190
  589TMC3    H2 8738   3.229   3.157   1.197 -1.4549 -1.2369 -0.2052
  589TMC3    C7 8739   3.020   3.067   1.030 -0.6614 -0.9736 -0.2359
  589TMC3    C8 8740   3.205   3.360   1.340  0.0530 -0.3515 -0.4584
  589TMC3    O1 8741   3.025   2.998   1.129  0.6406  0.0789  0.3578
  589TMC3    O2 8742   3.129   3.423   1.415 -0.1884 -0.5140 -0.6839
  590MPD2     C 8743   2.299   1.164  16.326 -0.1346 -0.2686 -0.3870
  590MPD2    C1 8744   2.263   1.300  16.323  0.0211  0.4385  0.3505
  590MPD2    C2 8745   2.348   1.405  16.357 -0.6904 -0.2505  0.2210
  590MPD2    C3 8746   2.469   1.375  16.409  0.4505  0.0667  1.1159
  590MPD2    C4 8747   2.505   1.246  16.438  1.0415 -0.0634  0.6268
  590MPD2    C5 8748   2.418   1.144  16.392  0.6395  0.6474  0.3958
  590MPD2     H 8749   2.310   1.505  16.345  0.0132 -0.0761 -0.5069
  590MPD2    H1 8750   2.607   1.229  16.471  1.5963 -0.5396 -1.3303
  590MPD2    H2 8751   2.242   1.078  16.294 -0.1082 -1.0797  1.7738
  590MPD2    H3 8752   2.453   1.043  16.408 -2.5890 -0.9451 -2.8521
  590MPD2     N 8753   2.565   1.479  16.403 -0.5209 -0.2896  0.3674
  590MPD2    H5 8754   2.523   1.569  16.382 -0.4190 -0.2603  0.2868
  590MPD2    N1 8755   2.135   1.331  16.273  0.0752  0.6934  0.1316
  590MPD2    H7 8756   2.120   1.430  16.261 -2.0183  0.5932  2.0068
  591TMC3    C1 8757   2.757   1.599  16.376  0.0942 -0.1942 -0.0703
  591TMC3    C2 8758   2.869   1.588  16.310 -0.9018  0.0005 -0.0022
  591TMC3    C3 8759   2.906   1.680  16.209 -0.3977  0.9531 -0.3102
  591TMC3    C4 8760   2.683   1.711  16.365  0.1015  0.7426 -0.3140
  591TMC3    C5 8761   2.718   1.800  16.272  0.0489 -0.6692 -0.5581
  591TMC3    C6 8762   2.825   1.787  16.185 -1.1173  0.1448 -0.4054
  591TMC3     C 8763   2.700   1.478  16.438  0.0798  0.4187 -0.4255
  591TMC3     O 8764   2.776   1.386  16.470 -0.0721 -0.1550  0.2739
  591TMC3     H 8765   2.914   1.490  16.317 -0.3154  0.1500 -1.7014
  591TMC3    H1 8766   2.606   1.735  16.437  2.4046  0.1437  2.3320
  591TMC3    H2 8767   2.847   1.854  16.103  0.3611  1.0358  0.7081
  591TMC3    C7 8768   2.628   1.913  16.258 -0.6589 -0.3646 -0.4222
  591TMC3    C8 8769   2.987   1.629  16.100 -0.1683 -0.4135 -0.6698
  591TMC3    O1 8770   2.512   1.890  16.287 -0.1585 -0.0877 -0.2362
  591TMC3    O2 8771   3.006   1.508  16.099  0.0270  0.6457  0.3078
  592MPD2     C 8772   2.510   3.486  11.263  1.1647  0.0519  0.3157
  592MPD2    C1 8773   2.512   3.511  11.399 -0.3664 -0.1393  0.2911
  592MPD2    C2 8774   2.435   3.438  11.489  0.1303  0.3024 -0.1488
  592MPD2    C3 8775   2.368   3.325  11.443 -0.3232  0.8247  0.1907
  592MPD2    C4 8776   2.359   3.297  11.307 -1.0924 -0.0508 -0.8250
  592MPD2    C5 8777   2.432   3.376  11.218  0.1550 -0.0065 -0.3408
  592MPD2     H 8778   2.436   3.453  11.596 -1.2874  0.6859 -0.1979
  592MPD2    H1 8779   2.321   3.205  11.264 -0.2577 -0.3269 -0.9889
  592MPD2    H2 8780   2.555   3.542  11.181  0.6812 -0.7643 -0.5006
  592MPD2    H3 8781   2.445   3.361  11.112  0.1930 -0.0247 -0.3337
  592MPD2     N 8782   2.316   3.238  11.541  0.4587 -0.5490 -0.2422
  592MPD2    H5 8783   2.312   3.271  11.636 -0.1722 -0.7629 -0.1923
  592MPD2    N1 8784   2.602   3.610  11.445  0.0031 -0.2533  0.1100
  592MPD2    H7 8785   2.649   3.673  11.380 -0.2745 -2.6285 -2.4209
  593TMC3    C1 8786   2.763   3.703  11.616 -0.0935 -0.5720  0.0792
  593TMC3    C2 8787   2.796   3.687  11.747  0.5440  0.0980 -0.9217
  593TMC3    C3 8788   2.933   3.684  11.785 -0.3243 -0.2846  0.4621
  593TMC3    C4 8789   2.856   3.718  11.514  0.5068  0.8203  0.6798
  593TMC3    C5 8790   2.982   3.741  11.557  0.1527  0.0358 -0.3793
  593TMC3    C6 8791   3.023   3.721  11.682 -0.2913 -0.6435  0.1929
  593TMC3     C 8792   2.632   3.640  11.581 -0.4122  0.0197  0.5851
  593TMC3     O 8793   2.574   3.593  11.676 -0.2906  0.6576  0.0588
  593TMC3     H 8794   2.722   3.651  11.818 -0.4054  2.3669 -0.7681
  593TMC3    H1 8795   2.822   3.738  11.413 -0.1805 -0.5829  0.6377
  593TMC3    H2 8796   3.126   3.742  11.708 -0.3702  0.8164 -0.6449
  593TMC3    C7 8797   3.081   3.747  11.449  0.4926  0.1001  0.1320
  593TMC3    C8 8798   2.973   3.638  11.920 -0.9638 -0.6962  0.1848
  593TMC3    O1 8799   3.046   3.804  11.346 -0.6568  0.0528 -0.5407
  593TMC3    O2 8800   2.905   3.568  11.989 -0.3225 -0.3622  0.1800
  594MPD2     C 8801   2.299   1.978  14.566  0.6968  0.3414  0.0944
  594MPD2    C1 8802   2.187   2.033  14.507 -0.5008 -0.0821  0.2963
  594MPD2    C2 8803   2.185   2.163  14.472 -0.6768 -0.3034 -0.4372
  594MPD2    C3 8804   2.301   2.239  14.480  0.3233  0.7934  0.2946
  594MPD2    C4 8805   2.415   2.180  14.520  0.0916  0.1789  0.2190
  594MPD2    C5 8806   2.414   2.056  14.565 -0.7319 -0.7768 -0.2609
  594MPD2     H 8807   2.089   2.211  14.460 -0.4891  0.4290  0.9841
  594MPD2    H1 8808   2.513   2.226  14.527  1.1535 -1.8161 -1.4106
  594MPD2    H2 8809   2.306   1.888  14.625  2.0828 -1.1454 -2.3734
  594MPD2    H3 8810   2.510   2.012  14.590 -1.3183 -1.8047  0.2049
  594MPD2     N 8811   2.306   2.378  14.435 -0.4015 -0.1411 -0.2410
  594MPD2    H5 8812   2.220   2.412  14.394 -0.0485  1.3728  0.3016
  594MPD2    N1 8813   2.076   1.954  14.516  0.0283  0.2763 -0.0456
  594MPD2    H7 8814   2.082   1.871  14.574  2.0736  0.4546 -0.0233
  595TMC3    C1 8815   2.508   2.788  14.344 -0.0731 -0.3527 -0.1939
  595TMC3    C2 8816   2.519   2.660  14.384 -0.1264 -0.4931  0.0574
  595TMC3    C3 8817   2.404   2.589  14.397  0.2190 -0.0684 -1.0260
  595TMC3    C4 8818   2.391   2.847  14.309  0.0863  0.3045 -0.2040
  595TMC3    C5 8819   2.277   2.770  14.330  0.4319  0.3483  0.3894
  595TMC3    C6 8820   2.281   2.632  14.349 -0.0821 -0.1786 -0.1862
  595TMC3     C 8821   2.622   2.875  14.359  0.3189  0.2977 -0.7241
  595TMC3     O 8822   2.609   2.990  14.399  0.0752 -0.0946 -0.1746
  595TMC3     H 8823   2.616   2.618  14.406  0.6215 -0.8792 -3.8906
  595TMC3    H1 8824   2.401   2.951  14.281  1.8673  0.2176  0.1088
  595TMC3    H2 8825   2.187   2.582  14.369  0.1582 -0.7108 -0.3786
  595TMC3    C7 8826   2.148   2.828  14.368  0.1512  0.5254  0.4517
  595TMC3    C8 8827   2.419   2.455  14.445 -0.0501 -0.5204 -0.1185
  595TMC3    O1 8828   2.058   2.758  14.411 -0.4874 -0.5245 -0.3031
  595TMC3    O2 8829   2.528   2.427  14.500  0.0621  0.3957  0.6602
  596MPD2     C 8830   0.811   0.307  16.584 -0.1567  0.3033 -0.3893
  596MPD2    C1 8831   0.781   0.427  16.521  0.2602  0.0966  0.1938
  596MPD2    C2 8832   0.771   0.430  16.387 -0.0018  0.1777  0.0296
  596MPD2    C3 8833   0.761   0.312  16.316 -0.7445 -0.0523  0.0316
  596MPD2    C4 8834   0.786   0.191  16.374 -0.5738  0.1366  0.2753
  596MPD2    C5 8835   0.806   0.189  16.515  0.5686 -0.8498 -0.1766
  596MPD2     H 8836   0.745   0.524  16.338 -2.1487 -0.0967  0.6378
  596MPD2    H1 8837   0.770   0.100  16.317  1.3066  1.0115 -1.6615
  596MPD2    H2 8838   0.826   0.294  16.691 -0.0211 -1.7815 -0.6615
  596MPD2    H3 8839   0.837   0.106  16.577 -0.7661 -2.2117 -1.3295
  596MPD2     N 8840   0.734   0.312  16.176  0.6025  0.2351  0.3306
  596MPD2    H5 8841   0.721   0.222  16.131 -0.4360  1.5284 -1.9526
  596MPD2    N1 8842   0.786   0.548  16.600 -0.3667 -0.5298 -0.4230
  596MPD2    H7 8843   0.782   0.636  16.549  1.5453 -1.1621 -1.6193
  597TMC3    C1 8844   0.770   0.686  16.792  0.4275  0.2213 -0.3144
  597TMC3    C2 8845   0.858   0.770  16.728 -0.2884 -0.2985 -0.6143
  597TMC3    C3 8846   0.865   0.892  16.780 -0.7210 -0.0379  0.5731
  597TMC3    C4 8847   0.677   0.727  16.887 -0.3197  0.0084  1.1041
  597TMC3    C5 8848   0.682   0.856  16.923  0.2901  0.4790 -0.1724
  597TMC3    C6 8849   0.768   0.942  16.861 -0.5195 -0.1755  0.0357
  597TMC3     C 8850   0.760   0.555  16.738 -0.8276 -0.3555 -0.3166
  597TMC3     O 8851   0.739   0.465  16.820 -0.0661  0.3129  0.3198
  597TMC3     H 8852   0.927   0.735  16.651  0.1574  0.0621 -0.3765
  597TMC3    H1 8853   0.629   0.655  16.952 -2.4823 -0.6226 -1.1908
  597TMC3    H2 8854   0.800   1.032  16.913 -0.2149 -0.0114 -0.4331
  597TMC3    C7 8855   0.603   0.897  17.033 -0.0559  0.0149  0.1248
  597TMC3    C8 8856   0.960   0.989  16.728 -0.1927  0.0228  0.2682
  597TMC3    O1 8857   0.532   0.815  17.085 -0.0802 -0.4137 -0.4326
  597TMC3    O2 8858   0.993   1.079  16.800 -0.6853  0.4443 -0.6420
  598TMC3    C1 8859   3.852   1.828  15.414  0.2179  0.0759  0.8804
  598TMC3    C2 8860   3.762   1.879  15.327  0.1672  0.0295 -0.5683
  598TMC3    C3 8861   3.798   1.968  15.234  0.2405  0.2551 -0.4989
  598TMC3    C4 8862   3.982   1.866  15.404 -0.8157  0.2602 -0.4575
  598TMC3    C5 8863   4.008   1.977  15.325 -0.0638 -0.5835  0.4497
  598TMC3    C6 8864   3.917   2.031  15.242  0.0772  0.4759 -0.2047
  598TMC3     C 8865   3.813   1.731  15.508  0.0916 -0.8744 -0.4716
  598TMC3     O 8866   3.705   1.675  15.494 -0.1872  0.6601 -0.0068
  598TMC3     H 8867   3.663   1.838  15.343 -0.1284  1.0285  0.1736
  598TMC3    H1 8868   4.062   1.811  15.452 -1.6286 -0.7202 -0.2358
  598TMC3    H2 8869   3.946   2.100  15.164  0.4375 -0.4749 -0.9144
  598TMC3    C7 8870   4.133   2.047  15.344  0.0100 -0.4859  0.3582
  598TMC3    C8 8871   3.713   1.996  15.119  0.4648 -0.6904  0.0801
  598TMC3    O1 8872   4.233   1.987  15.370  0.4791 -0.0640  0.1367
  598TMC3    O2 8873   3.753   2.078  15.036  0.3784 -0.3428 -0.0111
  599MPD2     C 8874   3.880   4.504  16.181  0.1064  0.4196 -0.2224
  599MPD2    C1 8875   3.826   4.384  16.214  0.0036 -0.2832 -0.4637
  599MPD2    C2 8876   3.715   4.376  16.295 -0.1551  0.1638 -0.8338
  599MPD2    C3 8877   3.644   4.492  16.313 -0.3629 -0.4140 -0.6020
  599MPD2    C4 8878   3.699   4.609  16.271 -0.0740  0.2410 -0.1990
  599MPD2    C5 8879   3.815   4.618  16.210 -0.2415 -0.1174 -0.1906
  599MPD2     H 8880   3.682   4.281  16.336 -1.6977  1.4192  0.8622
  599MPD2    H1 8881   3.644   4.702  16.281  2.6127  1.9802 -1.6050
  599MPD2    H2 8882   3.973   4.510  16.124  0.5141  1.9367  0.5981
  599MPD2    H3 8883   3.849   4.716  16.178  0.9214 -0.2094  0.7734
  599MPD2     N 8884   3.518   4.497  16.375  0.1153 -0.8228  0.1673
  599MPD2    H5 8885   3.480   4.591  16.383  0.3675 -0.6575 -0.6145
  599MPD2    N1 8886   3.907   4.269  16.181 -0.2462 -0.2453 -0.0318
  599MPD2    H7 8887   4.001   4.288  16.148 -0.2569 -2.3950 -1.3170
  600TMC3    C1 8888   3.338   4.438  16.526  0.4787 -0.2511 -0.5175
  600TMC3    C2 8889   3.253   4.342  16.570  0.3381 -0.7958  0.3153
  600TMC3    C3 8890   3.166   4.385  16.659  0.3467 -0.0517  0.2324
  600TMC3    C4 8891   3.329   4.570  16.562 -0.7561 -0.1138  0.3819
  600TMC3    C5 8892   3.239   4.598  16.664  0.4871 -0.5880 -0.1322
  600TMC3    C6 8893   3.152   4.508  16.708  0.1950 -0.1831 -0.1308
  600TMC3     C 8894   3.443   4.393  16.429  0.3032  0.0200  0.2148
  600TMC3     O 8895   3.463   4.274  16.412 -0.0529 -0.4802 -0.2212
  600TMC3     H 8896   3.278   4.239  16.551  1.2470 -0.4363 -0.4413
  600TMC3    H1 8897   3.399   4.642  16.524  0.1706 -1.0719  0.2767
  600TMC3    H2 8898   3.084   4.524  16.791  0.2375 -1.8194  0.2234
  600TMC3    C7 8899   3.237   4.723  16.740 -0.1548 -0.7406  1.0197
  600TMC3    C8 8900   3.121   4.286  16.756  0.1290 -0.3193 -0.4247
  600TMC3    O1 8901   3.133   0.021  16.808 -0.1960 -0.0367 -0.5993
  600TMC3    O2 8902   3.126   4.303  16.873  0.0437  0.2848  0.3023
  601MPD2     C 8903   1.137   2.593   0.114 -0.4699  0.4392 -0.5033
  601MPD2    C1 8904   1.012   2.586   0.062 -0.2135  0.0758 -0.2750
  601MPD2    C2 8905   0.951   2.464   0.067 -0.0040 -0.3072  0.5721
  601MPD2    C3 8906   1.020   2.347   0.101  0.7427  0.1631 -0.1956
  601MPD2    C4 8907   1.152   2.359   0.139 -0.2859  0.4346 -0.2316
  601MPD2    C5 8908   1.213   2.485   0.152 -0.0225  0.1545  0.2775
  601MPD2     H 8909   0.853   2.448   0.024  0.0359  1.5711 -0.2090
  601MPD2    H1 8910   1.208   2.272   0.173 -0.4762  0.8232  1.0654
  601MPD2    H2 8911   1.193   2.686   0.111 -0.7072  0.5829 -0.4706
  601MPD2    H3 8912   1.316   2.490   0.184 -0.4904  2.0367  1.5386
  601MPD2     N 8913   0.957   2.218   0.101  0.1196  0.4198  0.7884
  601MPD2    H5 8914   1.012   2.142   0.139 -1.2935 -1.3746 -0.7470
  601MPD2    N1 8915   0.937   2.692   0.009 -0.4399  0.8894  0.0535
  601MPD2    H7 8916   0.843   2.682  17.683 -0.3755  1.5114 -0.2709
  602TMC3    C1 8917   0.880   2.906  17.663  0.4401 -0.3131  0.1417
  602TMC3    C2 8918   0.834   3.021   0.008  0.2329 -0.0812  0.3343
  602TMC3    C3 8919   0.734   3.085  17.644 -0.6885  0.1763  1.0801
  602TMC3    C4 8920   0.829   2.855  17.540  0.1164  0.4393  0.3867
  602TMC3    C5 8921   0.725   2.919  17.479 -0.7535 -0.1224 -0.1880
  602TMC3    C6 8922   0.674   3.038  17.532 -0.2056 -0.1864 -0.1055
  602TMC3     C 8923   0.968   2.824   0.020  0.2649  0.7335 -0.0303
  602TMC3     O 8924   1.056   2.878   0.080 -0.0773 -0.1556  0.6019
  602TMC3     H 8925   0.862   3.054   0.107  1.4427  0.8679 -0.3445
  602TMC3    H1 8926   0.860   2.763  17.492  1.7118  1.8843 -1.3512
  602TMC3    H2 8927   0.620   3.102  17.463 -0.1578 -1.5978 -1.4563
  602TMC3    C7 8928   0.633   2.835  17.403  0.7433  0.3014 -0.0213
  602TMC3    C8 8929   0.668   3.201  17.702  0.4816 -0.7733 -0.0514
  602TMC3    O1 8930   0.672   2.733  17.344  0.2634 -0.0622  0.5156
  602TMC3    O2 8931   0.743   3.289   0.032 -0.1468 -0.2278  0.4677
  603TMC3    C1 8932   3.667   2.427  11.212  0.4347 -0.8412  0.4642
  603TMC3    C2 8933   3.726   2.412  11.339  0.4003 -0.2008 -0.1838
  603TMC3    C3 8934   3.809   2.511  11.387 -0.1546  0.5366 -0.0440
  603TMC3    C4 8935   3.666   2.555  11.151  0.2513 -0.3005  0.1010
  603TMC3    C5 8936   3.750   2.647  11.209 -0.0236 -0.0212 -0.2392
  603TMC3    C6 8937   3.831   2.630  11.322 -0.3570 -0.1829 -0.3468
  603TMC3     C 8938   3.591   2.312  11.156  0.3196 -0.1448 -0.3492
  603TMC3     O 8939   3.596   2.212  11.225 -0.4740  0.1472 -0.6158
  603TMC3     H 8940   3.713   2.316  11.388  1.2987  0.6624  1.7422
  603TMC3    H1 8941   3.626   2.568  11.051  1.4623  0.0581 -0.3382
  603TMC3    H2 8942   3.883   2.718  11.360 -0.1503 -0.4782  0.0472
  603TMC3    C7 8943   3.778   2.774  11.136  0.7614  0.0022  0.7027
  603TMC3    C8 8944   3.845   2.489  11.527  0.0440  0.0716  0.5492
  603TMC3    O1 8945   3.872   2.839  11.178  0.4999 -0.0436  0.1067
  603TMC3    O2 8946   3.807   2.386  11.576 -0.0928  0.1531 -0.0435
  604MPD2     C 8947   4.528   1.251  16.401  0.4630  0.6559 -0.1256
  604MPD2    C1 8948   4.450   1.326  16.321 -0.6465  0.5031  0.2744
  604MPD2    C2 8949   4.454   1.311  16.193 -0.3022  0.4091 -0.4029
  604MPD2    C3 8950   4.535   1.224  16.132 -0.9118  0.2189  0.5274
  604MPD2    C4 8951   4.610   1.134  16.213 -0.1712  0.3309 -0.0683
  604MPD2    C5 8952   4.613   1.154  16.350 -0.5397 -0.3231  0.1408
  604MPD2     H 8953   4.390   1.365  16.124 -1.8582 -0.3037  0.4748
  604MPD2    H1 8954   4.677   1.058  16.175 -1.4839  0.4281 -2.5667
  604MPD2    H2 8955   4.506   1.252  16.507  0.7990 -1.0468 -0.0497
  604MPD2    H3 8956   4.664   1.078  16.409 -1.2069 -1.8745 -1.2801
  604MPD2     N 8957   4.537   1.227  15.993  0.0170 -0.2913 -0.2831
  604MPD2    H5 8958   4.477   1.298  15.952 -0.2527 -0.5782 -0.3794
  604MPD2    N1 8959   4.365   1.421  16.381 -0.2838  0.1627  0.3270
  604MPD2    H7 8960   4.396   1.450  16.473  0.1635 -0.5446  0.4039
  605TMC3    C1 8961   4.242   1.616  16.386 -0.0965  0.3778 -0.1791
  605TMC3    C2 8962   4.347   1.677  16.456 -0.0443  0.1293 -0.4641
  605TMC3    C3 8963   4.320   1.801  16.496  0.4771 -0.2764 -0.8708
  605TMC3    C4 8964   4.126   1.683  16.369 -0.3250 -0.6063 -0.2914
  605TMC3    C5 8965   4.113   1.802  16.431 -0.3445  0.1405 -0.4610
  605TMC3    C6 8966   4.203   1.867  16.487 -0.0039 -0.1796 -0.3658
  605TMC3     C 8967   4.254   1.486  16.323 -0.8925  0.6344 -0.8301
  605TMC3     O 8968   4.193   1.459  16.217  0.1126 -0.2453  0.1463
  605TMC3     H 8969   4.446   1.645  16.427  0.5658  0.1929  1.5409
  605TMC3    H1 8970   4.040   1.634  16.326  0.8201  0.0098 -3.2550
  605TMC3    H2 8971   4.191   1.971  16.517 -1.4947  0.4283 -3.1000
  605TMC3    C7 8972   4.005   1.882  16.378  0.2758 -0.3209 -0.0443
  605TMC3    C8 8973   4.442   1.876  16.533 -0.5305 -0.0166  0.1807
  605TMC3    O1 8974   3.961   1.969  16.449 -0.2323 -0.1200  0.1472
  605TMC3    O2 8975   4.544   1.807  16.526  0.1116  0.0844 -0.4765
  606TMC3    C1 8976   1.276   0.184  16.806 -0.9681 -0.5129  0.0920
  606TMC3    C2 8977   1.372   0.146  16.895  0.0128  0.5868 -0.0408
  606TMC3    C3 8978   1.365   0.035  16.973 -0.0153 -0.5576 -0.9313
  606TMC3    C4 8979   1.169   0.107  16.795  0.7362  0.6137 -0.1162
  606TMC3    C5 8980   1.160   4.727  16.883  0.2781  0.5558  0.2681
  606TMC3    C6 8981   1.257   4.688  16.968 -0.0741  0.0369 -0.5198
  606TMC3     C 8982   1.255   0.320  16.764  0.2885  0.0852 -0.5822
  606TMC3     O 8983   1.159   0.344  16.686  0.1305 -0.1367 -0.1021
  606TMC3     H 8984   1.468   0.198  16.897  0.8504 -0.9329 -0.9619
  606TMC3    H1 8985   1.079   0.125  16.737  0.6155 -0.3429 -0.2169
  606TMC3    H2 8986   1.254   4.596  17.025 -2.2570  2.3156  3.0478
  606TMC3    C7 8987   1.064   4.621  16.839 -0.5935 -0.4261  0.5020
  606TMC3    C8 8988   1.473   0.009  17.054  0.3487  0.3105  0.0060
  606TMC3    O1 8989   1.018   4.624  16.724 -0.9367  0.4145 -0.7359
  606TMC3    O2 8990   1.550   0.099  17.080 -0.4947 -0.4999 -0.0694
  607MPD2     C 8991   2.521   2.941  11.657  0.6174  0.0089 -0.6236
  607MPD2    C1 8992   2.578   3.043  11.721  0.0680  0.0984  0.1343
  607MPD2    C2 8993   2.579   3.048  11.858 -0.4551 -0.3356  0.7692
  607MPD2    C3 8994   2.528   2.943  11.930  0.4836 -0.7718  0.1659
  607MPD2    C4 8995   2.463   2.846  11.866 -0.9653 -0.2071 -0.4754
  607MPD2    C5 8996   2.451   2.851  11.732 -1.0543  0.7533 -0.2079
  607MPD2     H 8997   2.638   3.126  11.905 -1.8248  0.1169  1.7442
  607MPD2    H1 8998   2.410   2.772  11.925  0.1767 -0.5243  0.1615
  607MPD2    H2 8999   2.498   2.936  11.551 -1.0236 -0.0476 -0.2566
  607MPD2    H3 9000   2.386   2.778  11.685 -0.9428 -0.9116  2.2367
  607MPD2     N 9001   2.549   2.958  12.070 -0.2671 -0.6084 -0.5337
  607MPD2    H5 9002   2.615   3.027  12.106 -2.2946 -0.7945  3.5264
  607MPD2    N1 9003   2.649   3.142  11.653 -0.1918 -1.0009  0.0006
  607MPD2    H7 9004   2.681   3.218  11.713  0.9503  0.7738 -2.8291
  608TMC3    C1 9005   2.771   3.264  11.482  0.8702 -0.1694 -0.0227
  608TMC3    C2 9006   2.839   3.311  11.593 -0.1948 -0.4689  0.0983
  608TMC3    C3 9007   2.969   3.348  11.572  0.3227 -0.1092 -0.6307
  608TMC3    C4 9008   2.835   3.263  11.356 -0.4906 -0.1662 -0.1799
  608TMC3    C5 9009   2.964   3.293  11.354 -0.4249  0.0792  0.5954
  608TMC3    C6 9010   3.036   3.334  11.457 -0.9282  0.2525 -0.1748
  608TMC3     C 9011   2.670   3.159  11.514  0.4253 -0.3704 -0.8069
  608TMC3     O 9012   2.636   3.089  11.420 -0.2998  0.3522 -0.1913
  608TMC3     H 9013   2.788   3.343  11.684  1.7792  4.1677 -0.4488
  608TMC3    H1 9014   2.786   3.243  11.261 -0.0505 -0.5639 -0.3221
  608TMC3    H2 9015   3.135   3.378  11.444 -0.1276 -1.0486  1.4696
  608TMC3    C7 9016   3.026   3.302  11.227  0.1769  0.1066  0.7086
  608TMC3    C8 9017   3.053   3.376  11.687  0.2543 -0.1972 -0.1157
  608TMC3    O1 9018   2.963   3.312  11.122  0.6158 -0.5923  0.2443
  608TMC3    O2 9019   3.152   3.442  11.667  0.7379  0.1112 -0.1409
  609TMC3    C1 9020   1.754   1.629   9.169 -0.4045 -0.5858  0.3724
  609TMC3    C2 9021   1.744   1.643   9.033  1.0703  0.0061 -0.0183
  609TMC3    C3 9022   1.818   1.557   8.944  0.1054 -0.7457 -0.1955
  609TMC3    C4 9023   1.825   1.524   9.217 -0.3153 -0.1071  0.6490
  609TMC3    C5 9024   1.904   1.454   9.130  0.0595 -0.1203  1.0851
  609TMC3    C6 9025   1.905   1.464   8.993 -0.2658  0.5457  0.0607
  609TMC3     C 9026   1.633   1.664   9.241  0.6387  0.1495  0.2631
  609TMC3     O 9027   1.543   1.717   9.180 -0.2047  0.1243  0.3304
  609TMC3     H 9028   1.698   1.731   8.990 -1.8183 -1.5749 -0.1087
  609TMC3    H1 9029   1.824   1.503   9.323  1.9362  1.8860  1.0679
  609TMC3    H2 9030   1.976   1.407   8.933 -0.0461  1.1413 -0.2402
  609TMC3    C7 9031   1.982   1.351   9.198 -0.6655  0.8479  0.5238
  609TMC3    C8 9032   1.807   1.580   8.800 -0.8444  0.1136 -0.4962
  609TMC3    O1 9033   2.006   1.372   9.318 -0.1114  0.5902  0.0572
  609TMC3    O2 9034   1.770   1.687   8.744 -0.5202 -0.0916  0.1115
  610TMC3    C1 9035   3.605   3.037  12.520  0.4242 -0.1288 -0.0662
  610TMC3    C2 9036   3.694   3.091  12.430 -0.9075  0.2116  0.2924
  610TMC3    C3 9037   3.804   3.019  12.394  0.2753  0.4615 -0.2945
  610TMC3    C4 9038   3.625   2.913  12.568  0.3619 -0.4035  0.4931
  610TMC3    C5 9039   3.741   2.842  12.539  0.4001  0.4318 -0.1425
  610TMC3    C6 9040   3.830   2.891  12.447 -0.3305  0.1994  0.3810
  610TMC3     C 9041   3.489   3.115  12.573 -0.2168  0.4100  0.4473
  610TMC3     O 9042   3.397   3.046  12.623 -0.2138 -0.5617  0.1968
  610TMC3     H 9043   3.684   3.189  12.387  0.3429 -0.7022 -2.0411
  610TMC3    H1 9044   3.554   2.879  12.643  1.9281 -1.4942  1.4971
  610TMC3    H2 9045   3.920   2.836  12.423 -0.3249  1.1057 -1.7120
  610TMC3    C7 9046   3.752   2.700  12.575  0.1084 -0.0488  0.0580
  610TMC3    C8 9047   3.908   3.059  12.296  0.6244  0.0547 -0.3676
  610TMC3    O1 9048   3.859   2.646  12.581  0.2995  0.0383  0.4223
  610TMC3    O2 9049   4.020   3.026  12.323 -0.4908  0.1958 -0.1524
  611MPD2     C 9050   2.685   3.038  10.032  0.1818  0.0244  0.1694
  611MPD2    C1 9051   2.713   2.947  10.133  0.1399  0.7678 -0.3655
  611MPD2    C2 9052   2.845   2.920  10.178 -0.6074  0.5261 -0.4927
  611MPD2    C3 9053   2.944   2.990  10.116  0.0951 -0.0159 -0.0261
  611MPD2    C4 9054   2.920   3.087  10.019  0.0250 -0.3001  0.3184
  611MPD2    C5 9055   2.787   3.107   9.983 -0.2348  0.0930  0.5003
  611MPD2     H 9056   2.857   2.848  10.257 -0.6649 -1.0184 -1.8806
  611MPD2    H1 9057   2.997   3.146   9.971 -1.5758  2.3758  1.0384
  611MPD2    H2 9058   2.582   3.062  10.009  0.0972  0.2789  0.8140
  611MPD2    H3 9059   2.765   3.184   9.910 -0.9551  0.5291  1.1832
  611MPD2     N 9060   3.080   2.987  10.165  0.3963 -0.1085  0.0448
  611MPD2    H5 9061   3.144   3.057  10.131 -1.2359  2.5121  2.3552
  611MPD2    N1 9062   2.603   2.872  10.185  0.1743  0.0384  0.4611
  611MPD2    H7 9063   2.515   2.908  10.149  0.4254 -0.2669 -0.4385
  612TMC3    C1 9064   3.269   2.910  10.273 -0.5092 -0.0972  0.0891
  612TMC3    C2 9065   3.320   2.899  10.399  0.1570  0.5177  0.4409
  612TMC3    C3 9066   3.454   2.900  10.419 -0.4433 -0.3876 -0.0471
  612TMC3    C4 9067   3.351   2.922  10.164  0.1588 -0.0923 -0.1427
  612TMC3    C5 9068   3.484   2.927  10.194  0.5645 -0.4549 -0.6564
  612TMC3    C6 9069   3.542   2.918  10.317 -0.0783 -0.0822 -0.8115
  612TMC3     C 9070   3.125   2.909  10.263 -0.9533  0.4987 -0.7254
  612TMC3     O 9071   3.075   2.836  10.351  0.5022 -0.4891  0.6439
  612TMC3     H 9072   3.261   2.889  10.489 -0.9936  1.0912 -0.2539
  612TMC3    H1 9073   3.318   2.930  10.060 -1.6337 -1.8706  0.2756
  612TMC3    H2 9074   3.649   2.903  10.329  0.4316  1.0147 -4.0590
  612TMC3    C7 9075   3.579   2.943  10.083 -0.4271  0.1478 -0.6348
  612TMC3    C8 9076   3.501   2.891  10.556 -1.4705 -0.5316  0.3384
  612TMC3    O1 9077   3.543   2.895   9.977  0.5626 -0.0953 -0.3388
  612TMC3    O2 9078   3.417   2.850  10.639  0.0020  0.0650 -0.5075
  613MPD2     C 9079   2.300   0.864  16.082  0.0465  0.1825 -0.1258
  613MPD2    C1 9080   2.181   0.799  16.057 -0.0842  0.4544 -0.0274
  613MPD2    C2 9081   2.192   0.657  16.051 -0.8559  0.2460 -0.2588
  613MPD2    C3 9082   2.314   0.596  16.059 -0.4353  0.1054 -0.0704
  613MPD2    C4 9083   2.428   0.669  16.068 -0.6294  0.1603  0.1603
  613MPD2    C5 9084   2.422   0.804  16.084  0.2452  0.3446 -1.0531
  613MPD2     H 9085   2.100   0.599  16.048 -0.5300 -0.3425  0.9436
  613MPD2    H1 9086   2.529   0.630  16.058 -0.6291  0.6146 -1.6902
  613MPD2    H2 9087   2.299   0.970  16.106 -1.1985  0.0403  0.4664
  613MPD2    H3 9088   2.512   0.861  16.104  1.1190 -0.9075 -1.3574
  613MPD2     N 9089   2.330   0.453  16.054  0.2827  0.1400  0.9777
  613MPD2    H5 9090   2.423   0.413  16.053  0.9346  1.6524  0.3950
  613MPD2    N1 9091   2.066   0.880  16.041  0.3979  0.5822 -0.4482
  613MPD2    H7 9092   2.076   0.969  16.090  1.9093  0.3938 -0.3889
  614TMC3    C1 9093   1.938   0.743  15.895  0.1964 -0.5806  0.3956
  614TMC3    C2 9094   2.039   0.719  15.806  0.0370 -0.2837 -0.1975
  614TMC3    C3 9095   2.017   0.625  15.711 -0.2585  1.1098 -0.2241
  614TMC3    C4 9096   1.813   0.695  15.871 -0.0781 -0.1166  0.0865
  614TMC3    C5 9097   1.787   0.620  15.760 -0.5147 -0.4739 -0.1604
  614TMC3    C6 9098   1.889   0.582  15.680  0.5160 -0.0161  0.4628
  614TMC3     C 9099   1.948   0.857  15.978  0.4506 -0.0222  0.1282
  614TMC3     O 9100   1.852   0.930  15.989 -0.3096  0.2359 -0.3307
  614TMC3     H 9101   2.134   0.767  15.827 -0.4546  0.8002 -0.4571
  614TMC3    H1 9102   1.736   0.723  15.942  0.5759  1.2581  0.2556
  614TMC3    H2 9103   1.875   0.511  15.599  0.8316  1.4205 -0.8442
  614TMC3    C7 9104   1.650   0.624  15.717 -0.0435 -0.1841  0.2597
  614TMC3    C8 9105   2.126   0.533  15.682 -0.2924  0.0609 -0.3993
  614TMC3    O1 9106   1.583   0.712  15.770 -0.5354  0.0460  0.3516
  614TMC3    O2 9107   2.091   0.423  15.639  0.1005  0.4832  0.3206
  615MPD2     C 9108   1.930   1.934  16.051 -0.3281 -0.8224  0.0673
  615MPD2    C1 9109   1.798   1.973  16.038 -0.2059 -0.7261  0.2363
  615MPD2    C2 9110   1.716   1.909  15.946 -0.0610 -0.5265 -0.1255
  615MPD2    C3 9111   1.753   1.789  15.892  0.6092 -1.0396 -0.8727
  615MPD2    C4 9112   1.886   1.752  15.908 -0.5325  0.1974  0.2621
  615MPD2    C5 9113   1.973   1.824  15.986 -0.5276 -0.0575 -0.1792
  615MPD2     H 9114   1.616   1.945  15.927  0.8771  0.6326 -2.9115
  615MPD2    H1 9115   1.924   1.660  15.866  0.8477  1.1950 -0.6535
  615MPD2    H2 9116   1.996   1.983  16.122  0.3691  3.4785 -3.5578
  615MPD2    H3 9117   2.076   1.789  15.994  0.1899  1.8344 -1.0214
  615MPD2     N 9118   1.667   1.698  15.830 -0.3587  0.2140 -0.3462
  615MPD2    H5 9119   1.714   1.620  15.786  0.1000  0.0839  0.3855
  615MPD2    N1 9120   1.750   2.097  16.096 -0.2255 -0.0703 -0.2226
  615MPD2    H7 9121   1.651   2.117  16.111 -0.4690 -2.5732  1.4970
  616TMC3    C1 9122   1.749   2.263  16.249  0.6494 -0.3445  0.0498
  616TMC3    C2 9123   1.792   2.390  16.269 -0.1968 -0.0089  0.3509
  616TMC3    C3 9124   1.696   2.467  16.329  0.0041 -0.1300 -0.4791
  616TMC3    C4 9125   1.629   2.213  16.298 -0.2219 -0.4171  0.2706
  616TMC3    C5 9126   1.555   2.297  16.377 -0.8053  0.7465 -0.6433
  616TMC3    C6 9127   1.590   2.427  16.389 -0.0441  0.1132  0.2369
  616TMC3     C 9128   1.831   2.178  16.171  0.1917  0.1478 -0.6114
  616TMC3     O 9129   1.949   2.191  16.184  0.1427 -0.0394 -0.2668
  616TMC3     H 9130   1.877   2.430  16.216  1.1302 -3.9756 -0.5244
  616TMC3    H1 9131   1.619   2.105  16.301  0.3708 -0.5169 -1.5945
  616TMC3    H2 9132   1.519   2.481  16.450 -1.6333 -1.5798 -0.1072
  616TMC3    C7 9133   1.418   2.267  16.411  0.1827 -0.6435  0.5385
  616TMC3    C8 9134   1.741   2.603  16.348  0.6632  0.0096 -0.1579
  616TMC3    O1 9135   1.342   2.361  16.423  0.5169 -0.0258 -0.4224
  616TMC3    O2 9136   1.658   2.686  16.322 -0.1625 -0.4388  0.0856
  617MPD2     C 9137   4.132   4.586  13.792 -0.1353  0.6454  0.0509
  617MPD2    C1 9138   4.117   4.591  13.927 -0.3757  0.2024  0.6643
  617MPD2    C2 9139   4.004   4.530  13.990 -0.3365  0.0183 -0.5954
  617MPD2    C3 9140   3.902   4.488  13.908  0.0781 -0.7118 -0.0427
  617MPD2    C4 9141   3.918   4.487  13.775  0.3600 -0.0064 -0.3041
  617MPD2    C5 9142   4.032   4.531  13.716 -0.1534 -0.1603  0.0219
  617MPD2     H 9143   4.007   4.516  14.098 -1.8034  1.3627 -0.3858
  617MPD2    H1 9144   3.851   4.441  13.704  2.4149 -1.7132 -1.1564
  617MPD2    H2 9145   4.223   4.617  13.741 -0.0517  0.2604 -0.0317
  617MPD2    H3 9146   4.037   4.529  13.608  1.0319  1.1716  0.0580
  617MPD2     N 9147   3.778   4.433  13.952  0.3168  0.6185 -0.0962
  617MPD2    H5 9148   3.695   4.430  13.893 -1.0209  0.7232  1.7852
  617MPD2    N1 9149   4.228   4.636  14.010 -0.4575 -0.9994 -0.7998
  617MPD2    H7 9150   4.319   4.624  13.966 -0.7872 -1.2789 -1.4095
  618TMC3    C1 9151   4.354   4.690  14.201 -0.1042 -0.0605 -0.2895
  618TMC3    C2 9152   4.439   4.592  14.171  0.4066  0.8409 -0.6718
  618TMC3    C3 9153   4.565   4.625  14.134 -0.3119 -0.6303  0.2658
  618TMC3    C4 9154   4.389   0.091  14.188  0.2775  0.0900 -0.7395
  618TMC3    C5 9155   4.510   0.133  14.134  0.1860  0.5299  0.2335
  618TMC3    C6 9156   4.601   0.031  14.119  0.4953 -0.0181  0.1911
  618TMC3     C 9157   4.222   4.664  14.146 -0.2643 -0.0078 -0.0326
  618TMC3     O 9158   4.122   4.668  14.210 -0.1582 -0.1164 -0.2509
  618TMC3     H 9159   4.405   4.489  14.174 -0.7055  1.2153 -0.5926
  618TMC3    H1 9160   4.303   0.156  14.193 -0.3086 -0.7598  0.2574
  618TMC3    H2 9161   4.701   0.047  14.079  0.2652  4.0947  1.3269
  618TMC3    C7 9162   4.498   0.213  14.016 -0.1660 -0.3145  0.7085
  618TMC3    C8 9163   4.594   4.545  14.022 -0.1339 -0.6805  0.2539
  618TMC3    O1 9164   4.423   0.312  14.025 -0.2246 -0.0079  0.1982
  618TMC3    O2 9165   4.495   4.515  13.959 -0.0329 -0.2237 -0.0241
  619MPD2     C 9166   0.577   0.799  14.224 -0.8823 -0.0819 -0.0726
  619MPD2    C1 9167   0.625   0.762  14.098  0.2645  0.0024 -0.0263
  619MPD2    C2 9168   0.539   0.756  13.991 -0.3598 -0.5936 -0.2336
  619MPD2    C3 9169   0.402   0.785  14.010  1.0895  0.0110  0.2225
  619MPD2    C4 9170   0.357   0.821  14.135  0.0571 -0.2403  0.4154
  619MPD2    C5 9171   0.440   0.825  14.238 -0.0320 -0.7965  0.5263
  619MPD2     H 9172   0.575   0.711  13.898 -0.2742  2.0720 -1.4823
  619MPD2    H1 9173   0.262   0.868  14.158 -0.8445 -2.8973  2.1170
  619MPD2    H2 9174   0.636   0.779  14.312 -0.1564 -0.4374 -0.6384
  619MPD2    H3 9175   0.404   0.858  14.335  1.4426 -1.5208  1.3347
  619MPD2     N 9176   0.309   0.792  13.907  0.3787 -0.4972 -0.4281
  619MPD2    H5 9177   0.216   0.829  13.923  0.3401 -0.3278 -1.0328
  619MPD2    N1 9178   0.758   0.730  14.067  0.2220  0.2924  0.5322
  619MPD2    H7 9179   0.779   0.713  13.969 -0.4393  4.2370 -0.2791
  620TMC3    C1 9180   0.992   0.729  14.110  0.4390 -0.4710  0.7379
  620TMC3    C2 9181   1.008   0.684  13.984 -0.3770 -0.8296  0.0055
  620TMC3    C3 9182   1.122   0.724  13.912  0.3092 -0.3749 -0.2424
  620TMC3    C4 9183   1.095   0.792  14.168  0.6538 -0.4592  0.3740
  620TMC3    C5 9184   1.210   0.817  14.104 -0.2604  0.5928  1.0656
  620TMC3    C6 9185   1.231   0.772  13.976  0.4724  0.5035 -0.4054
  620TMC3     C 9186   0.855   0.746  14.159 -0.0332  0.4741 -0.4548
  620TMC3     O 9187   0.848   0.786  14.274  0.8074 -0.3712 -0.6101
  620TMC3     H 9188   0.926   0.630  13.938 -0.1318 -1.0401 -0.1859
  620TMC3    H1 9189   1.089   0.833  14.268  1.7709 -0.2662  0.3687
  620TMC3    H2 9190   1.325   0.786  13.924  1.0493  0.7940  0.7211
  620TMC3    C7 9191   1.248   0.958  14.126  0.5352  0.7671  0.0454
  620TMC3    C8 9192   1.070   0.840  13.836 -0.3212  0.0404 -0.0454
  620TMC3    O1 9193   1.180   1.034  14.192 -0.1164  0.3312 -0.1977
  620TMC3    O2 9194   1.140   0.944  13.828  0.2237  0.4688 -0.0468
  621MPD2     C 9195   0.904   1.154   9.956  0.0121 -0.6864  0.4850
  621MPD2    C1 9196   1.008   1.183   9.880  0.1759 -0.1979 -0.2902
  621MPD2    C2 9197   1.131   1.194   9.944 -0.2555  0.9036 -0.3472
  621MPD2    C3 9198   1.156   1.169  10.078 -0.2918 -0.7402 -0.2159
  621MPD2    C4 9199   1.051   1.123  10.154  0.1651 -0.2906  0.0830
  621MPD2    C5 9200   0.930   1.117  10.086  0.1289 -0.2592  0.1352
  621MPD2     H 9201   1.219   1.221   9.886  1.8239 -0.1415  2.3627
  621MPD2    H1 9202   1.046   1.087  10.256  1.9025 -1.4630 -0.2487
  621MPD2    H2 9203   0.803   1.134   9.923  0.2262 -1.1914  0.1343
  621MPD2    H3 9204   0.848   1.082  10.147 -2.0914  2.2621 -1.3824
  621MPD2     N 9205   1.278   1.198  10.131 -0.1955  0.5154  0.0282
  621MPD2    H5 9206   1.347   1.242  10.071  0.1207  0.1707  0.1377
  621MPD2    N1 9207   1.002   1.188   9.739 -0.3153  0.5532  0.4428
  621MPD2    H7 9208   1.090   1.172   9.692 -0.0621 -0.1020  1.1374
  622TMC3    C1 9209   0.917   1.165   9.524 -0.9007 -1.1743 -0.5521
  622TMC3    C2 9210   0.808   1.186   9.434 -0.1515  0.2015 -0.7232
  622TMC3    C3 9211   0.835   1.178   9.300  0.4018 -0.2627  0.1769
  622TMC3    C4 9212   1.045   1.146   9.483  0.5520  0.8652  0.1004
  622TMC3    C5 9213   1.061   1.123   9.347  0.2579  0.4289  0.3810
  622TMC3    C6 9214   0.964   1.151   9.257 -0.5393  0.6583  0.0758
  622TMC3     C 9215   0.884   1.189   9.665  0.2734  0.1812 -0.0006
  622TMC3     O 9216   0.771   1.217   9.703 -0.1829 -0.7679  0.3341
  622TMC3     H 9217   0.709   1.185   9.477  0.8057 -0.5158  1.4895
  622TMC3    H1 9218   1.114   1.085   9.540 -0.5226 -1.1194 -0.7032
  622TMC3    H2 9219   0.984   1.153   9.150 -0.3194  0.9222  0.1234
  622TMC3    C7 9220   1.146   1.011   9.310  0.1738  0.0802  0.4228
  622TMC3    C8 9221   0.737   1.217   9.193 -0.1703  0.4802 -0.0132
  622TMC3    O1 9222   1.248   0.996   9.378 -0.1426 -0.1640 -0.0052
  622TMC3    O2 9223   0.773   1.200   9.074 -0.0502 -0.3377 -1.0800
  623MPD2     C 9224   4.675   1.600  16.021  0.3355  1.1325 -0.0793
  623MPD2    C1 9225   4.701   1.737  15.996  0.0796 -0.4452 -0.3463
  623MPD2    C2 9226   0.071   1.795  16.072 -0.0802 -0.5119  0.7850
  623MPD2    C3 9227   0.148   1.720  16.158  0.2779  0.1099  0.0761
  623MPD2    C4 9228   0.129   1.585  16.171  0.4435 -0.2434  0.3801
  623MPD2    C5 9229   0.019   1.529  16.111 -0.2139 -0.7816 -0.0870
  623MPD2     H 9230   0.089   1.901  16.060 -0.7346 -0.7154 -1.8767
  623MPD2    H1 9231   0.182   1.524  16.243 -0.2131 -0.6982  0.4758
  623MPD2    H2 9232   4.592   1.549  15.974 -0.2843  3.5543 -1.6621
  623MPD2    H3 9233   4.713   1.432  16.146  2.0001 -1.4025  0.3056
  623MPD2     N 9234   0.254   1.787  16.223  0.0450 -0.4389 -0.4582
  623MPD2    H5 9235   0.271   1.882  16.190  0.8271 -0.5069 -0.2485
  623MPD2    N1 9236   4.627   1.821  15.905  0.3063  0.6121 -0.2205
  623MPD2    H7 9237   4.652   1.919  15.905 -1.0995  0.9888 -3.5923
  624TMC3    C1 9238   0.543   1.835  16.579  0.4351  0.2011 -0.3250
  624TMC3    C2 9239   0.496   1.964  16.602 -0.5511 -0.1306  0.1964
  624TMC3    C3 9240   0.397   2.011  16.520  0.4910 -0.2304  0.1876
  624TMC3    C4 9241   0.502   1.768  16.475  0.8142 -0.1927 -0.0079
  624TMC3    C5 9242   0.412   1.824  16.398 -0.3850 -0.3010  0.1032
  624TMC3    C6 9243   0.353   1.946  16.416 -0.1984  0.7269  0.2011
  624TMC3     C 9244   0.664   1.796  16.653  1.1350  0.2665 -0.6482
  624TMC3     O 9245   0.694   1.877  16.742 -0.1550 -0.6275  0.0496
  624TMC3     H 9246   0.534   2.028  16.681 -0.2765 -1.5701  1.2127
  624TMC3    H1 9247   0.544   1.672  16.448 -0.2090 -0.2013 -1.5649
  624TMC3    H2 9248   0.273   1.982  16.352  1.2077  0.3183 -1.7774
  624TMC3    C7 9249   0.336   1.727  16.320 -0.2413  0.5812 -0.4296
  624TMC3    C8 9250   0.308   2.108  16.588  0.5463  0.0609 -0.1807
  624TMC3    O1 9251   0.350   1.616  16.359  0.0353  0.4836 -0.2670
  624TMC3    O2 9252   0.347   2.170  16.685  0.2128 -0.2350  0.6273
  625MPD2     C 9253   0.116   3.008   0.554  0.2769 -0.0398  0.4298
  625MPD2    C1 9254   0.153   3.124   0.626  0.1593  0.8120  0.2462
  625MPD2    C2 9255   0.271   3.133   0.690 -0.3213  0.5996 -0.2547
  625MPD2    C3 9256   0.360   3.026   0.681 -0.6362 -0.1309 -0.1992
  625MPD2    C4 9257   0.333   2.921   0.592 -0.5648  0.4873 -0.7601
  625MPD2    C5 9258   0.211   2.914   0.534 -0.1356 -0.3388 -0.4039
  625MPD2     H 9259   0.284   3.217   0.757 -1.5176 -0.2763  1.0762
  625MPD2    H1 9260   0.395   2.835   0.568  0.1041  1.0319 -0.9984
  625MPD2    H2 9261   0.022   2.987   0.504  0.6547  2.0397 -1.1161
  625MPD2    H3 9262   0.192   2.826   0.474 -0.4385  0.0412 -0.8589
  625MPD2     N 9263   0.485   3.029   0.746  0.2217 -0.0246 -0.0765
  625MPD2    H5 9264   0.514   3.121   0.776 -3.1656  1.4275 -1.3079
  625MPD2    N1 9265   0.065   3.232   0.642 -0.0210  0.2868  0.6593
  625MPD2    H7 9266   0.100   3.313   0.693  0.6269  0.1658  0.4012
  626TMC3    C1 9267   4.610   3.361   0.627  0.0820  0.5300 -0.1196
  626TMC3    C2 9268   4.586   3.427   0.508 -0.3302 -0.1762 -0.1101
  626TMC3    C3 9269   4.621   3.552   0.483 -0.3656  0.0281  0.2617
  626TMC3    C4 9270   4.676   3.429   0.725 -0.0812  0.2484  0.2988
  626TMC3    C5 9271   4.712   3.558   0.693  0.8372  0.4879 -0.1187
  626TMC3    C6 9272   4.690   3.624   0.576 -0.3071  0.6542 -0.0458
  626TMC3     C 9273   4.661   3.231   0.604  0.3308  0.5085 -0.3996
  626TMC3     O 9274   4.592   3.148   0.544 -0.7459  0.7294 -0.6246
  626TMC3     H 9275   4.535   3.380   0.424 -2.9973 -0.1580  1.5116
  626TMC3    H1 9276   4.698   3.376   0.817 -0.7036 -0.0143  0.2967
  626TMC3    H2 9277   0.008   3.721   0.558  1.4332 -0.4896 -1.7050
  626TMC3    C7 9278   0.103   3.605   0.756  0.1242  0.5350  0.4555
  626TMC3    C8 9279   4.605   3.610   0.352 -0.5530  0.0945  0.0959
  626TMC3    O1 9280   0.174   3.514   0.792  0.4454  0.6410  0.1666
  626TMC3    O2 9281   4.571   3.544   0.253 -0.2806  0.2976 -0.4589
  627MPD2     C 9282   3.449   3.317  14.651  0.0792 -0.0987  0.8947
  627MPD2    C1 9283   3.560   3.286  14.725  0.5283  0.6095  0.9503
  627MPD2    C2 9284   3.610   3.163  14.707  0.2453  0.0122 -0.1797
  627MPD2    C3 9285   3.558   3.068  14.626 -0.2581  0.5676  0.6523
  627MPD2    C4 9286   3.451   3.103  14.549  0.2969 -0.3010 -0.0900
  627MPD2    C5 9287   3.392   3.224  14.570  0.3421 -0.1658  0.0929
  627MPD2     H 9288   3.703   3.139  14.757 -0.2445 -0.6367  0.4331
  627MPD2    H1 9289   3.398   3.040  14.479 -0.4599 -1.8872  1.9288
  627MPD2    H2 9290   3.390   3.406  14.669  0.0730  0.0564  0.1058
  627MPD2    H3 9291   3.307   3.267  14.518 -0.0542 -0.7679  0.2526
  627MPD2     N 9292   3.627   2.945  14.611 -0.2885  0.4181  0.4098
  627MPD2    H5 9293   3.711   2.930  14.667 -1.2741 -2.5953  1.0998
  627MPD2    N1 9294   3.632   3.385  14.796 -0.3631 -0.2873 -0.5284
  627MPD2    H7 9295   3.727   3.368  14.827 -0.4998  1.8230  1.0437
  628TMC3    C1 9296   3.699   3.594  14.887  0.5354  0.7220  0.3257
  628TMC3    C2 9297   3.831   3.552  14.893 -0.3661 -0.6038  0.5401
  628TMC3    C3 9298   3.924   3.649  14.909 -0.2837  0.4190  0.4407
  628TMC3    C4 9299   3.667   3.723  14.910 -0.4428  0.2157 -0.6915
  628TMC3    C5 9300   3.760   3.816  14.948 -0.1741 -0.4774  0.4832
  628TMC3    C6 9301   3.894   3.787  14.932  0.4106  0.3936 -0.0166
  628TMC3     C 9302   3.596   3.518  14.814 -0.2893  0.3468 -0.6643
  628TMC3     O 9303   3.496   3.580  14.785  0.0082  0.6474 -0.5157
  628TMC3     H 9304   3.871   3.470  14.835  2.5436  1.1931  0.0404
  628TMC3    H1 9305   3.565   3.751  14.888 -0.3862  0.3409 -0.7966
  628TMC3    H2 9306   3.981   3.850  14.948  0.2271  0.5950  0.2013
  628TMC3    C7 9307   3.720   3.952  14.962 -0.1904 -0.0565 -0.1832
  628TMC3    C8 9308   4.055   3.622  14.858  0.4597 -0.3002  0.0730
  628TMC3    O1 9309   3.768   4.018  15.054 -0.1866  0.2877  0.2362
  628TMC3    O2 9310   4.071   3.664  14.743 -0.2414 -0.7211 -0.6069
  629MPD2     C 9311   2.144   2.908  16.354 -0.1764  0.4727  0.6529
  629MPD2    C1 9312   2.185   2.786  16.404  0.9918  0.7022  0.2151
  629MPD2    C2 9313   2.091   2.688  16.420 -0.1457  0.3601  0.3611
  629MPD2    C3 9314   1.956   2.710  16.388 -0.0890  0.5638  0.1014
  629MPD2    C4 9315   1.915   2.840  16.353 -0.4986 -0.3455  0.0069
  629MPD2    C5 9316   2.014   2.934  16.335 -0.0522  0.9407  0.4734
  629MPD2     H 9317   2.119   2.587  16.447 -2.0412 -0.1889  0.3098
  629MPD2    H1 9318   1.812   2.869  16.336 -1.0070 -2.7362 -1.0685
  629MPD2    H2 9319   2.221   2.981  16.333 -0.0164  0.2709  0.5341
  629MPD2    H3 9320   1.987   3.031  16.296 -0.4594  0.6463  0.0253
  629MPD2     N 9321   1.870   2.601  16.383  0.0546  0.6859 -1.2644
  629MPD2    H5 9322   1.910   2.509  16.399 -0.0999  0.3018 -3.0733
  629MPD2    N1 9323   2.326   2.759  16.428  0.2926  0.4661  0.2162
  629MPD2    H7 9324   2.393   2.836  16.420  1.5757 -0.6146  0.5748
  630TMC3    C1 9325   2.527   2.627  16.449  0.0092  0.6519 -0.5053
  630TMC3    C2 9326   2.575   2.708  16.349 -0.6229  0.1305 -0.1296
  630TMC3    C3 9327   2.697   2.673  16.307  0.2331 -0.2189 -0.5914
  630TMC3    C4 9328   2.588   2.520  16.500 -0.4697  0.1031 -0.5198
  630TMC3    C5 9329   2.729   2.515  16.476 -0.1957 -0.1201 -0.0863
  630TMC3    C6 9330   2.778   2.589  16.377 -0.3757 -0.0956  0.1662
  630TMC3     C 9331   2.384   2.639  16.474  0.3147  0.2732  0.2399
  630TMC3     O 9332   2.336   2.537  16.524  0.0898 -0.0714  0.6940
  630TMC3     H 9333   2.517   2.778  16.289 -0.3420  0.6862  0.2489
  630TMC3    H1 9334   2.543   2.461  16.578  2.7396 -2.8423 -0.8910
  630TMC3    H2 9335   2.873   2.559  16.332 -2.5660  0.1981 -4.6237
  630TMC3    C7 9336   2.807   2.532  16.596 -0.2190  0.2175  0.3941
  630TMC3    C8 9337   2.778   2.789  16.288  0.1739  0.0592  0.1843
  630TMC3    O1 9338   2.768   2.472  16.697  0.4736 -0.3434 -0.5847
  630TMC3    O2 9339   2.879   2.795  16.359  0.2182 -0.3929  0.2255
  631MPD2     C 9340   0.663   1.852  15.551  0.2098 -0.1565 -0.3348
  631MPD2    C1 9341   0.766   1.904  15.471 -0.2056  0.4173 -0.7621
  631MPD2    C2 9342   0.894   1.848  15.475  0.5086 -0.3060 -0.0783
  631MPD2    C3 9343   0.916   1.741  15.563 -0.3828 -0.0226  0.4926
  631MPD2    C4 9344   0.811   1.692  15.642 -0.1741  0.0611 -0.3601
  631MPD2    C5 9345   0.687   1.746  15.636 -0.2089  0.8234  0.4408
  631MPD2     H 9346   0.981   1.875  15.417  0.2312  0.5674 -0.0909
  631MPD2    H1 9347   0.819   1.619  15.721  1.6790  1.6575  0.9483
  631MPD2    H2 9348   0.558   1.879  15.549  0.0998 -0.8684 -3.4881
  631MPD2    H3 9349   0.611   1.699  15.697  1.2947 -2.9150 -0.5163
  631MPD2     N 9350   1.046   1.694  15.571  0.1670  0.0729 -0.0240
  631MPD2    H5 9351   1.110   1.729  15.500  0.3214 -0.9418 -0.3967
  631MPD2    N1 9352   0.733   2.009  15.384 -0.4135  0.3535 -0.3013
  631MPD2    H7 9353   0.635   2.035  15.384 -0.2255  1.0869  0.1609
  632TMC3    C1 9354   0.743   2.185  15.229 -0.2864 -0.0922 -0.8155
  632TMC3    C2 9355   0.645   2.256  15.293 -0.4440  0.0145  0.4991
  632TMC3    C3 9356   0.562   2.338  15.220 -0.3758  0.3136  0.1391
  632TMC3    C4 9357   0.764   2.196  15.091  0.4625  0.2144  0.7513
  632TMC3    C5 9358   0.678   2.269  15.018 -0.2851 -0.0719 -0.6377
  632TMC3    C6 9359   0.574   2.336  15.081 -0.3487  0.4945  0.7644
  632TMC3     C 9360   0.820   2.082  15.301 -0.6291 -0.3744  0.5920
  632TMC3     O 9361   0.941   2.066  15.279  0.4325 -0.2323 -0.4059
  632TMC3     H 9362   0.626   2.227  15.396 -1.2707 -0.9640  0.0665
  632TMC3    H1 9363   0.844   2.145  15.039 -0.9113  0.9471 -2.0836
  632TMC3    H2 9364   0.502   2.389  15.019  1.0092  0.0155 -1.2071
  632TMC3    C7 9365   0.712   2.288  14.878 -0.9618  0.3525  0.0683
  632TMC3    C8 9366   0.479   2.427  15.297 -0.0497 -0.1873 -0.7691
  632TMC3    O1 9367   0.829   2.274  14.846  0.0583 -0.4253 -0.4289
  632TMC3    O2 9368   0.473   2.415  15.419 -0.1804 -0.3460  0.0321
  633MPD2     C 9369   0.457   0.157  17.292 -0.0465  0.2073 -0.1206
  633MPD2    C1 9370   0.406   0.109  17.170  0.1165 -0.1626  0.5148
  633MPD2    C2 9371   0.388   4.707  17.149  0.0077  0.3781  0.1155
  633MPD2    C3 9372   0.400   4.620  17.256 -0.4635  0.3090  0.3191
  633MPD2    C4 9373   0.455   4.661  17.378 -0.2908  0.1610 -0.6920
  633MPD2    C5 9374   0.483   0.063  17.393  0.6085  0.8302  0.1418
  633MPD2     H 9375   0.346   4.680  17.053 -3.5063 -0.4713  1.8998
  633MPD2    H1 9376   0.470   4.593  17.461 -0.5738  0.9254 -0.0122
  633MPD2    H2 9377   0.485   0.259  17.319 -3.1914  0.6806  1.3140
  633MPD2    H3 9378   0.548   0.089  17.475 -0.7346 -0.9919  1.7728
  633MPD2     N 9379   0.380   4.483  17.248 -0.2740  0.8172  0.0343
  633MPD2    H5 9380   0.392   4.432  17.334 -1.8416 -3.2969 -2.1819
  633MPD2    N1 9381   0.380   0.195  17.063  0.5155  0.5261 -0.0275
  633MPD2    H7 9382   0.331   0.155  16.983  1.0060  0.8881 -0.5068
  634TMC3    C1 9383   0.393   0.371  16.912  0.4929  0.3916  0.3526
  634TMC3    C2 9384   0.394   0.281  16.808  0.2837 -0.2554  0.2423
  634TMC3    C3 9385   0.410   0.331  16.687  0.9866 -0.1123 -0.4679
  634TMC3    C4 9386   0.393   0.504  16.890  0.4725  0.0417  0.0123
  634TMC3    C5 9387   0.384   0.545  16.761  0.1119  0.1105  0.4108
  634TMC3    C6 9388   0.401   0.461  16.653 -0.0931  0.0719 -0.6337
  634TMC3     C 9389   0.423   0.322  17.048 -0.2863 -0.6251  0.4551
  634TMC3     O 9390   0.468   0.405  17.124 -0.6780  0.0049 -0.2583
  634TMC3     H 9391   0.409   0.175  16.823  1.6982 -0.0741  0.1270
  634TMC3    H1 9392   0.372   0.567  16.976  1.2822  0.2540  0.0594
  634TMC3    H2 9393   0.416   0.504  16.555 -2.8336 -1.7505 -1.8346
  634TMC3    C7 9394   0.344   0.679  16.725  1.3153 -0.6195 -1.1351
  634TMC3    C8 9395   0.433   0.229  16.587  0.2943  0.0282 -0.6419
  634TMC3    O1 9396   0.385   0.718  16.620 -0.2363  0.4754  0.7524
  634TMC3    O2 9397   0.452   0.117  16.625  0.0863 -0.2155  0.2784
  635TMC3    C1 9398   1.265   1.359  17.141 -0.3009  0.1087 -1.1190
  635TMC3    C2 9399   1.395   1.324  17.137  0.2551  0.3242 -0.1122
  635TMC3    C3 9400   1.430   1.191  17.125  0.8553 -0.4622  0.1569
  635TMC3    C4 9401   1.169   1.260  17.121  0.0130  0.4742 -0.1612
  635TMC3    C5 9402   1.200   1.136  17.099  0.4352 -0.7844  0.0187
  635TMC3    C6 9403   1.331   1.098  17.100 -0.1468 -0.1990 -0.3064
  635TMC3     C 9404   1.223   1.486  17.198  0.4289 -0.7101  0.2595
  635TMC3     O 9405   1.104   1.489  17.228  0.0740 -0.3849  0.9524
  635TMC3     H 9406   1.475   1.386  17.176  0.8247 -0.2194 -0.4221
  635TMC3    H1 9407   1.065   1.288  17.118  0.0806  0.4391 -3.1291
  635TMC3    H2 9408   1.361   0.995  17.083 -0.8139 -0.4168 -0.1539
  635TMC3    C7 9409   1.102   1.035  17.141 -0.0606  0.3942  0.0442
  635TMC3    C8 9410   1.567   1.155  17.159  1.0351 -0.4242  0.2150
  635TMC3    O1 9411   0.995   1.077  17.188  0.6158 -0.1230 -0.2422
  635TMC3    O2 9412   1.649   1.247  17.169 -0.3835 -0.5662  0.0518
  636MPD2     C 9413   1.536   0.282  15.901  0.2580  0.1088  0.2403
  636MPD2    C1 9414   1.616   0.355  15.985 -0.7724 -0.7007 -0.1123
  636MPD2    C2 9415   1.753   0.331  15.986  0.3466  0.4975 -0.3407
  636MPD2    C3 9416   1.802   0.217  15.926 -0.6290  0.7482  0.1916
  636MPD2    C4 9417   1.724   0.145  15.849 -0.2963 -0.0187 -0.5166
  636MPD2    C5 9418   1.595   0.181  15.829 -0.3444  0.1940 -0.3711
  636MPD2     H 9419   1.814   0.395  16.049 -0.0842  2.1696 -1.6318
  636MPD2    H1 9420   1.758   0.060  15.791  0.5553 -0.6355  0.8728
  636MPD2    H2 9421   1.431   0.307  15.890  0.3141 -0.7444 -2.1468
  636MPD2    H3 9422   1.533   0.141  15.749 -0.0515 -3.1300  1.0698
  636MPD2     N 9423   1.934   0.175  15.950 -0.6891 -0.3793  0.3463
  636MPD2    H5 9424   1.990   0.239  16.006  0.2400  0.7925 -1.9453
  636MPD2    N1 9425   1.572   0.468  16.061 -0.5029  0.6304 -0.7858
  636MPD2    H7 9426   1.646   0.514  16.113 -1.6377  2.7735 -1.0548
  637TMC3    C1 9427   2.136   0.062  15.944 -0.3099  0.2962 -0.3527
  637TMC3    C2 9428   2.157   0.145  16.053 -0.7200 -0.1439  0.7950
  637TMC3    C3 9429   2.273   0.222  16.056 -0.4026  0.2371  0.2888
  637TMC3    C4 9430   2.223   0.052  15.843  0.4801 -0.8961 -0.2526
  637TMC3    C5 9431   2.336   0.128  15.850  0.1438 -0.1728 -0.0168
  637TMC3    C6 9432   2.365   0.208  15.953  0.3439 -0.8839 -0.1325
  637TMC3     C 9433   1.998   0.057  15.906  0.0955  0.0948 -0.2386
  637TMC3     O 9434   1.956   4.702  15.829 -0.5155  1.1346  0.6713
  637TMC3     H 9435   2.094   0.155  16.141 -0.7555  0.2228  0.7271
  637TMC3    H1 9436   2.200   4.727  15.751 -3.6330  2.9807 -1.4431
  637TMC3    H2 9437   2.463   0.255  15.955 -1.8534  3.4831  4.2092
  637TMC3    C7 9438   2.443   0.090  15.756 -0.1220 -0.2090  0.2361
  637TMC3    C8 9439   2.230   0.359  16.078  0.1602 -0.0893 -0.5400
  637TMC3    O1 9440   2.442   4.700  15.717 -0.0226  0.4300  0.5077
  637TMC3    O2 9441   2.106   0.368  16.103  0.0960  0.1345  0.4716
  638MPD2     C 9442   1.266   3.871  14.804  0.3048 -0.2624  0.2800
  638MPD2    C1 9443   1.206   3.793  14.707  0.0261 -0.2740 -0.2930
  638MPD2    C2 9444   1.108   3.706  14.742 -0.1715 -0.0443 -0.0471
  638MPD2    C3 9445   1.070   3.688  14.870  1.0103 -1.1011 -0.5763
  638MPD2    C4 9446   1.118   3.775  14.968  0.3645 -0.4178 -0.5429
  638MPD2    C5 9447   1.211   3.868  14.928  0.5571 -0.5157 -0.0964
  638MPD2     H 9448   1.067   3.639  14.667 -0.8652 -0.1672  0.4301
  638MPD2    H1 9449   1.088   3.779  15.072 -2.7062  0.4772 -1.4543
  638MPD2    H2 9450   1.342   3.944  14.778 -0.1181 -0.0401 -0.3257
  638MPD2    H3 9451   1.248   3.924  15.013  0.3301  0.6689 -0.7880
  638MPD2     N 9452   0.985   3.575  14.901  0.3772 -0.0142  0.1003
  638MPD2    H5 9453   0.964   3.523  14.816 -0.2191 -0.7500  0.7024
  638MPD2    N1 9454   1.261   3.814  14.580  0.8420  0.7446 -0.8675
  638MPD2    H7 9455   1.319   3.894  14.560  1.3569  1.3314  2.9803
  639TMC3    C1 9456   0.907   3.391  15.045  0.0266 -0.0394 -0.0632
  639TMC3    C2 9457   0.917   3.313  14.928  0.4694  0.0511  0.0272
  639TMC3    C3 9458   0.925   3.181  14.945  0.9284 -0.5291 -0.3300
  639TMC3    C4 9459   0.913   3.334  15.170  0.2433 -0.2241  0.6472
  639TMC3    C5 9460   0.933   3.202  15.175  0.1871  0.7763  0.0833
  639TMC3    C6 9461   0.935   3.125  15.067 -0.0087  0.0667  0.6143
  639TMC3     C 9462   0.944   3.533  15.030  0.2135  0.8115 -0.7170
  639TMC3     O 9463   0.961   3.593  15.136 -0.1638 -0.1032  0.5274
  639TMC3     H 9464   0.903   3.351  14.828  0.2637  1.2298  0.5009
  639TMC3    H1 9465   0.911   3.397  15.258 -1.2725  0.8802 -0.1803
  639TMC3    H2 9466   0.946   3.019  15.084  2.7562  0.3943  0.7525
  639TMC3    C7 9467   1.037   3.186  15.273 -0.0892 -0.0267 -0.2462
  639TMC3    C8 9468   0.926   3.100  14.826  0.1900 -0.0885 -0.2237
  639TMC3    O1 9469   1.004   3.229  15.382 -0.0051 -0.2448 -0.1012
  639TMC3    O2 9470   0.999   3.139  14.736 -0.3498 -0.3749  0.2635
  640MPD2     C 9471   1.784   2.093  10.220 -0.0047 -0.1259  0.1908
  640MPD2    C1 9472   1.825   2.161  10.104 -0.3050 -0.1377 -0.2912
  640MPD2    C2 9473   1.747   2.272  10.061 -0.9615 -0.4707  0.7349
  640MPD2    C3 9474   1.621   2.303  10.131  0.1257 -0.6943  0.6880
  640MPD2    C4 9475   1.584   2.226  10.239 -0.0151 -0.2185  0.1805
  640MPD2    C5 9476   1.665   2.124  10.288 -0.1138  0.3105 -0.4759
  640MPD2     H 9477   1.778   2.338   9.980 -0.6288  0.3751  1.5389
  640MPD2    H1 9478   1.488   2.243  10.287 -0.4710  0.8550 -1.1001
  640MPD2    H2 9479   1.832   2.003  10.259  0.8089  0.2006 -0.0629
  640MPD2    H3 9480   1.614   2.063  10.362  0.0621  0.4783 -0.2148
  640MPD2     N 9481   1.535   2.408  10.090  0.2580  0.6076 -0.3485
  640MPD2    H5 9482   1.447   2.410  10.141 -0.3940 -0.1739 -1.4566
  640MPD2    N1 9483   1.943   2.114  10.046 -0.3090 -0.1151 -0.0207
  640MPD2    H7 9484   1.992   2.037  10.090 -1.8118  0.2062  2.2195
  641TMC3    C1 9485   2.125   2.105   9.902  0.7115  0.2385  0.0378
  641TMC3    C2 9486   2.142   1.972   9.913  0.0449 -0.1061 -0.2762
  641TMC3    C3 9487   2.262   1.922   9.862  0.7285  0.3218  0.3517
  641TMC3    C4 9488   2.214   2.190   9.846  0.7338  0.1070  0.0353
  641TMC3    C5 9489   2.327   2.127   9.797 -0.7751 -0.4732 -0.4655
  641TMC3    C6 9490   2.357   1.995   9.801  0.5031  0.2066  0.5309
  641TMC3     C 9491   1.999   2.167   9.933  0.5275 -0.4148 -0.4988
  641TMC3     O 9492   1.968   2.270   9.868  0.5057  1.0415  0.1076
  641TMC3     H 9493   2.068   1.908   9.961 -0.1860  1.2975  1.2472
  641TMC3    H1 9494   2.200   2.297   9.858 -0.8689  0.0311 -1.1058
  641TMC3    H2 9495   2.447   1.949   9.760  1.1927  1.3639  0.7489
  641TMC3    C7 9496   2.430   2.206   9.725  0.8111 -0.2706  0.3385
  641TMC3    C8 9497   2.282   1.780   9.862 -0.2957 -0.0387 -0.6623
  641TMC3    O1 9498   2.538   2.147   9.721  0.0678  0.3781 -0.0613
  641TMC3    O2 9499   2.346   1.718   9.778  0.0082  0.2025  0.0638
  642TMC3    C1 9500   2.751   3.973  12.050  0.3382  0.2172 -0.2705
  642TMC3    C2 9501   2.864   3.963  12.124  0.1927 -0.4085 -0.5316
  642TMC3    C3 9502   2.874   3.851  12.203 -0.2387 -0.2615  1.0526
  642TMC3    C4 9503   2.661   3.872  12.038 -0.1380  0.6913  0.3052
  642TMC3    C5 9504   2.676   3.762  12.117  0.1588 -0.4604  0.2470
  642TMC3    C6 9505   2.781   3.754  12.208 -0.0757  0.1606  0.0823
  642TMC3     C 9506   2.708   4.104  12.070 -0.1757 -0.1692  0.2707
  642TMC3     O 9507   2.772   4.187  12.009 -0.0997 -0.5371 -0.2901
  642TMC3     H 9508   2.915   4.057  12.143  0.6502 -0.5321 -1.1894
  642TMC3    H1 9509   2.578   3.875  11.968 -0.2638  2.0025  0.5035
  642TMC3    H2 9510   2.810   3.660  12.253 -1.5431  1.5651  3.9029
  642TMC3    C7 9511   2.573   3.653  12.100 -0.0341  0.0095  0.7512
  642TMC3    C8 9512   2.956   3.865  12.330  0.7821  0.7364 -0.6585
  642TMC3    O1 9513   2.529   3.632  11.986 -0.4856  0.1838  0.2979
  642TMC3    O2 9514   2.912   3.802  12.427 -0.0365  0.6960  0.4910
  643TMC3    C1 9515   1.971   3.698   0.855  0.0773 -0.0794  0.4946
  643TMC3    C2 9516   1.847   3.738   0.815  0.1465  0.2262  0.0814
  643TMC3    C3 9517   1.779   3.655   0.736  0.0393  0.1717  0.3655
  643TMC3    C4 9518   2.024   3.577   0.829 -0.0091 -0.0876  0.3900
  643TMC3    C5 9519   1.946   3.491   0.757 -0.1694  0.4649  0.2042
  643TMC3    C6 9520   1.820   3.524   0.716  0.3934 -0.3032 -1.0266
  643TMC3     C 9521   2.050   3.813   0.894  0.7248  0.6557  0.2443
  643TMC3     O 9522   2.001   3.909   0.950  0.2229  0.6709 -0.3654
  643TMC3     H 9523   1.814   3.829   0.863  0.4011  0.4269 -0.1250
  643TMC3    H1 9524   2.119   3.543   0.870 -0.4439 -0.5098  1.0482
  643TMC3    H2 9525   1.757   3.461   0.654 -2.7147  1.4406  0.4147
  643TMC3    C7 9526   2.020   3.434   0.654 -0.1511 -0.1003 -0.2189
  643TMC3    C8 9527   1.714   3.710   0.616  0.7331  0.8082  0.6476
  643TMC3    O1 9528   2.123   3.491   0.625  0.6019 -0.2040 -0.4261
  643TMC3    O2 9529   1.650   3.641   0.537  0.0400  0.0028 -0.0782
  644MPD2     C 9530   1.944   2.999   9.860  0.2253  0.3637 -0.4936
  644MPD2    C1 9531   1.983   2.868   9.849  0.6278 -0.3356 -0.3931
  644MPD2    C2 9532   1.901   2.775   9.783  0.1477  0.2162 -0.3854
  644MPD2    C3 9533   1.780   2.815   9.721  0.3555  0.3513 -0.2631
  644MPD2    C4 9534   1.739   2.942   9.741 -0.0297  0.5947 -0.1144
  644MPD2    C5 9535   1.818   3.031   9.814 -0.3109  0.2025  0.0679
  644MPD2     H 9536   1.933   2.673   9.766 -0.1058 -0.0097  0.4742
  644MPD2    H1 9537   1.651   2.984   9.694  0.7694  2.7301  0.3206
  644MPD2    H2 9538   2.015   3.071   9.899  1.4238 -0.9509 -0.2226
  644MPD2    H3 9539   1.789   3.134   9.827 -0.3991  0.4596 -2.0870
  644MPD2     N 9540   1.705   2.721   9.643 -0.2658 -0.3635 -0.0989
  644MPD2    H5 9541   1.748   2.629   9.635 -1.3043 -0.7842 -0.8186
  644MPD2    N1 9542   2.114   2.835   9.898 -0.6885  0.2329 -0.7338
  644MPD2    H7 9543   2.175   2.910   9.932 -0.2882  0.5732 -2.1849
  645TMC3    C1 9544   1.540   2.651   9.491 -0.0622 -0.5022  0.6985
  645TMC3    C2 9545   1.412   2.665   9.440 -0.6890 -0.2593 -0.2152
  645TMC3    C3 9546   1.375   2.578   9.338 -0.6381  0.8079 -0.4079
  645TMC3    C4 9547   1.642   2.574   9.432 -0.0176 -0.5100 -0.1249
  645TMC3    C5 9548   1.588   2.495   9.334 -0.2469 -0.5375 -0.2222
  645TMC3    C6 9549   1.467   2.497   9.281 -0.2128  0.2164 -0.1982
  645TMC3     C 9550   1.579   2.746   9.590 -0.6961  0.4481 -1.0005
  645TMC3     O 9551   1.508   2.847   9.605 -0.5877  0.1863  0.8618
  645TMC3     H 9552   1.338   2.718   9.500 -0.6961 -0.1966 -0.2798
  645TMC3    H1 9553   1.749   2.585   9.447 -0.3100 -0.2230  1.7302
  645TMC3    H2 9554   1.422   2.422   9.217 -3.5555 -0.2911  2.7107
  645TMC3    C7 9555   1.675   2.379   9.294  0.4179 -0.3496  0.3089
  645TMC3    C8 9556   1.247   2.598   9.275 -0.0506 -0.2910 -0.3381
  645TMC3    O1 9557   1.770   2.339   9.360  0.6487 -0.5082 -0.2489
  645TMC3    O2 9558   1.207   2.515   9.196 -0.4943  0.5442  0.2970
  646MPD2     C 9559   1.805   2.804  14.215  0.2874 -0.2311  0.1317
  646MPD2    C1 9560   1.721   2.762  14.314 -0.0729  0.1082  0.0906
  646MPD2    C2 9561   1.585   2.758  14.291 -0.5072 -0.2400 -1.4085
  646MPD2    C3 9562   1.534   2.807  14.172  0.4924 -0.2659  0.6040
  646MPD2    C4 9563   1.615   2.853  14.069 -0.3098 -0.3263 -0.1134
  646MPD2    C5 9564   1.751   2.847  14.100 -0.1620 -0.2747  0.5265
  646MPD2     H 9565   1.518   2.723  14.369 -0.3624  1.0182 -0.7134
  646MPD2    H1 9566   1.585   2.894  13.973 -1.4846 -0.2854  0.2707
  646MPD2    H2 9567   1.912   2.814  14.222  0.2283  0.8183 -0.6361
  646MPD2    H3 9568   1.821   2.886  14.027 -2.4043  2.2113 -0.3187
  646MPD2     N 9569   1.391   2.802  14.160 -0.2636  0.1784  0.9057
  646MPD2    H5 9570   1.344   2.765  14.243 -0.4975  2.1266  1.6446
  646MPD2    N1 9571   1.777   2.709  14.431 -0.2875  0.3749  0.5612
  646MPD2    H7 9572   1.876   2.732  14.438 -0.1012  0.0168 -0.8346
  647TMC3    C1 9573   1.800   2.577  14.630 -0.1308  0.2859  0.0552
  647TMC3    C2 9574   1.749   2.468  14.692 -0.0139 -0.2352 -0.1737
  647TMC3    C3 9575   1.827   2.400  14.771  0.7867  0.1093  0.0997
  647TMC3    C4 9576   1.925   2.625  14.654 -0.2068 -0.5471  0.3937
  647TMC3    C5 9577   2.015   2.548  14.728 -0.7599  0.7056  0.3017
  647TMC3    C6 9578   1.958   2.434  14.781 -0.3919  0.0824  0.3099
  647TMC3     C 9579   1.719   2.627  14.528 -0.1279 -0.0631 -0.1009
  647TMC3     O 9580   1.602   2.592  14.533  0.2510 -0.0653 -0.2080
  647TMC3     H 9581   1.648   2.436  14.672 -0.2428  1.6174 -2.0048
  647TMC3    H1 9582   1.972   2.709  14.604 -1.9838  0.2160 -0.0266
  647TMC3    H2 9583   2.020   2.371  14.845  0.1447 -0.0046 -0.2889
  647TMC3    C7 9584   2.155   2.579  14.760  0.9415 -1.1808 -0.4408
  647TMC3    C8 9585   1.810   2.260  14.769 -0.0134 -0.2678 -0.0152
  647TMC3    O1 9586   2.214   2.486  14.818 -0.1480 -0.0081 -0.8437
  647TMC3    O2 9587   1.910   2.187  14.755 -0.2081 -0.0024 -0.3945
  648TMC3    C1 9588   0.682   0.377  15.962 -0.5961 -0.4042  0.5418
  648TMC3    C2 9589   0.628   0.252  15.940 -0.8254  0.1670  0.0392
  648TMC3    C3 9590   0.581   0.228  15.816 -0.6167  0.2199  0.2458
  648TMC3    C4 9591   0.675   0.478  15.872  0.3425 -0.8653 -0.0326
  648TMC3    C5 9592   0.614   0.459  15.753 -0.3295  0.8064  0.1230
  648TMC3    C6 9593   0.565   0.333  15.728  0.2755  0.5511 -0.1356
  648TMC3     C 9594   0.716   0.425  16.092  0.3516 -0.1385  0.3041
  648TMC3     O 9595   0.748   0.543  16.111  0.3024 -0.9117 -0.0313
  648TMC3     H 9596   0.605   0.182  16.020 -1.5966  1.6072  1.0787
  648TMC3    H1 9597   0.756   0.550  15.873  1.6043 -2.2827 -1.1120
  648TMC3    H2 9598   0.516   0.323  15.632 -0.0920  0.0733  0.0977
  648TMC3    C7 9599   0.542   0.569  15.700  0.4035  0.1652  0.1503
  648TMC3    C8 9600   0.535   0.092  15.780  0.0258 -0.6668  0.1184
  648TMC3    O1 9601   0.483   0.561  15.592  0.3030  0.8188 -0.1394
  648TMC3    O2 9602   0.445   0.095  15.694  0.5967  0.1855 -0.5845
  649TMC3    C1 9603   3.996   0.959  12.860 -0.1764 -0.3617 -1.4029
  649TMC3    C2 9604   4.116   1.025  12.865  0.1768  0.3642 -0.5450
  649TMC3    C3 9605   4.211   0.991  12.955 -0.0884 -0.3347 -0.3648
  649TMC3    C4 9606   3.949   0.879  12.964  0.1559 -0.6097 -0.8750
  649TMC3    C5 9607   4.045   0.850  13.055  0.2714 -0.5860  0.2988
  649TMC3    C6 9608   4.172   0.903  13.059 -0.0019  0.0798 -0.1662
  649TMC3     C 9609   3.895   1.014  12.766 -0.4966  0.1317  0.4398
  649TMC3     O 9610   3.778   1.027  12.799  0.7460  0.7176 -0.2855
  649TMC3     H 9611   4.127   1.115  12.806 -0.8853  1.3705  0.7956
  649TMC3    H1 9612   3.847   0.842  12.953  0.0289 -0.7173  0.7100
  649TMC3    H2 9613   4.240   0.875  13.139 -2.0739 -2.2012  0.7878
  649TMC3    C7 9614   3.999   0.824  13.188  0.5075  0.2460  0.2215
  649TMC3    C8 9615   4.322   1.077  12.989  0.3924 -0.5721 -0.0238
  649TMC3    O1 9616   4.049   0.874  13.285  0.2179  0.1914 -1.0688
  649TMC3    O2 9617   4.367   1.075  13.104 -1.2567 -0.1238  0.5422
  650TMC3    C1 9618   2.462   3.134  12.715  0.5073  0.4702 -0.2453
  650TMC3    C2 9619   2.424   3.249  12.775  0.0491  0.3986 -0.3944
  650TMC3    C3 9620   2.292   3.283  12.775  0.6687 -0.4459 -0.1190
  650TMC3    C4 9621   2.370   3.050  12.656  0.2269  0.0502 -0.3183
  650TMC3    C5 9622   2.239   3.084  12.659  0.4509 -0.2230  0.4590
  650TMC3    C6 9623   2.200   3.199  12.714 -0.3228  0.2870  0.5899
  650TMC3     C 9624   2.603   3.102  12.727  0.2456 -0.0088  0.6446
  650TMC3     O 9625   2.689   3.188  12.698  0.2779 -0.1884 -0.1707
  650TMC3     H 9626   2.497   3.320  12.809  0.7236 -1.3712  1.8277
  650TMC3    H1 9627   2.394   2.952  12.615 -0.9565 -0.5234  0.3613
  650TMC3    H2 9628   2.110   3.247  12.680  0.8117  1.2205 -1.1110
  650TMC3    C7 9629   2.137   2.996  12.607 -0.0371 -0.7737  0.1105
  650TMC3    C8 9630   2.256   3.412  12.827 -1.1532  0.5062  0.3147
  650TMC3    O1 9631   2.165   2.876  12.619 -0.1145 -0.2292  0.3821
  650TMC3    O2 9632   2.348   3.496  12.846 -0.1360 -0.3657 -1.3279
  651MPD2     C 9633   0.926   4.420  10.945  0.8268  0.0177  0.1704
  651MPD2    C1 9634   0.887   4.558  10.929  0.7499 -0.2357 -0.1043
  651MPD2    C2 9635   0.992   4.651  10.929  0.5686  0.2510 -1.0496
  651MPD2    C3 9636   1.124   4.611  10.945 -0.2924  0.1146  0.2514
  651MPD2    C4 9637   1.154   4.479  10.937 -0.6194 -0.6561 -0.6960
  651MPD2    C5 9638   1.055   4.384  10.941  0.7033 -0.0262  0.1404
  651MPD2     H 9639   0.971   0.026  10.900 -1.1128  0.1025 -0.3342
  651MPD2    H1 9640   1.257   4.445  10.934 -0.2160  0.5209  0.0016
  651MPD2    H2 9641   0.855   4.341  10.963 -0.0435  0.6621 -0.4374
  651MPD2    H3 9642   1.087   4.282  10.955 -1.7569 -0.8831 -0.6057
  651MPD2     N 9643   1.219   4.715  10.949 -0.0087  0.0518  0.4685
  651MPD2    H5 9644   1.194   0.085  10.939 -2.0888 -0.3253  2.0563
  651MPD2    N1 9645   0.753   4.608  10.905 -1.1013  0.0357 -0.8579
  651MPD2    H7 9646   0.729   4.707  10.907 -3.0164 -0.4506 -0.3493
  652TMC3    C1 9647   1.642   0.188  10.934 -0.2037  0.1998 -0.0175
  652TMC3    C2 9648   1.565   0.071  10.914 -0.1020 -0.2958 -0.2056
  652TMC3    C3 9649   1.433   0.085  10.962  0.0948  0.2857 -0.6503
  652TMC3    C4 9650   1.601   0.307  10.981  0.2812 -0.8409  0.4998
  652TMC3    C5 9651   1.468   0.309  11.026  0.5122  0.4820 -0.1735
  652TMC3    C6 9652   1.384   0.202  11.020 -0.3182  0.3041  0.3636
  652TMC3     C 9653   1.780   0.192  10.880  0.6270  0.3848 -0.0402
  652TMC3     O 9654   1.845   0.086  10.881 -0.1107  0.1232 -0.0329
  652TMC3     H 9655   1.611   4.710  10.873  1.4141  0.5535 -0.3601
  652TMC3    H1 9656   1.669   0.392  10.984 -1.2393  0.4011  0.0063
  652TMC3    H2 9657   1.293   0.208  11.080 -1.1959  0.7969 -1.0071
  652TMC3    C7 9658   1.427   0.411  11.114  0.1077 -0.3445  0.0638
  652TMC3    C8 9659   1.358   4.691  10.943  0.3778  0.5075 -0.2936
  652TMC3    O1 9660   1.318   0.395  11.174 -0.4012  0.1804 -0.3091
  652TMC3    O2 9661   1.426   4.587  10.935 -0.1550  0.2290 -0.0018
  653MPD2     C 9662   0.203   0.504  17.453 -0.4737 -0.3054  0.4894
  653MPD2    C1 9663   0.085   0.559  17.488  0.0500 -0.2396  1.1033
  653MPD2    C2 9664   4.693   0.504  17.446 -0.0115  0.3057  0.3873
  653MPD2    C3 9665   4.693   0.408  17.338  0.3726  0.0455  0.4240
  653MPD2    C4 9666   0.089   0.371  17.291  0.7511 -0.6043  0.1852
  653MPD2    C5 9667   0.206   0.416  17.344 -0.2929 -0.0461  0.0552
  653MPD2     H 9668   4.600   0.549  17.478  0.6060 -0.8325  3.7554
  653MPD2    H1 9669   0.105   0.298  17.212  3.2749  2.0600 -1.7748
  653MPD2    H2 9670   0.293   0.538  17.502  1.6081 -3.3175 -1.2720
  653MPD2    H3 9671   0.289   0.377  17.288  0.1842  3.0570 -1.4341
  653MPD2     N 9672   4.569   0.364  17.289  0.3553 -0.4692 -0.0427
  653MPD2    H5 9673   4.485   0.397  17.336  0.6726  0.0722  0.1312
  653MPD2    N1 9674   0.096   0.667  17.574 -0.5178  0.0881 -0.3927
  653MPD2    H7 9675   0.189   0.704  17.590 -0.0643 -1.5811  0.8851
  654TMC3    C1 9676   4.430   0.210  17.169  0.3130 -0.0394 -0.6216
  654TMC3    C2 9677   4.323   0.290  17.151  0.3792 -0.2377  0.0537
  654TMC3    C3 9678   4.219   0.228  17.099 -0.6050 -0.2256  1.0735
  654TMC3    C4 9679   4.434   0.071  17.139 -0.2388  0.2669 -0.1094
  654TMC3    C5 9680   4.328   0.018  17.071 -0.4047  0.5159 -0.3840
  654TMC3    C6 9681   4.221   0.102  17.047 -0.2091 -0.2173  0.4352
  654TMC3     C 9682   4.558   0.269  17.187  0.7157  0.2357 -0.2938
  654TMC3     O 9683   4.637   0.220  17.108 -0.2105  0.2386 -0.8182
  654TMC3     H 9684   4.333   0.396  17.170 -1.3717 -0.3120  1.3600
  654TMC3    H1 9685   4.524   0.010  17.140 -1.6173 -1.7400  0.7404
  654TMC3    H2 9686   4.143   0.061  16.982  2.2826  0.3737 -2.9392
  654TMC3    C7 9687   4.366   4.644  16.975  0.9947 -0.7012 -0.1555
  654TMC3    C8 9688   4.129   0.326  17.035 -0.1979 -0.2061  0.5394
  654TMC3    O1 9689   4.341   4.667  16.860  0.5177  0.0350  0.3568
  654TMC3    O2 9690   4.115   0.430  17.092  0.4198 -0.1418 -0.3156
  655MPD2     C 9691   1.080   0.636  15.865  1.1915 -0.0412 -0.4045
  655MPD2    C1 9692   1.023   0.728  15.782  0.2377  0.2482 -0.1149
  655MPD2    C2 9693   0.957   0.696  15.669 -0.2659  0.5099 -0.0140
  655MPD2    C3 9694   0.943   0.556  15.640 -0.4773 -0.1789 -0.4128
  655MPD2    C4 9695   0.998   0.460  15.720 -0.0961  0.1977  0.7338
  655MPD2    C5 9696   1.066   0.498  15.832  0.6516  0.6636 -0.4595
  655MPD2     H 9697   0.913   0.776  15.611 -0.7525  0.0891 -0.2265
  655MPD2    H1 9698   0.990   0.356  15.693 -1.9457  0.8813 -1.4580
  655MPD2    H2 9699   1.123   0.654  15.963  0.0161  4.2238 -0.6918
  655MPD2    H3 9700   1.111   0.429  15.903  0.0050  0.0387 -0.6595
  655MPD2     N 9701   0.893   0.507  15.519 -0.4689 -0.1221 -0.1267
  655MPD2    H5 9702   0.886   0.406  15.510 -1.2118 -0.0944  0.1140
  655MPD2    N1 9703   1.019   0.867  15.809  0.2440  0.0663  0.4557
  655MPD2    H7 9704   0.975   0.928  15.741 -0.5282 -1.1670 -0.1368
  656TMC3    C1 9705   1.033   1.069  15.921 -0.1566  0.2947  0.2346
  656TMC3    C2 9706   0.983   1.113  16.042 -0.3719 -0.7421 -0.2645
  656TMC3    C3 9707   0.908   1.227  16.043  0.1771 -0.2232  0.2849
  656TMC3    C4 9708   1.011   1.153  15.811 -0.0756 -0.1623  0.2714
  656TMC3    C5 9709   0.945   1.276  15.819 -0.6110  1.1510 -0.6055
  656TMC3    C6 9710   0.891   1.307  15.938 -0.8279 -0.2432 -0.0890
  656TMC3     C 9711   1.084   0.935  15.914 -0.3352 -0.0283  0.1084
  656TMC3     O 9712   1.129   0.888  16.017  0.1004 -0.2683 -0.0209
  656TMC3     H 9713   0.995   1.054  16.131 -1.6952  0.3762  0.6465
  656TMC3    H1 9714   1.066   1.121  15.723  0.2768  1.2845 -0.0322
  656TMC3    H2 9715   0.838   1.401  15.948  0.3998  0.6117 -1.8076
  656TMC3    C7 9716   0.880   1.327  15.699 -0.1355  0.6303  0.1307
  656TMC3    C8 9717   0.789   1.206  16.119 -0.2108 -0.2213 -0.6663
  656TMC3    O1 9718   0.944   1.358  15.601  0.2070  0.1594  0.4293
  656TMC3    O2 9719   0.687   1.180  16.057 -0.1327 -0.2617  0.0739
  657TMC3    C1 9720   0.046   4.121  14.716 -0.2884  0.1335  0.4118
  657TMC3    C2 9721   0.010   4.102  14.845  0.3600 -0.3529 -0.8247
  657TMC3    C3 9722   4.622   4.159  14.888 -0.0887 -0.8493 -0.1339
  657TMC3    C4 9723   4.713   4.213  14.635  0.2692 -0.5105  0.2373
  657TMC3    C5 9724   4.604   4.272  14.684 -0.3362  0.1683  0.6190
  657TMC3    C6 9725   4.559   4.250  14.808 -0.4113 -0.0231 -0.9281
  657TMC3     C 9726   0.131   4.025  14.655  0.3619 -0.3392  0.4130
  657TMC3     O 9727   0.135   4.009  14.535  0.1198 -0.0162 -0.9338
  657TMC3     H 9728   0.041   4.013  14.899  0.9748  0.8877  0.8696
  657TMC3    H1 9729   0.026   4.238  14.538  0.4469  0.1430  0.4802
  657TMC3    H2 9730   4.478   4.315  14.842 -1.9988 -1.3129 -2.2636
  657TMC3    C7 9731   4.554   4.390  14.606 -0.2353  0.2383 -0.2294
  657TMC3    C8 9732   4.612   4.182  15.029 -0.7181  0.1650  0.2358
  657TMC3    O1 9733   4.438   4.431  14.615  0.3713  0.2211 -0.1239
  657TMC3    O2 9734   4.707   4.135  15.090  0.2898  0.0801 -0.1027
  658MPD2     C 9735   0.962   4.633  15.303  0.1417  0.2577  0.3870
  658MPD2    C1 9736   0.929   4.701  15.192  1.0673  0.3018 -0.4024
  658MPD2    C2 9737   0.922   4.644  15.069 -0.1336  0.2896  0.0849
  658MPD2    C3 9738   0.968   4.514  15.059  0.0132 -0.5480  0.0754
  658MPD2    C4 9739   1.022   4.454  15.168 -0.3056  0.2127 -0.8483
  658MPD2    C5 9740   1.011   4.506  15.295  0.5580 -0.7974 -0.3729
  658MPD2     H 9741   0.880   4.691  14.981  0.4890  0.5955 -0.0540
  658MPD2    H1 9742   1.056   4.351  15.167  0.3428  0.4379 -1.8527
  658MPD2    H2 9743   0.981   4.684  15.397 -1.4569  3.7223 -1.1416
  658MPD2    H3 9744   1.051   4.455  15.382 -0.3311 -0.0184  0.4952
  658MPD2     N 9745   0.955   4.457  14.935  0.2673  0.5875  0.0146
  658MPD2    H5 9746   0.892   4.509  14.875 -0.2992 -0.7088 -0.5188
  658MPD2    N1 9747   0.898   0.115  15.206  0.0658  0.0883  0.3929
  658MPD2    H7 9748   0.891   0.153  15.300 -1.7246  1.7699 -0.4051
  659TMC3    C1 9749   0.845   0.339  15.147 -0.2595 -0.3906 -0.1103
  659TMC3    C2 9750   0.874   0.386  15.276  0.2525  0.1219  0.0211
  659TMC3    C3 9751   0.799   0.501  15.310 -0.0820 -0.2811 -0.0176
  659TMC3    C4 9752   0.750   0.399  15.069 -0.3499 -0.2266 -0.3864
  659TMC3    C5 9753   0.701   0.521  15.105  0.4791  0.0339  0.0523
  659TMC3    C6 9754   0.714   0.567  15.225  0.3383  0.0175 -0.0120
  659TMC3     C 9755   0.874   0.205  15.105 -0.3128 -0.6170 -0.6191
  659TMC3     O 9756   0.858   0.178  14.986  0.0857 -0.2304 -0.1965
  659TMC3     H 9757   0.953   0.344  15.338 -1.7854 -1.3340  1.6499
  659TMC3    H1 9758   0.720   0.369  14.969 -0.9140 -0.1836 -0.2294
  659TMC3    H2 9759   0.651   0.651  15.253 -2.1889 -2.1242  0.7842
  659TMC3    C7 9760   0.578   0.567  15.046  0.0139 -0.3989  0.0195
  659TMC3    C8 9761   0.837   0.589  15.424 -0.1259 -0.4588 -0.5324
  659TMC3    O1 9762   0.548   0.683  15.057 -0.2578 -0.3918  0.1251
  659TMC3    O2 9763   0.817   0.706  15.421 -0.8748 -0.1823 -0.1546
  660MPD2     C 9764   4.412   3.801  12.260 -0.3307  0.0274 -0.9916
  660MPD2    C1 9765   4.294   3.778  12.323 -0.5645 -0.4306  0.3939
  660MPD2    C2 9766   4.294   3.680  12.423  0.8463 -0.1317  0.1625
  660MPD2    C3 9767   4.409   3.612  12.462 -0.2787  0.5312  0.0918
  660MPD2    C4 9768   4.527   3.649  12.408 -0.1699  0.1558 -1.0056
  660MPD2    C5 9769   4.527   3.734  12.298  0.2284 -1.1199  0.0353
  660MPD2     H 9770   4.199   3.661  12.470  0.7815  0.4999  0.2897
  660MPD2    H1 9771   4.618   3.598  12.437  0.6619  1.7141 -0.8896
  660MPD2    H2 9772   4.421   3.871  12.178 -0.7593 -1.2141 -2.0977
  660MPD2    H3 9773   4.626   3.752  12.259  0.4696 -1.0698  0.6752
  660MPD2     N 9774   4.412   3.505  12.555 -0.2039  0.4629  0.3801
  660MPD2    H5 9775   4.499   3.480  12.602 -0.0797  1.4582  0.6635
  660MPD2    N1 9776   4.176   3.847  12.277  0.0197  0.2283 -0.0790
  660MPD2    H7 9777   4.188   3.899  12.191 -2.8920  1.6892  0.3978
  661TMC3    C1 9778   3.951   3.898  12.240 -0.0870  0.3628  0.1890
  661TMC3    C2 9779   3.985   3.889  12.107  0.5652  0.2244  0.2060
  661TMC3    C3 9780   3.876   3.890  12.021  0.3692 -0.3660  0.0049
  661TMC3    C4 9781   3.822   3.874  12.282 -0.7301 -0.6013 -0.0091
  661TMC3    C5 9782   3.723   3.843  12.197 -0.1970 -0.0055 -1.0367
  661TMC3    C6 9783   3.743   3.863  12.057  0.2411  0.2818  0.1474
  661TMC3     C 9784   4.047   3.834  12.329 -0.2632 -1.0012  0.4465
  661TMC3     O 9785   4.007   3.775  12.435 -0.3068  0.1893  0.3040
  661TMC3     H 9786   4.079   3.926  12.069 -0.2958  1.9206 -0.3099
  661TMC3    H1 9787   3.790   3.872  12.386  1.0185 -1.7320  0.5061
  661TMC3    H2 9788   3.662   3.864  11.985  0.3771 -0.1569 -0.0121
  661TMC3    C7 9789   3.597   3.787  12.244  0.2330  0.4887 -0.4920
  661TMC3    C8 9790   3.909   3.924  11.891 -0.3013  0.0461  0.4529
  661TMC3    O1 9791   3.601   3.747  12.363  0.2350 -0.3830 -0.1063
  661TMC3    O2 9792   4.026   3.917  11.860 -0.2918 -0.4538 -0.0097
  662MPD2     C 9793   4.302   3.921  17.167 -0.7474 -0.1676 -0.3297
  662MPD2    C1 9794   4.283   3.935  17.303  0.0656  0.3174 -0.6710
  662MPD2    C2 9795   4.234   4.051  17.352  0.4381  0.0789  0.6997
  662MPD2    C3 9796   4.196   4.147  17.265 -0.0496 -0.3013 -0.9183
  662MPD2    C4 9797   4.196   4.125  17.134  0.2366  0.2869  0.4168
  662MPD2    C5 9798   4.248   4.011  17.082 -0.1084 -0.8464 -0.4165
  662MPD2     H 9799   4.223   4.053  17.459 -1.9063  0.7864  0.4490
  662MPD2    H1 9800   4.147   4.189  17.062  1.5487  0.4593 -0.3246
  662MPD2    H2 9801   4.346   3.831  17.126 -0.5090 -1.3129  2.4389
  662MPD2    H3 9802   4.239   3.985  16.977  2.1159  0.0410 -0.8306
  662MPD2     N 9803   4.126   4.264  17.307 -0.0754 -0.9194 -0.4452
  662MPD2    H5 9804   4.067   4.308  17.236 -2.9538 -1.8081  1.4043
  662MPD2    N1 9805   4.299   3.832  17.401  0.1269 -0.4128 -0.0889
  662MPD2    H7 9806   4.274   3.853  17.497 -2.0427 -0.2261 -0.7091
  663TMC3    C1 9807   4.259   3.612  17.472 -0.7153 -0.3021  0.9451
  663TMC3    C2 9808   4.203   3.657  17.589  0.6034  0.3878  0.5726
  663TMC3    C3 9809   4.133   3.564  17.661  0.8042 -0.1774 -0.1363
  663TMC3    C4 9810   4.251   3.482  17.427 -1.1793  0.0199  1.0047
  663TMC3    C5 9811   4.184   3.393  17.507 -1.0004  0.1499  0.5728
  663TMC3    C6 9812   4.112   3.436  17.616  0.3336 -0.2420 -0.3378
  663TMC3     C 9813   4.332   3.698  17.382  0.0930 -0.4391  0.5836
  663TMC3     O 9814   4.376   3.653  17.278 -0.3189 -0.1434 -0.0604
  663TMC3     H 9815   4.187   3.763  17.605  1.3517  0.4288  1.0453
  663TMC3    H1 9816   4.298   3.455  17.333 -1.2977 -0.7347  1.1689
  663TMC3    H2 9817   4.067   3.363  17.682 -2.6995 -0.2871 -2.4550
  663TMC3    C7 9818   4.220   3.255  17.484 -0.2385  0.3182  0.2588
  663TMC3    C8 9819   4.016   3.614   0.018 -0.0291 -0.3804 -1.0666
  663TMC3    O1 9820   4.319   3.236  17.420  0.3358 -0.2079 -0.0609
  663TMC3    O2 9821   3.926   3.534   0.036  0.6032 -0.5463  0.0080
  664MPD2     C 9822   2.726   2.186  17.647 -0.3242 -0.9642 -0.7367
  664MPD2    C1 9823   2.734   2.327  17.657  0.2564 -0.8254  0.1754
  664MPD2    C2 9824   2.671   2.390   0.055  0.4248  0.8388  0.3580
  664MPD2    C3 9825   2.597   2.312   0.149 -0.1905 -0.7554 -0.2010
  664MPD2    C4 9826   2.576   2.182   0.122  0.5120 -0.3818 -0.2211
  664MPD2    C5 9827   2.640   2.118   0.019  1.4041 -0.2961 -0.6398
  664MPD2     H 9828   2.685   2.496   0.072 -3.2667  1.6119 -1.5157
  664MPD2    H1 9829   2.519   2.122   0.191 -1.6766  1.4431 -0.4165
  664MPD2    H2 9830   2.779   2.137  17.566  1.0252 -1.7489  0.6235
  664MPD2    H3 9831   2.641   2.009   0.018  0.4985 -0.3050 -0.7373
  664MPD2     N 9832   2.552   2.374   0.267 -0.6574 -0.2155  0.1405
  664MPD2    H5 9833   2.607   2.457   0.283 -1.4580  0.4654 -0.6656
  664MPD2    N1 9834   2.808   2.408  17.574 -0.1636 -0.4880  0.1312
  664MPD2    H7 9835   2.810   2.506  17.600 -0.6812 -0.2388 -0.7461
  665TMC3    C1 9836   2.485   2.401   0.497 -0.2278  0.8688  0.9275
  665TMC3    C2 9837   2.458   2.339   0.616  0.1649  0.1755  0.2205
  665TMC3    C3 9838   2.456   2.418   0.730 -0.5604 -0.4562 -0.0239
  665TMC3    C4 9839   2.516   2.540   0.488  0.4943  0.5418 -0.0936
  665TMC3    C5 9840   2.508   2.611   0.604 -0.9781  0.8175  0.2325
  665TMC3    C6 9841   2.492   2.552   0.730 -0.2054 -1.1796  0.3893
  665TMC3     C 9842   2.491   2.312   0.376 -0.3201  0.0387  0.0636
  665TMC3     O 9843   2.458   2.196   0.391  0.0175 -0.2077 -0.0828
  665TMC3     H 9844   2.427   2.235   0.623  2.2954 -0.4414  0.4181
  665TMC3    H1 9845   2.555   2.588   0.398  0.7660  0.5059  0.0053
  665TMC3    H2 9846   2.480   2.598   0.827  1.0313 -0.8562  0.3908
  665TMC3    C7 9847   2.508   2.752   0.595  0.2460 -0.2469  0.3609
  665TMC3    C8 9848   2.445   2.349   0.852 -0.0721  0.6644 -0.0972
  665TMC3    O1 9849   2.496   2.805   0.489  0.4227 -0.2527  0.1447
  665TMC3    O2 9850   2.401   2.407   0.949 -0.4798  0.3148  0.5234
  666TMC3    C1 9851   1.461   1.219  10.269 -0.0837  0.0756 -0.2308
  666TMC3    C2 9852   1.561   1.147  10.331  0.3912  0.1395  0.4606
  666TMC3    C3 9853   1.690   1.201  10.345  0.1883  0.2485 -0.1254
  666TMC3    C4 9854   1.483   1.335  10.209  0.3310 -0.1962  0.3236
  666TMC3    C5 9855   1.611   1.380  10.213 -0.5236 -0.8665 -0.2324
  666TMC3    C6 9856   1.714   1.316  10.275 -0.6996 -0.0336  1.0662
  666TMC3     C 9857   1.326   1.162  10.257  0.3956 -0.7472  0.1961
  666TMC3     O 9858   1.277   1.080  10.336 -0.0949  0.9416  0.3565
  666TMC3     H 9859   1.533   1.047  10.360  0.4303  0.0780  0.2869
  666TMC3    H1 9860   1.404   1.396  10.169  1.2254 -0.3275 -1.6245
  666TMC3    H2 9861   1.808   1.366  10.296 -0.5998  0.5808 -0.7971
  666TMC3    C7 9862   1.641   1.508  10.148  0.0261  0.3323 -0.2292
  666TMC3    C8 9863   1.774   1.168  10.462  0.8091  0.2465  0.1043
  666TMC3    O1 9864   1.756   1.544  10.115  0.0563 -0.7050  0.1414
  666TMC3    O2 9865   1.711   1.120  10.552 -0.3756 -0.1617 -0.0913
  667MPD2     C 9866   2.851   2.107  14.496 -0.5272  0.0560  0.2936
  667MPD2    C1 9867   2.879   1.998  14.573 -0.1673 -0.1197  0.4029
  667MPD2    C2 9868   2.835   1.879  14.534  0.6811 -0.6522  0.4197
  667MPD2    C3 9869   2.734   1.867  14.441  0.0655 -0.1517 -0.2084
  667MPD2    C4 9870   2.696   1.981  14.374 -0.0064 -0.2448  0.0654
  667MPD2    C5 9871   2.757   2.100  14.395 -1.1097 -0.6578 -0.8851
  667MPD2     H 9872   2.868   1.792  14.590  2.4657 -0.8893 -0.9818
  667MPD2    H1 9873   2.615   1.987  14.302 -1.5230  1.1821  1.8898
  667MPD2    H2 9874   2.900   2.203  14.506 -0.5418  0.3495 -2.2686
  667MPD2    H3 9875   2.723   2.187  14.340 -0.5737  0.8289  1.1809
  667MPD2     N 9876   2.685   1.738  14.413 -0.1539  0.2148  0.0736
  667MPD2    H5 9877   2.718   1.669  14.481  1.5424 -1.4935 -2.4793
  667MPD2    N1 9878   2.962   2.000  14.685  0.4613  0.5356  0.1830
  667MPD2    H7 9879   2.970   1.915  14.740  1.2720  1.9150  2.2208
  668TMC3    C1 9880   3.107   2.082  14.851  0.0733 -0.4232 -0.2088
  668TMC3    C2 9881   3.205   2.174  14.882 -0.0254  0.2897 -0.0631
  668TMC3    C3 9882   3.259   2.171  15.007 -0.4513  0.0424 -0.0599
  668TMC3    C4 9883   3.056   1.989  14.940  0.6919 -0.4519 -0.6188
  668TMC3    C5 9884   3.108   2.007  15.069 -0.4078 -0.2604  0.4006
  668TMC3    C6 9885   3.211   2.087  15.093 -0.5684 -0.4343  0.6062
  668TMC3     C 9886   3.035   2.111  14.731 -0.8112  0.2376 -0.4290
  668TMC3     O 9887   3.039   2.222  14.681 -0.1907  0.0664 -0.2038
  668TMC3     H 9888   3.254   2.224  14.799  1.5838 -0.1629  0.6004
  668TMC3    H1 9889   2.963   1.942  14.912  0.3167 -0.5163  0.7396
  668TMC3    H2 9890   3.249   2.092  15.194  0.4821  2.3763  0.0821
  668TMC3    C7 9891   3.116   1.892  15.156 -0.0919  0.4556  0.1912
  668TMC3    C8 9892   3.345   2.276  15.032 -0.0110 -0.5043 -0.3614
  668TMC3    O1 9893   3.137   1.919  15.275  0.6979 -0.5550 -0.9507
  668TMC3    O2 9894   3.375   2.340  14.933  0.2100 -0.6338  0.1862
  669TMC3    C1 9895   1.745   1.705  14.597 -0.2818 -0.0092  0.1933
  669TMC3    C2 9896   1.626   1.714  14.528 -0.2502  0.2246  0.4558
  669TMC3    C3 9897   1.626   1.800  14.416  0.4690  0.1423  0.0187
  669TMC3    C4 9898   1.844   1.793  14.583  0.2272 -0.1124 -0.2664
  669TMC3    C5 9899   1.844   1.881  14.476  0.1430 -0.2143  0.1794
  669TMC3    C6 9900   1.735   1.877  14.385  0.5683 -0.4813  0.0716
  669TMC3     C 9901   1.761   1.583  14.673  0.0055  0.2740 -0.1605
  669TMC3     O 9902   1.661   1.511  14.673  0.5914 -0.3536 -0.5377
  669TMC3     H 9903   1.538   1.664  14.568  0.0659 -1.9974 -1.6547
  669TMC3    H1 9904   1.922   1.789  14.658 -1.5201  2.1470  1.6840
  669TMC3    H2 9905   1.730   1.949  14.304 -0.5689  0.8616  1.3580
  669TMC3    C7 9906   1.960   1.966  14.439 -0.7286  0.1049 -0.2796
  669TMC3    C8 9907   1.502   1.801  14.341 -0.3238 -0.3039  0.1324
  669TMC3    O1 9908   1.941   2.048  14.352  0.6989 -0.0892  0.1290
  669TMC3    O2 9909   1.426   1.707  14.363  0.0733 -0.0372 -0.2119
  670MPD2     C 9910   3.851   4.121  13.630 -0.4121 -0.3073 -0.4457
  670MPD2    C1 9911   3.970   4.171  13.677  0.2907 -0.3026  0.4212
  670MPD2    C2 9912   4.011   4.134  13.802 -0.7001 -0.3056  1.1515
  670MPD2    C3 9913   3.933   4.073  13.892 -0.1136  0.1226  0.7006
  670MPD2    C4 9914   3.810   4.031  13.847 -0.7971  0.5047  0.8051
  670MPD2    C5 9915   3.775   4.052  13.714 -0.5101 -0.4503  0.4487
  670MPD2     H 9916   4.113   4.162  13.826 -0.2705 -0.9578  0.1048
  670MPD2    H1 9917   3.738   3.975  13.906 -0.7503  0.0911  0.4677
  670MPD2    H2 9918   3.821   4.144  13.528 -0.7159  0.9598 -0.0738
  670MPD2    H3 9919   3.678   4.012  13.684 -0.7215 -0.6515  1.4131
  670MPD2     N 9920   3.976   4.043  14.021 -0.4323 -0.0212 -0.8248
  670MPD2    H5 9921   4.073   4.060  14.045 -0.4689  1.3295 -1.6621
  670MPD2    N1 9922   4.066   4.235  13.599  0.3035  0.5820  0.1890
  670MPD2    H7 9923   4.149   4.266  13.649  1.9776  0.0767 -2.2839
  671TMC3    C1 9924   3.977   3.954  14.233  0.0477 -0.9708  0.4367
  671TMC3    C2 9925   4.111   3.913  14.227 -0.5304  0.2361 -0.7014
  671TMC3    C3 9926   4.169   3.860  14.338  0.2068  0.0218  0.5774
  671TMC3    C4 9927   3.909   3.955  14.355 -0.2464  0.6188 -0.3186
  671TMC3    C5 9928   3.979   3.908  14.468  0.1329 -0.3324 -0.4407
  671TMC3    C6 9929   4.107   3.851  14.454  0.1265 -0.4185 -0.6657
  671TMC3     C 9930   3.901   3.988  14.116 -0.2178  0.3999  0.4317
  671TMC3     O 9931   3.780   3.969  14.130 -0.1474  0.2772  0.2097
  671TMC3     H 9932   4.161   3.911  14.131  0.1321  0.3622 -0.3610
  671TMC3    H1 9933   3.803   3.977  14.361 -0.4115  0.0072 -1.0316
  671TMC3    H2 9934   4.149   3.806  14.544 -1.8415 -1.3626 -0.2174
  671TMC3    C7 9935   3.879   3.828  14.532  0.1115  0.0270 -0.4998
  671TMC3    C8 9936   4.295   3.799  14.325 -0.3893 -0.4544  0.2483
  671TMC3    O1 9937   3.784   3.884  14.594  0.0903 -0.5449  0.0611
  671TMC3    O2 9938   4.316   3.738  14.221  0.2877 -0.4128  0.6000
  672MPD2     C 9939   4.544   4.535   1.078  0.1837 -1.0906  0.4336
  672MPD2    C1 9940   4.511   4.662   1.031  0.1927 -0.2370 -0.0642
  672MPD2    C2 9941   4.463   0.032   1.113  0.3826  0.4970  0.3073
  672MPD2    C3 9942   4.466   0.015   1.248 -0.1981 -0.3617 -0.4364
  672MPD2    C4 9943   4.511   4.619   1.291  0.1554  0.0069  0.2077
  672MPD2    C5 9944   4.552   4.511   1.211  0.2167  0.0868 -0.0786
  672MPD2     H 9945   4.430   0.127   1.071 -1.5899 -1.9101 -3.4969
  672MPD2    H1 9946   4.505   4.597   1.397  1.8181 -0.8415  0.1395
  672MPD2    H2 9947   4.566   4.459   1.004 -1.1766 -1.6451  0.6043
  672MPD2    H3 9948   4.585   4.417   1.253  0.9454 -0.1238 -1.1128
  672MPD2     N 9949   4.432   0.109   1.345 -0.2891  0.4576  0.0754
  672MPD2    H5 9950   4.433   0.099   1.446 -1.4325 -0.0607  0.0378
  672MPD2    N1 9951   4.507   4.700   0.895 -0.0160 -0.1499  0.7416
  672MPD2    H7 9952   4.464   0.060   0.870 -2.5052 -1.3688  0.8010
  673TMC3    C1 9953   4.558   4.709   0.676  0.2938 -0.5936  0.6097
  673TMC3    C2 9954   4.676   0.042   0.640 -0.5608 -0.1338  0.4893
  673TMC3    C3 9955   4.664   0.147   0.548  0.2016 -0.2628 -0.2473
  673TMC3    C4 9956   4.434   0.029   0.638  0.5576  0.1741  0.6179
  673TMC3    C5 9957   4.428   0.136   0.548 -0.5718  0.4314  0.1071
  673TMC3    C6 9958   4.543   0.193   0.501 -0.0272  0.2328  0.1757
  673TMC3     C 9959   4.565   4.634   0.794  0.1391 -0.3653  0.7673
  673TMC3     O 9960   4.640   4.537   0.801  0.5330  0.3856  0.5734
  673TMC3     H 9961   0.045   4.728   0.665  0.0091 -0.0674 -1.5988
  673TMC3    H1 9962   4.342   4.718   0.680 -0.2561  0.6915 -0.7338
  673TMC3    H2 9963   4.542   0.270   0.424  3.3959 -0.0442 -0.1479
  673TMC3    C7 9964   4.307   0.206   0.536  0.2722  0.6405  0.3058
  673TMC3    C8 9965   0.057   0.231   0.523 -0.6723  0.0996  0.9448
  673TMC3    O1 9966   4.209   0.135   0.551 -0.1626 -0.1396  0.2429
  673TMC3    O2 9967   0.085   0.266   0.408  0.5005 -0.4466 -0.0335
  674MPD2     C 9968   4.290   0.748   0.070 -0.2537 -0.3716 -0.3879
  674MPD2    C1 9969   4.299   0.614   0.114 -0.0999  0.5406 -0.9681
  674MPD2    C2 9970   4.200   0.552   0.192  0.3414  0.1480  0.9834
  674MPD2    C3 9971   4.079   0.624   0.204 -0.1595 -0.6599  0.7470
  674MPD2    C4 9972   4.066   0.748   0.142  1.1018  0.1195 -0.4079
  674MPD2    C5 9973   4.174   0.807   0.092 -0.0237 -0.5820 -0.1566
  674MPD2     H 9974   4.205   0.448   0.220 -1.3801  0.2548  1.6930
  674MPD2    H1 9975   3.976   0.809   0.147 -0.0123 -1.4500 -1.2423
  674MPD2    H2 9976   4.374   0.796   0.021  0.4332 -0.2304  0.9501
  674MPD2    H3 9977   4.164   0.908   0.053  1.0597 -0.3887  0.0843
  674MPD2     N 9978   3.968   0.558   0.263 -0.7954  0.3405  0.4129
  674MPD2    H5 9979   3.967   0.459   0.286 -0.3684  0.8758  2.7671
  674MPD2    N1 9980   4.416   0.549   0.086  1.2078 -0.2123  0.3764
  674MPD2    H7 9981   4.489   0.609   0.049  1.1995 -1.5527 -1.8272
  675TMC3    C1 9982   4.575   0.377   0.054  0.0572 -0.3473 -0.5561
  675TMC3    C2 9983   4.593   0.243   0.069  0.0995  0.5591  0.1545
  675TMC3    C3 9984   4.722   0.201   0.095 -0.0523 -0.7681 -0.2899
  675TMC3    C4 9985   4.674   0.458   0.090 -0.1803  0.3329  0.5195
  675TMC3    C5 9986   0.073   0.407   0.113  0.4255 -0.1717  0.1887
  675TMC3    C6 9987   0.101   0.279   0.114 -0.6468  0.2820  0.1387
  675TMC3     C 9988   4.436   0.413   0.074  0.1245  0.3615 -1.1361
  675TMC3     O 9989   4.356   0.325   0.052  0.2910  0.3594 -0.7624
  675TMC3     H 9990   4.518   0.164   0.072  0.4494  0.1885 -1.0194
  675TMC3    H1 9991   4.656   0.565   0.098 -1.6647  0.1324 -0.0749
  675TMC3    H2 9992   0.203   0.247   0.135 -1.0852 -1.6323 -0.6397
  675TMC3    C7 9993   0.187   0.496   0.137 -0.0947 -0.3937  0.7770
  675TMC3    C8 9994   0.005   0.066   0.128  0.0234  0.1047 -0.3081
  675TMC3    O1 9995   0.302   0.449   0.131  0.0354 -0.0905  0.0201
  675TMC3    O2 9996   4.649   4.717   0.071  0.3416  0.5851  0.0294
  676MPD2     C 9997   1.889   2.731  11.059  0.0528 -0.0198  0.2682
  676MPD2    C1 9998   1.850   2.658  11.169  0.5525 -0.2102  0.5051
  676MPD2    C2 9999   1.886   2.529  11.168 -0.0173 -0.2151  0.2172
  676MPD2    C310000   1.965   2.471  11.069  0.9919 -0.3830  0.2247
  676MPD2    C410001   1.999   2.544  10.956  0.1475  0.4771  0.3098
  676MPD2    C510002   1.956   2.675  10.951 -0.3982  0.1755  0.1237
  676MPD2     H10003   1.869   2.471  11.258 -1.2125 -1.2860 -0.6929
  676MPD2    H110004   2.073   2.504  10.887  0.3663  1.1123  0.1688
  676MPD2    H210005   1.862   2.836  11.045  0.5434  0.2655  1.4798
  676MPD2    H310006   1.991   2.735  10.867  1.9206 -2.5062 -0.8043
  676MPD2     N10007   2.016   2.339  11.079 -0.3520 -0.2389 -0.5180
  676MPD2    H510008   2.069   2.304  11.000  1.0152 -1.0535  0.7663
  676MPD2    N110009   1.774   2.707  11.274  0.0097 -0.0127  0.8322
  676MPD2    H710010   1.748   2.639  11.344  0.0433 -0.7270  0.1406
  677TMC3    C110011   1.690   2.862  11.435  0.0746  0.4086 -0.9565
  677TMC3    C210012   1.584   2.780  11.472 -0.5367 -0.0926  0.6415
  677TMC3    C310013   1.518   2.797  11.591 -0.3436  0.4692  0.7600
  677TMC3    C410014   1.717   2.974  11.518 -0.2967 -0.4816 -0.2914
  677TMC3    C510015   1.661   2.979  11.640  0.6012 -0.0952  0.1804
  677TMC3    C610016   1.560   2.896  11.672 -0.1374  0.0450 -0.1496
  677TMC3     C10017   1.766   2.842  11.311  0.4361 -0.0542 -0.3699
  677TMC3     O10018   1.827   2.940  11.275  0.1382  0.2767 -0.6572
  677TMC3     H10019   1.536   2.702  11.415 -1.0163  0.8521 -0.2355
  677TMC3    H110020   1.800   3.040  11.495 -1.8390  0.9065 -1.9215
  677TMC3    H210021   1.518   2.886  11.771 -1.2046 -0.2844 -0.6385
  677TMC3    C710022   1.687   3.080  11.737  0.1987  0.0088  0.7278
  677TMC3    C810023   1.433   2.681  11.635  0.1383 -0.0595 -0.9619
  677TMC3    O110024   1.611   3.084  11.833 -0.0124 -0.2841  0.0522
  677TMC3    O210025   1.348   2.632  11.561  0.0903  0.4576  0.4835
  678MPD2     C10026   3.616   3.545   1.601  0.4526  0.3234 -0.3574
  678MPD2    C110027   3.665   3.467   1.493  0.0287 -0.5540 -0.8043
  678MPD2    C210028   3.577   3.395   1.416  0.7786 -0.5030  0.6052
  678MPD2    C310029   3.435   3.406   1.437  1.1024 -0.6173  0.3846
  678MPD2    C410030   3.390   3.487   1.541  1.3481  0.0663 -0.4166
  678MPD2    C510031   3.482   3.553   1.618  0.7679  0.0426 -0.7006
  678MPD2     H10032   3.612   3.324   1.343 -3.2551 -0.7388 -1.1033
  678MPD2    H110033   3.287   3.518   1.552  2.3809  3.2523  0.0443
  678MPD2    H210034   3.688   3.578   1.675  1.3850 -0.7266 -0.7956
  678MPD2    H310035   3.439   3.601   1.705  0.1800 -0.7971 -0.5273
  678MPD2     N10036   3.340   3.345   1.342  0.0675  0.4368  0.3202
  678MPD2    H510037   3.374   3.283   1.269  2.9359  1.1933  1.0532
  678MPD2    N110038   3.798   3.458   1.454 -0.0030 -0.4048  0.2584
  678MPD2    H710039   3.824   3.394   1.379  2.7422 -0.7266  1.4902
  679TMC3    C110040   4.192   3.405   1.356  0.2556 -0.2255  0.4804
  679TMC3    C210041   4.067   3.416   1.405 -0.2284  0.4506  1.0341
  679TMC3    C310042   4.027   3.537   1.448  0.3563 -0.3390  0.5546
  679TMC3    C410043   4.265   3.513   1.313 -0.8684 -0.1627  0.0075
  679TMC3    C510044   4.209   3.638   1.340  0.0502 -0.2467  0.0438
  679TMC3    C610045   4.096   3.649   1.416 -0.7281 -0.7865  0.4312
  679TMC3     C10046   4.241   3.269   1.351 -1.1787 -0.1011 -0.1477
  679TMC3     O10047   4.158   3.177   1.344  0.1752  0.4690  0.7362
  679TMC3     H10048   4.010   3.332   1.443 -1.0548  0.2252 -0.7119
  679TMC3    H110049   4.363   3.512   1.266 -1.3714 -0.0804 -1.0518
  679TMC3    H210050   4.054   3.744   1.448 -0.4541  0.1560 -2.0122
  679TMC3    C710051   4.267   3.763   1.284 -0.8327 -0.5916 -0.3599
  679TMC3    C810052   3.896   3.546   1.506 -0.2071 -0.6228  0.1679
  679TMC3    O110053   4.358   3.751   1.204  0.2861 -0.1234  0.4815
  679TMC3    O210054   3.872   3.651   1.564  0.2020  0.4829  0.9551
  680MPD2     C10055   3.782   1.447  13.733  0.2465 -0.3692 -0.0070
  680MPD2    C110056   3.882   1.409  13.825  0.2333 -0.3727  0.0302
  680MPD2    C210057   3.992   1.491  13.842 -0.1026 -0.2169  0.7178
  680MPD2    C310058   4.008   1.611  13.772 -0.3040  0.2312 -0.1782
  680MPD2    C410059   3.912   1.644  13.679  1.2019  0.4836  0.5673
  680MPD2    C510060   3.793   1.573  13.679 -0.4605  0.2314  0.0446
  680MPD2     H10061   4.070   1.455  13.909  0.4534  0.5749  0.4825
  680MPD2    H110062   3.924   1.738  13.626  0.7962  0.3892  0.3077
  680MPD2    H210063   3.691   1.392  13.714  0.7102 -0.9591 -0.4974
  680MPD2    H310064   3.719   1.602  13.606 -0.7179 -0.3766  0.0651
  680MPD2     N10065   4.113   1.697  13.785 -0.1337 -0.6110 -0.5960
  680MPD2    H510066   4.127   1.771  13.717  0.6175 -0.0923  0.1077
  680MPD2    N110067   3.888   1.274  13.875  0.0234  0.2752 -0.0366
  680MPD2    H710068   3.972   1.257  13.929 -0.0295  0.2817  0.0480
  681TMC3    C110069   3.836   1.040  13.891 -0.0336  0.3177 -0.7919
  681TMC3    C210070   3.930   1.032  13.988 -0.7427 -0.4413  0.2257
  681TMC3    C310071   3.942   0.906  14.047  0.2341 -0.4077 -0.1743
  681TMC3    C410072   3.765   0.941  13.833 -0.5593 -0.0366 -0.0768
  681TMC3    C510073   3.794   0.820  13.879 -0.4302 -0.2899 -1.0184
  681TMC3    C610074   3.874   0.798  13.988  0.7713  0.2480  0.3276
  681TMC3     C10075   3.818   1.169  13.825 -0.1093 -0.3978  0.2451
  681TMC3     O10076   3.712   1.166  13.763  0.5844  0.0190 -0.2961
  681TMC3     H10077   3.993   1.115  14.019 -0.3411 -0.4673 -0.5238
  681TMC3    H110078   3.694   0.951  13.751  0.5970 -1.9492 -1.3185
  681TMC3    H210079   3.906   0.699  14.017 -0.5349 -0.1028  0.5623
  681TMC3    C710080   3.775   0.708  13.788 -0.1821 -0.0468 -0.5368
  681TMC3    C810081   4.061   0.877  14.127 -1.1342  0.3903  0.2073
  681TMC3    O110082   3.740   0.597  13.823 -0.1062 -0.0138 -0.0056
  681TMC3    O210083   4.085   0.761  14.138 -0.2403  0.3119 -0.2911
  682MPD2     C10084   1.171   2.413  10.750  0.0098 -0.8281 -0.7212
  682MPD2    C110085   1.151   2.274  10.719  0.1660 -0.0605  0.7036
  682MPD2    C210086   1.158   2.186  10.824 -0.3213  0.6347 -0.1613
  682MPD2    C310087   1.194   2.218  10.953  0.4265 -0.6521 -0.2277
  682MPD2    C410088   1.221   2.354  10.982 -0.6972 -0.4229  0.2256
  682MPD2    C510089   1.208   2.444  10.877 -0.2355  1.0271  0.0845
  682MPD2     H10090   1.145   2.082  10.795  1.7732  1.0558 -2.6431
  682MPD2    H110091   1.233   2.392  11.083  0.2799  0.4216 -0.2062
  682MPD2    H210092   1.159   2.488  10.673  1.0451 -0.2253 -0.3011
  682MPD2    H310093   1.210   2.550  10.900 -0.0508  0.8506  0.8944
  682MPD2     N10094   1.212   2.134  11.064 -0.3845 -0.4837  0.2597
  682MPD2    H510095   1.229   2.181  11.152  1.2430 -1.9959  0.7487
  682MPD2    N110096   1.113   2.231  10.589  0.3696 -0.2010 -0.1822
  682MPD2    H710097   1.077   2.136  10.583  0.5035 -0.2006 -0.9020
  683TMC3    C110098   1.159   1.981  11.432 -0.0135  0.0286 -0.4012
  683TMC3    C210099   1.194   1.850  11.464  0.3007  0.2311 -0.8279
  683TMC3    C310100   1.230   1.773  11.355 -0.2194  0.4180 -0.8521
  683TMC3    C410101   1.160   2.026  11.302 -0.2659 -0.3277  0.0378
  683TMC3    C510102   1.194   1.944  11.198 -0.4504 -0.3546  0.4159
  683TMC3    C610103   1.220   1.809  11.221 -0.4405 -0.1875  0.0086
  683TMC3     C10104   1.151   2.086  11.535 -0.3995  0.4604 -0.3169
  683TMC3     O10105   1.160   2.199  11.500 -0.5884  0.5133 -0.1014
  683TMC3     H10106   1.215   1.812  11.563  1.4966  1.6188 -0.5557
  683TMC3    H110107   1.129   2.128  11.287 -1.0573 -0.2387  2.1637
  683TMC3    H210108   1.240   1.751  11.132 -1.5869  0.0546 -0.4057
  683TMC3    C710109   1.182   2.000  11.065 -0.1188 -0.5705  0.2815
  683TMC3    C810110   1.254   1.627  11.376  0.1064  0.4178  0.1871
  683TMC3    O110111   1.166   1.931  10.965 -0.5235  0.5449 -0.4646
  683TMC3    O210112   1.212   1.543  11.298  0.4192  0.8064 -0.4753
  684MPD2     C10113   0.019   2.439  15.922  0.3393 -0.1192 -0.8697
  684MPD2    C110114   4.611   2.438  15.946  0.8330 -0.1066 -0.3764
  684MPD2    C210115   4.561   2.524  16.042 -0.9375  0.6209 -0.2189
  684MPD2    C310116   4.648   2.612  16.112  0.0851 -0.2972 -0.4001
  684MPD2    C410117   0.056   2.600  16.101  0.7157 -0.2710 -0.3116
  684MPD2    C510118   0.105   2.526  15.991  0.5138  0.0977  0.4857
  684MPD2     H10119   4.455   2.523  16.063 -0.8560 -0.7548  0.1049
  684MPD2    H110120   0.129   2.648  16.165 -0.2766  1.3606 -0.3935
  684MPD2    H210121   0.060   2.377  15.844 -0.9704 -3.0334  0.7780
  684MPD2    H310122   0.210   2.525  15.963  0.2863  0.0445 -0.3819
  684MPD2     N10123   4.602   2.711  16.207 -0.4762 -0.6286 -0.4317
  684MPD2    H510124   4.674   2.773  16.240 -0.8229 -1.7475  2.4566
  684MPD2    N110125   4.528   2.345  15.883 -0.1393  0.5968  0.1505
  684MPD2    H710126   4.432   2.341  15.917 -0.7019  2.0205 -1.2929
  685TMC3    C110127   4.472   2.142  15.774  0.2127 -0.9195  0.0524
  685TMC3    C210128   4.339   2.158  15.782 -0.0407  0.3685  0.0987
  685TMC3    C310129   4.264   2.045  15.801 -0.1337  0.9820 -0.1514
  685TMC3    C410130   4.531   2.013  15.761  0.1085 -0.0259  0.5156
  685TMC3    C510131   4.450   1.902  15.776  0.6121 -0.9408 -0.5029
  685TMC3    C610132   4.317   1.915  15.792 -0.4123  0.2300 -0.2771
  685TMC3     C10133   4.563   2.255  15.780  0.1754 -0.3211 -0.1808
  685TMC3     O10134   4.663   2.244  15.715  0.5662 -0.3109 -0.4375
  685TMC3     H10135   4.298   2.259  15.788 -1.0384 -0.2251  3.3320
  685TMC3    H110136   4.636   2.011  15.735 -0.8629 -0.9342 -3.2608
  685TMC3    H210137   4.260   1.825  15.811 -0.4741 -0.1907 -2.4289
  685TMC3    C710138   4.506   1.786  15.846  0.2876 -0.6196  0.0956
  685TMC3    C810139   4.136   2.045  15.746  0.1959 -0.3413  0.5705
  685TMC3    O110140   4.430   1.695  15.873  0.0785  0.3008  0.5294
  685TMC3    O210141   4.092   1.943  15.694 -0.3352 -0.0556 -0.2084
  686MPD2     C10142   1.232   1.945  15.189  0.1035  0.1050  0.1706
  686MPD2    C110143   1.272   1.934  15.318 -0.1437 -0.2484  0.8399
  686MPD2    C210144   1.354   1.832  15.351 -0.1908 -0.4886  0.9081
  686MPD2    C310145   1.386   1.737  15.258 -0.3022 -0.0290 -0.6249
  686MPD2    C410146   1.343   1.748  15.129 -0.4083 -0.7323  0.2123
  686MPD2    C510147   1.269   1.855  15.098  0.0684  0.6129 -0.4406
  686MPD2     H10148   1.380   1.814  15.455  1.6093  0.5990  0.6425
  686MPD2    H110149   1.392   1.688  15.053 -1.5938 -0.9637 -0.3694
  686MPD2    H210150   1.165   2.026  15.161 -0.2458 -0.8210 -1.6304
  686MPD2    H310151   1.233   1.868  14.997 -0.8103  0.4779 -0.1462
  686MPD2     N10152   1.456   1.624  15.284  0.4069 -0.0507  0.1009
  686MPD2    H510153   1.483   1.573  15.200 -0.1071  1.1608 -0.8020
  686MPD2    N110154   1.227   2.029  15.410  0.2469 -0.0921  0.1571
  686MPD2    H710155   1.146   2.085  15.384  0.7205  0.3722 -0.2994
  687TMC3    C110156   1.442   1.583  15.521  0.5678 -0.6488  0.1389
  687TMC3    C210157   1.302   1.579  15.531 -0.0456  0.2240 -0.6157
  687TMC3    C310158   1.242   1.608  15.653 -0.2361 -0.0386 -0.3978
  687TMC3    C410159   1.519   1.587  15.635 -0.3931  0.7285 -0.0908
  687TMC3    C510160   1.457   1.617  15.754  0.0751 -0.7927  0.0269
  687TMC3    C610161   1.319   1.629  15.760  0.6071  0.2116  0.1804
  687TMC3     C10162   1.504   1.560  15.395 -0.2856  0.5052 -0.7354
  687TMC3     O10163   1.578   1.467  15.388  0.7140 -0.3327 -0.0498
  687TMC3     H10164   1.246   1.564  15.439 -2.0830 -0.8595  0.8155
  687TMC3    H110165   1.625   1.597  15.617 -0.6113  4.1950  0.5726
  687TMC3    H210166   1.273   1.661  15.853 -0.0912 -0.0194 -0.0865
  687TMC3    C710167   1.532   1.697  15.849  0.1579  0.1757  0.2500
  687TMC3    C810168   1.101   1.623  15.673 -0.0656 -0.1792 -0.5770
  687TMC3    O110169   1.469   1.736  15.947 -0.4370  0.5715  0.3345
  687TMC3    O210170   1.051   1.597  15.783 -0.1860  0.2813  0.8425
  688MPD2     C10171   0.443   1.253  17.362  0.2673  0.4465 -0.6184
  688MPD2    C110172   0.415   1.121  17.362  0.4085 -0.5376  0.1469
  688MPD2    C210173   0.463   1.043  17.259  0.5072 -0.8912 -0.6494
  688MPD2    C310174   0.548   1.099  17.166 -0.1242 -0.0798  0.3920
  688MPD2    C410175   0.559   1.239  17.162 -0.1084  0.3483 -0.4729
  688MPD2    C510176   0.493   1.313  17.253  0.3495  0.1363  0.5384
  688MPD2     H10177   0.439   0.937  17.266  0.3747 -0.9109 -1.3932
  688MPD2    H110178   0.602   1.292  17.078 -0.8941 -0.7118 -1.5554
  688MPD2    H210179   0.402   1.315  17.441  0.7536 -1.9100  1.5007
  688MPD2    H310180   0.504   1.420  17.240 -2.6169  0.4465  0.5415
  688MPD2     N10181   0.614   1.027  17.064  0.1557  0.1374 -0.1620
  688MPD2    H510182   0.660   1.093  17.003 -3.4923  0.1668 -2.8464
  688MPD2    N110183   0.332   1.062  17.460  1.1370  0.3791 -0.2445
  688MPD2    H710184   0.289   0.972  17.438  2.6232 -0.8716  2.0106
  689TMC3    C110185   0.168   1.057  17.639 -0.1021 -0.7051  0.6126
  689TMC3    C210186   0.110   1.125   0.027  0.4320  0.0032 -0.7580
  689TMC3    C310187   0.017   1.055   0.105 -0.9480  0.1715 -0.2205
  689TMC3    C410188   0.149   0.926  17.606 -0.2591  0.5314 -0.1831
  689TMC3    C510189   0.053   0.861  17.683  0.6216 -0.1743 -0.6288
  689TMC3    C610190   4.704   0.930   0.069  0.0294 -0.6050  0.4130
  689TMC3     C10191   0.285   1.125  17.583  0.3609  0.1101  0.5247
  689TMC3     O10192   0.317   1.227  17.641 -0.0769 -0.2950 -0.5452
  689TMC3     H10193   0.141   1.225   0.052 -0.2965 -0.2633  1.1991
  689TMC3    H110194   0.199   0.876  17.524 -3.4038 -1.8070 -0.6482
  689TMC3    H210195   4.629   0.875   0.125 -0.3161 -0.9851 -0.4242
  689TMC3    C710196   4.726   0.745  17.628 -0.1795 -0.2948 -0.1755
  689TMC3    C810197   4.699   1.112   0.232  0.8610 -0.9615 -0.6172
  689TMC3    O110198   4.609   0.723  17.647  0.8049 -0.6982  0.2887
  689TMC3    O210199   4.620   1.044   0.290  0.1327 -0.3582  0.1790
  690MPD2     C10200   2.351   3.011  15.848 -0.8056  0.2076 -0.6765
  690MPD2    C110201   2.355   2.951  15.723  0.0777  0.2009 -0.1577
  690MPD2    C210202   2.443   3.001  15.632 -0.4450 -0.1885 -0.6289
  690MPD2    C310203   2.528   3.106  15.664  0.0451  0.3117 -0.3331
  690MPD2    C410204   2.527   3.160  15.789 -0.4223 -0.2588 -0.5580
  690MPD2    C510205   2.432   3.121  15.881  0.7140  0.6339 -0.2228
  690MPD2     H10206   2.454   2.946  15.540  1.0347  1.1391 -1.2581
  690MPD2    H110207   2.598   3.226  15.837 -1.2598  0.3687 -0.1676
  690MPD2    H210208   2.304   2.954  15.927  0.2858 -0.1840 -0.2990
  690MPD2    H310209   2.429   3.163  15.981  0.5112 -1.0891  0.4903
  690MPD2     N10210   2.621   3.150  15.554  0.1186  0.4655 -0.0823
  690MPD2    H510211   2.611   3.106  15.463  0.0526  0.7287 -0.2002
  690MPD2    N110212   2.286   2.832  15.695  0.7079 -0.2422  0.3397
  690MPD2    H710213   2.290   2.811  15.596 -2.1783 -1.8930  0.5611
  691TMC3    C110214   2.129   2.653  15.710  0.6396  0.0732  0.2786
  691TMC3    C210215   2.020   2.604  15.775 -0.2841  0.5194 -0.0072
  691TMC3    C310216   1.990   2.473  15.747 -0.1158 -0.3696  0.2499
  691TMC3    C410217   2.204   2.583  15.616 -0.6930 -0.3072 -0.3330
  691TMC3    C510218   2.157   2.459  15.580  0.0579 -0.6605  0.1971
  691TMC3    C610219   2.050   2.399  15.645  0.5155 -0.3877  0.2265
  691TMC3     C10220   2.189   2.772  15.773 -0.0415  0.1669 -0.1415
  691TMC3     O10221   2.143   2.811  15.877 -0.2575 -0.0257  0.0553
  691TMC3     H10222   1.966   2.660  15.849  0.6104 -0.4282  1.3609
  691TMC3    H110223   2.300   2.617  15.580 -0.0039 -2.7482 -0.8316
  691TMC3    H210224   2.015   2.298  15.625 -0.5996  0.0432 -0.0374
  691TMC3    C710225   2.256   2.371  15.521 -0.2179  0.3684 -1.1052
  691TMC3    C810226   1.871   2.412  15.807 -0.2535 -0.1806  0.7280
  691TMC3    O110227   2.374   2.377  15.553  0.7972  0.1282  0.5399
  691TMC3    O210228   1.866   2.289  15.805  0.1697 -0.1039  0.1160
  692TMC3    C110229   3.966   4.050  16.125 -0.2268 -0.4320  0.1402
  692TMC3    C210230   4.095   4.078  16.156 -0.6581  0.6231 -0.0333
  692TMC3    C310231   4.190   3.984  16.130  0.1058 -0.6342  0.5594
  692TMC3    C410232   3.922   3.927  16.086  0.1016  0.0180 -0.3387
  692TMC3    C510233   4.018   3.836  16.067 -0.2129 -0.1829  0.2624
  692TMC3    C610234   4.150   3.864  16.089  0.1965  0.3535 -0.1527
  692TMC3     C10235   3.863   4.138  16.173  0.5391  0.3564  0.4334
  692TMC3     O10236   3.753   4.084  16.185 -0.2159  0.0075  0.0782
  692TMC3     H10237   4.132   4.180  16.147 -1.3586  0.6978 -2.1443
  692TMC3    H110238   3.820   3.896  16.100 -0.6772  2.6635 -0.0295
  692TMC3    H210239   4.227   3.797  16.051 -0.3722 -0.1109 -0.5007
  692TMC3    C710240   3.980   3.700  16.039  0.1335 -0.7011  0.2574
  692TMC3    C810241   4.259   3.954  16.249  0.3320 -0.4138  0.3066
  692TMC3    O110242   3.868   3.680  15.986  0.0076 -0.4880  0.2222
  692TMC3    O210243   4.272   3.834  16.265 -0.0204  0.1147  0.1093
  693MPD2     C10244   3.237   1.838  10.873  0.1617 -0.2084 -0.1901
  693MPD2    C110245   3.171   1.763  10.780  0.1931 -0.0324  0.4034
  693MPD2    C210246   3.230   1.658  10.715  0.4721  0.0908  0.3321
  693MPD2    C310247   3.350   1.607  10.756 -0.6969  0.6034  0.4926
  693MPD2    C410248   3.419   1.680  10.846 -0.8095  0.6490 -0.2923
  693MPD2    C510249   3.370   1.797  10.903 -0.7388 -0.4685  0.0835
  693MPD2     H10250   3.166   1.596  10.652  0.1484  0.6561  0.1069
  693MPD2    H110251   3.521   1.648  10.866 -1.5449 -0.1182  2.2633
  693MPD2    H210252   3.199   1.929  10.917 -1.6889 -0.0463 -2.1337
  693MPD2    H310253   3.437   1.855  10.965 -1.7137  1.6711 -0.8280
  693MPD2     N10254   3.402   1.479  10.716 -0.5011 -0.2122 -0.0811
  693MPD2    H510255   3.490   1.444  10.752  0.5211  1.9349 -0.5371
  693MPD2    N110256   3.038   1.785  10.780  0.0016 -0.0553  0.3405
  693MPD2    H710257   3.002   1.852  10.847 -0.9667  0.0004 -0.2458
  694TMC3    C110258   2.844   1.665  10.829 -1.3164  0.6704 -0.1047
  694TMC3    C210259   2.751   1.584  10.785  0.6429 -0.2813  0.0861
  694TMC3    C310260   2.715   1.474  10.853  0.1979  0.0532 -0.1413
  694TMC3    C410261   2.896   1.645  10.959 -0.5738  0.4899  0.0548
  694TMC3    C510262   2.848   1.542  11.035  0.8371  1.1495 -0.3135
  694TMC3    C610263   2.755   1.452  10.982  0.6488  0.1050  0.0270
  694TMC3     C10264   2.944   1.704  10.727  0.0360 -0.1681  0.2944
  694TMC3     O10265   2.947   1.643  10.622  0.1418  0.2509 -0.0879
  694TMC3     H10266   2.698   1.610  10.693 -2.5599  1.9994  2.5976
  694TMC3    H110267   2.974   1.709  10.998 -0.5640  0.2164  0.4963
  694TMC3    H210268   2.700   1.377  11.037 -4.2553  3.5562 -0.1491
  694TMC3    C710269   2.871   1.564  11.177  0.4671 -0.1510 -0.0302
  694TMC3    C810270   2.628   1.379  10.791 -0.7104 -0.0372 -0.0631
  694TMC3    O110271   2.894   1.676  11.216  0.2217  0.0498  0.5201
  694TMC3    O210272   2.582   1.289  10.862  0.1554 -0.0501  0.5537
  695MPD2     C10273   4.398   3.277  13.572 -0.2615  0.8658  0.5118
  695MPD2    C110274   4.377   3.243  13.705 -0.4872  0.6091 -0.5275
  695MPD2    C210275   4.250   3.222  13.752  0.1356  0.1448 -0.2881
  695MPD2    C310276   4.138   3.249  13.672  0.0244 -0.5769  0.1486
  695MPD2    C410277   4.159   3.280  13.538  0.0824 -0.5366  0.0686
  695MPD2    C510278   4.290   3.293  13.490  0.2863  0.3518 -0.5616
  695MPD2     H10279   4.243   3.192  13.856  0.7349 -0.8445 -0.5294
  695MPD2    H110280   4.076   3.303  13.472  0.4911 -1.9643 -0.9618
  695MPD2    H210281   4.495   3.299  13.529 -0.5605 -0.9669 -1.0958
  695MPD2    H310282   4.308   3.305  13.383 -0.7410  0.0814 -0.7678
  695MPD2     N10283   4.013   3.238  13.734 -0.3399  0.4461 -0.4551
  695MPD2    H510284   4.005   3.238  13.835 -2.3818  1.3195 -0.6302
  695MPD2    N110285   4.486   3.232  13.801  0.5839 -0.0387  0.0116
  695MPD2    H710286   4.470   3.185  13.890 -1.0943  0.7629  0.1182
  696TMC3    C110287   3.773   3.288  13.751  0.7626 -0.5281 -0.2987
  696TMC3    C210288   3.778   3.278  13.887 -0.5204  0.4367  0.0657
  696TMC3    C310289   3.682   3.332  13.965  0.1221  0.7594 -0.5661
  696TMC3    C410290   3.665   3.351  13.694  0.4338 -0.5116 -0.1198
  696TMC3    C510291   3.581   3.419  13.772  0.6535 -0.1994  0.4546
  696TMC3    C610292   3.586   3.416  13.904 -0.2945  0.7388  0.1599
  696TMC3     C10293   3.891   3.252  13.666 -0.6342  0.5129  0.0804
  696TMC3     O10294   3.866   3.255  13.545  0.1095  0.0405 -0.3220
  696TMC3     H10295   3.855   3.217  13.932 -0.7765 -1.3812 -1.9679
  696TMC3    H110296   3.658   3.367  13.586  1.8525  3.7982  0.3942
  696TMC3    H210297   3.512   3.467  13.965 -1.1998 -1.3794  0.8339
  696TMC3    C710298   3.499   3.523  13.706  0.4959 -0.9554 -0.5326
  696TMC3    C810299   3.727   3.374  14.092  0.5671 -0.0761  0.0151
  696TMC3    O110300   3.460   3.498  13.595 -0.1209  0.0269  0.3741
  696TMC3    O210301   3.849   3.380  14.109 -0.0834 -0.7519  0.0188
  697MPD2     C10302   3.520   0.976  15.836 -0.3283  0.1491 -0.5512
  697MPD2    C110303   3.547   0.894  15.722  0.0037 -0.2357  0.4100
  697MPD2    C210304   3.583   0.968  15.601 -0.2802  0.1581  0.1476
  697MPD2    C310305   3.585   1.108  15.602 -0.1334 -0.5573 -0.1334
  697MPD2    C410306   3.554   1.182  15.715 -0.3718  0.2864  0.1282
  697MPD2    C510307   3.513   1.114  15.829  0.7979  0.4451 -0.6750
  697MPD2     H10308   3.587   0.901  15.517  1.8353  1.1313 -0.5404
  697MPD2    H110309   3.563   1.290  15.717  1.3455  0.1199  1.7110
  697MPD2    H210310   3.495   0.930  15.931  1.8993 -0.7366 -0.3983
  697MPD2    H310311   3.486   1.169  15.919  0.6384  1.0449 -1.0892
  697MPD2     N10312   3.638   1.160  15.481  0.7929 -0.0348  0.3265
  697MPD2    H510313   3.665   1.099  15.404  0.4019  0.2066 -0.0017
  697MPD2    N110314   3.522   0.758  15.723  0.0574 -0.6821 -0.2405
  697MPD2    H710315   3.520   0.717  15.630 -2.1063  0.9577 -0.9104
  698TMC3    C110316   3.751   1.315  15.351  0.1609  1.0936 -0.5074
  698TMC3    C210317   3.862   1.392  15.376 -0.3516 -0.1227 -0.9123
  698TMC3    C310318   3.977   1.363  15.307 -0.0615 -0.3214  0.5190
  698TMC3    C410319   3.747   1.219  15.249  0.2526  0.0732 -0.1690
  698TMC3    C510320   3.867   1.198  15.187  0.1351 -0.5314  0.0620
  698TMC3    C610321   3.983   1.262  15.216  0.2174 -0.1847  0.0002
  698TMC3     C10322   3.664   1.289  15.458  0.4654  0.1139  0.0533
  698TMC3     O10323   3.619   1.390  15.511 -0.5500 -0.2852  0.1452
  698TMC3     H10324   3.859   1.447  15.469 -0.3338 -0.1960 -0.8691
  698TMC3    H110325   3.654   1.174  15.218  0.2978 -0.2587  0.1813
  698TMC3    H210326   4.078   1.210  15.215  0.7752  0.8508 -0.2900
  698TMC3    C710327   3.862   1.105  15.081  0.3344 -0.1601 -0.0787
  698TMC3    C810328   4.096   1.431  15.359  0.6354 -0.3445  0.2269
  698TMC3    O110329   3.758   1.055  15.057 -0.3343  0.7777 -0.4616
  698TMC3    O210330   4.084   1.497  15.461 -0.6172  0.0414 -0.4465
  699TMC3    C110331   4.314   3.330  12.679 -0.5510  0.0168  0.1039
  699TMC3    C210332   4.417   3.341  12.772 -0.0550 -0.1016 -0.4654
  699TMC3    C310333   4.392   3.271  12.884  0.7902  0.3950 -0.0442
  699TMC3    C410334   4.212   3.243  12.694 -0.1071 -0.2774  0.2086
  699TMC3    C510335   4.187   3.185  12.815 -0.0832 -0.4334 -0.2224
  699TMC3    C610336   4.286   3.188  12.903  0.3276  0.3854 -0.3592
  699TMC3     C10337   4.299   3.428  12.573  0.1722  0.2321 -0.4398
  699TMC3     O10338   4.202   3.429  12.497 -0.1098  0.2571  0.3722
  699TMC3     H10339   4.514   3.388  12.759 -0.7191  1.2625 -0.5029
  699TMC3    H110340   4.137   3.240  12.615  0.2224  2.9636 -0.2298
  699TMC3    H210341   4.279   3.127  12.993  2.9911  0.9204  0.2073
  699TMC3    C710342   4.103   3.068  12.825 -0.3223 -0.4135 -0.1310
  699TMC3    C810343   4.509   3.267  12.975  0.6761 -0.0047 -0.1208
  699TMC3    O110344   4.167   2.975  12.870  0.6391  0.0562  0.0622
  699TMC3    O210345   4.606   3.338  12.958  0.2002 -0.2331 -0.0799
  700TMC3    C110346   2.591   1.524  17.219 -0.4448 -0.0960 -0.7899
  700TMC3    C210347   2.694   1.456  17.163 -0.2224  0.1746  0.2048
  700TMC3    C310348   2.754   1.368  17.247  0.4577  0.1713 -0.1384
  700TMC3    C410349   2.559   1.526  17.352 -0.2443  0.3444 -0.1416
  700TMC3    C510350   2.636   1.438  17.430 -0.0448  0.1726  0.0798
  700TMC3    C610351   2.732   1.352  17.381  0.0597  0.5389 -0.0993
  700TMC3     C10352   2.538   1.640  17.156 -0.3462  0.0389  0.3816
  700TMC3     O10353   2.419   1.663  17.176 -0.0187 -0.8903 -0.2327
  700TMC3     H10354   2.720   1.471  17.059 -2.3440  3.7070  0.1727
  700TMC3    H110355   2.475   1.585  17.385 -0.7019  0.6680 -1.8676
  700TMC3    H210356   2.796   1.296  17.448  0.2758  0.8745 -0.0252
  700TMC3    C710357   2.665   1.482  17.564  0.2288  0.2579  0.5231
  700TMC3    C810358   2.855   1.279  17.191  0.2521 -0.0704 -0.0921
  700TMC3    O110359   2.781   1.482  17.589 -0.7588  0.7139 -0.2922
  700TMC3    O210360   2.932   1.323  17.108  0.0131 -0.4309 -0.5988
  701TMC3    C110361   2.814   0.010  15.432  0.2450 -0.4546 -0.2861
  701TMC3    C210362   2.731   0.023  15.320 -0.0707 -0.3228  0.3335
  701TMC3    C310363   2.730   0.147  15.261  0.3516 -0.6832  0.0011
  701TMC3    C410364   2.876   0.109  15.494 -0.4932  0.6261  0.3435
  701TMC3    C510365   2.868   0.233  15.429 -0.5296 -1.1478 -0.5373
  701TMC3    C610366   2.791   0.250  15.317  0.0495 -0.1643  0.1399
  701TMC3     C10367   2.812   4.616  15.506 -0.2741 -0.8424  0.1596
  701TMC3     O10368   2.846   4.622  15.624  0.0370  0.0971 -0.2048
  701TMC3     H10369   2.678   4.666  15.278 -0.1135 -0.3735  0.4908
  701TMC3    H110370   2.934   0.095  15.585 -0.7920 -0.0925  0.4281
  701TMC3    H210371   2.787   0.348  15.271  0.8011  0.2326  0.9153
  701TMC3    C710372   2.918   0.357  15.492 -1.1766  0.0206  0.3132
  701TMC3    C810373   2.660   0.171  15.134  0.3117  0.2279  0.0065
  701TMC3    O110374   2.902   0.457  15.426 -0.4082  0.1871 -0.1406
  701TMC3    O210375   2.671   0.285  15.082 -0.3266 -0.5135 -0.2270
  702MPD2     C10376   2.523   1.986  10.723  0.1430  0.2792 -0.2655
  702MPD2    C110377   2.426   2.080  10.759 -0.1913  0.0778 -1.0717
  702MPD2    C210378   2.393   2.187  10.684  0.1421  0.6347  0.1529
  702MPD2    C310379   2.472   2.213  10.576  0.4974  0.7457 -0.0500
  702MPD2    C410380   2.568   2.127  10.535  0.3578 -0.2215 -0.2310
  702MPD2    C510381   2.580   2.015  10.606 -0.3033  0.3131  0.8011
  702MPD2     H10382   2.310   2.252  10.707 -0.4994  0.0757 -0.5878
  702MPD2    H110383   2.634   2.157  10.455  0.8648 -2.1605 -0.5382
  702MPD2    H210384   2.544   1.900  10.785 -1.7916 -0.0687 -0.1017
  702MPD2    H310385   2.649   1.948  10.556  0.4641  0.5825  1.5062
  702MPD2     N10386   2.451   2.330  10.503 -0.1378  0.0714  0.0098
  702MPD2    H510387   2.501   2.336  10.415  0.4700 -0.7063  0.3075
  702MPD2    N110388   2.343   2.073  10.875  0.1540  0.1600  0.1857
  702MPD2    H710389   2.262   2.134  10.881  0.1829  0.2332 -0.1993
  703TMC3    C110390   2.359   2.531  10.422  0.1109 -0.0907 -0.6343
  703TMC3    C210391   2.250   2.607  10.426  0.2368 -0.0002  0.5439
  703TMC3    C310392   2.258   2.734  10.379 -0.7724  0.3681  0.7593
  703TMC3    C410393   2.477   2.574  10.356 -0.2022 -0.3626 -0.3238
  703TMC3    C510394   2.479   2.697  10.293  0.0767 -0.3523 -0.3361
  703TMC3    C610395   2.364   2.773  10.295 -0.7843  0.2924 -0.1388
  703TMC3     C10396   2.359   2.429  10.526 -0.6823  0.2476  0.4776
  703TMC3     O10397   2.272   2.449  10.610 -0.5182  0.0264 -0.0743
  703TMC3     H10398   2.159   2.576  10.477 -0.7499 -1.5251 -2.0996
  703TMC3    H110399   2.567   2.514  10.353  2.5145  3.5032  4.0582
  703TMC3    H210400   2.363   2.876  10.262 -2.6311  0.9223  1.9039
  703TMC3    C710401   2.607   2.748  10.252 -0.0268  0.0742 -0.5871
  703TMC3    C810402   2.171   2.836  10.430 -0.0721 -0.5992  0.2279
  703TMC3    O110403   2.705   2.674  10.256  0.2790 -0.1789  0.1865
  703TMC3    O210404   2.203   2.955  10.402  0.3791  0.4219 -0.2964
  704TMC3    C110405   4.249   0.254  12.334 -0.4806  0.1261  0.3931
  704TMC3    C210406   4.370   0.327  12.337 -0.4739  0.0683 -0.5216
  704TMC3    C310407   4.407   0.377  12.459  1.4834 -0.8348  0.3930
  704TMC3    C410408   4.162   0.262  12.440 -0.2217 -0.8801  0.2252
  704TMC3    C510409   4.202   0.320  12.558 -0.1992 -0.7515 -0.1227
  704TMC3    C610410   4.321   0.381  12.570 -0.1934  0.2874  0.3067
  704TMC3     C10411   4.259   0.120  12.291  0.2737  0.4152  0.0278
  704TMC3     O10412   4.187   0.036  12.346  0.0854 -0.1413 -0.2596
  704TMC3     H10413   4.444   0.311  12.260  0.3854 -2.1047  0.7521
  704TMC3    H110414   4.073   0.200  12.432 -0.5776  0.1540 -3.5894
  704TMC3    H210415   4.346   0.431  12.662 -0.1064  0.3955  0.2249
  704TMC3    C710416   4.176   0.213  12.650  0.6423 -0.3705 -0.5286
  704TMC3    C810417   4.547   0.405  12.481 -0.4785  0.5779 -0.0760
  704TMC3    O110418   4.070   0.162  12.654  0.2798 -0.7628 -0.3890
  704TMC3    O210419   4.626   0.325  12.434  0.2319  0.3363  0.2750
  705MPD2     C10420   4.427   3.392  16.794 -0.2813 -0.1792  0.2660
  705MPD2    C110421   4.395   3.508  16.722  0.2886 -0.4028 -0.2366
  705MPD2    C210422   4.278   3.580  16.748  0.5465  0.2562  0.2691
  705MPD2    C310423   4.184   3.526  16.834 -0.3273 -0.1714  0.2704
  705MPD2    C410424   4.219   3.400  16.893 -0.0371  0.2786  0.2111
  705MPD2    C510425   4.339   3.339  16.885 -0.4056  0.1923 -0.2526
  705MPD2     H10426   4.271   3.681  16.708 -0.1849  0.8918  2.0071
  705MPD2    H110427   4.150   3.363  16.968 -0.9829  0.5007 -0.5482
  705MPD2    H210428   4.517   3.333  16.784  0.4432  0.8457  0.7929
  705MPD2    H310429   4.360   3.244  16.933 -3.9541  0.3287  1.5475
  705MPD2     N10430   4.063   3.595  16.873 -0.0428 -0.0004  0.0880
  705MPD2    H510431   4.002   3.540  16.933 -1.9883  2.7535  0.6268
  705MPD2    N110432   4.487   3.561  16.631 -0.5519  0.0945 -0.7207
  705MPD2    H710433   4.493   3.661  16.617 -3.8355  0.2959 -0.6618
  706TMC3    C110434   0.042   3.482  16.289 -0.5495  0.4621  0.0799
  706TMC3    C210435   4.727   3.593  16.219 -0.8212  0.3892  0.2628
  706TMC3    C310436   4.658   3.684  16.299  0.9377 -0.1296 -0.1504
  706TMC3    C410437   0.019   3.469  16.423  1.0974  0.3564  0.2421
  706TMC3    C510438   4.681   3.566  16.491 -0.2781 -0.7249 -0.0820
  706TMC3    C610439   4.632   3.679  16.434  0.5001 -1.3125  0.1470
  706TMC3     C10440   0.117   3.373  16.227 -0.8521 -0.8488 -0.4862
  706TMC3     O10441   0.175   3.300  16.306 -0.3198  0.7270  0.4317
  706TMC3     H10442   0.032   3.619  16.119  0.6366 -0.5214  0.4991
  706TMC3    H110443   0.054   3.388  16.485  0.2986 -1.7578 -2.0947
  706TMC3    H210444   4.570   3.747  16.491  1.7074  0.3022 -0.4673
  706TMC3    C710445   4.590   3.491  16.576  0.2482  0.2479  0.0879
  706TMC3    C810446   4.641   3.819  16.240  0.6198 -0.2535 -0.4679
  706TMC3    O110447   4.598   3.369  16.573  0.0737 -1.0901 -0.4316
  706TMC3    O210448   4.617   3.825  16.120 -0.3032 -0.1560 -0.0685
  707TMC3    C110449   1.209   2.701   1.564 -0.0529 -0.0058  0.4433
  707TMC3    C210450   1.239   2.564   1.587  0.1662 -0.0584  0.0359
  707TMC3    C310451   1.140   2.470   1.586 -0.0661  1.1041 -0.0694
  707TMC3    C410452   1.082   2.743   1.565  0.3076  0.3833  0.4837
  707TMC3    C510453   0.986   2.634   1.551  0.5542 -0.0968 -0.2370
  707TMC3    C610454   1.011   2.498   1.583  1.0427 -0.1491  0.0614
  707TMC3     C10455   1.316   2.795   1.574 -0.4979  0.4902  0.3501
  707TMC3     O10456   1.430   2.745   1.567  0.0819  0.0031 -0.3146
  707TMC3     H10457   1.339   2.524   1.587  0.6402  1.1611  3.5066
  707TMC3    H110458   1.053   2.842   1.531 -2.1953  0.2780  2.3121
  707TMC3    H210459   0.924   2.435   1.597  0.1178  1.1053  0.0030
  707TMC3    C710460   0.851   2.678   1.546  0.4168 -0.7681 -0.4518
  707TMC3    C810461   1.167   2.322   1.559  0.0104  1.2121  0.0555
  707TMC3    O110462   0.818   2.790   1.585  0.2658  0.0364  0.6091
  707TMC3    O210463   1.063   2.256   1.562  0.3076  0.6513 -0.3522
  708MPD2     C10464   3.645   2.157  14.089  0.0194 -0.0162 -0.5149
  708MPD2    C110465   3.532   2.245  14.075 -0.1313 -0.1265 -0.8159
  708MPD2    C210466   3.479   2.303  14.187 -0.5974 -0.0747  0.9981
  708MPD2    C310467   3.534   2.283  14.311  0.6202  0.0033  0.4520
  708MPD2    C410468   3.647   2.205  14.326 -0.6563 -0.3222  0.4510
  708MPD2    C510469   3.699   2.148  14.216 -0.2981 -0.1274 -0.0413
  708MPD2     H10470   3.381   2.347  14.175 -1.7189 -2.4659  1.4686
  708MPD2    H110471   3.688   2.180  14.423 -0.8665 -0.5203  0.4901
  708MPD2    H210472   3.676   2.088  14.012  2.8629  0.2564  0.3623
  708MPD2    H310473   3.787   2.086  14.230  0.1075  0.2699 -0.8466
  708MPD2     N10474   3.483   2.345  14.426 -0.1307 -0.2777  0.5367
  708MPD2    H510475   3.523   2.329  14.518 -0.8918 -0.2252  0.8734
  708MPD2    N110476   3.468   2.261  13.950  0.3035 -0.0493  0.4578
  708MPD2    H710477   3.503   2.209  13.870 -0.2422 -0.3350  0.4012
  709TMC3    C110478   3.314   2.355  13.793  0.3197  0.7588 -0.0101
  709TMC3    C210479   3.327   2.236  13.727  0.0928 -0.5730  0.6459
  709TMC3    C310480   3.220   2.196  13.654 -0.7278 -0.2399 -0.6925
  709TMC3    C410481   3.200   2.436  13.781  0.3096  0.4997  0.2500
  709TMC3    C510482   3.096   2.382  13.708  1.2316  0.5381  0.0893
  709TMC3    C610483   3.106   2.265  13.646  0.8691 -0.4510 -0.1129
  709TMC3     C10484   3.366   2.359  13.922 -0.0332 -0.0590  0.2594
  709TMC3     O10485   3.311   2.443  13.991 -0.3032 -0.0401 -0.3181
  709TMC3     H10486   3.418   2.177  13.722  0.2717 -0.4673  2.5361
  709TMC3    H110487   3.200   2.539  13.815 -2.0653  0.6890 -0.3224
  709TMC3    H210488   3.013   2.238  13.597 -0.1890  2.9620  0.0618
  709TMC3    C710489   2.974   2.379  13.796 -0.0290 -0.0880  0.1232
  709TMC3    C810490   3.233   2.072  13.590 -0.0437 -0.1692 -0.3512
  709TMC3    O110491   2.869   2.328  13.759  0.1906  0.4254  0.5148
  709TMC3    O210492   3.300   1.984  13.645 -0.0366 -0.2063 -0.3194
  710TMC3    C110493   3.948   4.318   0.732  0.7426  0.8087  0.6568
  710TMC3    C210494   3.951   4.264   0.606 -0.1114  0.8944  0.5322
  710TMC3    C310495   4.052   4.177   0.590 -0.1910  0.4346 -0.2712
  710TMC3    C410496   4.030   4.293   0.837 -0.1091 -0.9181 -0.4050
  710TMC3    C510497   4.140   4.221   0.814  0.7190 -0.5160 -0.1421
  710TMC3    C610498   4.147   4.163   0.690 -0.0477  0.6245 -0.4216
  710TMC3     C10499   3.860   4.429   0.739 -0.8232 -0.1133  0.9099
  710TMC3     O10500   3.860   4.511   0.647 -0.3044  0.0921  0.9632
  710TMC3     H10501   3.888   4.293   0.523 -0.2244 -0.4866  0.1318
  710TMC3    H110502   4.015   4.346   0.930  2.7658 -0.2785 -0.3026
  710TMC3    H210503   4.222   4.085   0.676 -2.1563 -1.8391  1.8958
  710TMC3    C710504   4.206   4.148   0.924  0.5230 -0.0418 -0.5875
  710TMC3    C810505   4.061   4.084   0.480 -0.2258 -0.9264  0.2878
  710TMC3    O110506   4.221   4.025   0.909  0.1910 -0.2222  0.3995
  710TMC3    O210507   4.148   4.005   0.462 -0.2345 -0.3449 -0.3653
  711TMC3    C110508   3.220   4.460  15.305 -0.3725  0.9155 -0.7405
  711TMC3    C210509   3.276   4.550  15.389  0.1152  0.3719  0.4159
  711TMC3    C310510   3.418   4.547  15.396  0.0336  0.9269  0.0651
  711TMC3    C410511   3.289   4.362  15.238  0.9555 -0.1352  0.1122
  711TMC3    C510512   3.425   4.368  15.239 -0.1054  0.4896  0.4987
  711TMC3    C610513   3.491   4.465  15.309  0.0619  0.3996  0.2368
  711TMC3     C10514   3.090   4.501  15.250 -0.7482 -0.1367 -0.1101
  711TMC3     O10515   3.071   4.617  15.276  0.0889  0.3254 -0.5221
  711TMC3     H10516   3.213   4.611  15.453  0.2998 -1.1741  2.0662
  711TMC3    H110517   3.238   4.299  15.166 -1.1329  2.5406 -0.7494
  711TMC3    H210518   3.599   4.461  15.306  0.0766  0.4303  0.7205
  711TMC3    C710519   3.496   4.241  15.220  0.1080 -0.5728  0.3178
  711TMC3    C810520   3.457   4.551  15.537  0.0186 -0.4161  0.9241
  711TMC3    O110521   3.604   4.233  15.275  0.2168 -1.1535  0.8382
  711TMC3    O210522   3.370   4.564  15.625 -0.1012 -0.1517  0.2470
  712MPD2     C10523   4.665   0.113  13.247 -0.4304  0.0639 -0.1600
  712MPD2    C110524   4.587   0.226  13.238 -0.0198 -0.2608 -0.6018
  712MPD2    C210525   4.639   0.337  13.306  0.1647 -0.2574  0.8908
  712MPD2    C310526   0.032   0.343  13.374 -0.0902 -0.3409  0.2725
  712MPD2    C410527   0.111   0.225  13.368 -0.2492  0.1987  0.2469
  712MPD2    C510528   0.059   0.114  13.313 -0.2562  0.6731  0.4373
  712MPD2     H10529   4.571   0.421  13.302 -1.1677 -1.3821 -0.0694
  712MPD2    H110530   0.206   0.217  13.421 -0.8972  2.0584  1.6743
  712MPD2    H210531   4.633   0.028  13.187 -0.0096 -0.8303  0.9004
  712MPD2    H310532   0.122   0.025  13.309  0.3463  1.0477  1.7429
  712MPD2     N10533   0.083   0.454  13.441  0.5019 -0.1204 -0.3319
  712MPD2    H510534   0.179   0.447  13.473  1.4049  0.2661 -2.9052
  712MPD2    N110535   4.464   0.227  13.167  0.0011 -0.3705  0.2125
  712MPD2    H710536   4.430   0.322  13.158 -2.0228 -0.8604  2.8073
  713TMC3    C110537   0.096   0.685  13.499  0.1092 -0.1953  0.7702
  713TMC3    C210538   0.176   0.664  13.610  0.2688  0.2154  0.0649
  713TMC3    C310539   0.213   0.771  13.689  0.2309 -0.8075  0.3761
  713TMC3    C410540   0.056   0.808  13.471  0.4407  0.7074 -0.2712
  713TMC3    C510541   0.100   0.918  13.542 -0.4768  0.0124 -0.3451
  713TMC3    C610542   0.176   0.900  13.652 -0.7921 -0.1882  0.0682
  713TMC3     C10543   0.017   0.578  13.447  0.0983 -0.2018  1.4043
  713TMC3     O10544   4.624   0.600  13.435  1.0273 -0.0027 -0.4749
  713TMC3     H10545   0.199   0.570  13.659  0.4996  0.2735  0.0659
  713TMC3    H110546   0.009   0.824  13.375  0.4640 -0.4223 -0.4672
  713TMC3    H210547   0.205   0.979  13.720  0.6129  1.6588 -2.7350
  713TMC3    C710548   0.115   1.041  13.473 -0.0904  0.4196  1.1597
  713TMC3    C810549   0.325   0.752  13.774 -0.1738  0.5248 -0.5540
  713TMC3    O110550   0.217   1.099  13.456 -0.2891 -0.3061  0.4938
  713TMC3    O210551   0.414   0.683  13.719  0.3022 -0.4279  0.0035
  714MPD2     C10552   1.913   4.514   1.735 -0.6957 -0.0013 -0.4807
  714MPD2    C110553   2.008   4.486   1.642 -0.5071  0.4115 -0.2859
  714MPD2    C210554   1.986   4.523   1.508 -0.4974  0.5944 -0.0022
  714MPD2    C310555   1.871   4.593   1.473  0.0591 -0.1864  0.4427
  714MPD2    C410556   1.769   4.612   1.574 -0.2297  0.5300  1.0144
  714MPD2    C510557   1.796   4.577   1.705  0.1863  0.2145 -0.6750
  714MPD2     H10558   2.056   4.496   1.430 -1.6930 -1.0714 -0.4914
  714MPD2    H110559   1.678   4.669   1.564 -0.1233  0.6970  1.0008
  714MPD2    H210560   1.914   4.482   1.838 -0.2212  0.2570 -0.4044
  714MPD2    H310561   1.722   4.588   1.783 -0.3127  0.1844 -1.1433
  714MPD2     N10562   1.857   4.633   1.341 -0.0516 -0.3265  0.0397
  714MPD2    H510563   1.931   4.625   1.272  0.0400 -0.1503  0.1166
  714MPD2    N110564   2.132   4.418   1.680  0.7118  0.2502 -0.6435
  714MPD2    H710565   2.138   4.383   1.775  2.5057 -1.2499 -1.3090
  715TMC3    C110566   2.343   4.313   1.662  0.2213  0.0893  1.0184
  715TMC3    C210567   2.430   4.256   1.576  0.4905 -0.0159  0.6640
  715TMC3    C310568   2.555   4.259   1.624  0.5193  0.3139 -0.3801
  715TMC3    C410569   2.382   4.384   1.773 -0.5761  0.4089  0.0438
  715TMC3    C510570   2.506   4.393   1.812  0.3191 -0.2841 -0.8918
  715TMC3    C610571   2.594   4.320   1.740  0.9927 -0.4579  0.3093
  715TMC3     C10572   2.232   4.374   1.595 -0.4841  0.2643 -0.5966
  715TMC3     O10573   2.246   4.381   1.474  0.1431  0.3992  0.0453
  715TMC3     H10574   2.395   4.225   1.478  0.1059 -1.8339  1.3659
  715TMC3    H110575   2.307   4.423   1.841 -0.3830  0.4036  0.2585
  715TMC3    H210576   2.701   4.318   1.760  1.2412 -0.8727 -1.0364
  715TMC3    C710577   2.552   4.454   1.933  0.2271  0.8909  0.1861
  715TMC3    C810578   2.646   4.201   1.531  0.6304  0.2269 -0.3186
  715TMC3    O110579   2.672   4.431   1.942  0.0716 -0.0075  0.0891
  715TMC3    O210580   2.592   4.124   1.456 -0.4701  0.2092 -0.3061
  716MPD2     C10581   2.288   1.570  10.167  0.0832  0.1078 -0.4424
  716MPD2    C110582   2.292   1.593  10.030  0.0328  0.4415  0.6654
  716MPD2    C210583   2.335   1.490   9.949 -0.5896 -0.1265  0.3615
  716MPD2    C310584   2.375   1.367  10.000  0.5043 -0.0396 -0.2927
  716MPD2    C410585   2.374   1.355  10.138  0.2398  0.6576 -0.2957
  716MPD2    C510586   2.336   1.452  10.225  0.1498 -0.3911  0.0001
  716MPD2     H10587   2.319   1.502   9.842  3.1441  0.5404 -0.1241
  716MPD2    H110588   2.417   1.266  10.183 -0.8303  0.4589  0.3308
  716MPD2    H210589   2.257   1.643  10.241  1.5793 -1.4152  1.7121
  716MPD2    H310590   2.335   1.436  10.332 -1.4419  1.1073  0.2154
  716MPD2     N10591   2.422   1.271   9.911 -0.0703 -0.4833  0.0532
  716MPD2    H510592   2.436   1.298   9.815 -0.4856  1.4802  0.5334
  716MPD2    N110593   2.259   1.729   9.985  0.3584  0.6396 -0.1775
  716MPD2    H710594   2.241   1.800  10.055 -1.8442  0.6513 -0.7626
  717TMC3    C110595   2.466   1.051   9.826 -0.0092  0.1250 -0.1242
  717TMC3    C210596   2.407   1.100   9.712  0.9025 -0.4741 -0.0513
  717TMC3    C310597   2.377   0.998   9.620  0.2107 -0.0692  0.4191
  717TMC3    C410598   2.497   0.918   9.850  0.3416 -0.3258  0.0967
  717TMC3    C510599   2.484   0.832   9.744  0.4712 -0.1292 -0.2621
  717TMC3    C610600   2.403   0.865   9.639  0.1708  0.4232  0.3027
  717TMC3     C10601   2.465   1.144   9.942  0.4133 -0.4484  0.5432
  717TMC3     O10602   2.487   1.092  10.052 -0.6219  0.6073 -0.0703
  717TMC3     H10603   2.374   1.202   9.697  1.6928 -0.0872  0.7886
  717TMC3    H110604   2.544   0.892   9.944  0.5909 -1.5777 -0.3695
  717TMC3    H210605   2.377   0.794   9.561  1.5301  0.3621 -0.1013
  717TMC3    C710606   2.473   0.693   9.776  0.2612 -0.6172 -0.8832
  717TMC3    C810607   2.321   1.044   9.492  0.9863 -0.0603  0.6806
  717TMC3    O110608   2.469   0.666   9.894  0.1681  0.0649  0.1153
  717TMC3    O210609   2.320   1.158   9.461 -0.3050 -0.0840 -0.5387
  718MPD2     C10610   1.516   1.025  13.226  0.0405 -0.1818  0.1158
  718MPD2    C110611   1.519   1.105  13.108  0.0464 -0.2394 -0.5423
  718MPD2    C210612   1.399   1.171  13.063 -0.0240 -0.0108 -0.0151
  718MPD2    C310613   1.280   1.164  13.144 -0.3018 -0.1660  0.1109
  718MPD2    C410614   1.281   1.088  13.259  0.2728  0.4283  0.0405
  718MPD2    C510615   1.397   1.022  13.302 -0.6242  0.4115 -0.0692
  718MPD2     H10616   1.398   1.236  12.976  2.3400  0.0813  0.0471
  718MPD2    H110617   1.189   1.079  13.315  1.5554  0.7522  2.2356
  718MPD2    H210618   1.599   0.972  13.272  0.7067 -0.4410 -1.3769
  718MPD2    H310619   1.401   0.970  13.397 -1.5060  0.6149  0.0822
  718MPD2     N10620   1.168   1.244  13.110 -0.0896  0.0450 -0.2872
  718MPD2    H510621   1.085   1.217  13.162  0.6996  0.0138  0.9502
  718MPD2    N110622   1.633   1.113  13.021  0.1118 -0.3428 -0.4955
  718MPD2    H710623   1.631   1.166  12.935  2.2854 -2.0305 -1.5846
  719TMC3    C110624   1.830   1.058  12.904  0.0696 -0.3478 -0.3517
  719TMC3    C210625   1.736   1.060  12.803  0.1974 -0.4063  0.6656
  719TMC3    C310626   1.743   1.139  12.697 -0.1908  0.6611  0.3161
  719TMC3    C410627   1.930   1.149  12.900  0.3431  0.2413  0.3280
  719TMC3    C510628   1.942   1.238  12.797 -0.2765  0.8156  0.3342
  719TMC3    C610629   1.850   1.233  12.700 -0.1639 -0.2736 -0.8153
  719TMC3     C10630   1.749   1.044  13.029 -0.1401 -0.9598 -0.0801
  719TMC3     O10631   1.790   0.977  13.115  0.4991 -0.3396  0.1537
  719TMC3     H10632   1.649   0.995  12.814 -0.0981 -0.2895 -0.9132
  719TMC3    H110633   2.006   1.136  12.976 -0.9501 -0.0177  1.5858
  719TMC3    H210634   1.854   1.312  12.625 -1.0129  0.3763 -0.1809
  719TMC3    C710635   2.073   1.268  12.732  0.2059  0.1733  0.1482
  719TMC3    C810636   1.613   1.197  12.666  0.4282  0.4099 -0.4942
  719TMC3    O110637   2.071   1.328  12.625 -0.6296  0.2867 -0.5864
  719TMC3    O210638   1.531   1.184  12.760  0.6113 -0.0655 -0.3340
  720MPD2     C10639   0.871   2.679  13.441 -0.4946 -0.3180 -0.2673
  720MPD2    C110640   0.782   2.637  13.536 -0.9486 -0.5174 -0.1078
  720MPD2    C210641   0.833   2.604  13.664  0.6430  0.0965  0.0853
  720MPD2    C310642   0.972   2.605  13.692  0.1143 -0.4671  0.4282
  720MPD2    C410643   1.059   2.646  13.591  0.2875  0.5450  0.3579
  720MPD2    C510644   1.005   2.681  13.471 -0.0519 -0.4823  0.1611
  720MPD2     H10645   0.760   2.572  13.737  0.8014 -0.9451 -0.2038
  720MPD2    H110646   1.166   2.659  13.603  0.5605 -1.2793 -0.0611
  720MPD2    H210647   0.845   2.706  13.340 -1.5256  0.4092  0.1899
  720MPD2    H310648   1.066   2.722  13.392  0.1748 -0.8259  0.1607
  720MPD2     N10649   1.027   2.566  13.812 -0.1063  0.3123 -0.4645
  720MPD2    H510650   1.128   2.554  13.817 -0.4375 -2.3198 -0.4232
  720MPD2    N110651   0.644   2.612  13.505  0.4706 -0.1695  0.6725
  720MPD2    H710652   0.585   2.582  13.582  0.5352 -0.0771  0.7578
  721TMC3    C110653   1.016   2.479  14.032 -0.4944 -0.1818 -0.4508
  721TMC3    C210654   0.928   2.442  14.138 -0.3891  0.3005 -0.2986
  721TMC3    C310655   0.989   2.381  14.241 -0.6918  0.4013 -0.0690
  721TMC3    C410656   1.148   2.451  14.021 -0.1116  0.0347 -0.6836
  721TMC3    C510657   1.197   2.381  14.127 -0.2978 -0.0196 -0.5763
  721TMC3    C610658   1.121   2.347  14.236 -0.3638 -0.1568 -0.1171
  721TMC3     C10659   0.955   2.538  13.924  0.7388 -0.1654  0.5236
  721TMC3     O10660   0.840   2.568  13.949 -0.1179  0.0449 -0.7256
  721TMC3     H10661   0.829   2.482  14.157  0.2362  1.9685 -0.5877
  721TMC3    H110662   1.214   2.480  13.940 -1.5764  2.4158 -1.0334
  721TMC3    H210663   1.170   2.291  14.314 -1.1079 -0.4436  0.1462
  721TMC3    C710664   1.341   2.361  14.114 -0.5777  0.4600  0.2120
  721TMC3    C810665   0.923   2.368  14.369 -0.5629  0.0563  0.4286
  721TMC3    O110666   1.398   2.374  14.009 -0.0741 -0.0900 -0.1816
  721TMC3    O210667   0.996   2.371  14.469 -0.3902 -0.2386 -0.6656
  722MPD2     C10668   3.656   1.040  13.486 -0.6517  0.1123 -0.2945
  722MPD2    C110669   3.640   1.158  13.416 -0.5118  0.4377  0.4686
  722MPD2    C210670   3.531   1.183  13.332 -0.6425 -0.2122 -0.1623
  722MPD2    C310671   3.424   1.090  13.332 -0.5071  0.0564  0.3073
  722MPD2    C410672   3.436   0.972  13.407  0.0702 -0.2039  0.6121
  722MPD2    C510673   3.551   0.953  13.483 -0.2019 -0.0340 -0.2976
  722MPD2     H10674   3.532   1.268  13.266  1.2120  1.2769  1.8111
  722MPD2    H110675   3.363   0.893  13.408  0.1426 -0.2564  1.9840
  722MPD2    H210676   3.734   1.025  13.559 -0.4653 -0.6853 -0.6585
  722MPD2    H310677   3.544   0.863  13.543  0.2039 -0.9558 -1.6232
  722MPD2     N10678   3.308   1.109  13.248 -0.5408 -0.2310 -0.0335
  722MPD2    H510679   3.310   1.199  13.201 -1.8329  0.0849  0.5480
  722MPD2    N110680   3.742   1.258  13.398 -0.6924 -0.1059 -0.1181
  722MPD2    H710681   3.719   1.337  13.338  0.8677 -0.1520 -0.7783
  723TMC3    C110682   3.112   1.059  13.121  0.4470 -0.2612 -0.0491
  723TMC3    C210683   3.038   0.956  13.058 -0.6451  0.2450  1.1466
  723TMC3    C310684   2.962   0.993  12.951 -0.9110 -0.2927  0.1090
  723TMC3    C410685   3.107   1.190  13.081  0.2589  0.0888 -0.2009
  723TMC3    C510686   3.026   1.212  12.977 -1.2436 -0.1898  0.0004
  723TMC3    C610687   2.949   1.116  12.909 -0.3569  0.0977 -0.5386
  723TMC3     C10688   3.215   1.016  13.208  0.1257  0.8648  0.7180
  723TMC3     O10689   3.213   0.901  13.237  0.0326  0.0428  0.5509
  723TMC3     H10690   3.027   0.860  13.107 -1.5657  0.7770  1.9960
  723TMC3    H110691   3.159   1.270  13.133 -1.8456  1.0184  0.4810
  723TMC3    H210692   2.881   1.133  12.827  1.7278  2.6507 -1.7397
  723TMC3    C710693   3.050   1.333  12.900  0.2086  0.4170  1.0513
  723TMC3    C810694   2.855   0.897  12.903  0.1067 -0.8512  0.2161
  723TMC3    O110695   3.008   1.326  12.783  0.1266  0.9129  0.0727
  723TMC3    O210696   2.753   0.944  12.849  0.4187 -0.7976 -0.0940
  724TMC3    C110697   3.463   3.390  10.005  0.4694  0.2843  0.7996
  724TMC3    C210698   3.425   3.524   9.986  0.2062  0.1085 -0.4067
  724TMC3    C310699   3.514   3.594   9.907  0.2291  0.6511 -0.2584
  724TMC3    C410700   3.580   3.334   9.951  0.0987  0.7507 -0.4934
  724TMC3    C510701   3.656   3.415   9.875  0.0810 -0.2423 -0.4671
  724TMC3    C610702   3.631   3.545   9.855  0.2016  0.1496  0.1072
  724TMC3     C10703   3.452   3.331  10.140  0.5341 -0.1075  1.0715
  724TMC3     O10704   3.543   3.273  10.193  0.4096  0.0752 -0.0649
  724TMC3     H10705   3.359   3.575  10.055  0.4918 -1.0259  0.7014
  724TMC3    H110706   3.594   3.227   9.965 -3.6719  0.2029 -0.7963
  724TMC3    H210707   3.687   3.602   9.782  0.9094 -1.0911 -0.3186
  724TMC3    C710708   3.756   3.371   9.782  0.1237  0.0564  0.2346
  724TMC3    C810709   3.457   3.716   9.851 -0.7119 -0.1003  0.1882
  724TMC3    O110710   3.852   3.441   9.752 -0.3912 -0.0317 -0.4655
  724TMC3    O210711   3.338   3.711   9.827 -0.5962  0.0027  0.1136
  725TMC3    C110712   0.796   3.023  12.764  0.3392 -0.7785  0.4993
  725TMC3    C210713   0.767   2.995  12.637  0.1031 -0.1240  0.3408
  725TMC3    C310714   0.679   2.888  12.621  0.4998  0.7332 -0.0103
  725TMC3    C410715   0.764   2.928  12.868 -0.6599 -0.1849  0.5444
  725TMC3    C510716   0.693   2.814  12.845 -0.4861 -0.1031  0.0696
  725TMC3    C610717   0.643   2.800  12.721  0.0225  0.7767 -0.4566
  725TMC3     C10718   0.905   3.101  12.793  0.1931  0.3523 -0.4204
  725TMC3     O10719   0.898   3.222  12.772 -0.0819 -0.3649  0.3809
  725TMC3     H10720   0.812   3.067  12.570 -1.7431  0.4102 -0.3140
  725TMC3    H110721   0.785   2.960  12.969  1.2615  1.2735 -0.3102
  725TMC3    H210722   0.584   2.711  12.699  1.0407 -0.1254  0.4167
  725TMC3    C710723   0.770   2.696  12.885  0.5750  0.2526  0.3283
  725TMC3    C810724   0.649   2.848  12.483 -0.2485 -0.4389  0.2192
  725TMC3    O110725   0.759   2.592  12.818 -0.0448 -0.1566 -0.9744
  725TMC3    O210726   0.614   2.730  12.471 -0.0355 -0.5354 -0.0054
  726MPD2     C10727   3.429   3.907  10.757  0.4793 -0.0268  0.2645
  726MPD2    C110728   3.396   4.037  10.736 -0.0983  0.9221  0.1824
  726MPD2    C210729   3.274   4.086  10.787  0.2180 -0.6255  0.0012
  726MPD2    C310730   3.198   4.000  10.869 -0.0462  0.2696  0.2854
  726MPD2    C410731   3.244   3.876  10.904  0.7052  0.2220  0.6539
  726MPD2    C510732   3.361   3.828  10.849  0.0989  0.6791 -0.1504
  726MPD2     H10733   3.238   4.180  10.748  2.1703  0.2248  0.2578
  726MPD2    H110734   3.183   3.814  10.968 -4.0707  3.8846 -0.3450
  726MPD2    H210735   3.522   3.860  10.726 -0.3222 -1.6597  0.3549
  726MPD2    H310736   3.405   3.731  10.871  1.4108  2.0255  3.2635
  726MPD2     N10737   3.067   4.033  10.917 -0.7025 -0.3450  0.1889
  726MPD2    H510738   3.024   3.964  10.977  0.4444 -1.6626 -0.4932
  726MPD2    N110739   3.484   4.132  10.670 -0.1904 -0.1673  0.2250
  726MPD2    H710740   3.450   4.225  10.648  1.9646  0.8096  1.0846
  727TMC3    C110741   3.667   4.202  10.551 -0.2598 -0.1014  0.0073
  727TMC3    C210742   3.786   4.254  10.594  0.3090  0.1823 -0.5451
  727TMC3    C310743   3.835   4.371  10.540 -0.1042 -0.3405 -0.3364
  727TMC3    C410744   3.594   4.254  10.446 -0.3354 -0.3739  0.0696
  727TMC3    C510745   3.648   4.367  10.394  0.9817 -1.5906  0.1876
  727TMC3    C610746   3.766   4.425  10.435 -0.7929 -0.3089 -0.5927
  727TMC3     C10747   3.608   4.101  10.632  0.6005 -0.5237 -0.3872
  727TMC3     O10748   3.689   4.017  10.668  0.0453 -0.5910 -0.2091
  727TMC3     H10749   3.832   4.210  10.682  0.7099  0.8054 -0.4414
  727TMC3    H110750   3.494   4.220  10.421  0.2415 -1.4657 -0.7692
  727TMC3    H210751   3.807   4.517  10.395 -0.5240  0.3110  1.1129
  727TMC3    C710752   3.576   4.420  10.280 -0.4994 -0.3737  0.9179
  727TMC3    C810753   3.920   4.458  10.621 -0.2072 -0.1077  0.0606
  727TMC3    O110754   3.522   4.338  10.207  0.5306 -0.0174 -0.0983
  727TMC3    O210755   3.990   4.521  10.551  0.0944 -0.1086  0.1319
  728TMC3    C110756   2.773   3.281  15.425  0.1514 -0.1972  0.6379
  728TMC3    C210757   2.891   3.357  15.429 -0.1147  0.7396 -0.3006
  728TMC3    C310758   2.944   3.403  15.310  0.0016  0.5381 -0.3551
  728TMC3    C410759   2.704   3.250  15.309 -0.3175 -0.0268  1.1368
  728TMC3    C510760   2.759   3.306  15.190  0.0426 -0.1896  0.2252
  728TMC3    C610761   2.871   3.386  15.191 -0.1263  0.3402  0.0700
  728TMC3     C10762   2.714   3.254  15.557 -0.3134 -0.1874  0.2969
  728TMC3     O10763   2.752   3.318  15.653 -0.5383 -0.4721 -0.3946
  728TMC3     H10764   2.931   3.379  15.527 -2.0366  1.5222  0.3025
  728TMC3    H110765   2.607   3.202  15.308 -0.8155  0.9219  3.2312
  728TMC3    H210766   2.922   3.404  15.097  0.5451 -1.3207  0.1066
  728TMC3    C710767   2.676   3.295  15.073  0.3227 -0.5527 -0.2086
  728TMC3    C810768   3.087   3.425  15.291 -0.1354 -0.6417  0.0492
  728TMC3    O110769   2.588   3.208  15.071  0.3458  0.3249 -0.3464
  728TMC3    O210770   3.124   3.498  15.196  0.2924 -0.3210 -0.3679
  729MPD2     C10771   0.376   3.747  16.505  0.3775 -0.0116 -0.0530
  729MPD2    C110772   0.357   3.881  16.514 -0.7638  0.0064 -0.0160
  729MPD2    C210773   0.331   3.939  16.638 -0.1277  0.6741 -0.0302
  729MPD2    C310774   0.320   3.861  16.747 -0.0919  0.3294 -0.3508
  729MPD2    C410775   0.329   3.726  16.735  0.9400 -0.1132  0.2404
  729MPD2    C510776   0.355   3.667  16.617 -0.0373  0.1604 -0.8815
  729MPD2     H10777   0.325   4.047  16.647  2.8924  1.0002 -2.1997
  729MPD2    H110778   0.323   3.664  16.824 -0.0517 -0.9708 -0.4386
  729MPD2    H210779   0.391   3.705  16.405 -0.4109 -0.0539 -0.1544
  729MPD2    H310780   0.359   3.559  16.611  2.0819  0.1701  0.1878
  729MPD2     N10781   0.313   3.912  16.877  0.2454 -0.3521 -0.0553
  729MPD2    H510782   0.318   3.847  16.955 -2.2691 -1.2000 -0.5954
  729MPD2    N110783   0.378   3.964  16.403 -0.4919 -0.4530  0.8258
  729MPD2    H710784   0.407   3.917  16.318  0.2050  1.6161 -0.0929
  730TMC3    C110785   0.306   4.078  17.052 -0.5835  0.1613  0.4310
  730TMC3    C210786   0.426   4.023  17.091 -0.1782  0.4920  0.4187
  730TMC3    C310787   0.512   4.098  17.165 -0.3653  0.4618 -0.1875
  730TMC3    C410788   0.270   4.206  17.081  0.5102  0.4557 -0.2407
  730TMC3    C510789   0.360   4.280  17.146  0.9481  0.2433  0.4668
  730TMC3    C610790   0.478   4.229  17.197 -0.5616 -0.2451 -0.1020
  730TMC3     C10791   0.282   4.038  16.911  1.1618 -1.5237 -0.3522
  730TMC3     O10792   0.255   4.131  16.833  0.7153 -0.1781 -0.2907
  730TMC3     H10793   0.454   3.926  17.051  0.8218  0.1819  1.8836
  730TMC3    H110794   0.174   4.245  17.049 -0.7843  0.7266  3.9561
  730TMC3    H210795   0.544   4.287  17.260 -2.1089 -1.6117  2.8487
  730TMC3    C710796   0.333   4.423  17.134 -0.6651  0.3733  0.8855
  730TMC3    C810797   0.647   4.095  17.103 -0.0968  0.7171  0.3285
  730TMC3    O110798   0.265   4.467  17.038 -0.2381 -0.3084 -0.7216
  730TMC3    O210799   0.676   3.993  17.041 -0.0338  0.0619  0.6339
  731MPD2     C10800   0.159   1.707  12.420  0.5073 -0.5160 -0.2067
  731MPD2    C110801   0.287   1.661  12.434  0.3085  0.3166 -0.0701
  731MPD2    C210802   0.335   1.620  12.560 -0.0708  0.4628 -0.1519
  731MPD2    C310803   0.261   1.632  12.673  0.3474  0.5139  0.3348
  731MPD2    C410804   0.143   1.689  12.658  0.3664  0.1420 -0.3329
  731MPD2    C510805   0.087   1.720  12.537  0.0793 -0.0210 -0.2165
  731MPD2     H10806   0.434   1.575  12.566  0.6339  2.0761  0.2921
  731MPD2    H110807   0.073   1.697  12.741  1.3596  0.1141  0.5049
  731MPD2    H210808   0.114   1.741  12.327  1.1591  1.2108  0.1061
  731MPD2    H310809   4.718   1.769  12.538 -0.3973 -0.9647 -0.3630
  731MPD2     N10810   0.311   1.585  12.799 -0.2162  0.4267  0.0267
  731MPD2    H510811   0.404   1.544  12.799  0.3153  1.6313  1.0910
  731MPD2    N110812   0.373   1.633  12.321  0.6508 -0.6678  0.2279
  731MPD2    H710813   0.333   1.656  12.230  2.0023  0.9995  0.0419
  732TMC3    C110814   0.565   1.583  12.189  1.2600 -0.6726 -1.0463
  732TMC3    C210815   0.484   1.534  12.086  0.0437  0.5118 -1.1514
  732TMC3    C310816   0.539   1.509  11.961 -0.0594 -0.2589 -0.2493
  732TMC3    C410817   0.700   1.607  12.167 -0.4501  0.6583 -0.3975
  732TMC3    C510818   0.744   1.577  12.040  0.9940 -0.5941 -0.6002
  732TMC3    C610819   0.671   1.525  11.937 -0.4516 -0.2506 -0.6341
  732TMC3     C10820   0.508   1.601  12.322  0.0688 -0.4699 -0.2434
  732TMC3     O10821   0.591   1.621  12.410  0.6345 -0.1302  1.0157
  732TMC3     H10822   0.377   1.518  12.099  0.1225  0.8535 -0.1295
  732TMC3    H110823   0.758   1.642  12.252 -0.7241 -0.8644  0.4164
  732TMC3    H210824   0.705   1.518  11.834  1.5913 -0.5670  0.0610
  732TMC3    C710825   0.883   1.596  12.000 -0.5898  1.0452  0.8113
  732TMC3    C810826   0.456   1.471  11.850 -0.0215  0.8173  0.2485
  732TMC3    O110827   0.931   1.544  11.899  0.3350 -0.0557 -0.6854
  732TMC3    O210828   0.503   1.397  11.766  0.4878 -0.1515  0.1710
  733TMC3    C110829   0.882   1.283  12.827 -0.0907 -0.3181 -0.6814
  733TMC3    C210830   0.955   1.272  12.948  0.1091  0.2191 -0.0801
  733TMC3    C310831   1.036   1.377  12.978 -0.8164 -0.0195 -0.3310
  733TMC3    C410832   0.901   1.379  12.736  0.5958  0.3435  0.2281
  733TMC3    C510833   0.990   1.472  12.766  0.2340 -0.7943 -0.4014
  733TMC3    C610834   1.042   1.481  12.889 -0.5511 -0.0194 -0.4528
  733TMC3     C10835   0.767   1.195  12.808  0.2063  0.5858  0.4892
  733TMC3     O10836   0.685   1.243  12.731  0.3435 -0.1339  0.0284
  733TMC3     H10837   0.961   1.177  13.001 -3.0242  1.0981  1.8426
  733TMC3    H110838   0.854   1.388  12.638  1.0590 -0.5212 -0.0715
  733TMC3    H210839   1.113   1.563  12.896 -0.3316 -0.4340  1.9649
  733TMC3    C710840   1.079   1.530  12.668 -0.4864 -0.2432  0.0601
  733TMC3    C810841   1.167   1.336  13.012  0.4055  0.2234  0.4879
  733TMC3    O110842   1.019   1.574  12.567  0.0917 -0.3861 -0.0987
  733TMC3    O210843   1.255   1.401  12.962  0.0140 -0.1901  0.0856
  734MPD2     C10844   3.161   3.257  12.172 -0.5162  0.4930  0.6359
  734MPD2    C110845   3.036   3.203  12.134 -0.5559 -0.4766 -0.7743
  734MPD2    C210846   2.993   3.215  12.000 -0.3236 -0.1233  0.9515
  734MPD2    C310847   3.069   3.288  11.913  0.2873  0.0820  0.3558
  734MPD2    C410848   3.184   3.346  11.950  0.3959 -0.7112  0.1019
  734MPD2    C510849   3.230   3.325  12.080  0.1061 -0.7743  0.3497
  734MPD2     H10850   2.907   3.164  11.961 -0.4063 -0.8997  2.1668
  734MPD2    H110851   3.241   3.403  11.878  0.3602  0.9522  1.3650
  734MPD2    H210852   3.206   3.251  12.270  0.3229  0.8397  0.2674
  734MPD2    H310853   3.324   3.370  12.110 -0.9245 -0.4190  3.0179
  734MPD2     N10854   3.011   3.292  11.787  0.0696 -0.0472  0.5291
  734MPD2    H510855   2.933   3.230  11.766 -0.7786  1.5976 -1.1243
  734MPD2    N110856   2.958   3.134  12.228  0.1304  0.5635 -0.2769
  734MPD2    H710857   2.996   3.102  12.317 -1.6383 -1.3494 -0.2135
  735TMC3    C110858   2.764   3.033  12.315 -0.5563  0.5495 -0.5294
  735TMC3    C210859   2.633   3.019  12.288  0.4840 -0.2205 -0.7290
  735TMC3    C310860   2.574   2.895  12.290  0.1123  0.5368 -0.6751
  735TMC3    C410861   2.832   2.931  12.369  0.5061  0.3443  0.8473
  735TMC3    C510862   2.766   2.812  12.393  0.2738  0.3564  0.3247
  735TMC3    C610863   2.640   2.784  12.344 -0.2291 -0.3391 -0.5170
  735TMC3     C10864   2.828   3.118  12.214  0.3823  0.4355 -0.0628
  735TMC3     O10865   2.757   3.177  12.138 -0.1377  0.0432 -0.2951
  735TMC3     H10866   2.573   3.106  12.266  2.2724  0.7799 -1.6571
  735TMC3    H110867   2.940   2.928  12.375  0.5253 -1.5776 -0.4078
  735TMC3    H210868   2.600   2.683  12.349  0.2468 -0.5222 -0.2905
  735TMC3    C710869   2.854   2.695  12.398 -0.1546 -0.0252 -0.6545
  735TMC3    C810870   2.517   2.865  12.163 -0.5788 -0.4670  0.0635
  735TMC3    O110871   2.964   2.718  12.358  0.3522  0.2691 -0.1608
  735TMC3    O210872   2.488   2.749  12.138  0.3966  0.1115  0.1809
  736MPD2     C10873   2.814   2.355  12.523 -0.7990  0.0517  0.1193
  736MPD2    C110874   2.878   2.474  12.488  0.6282  0.0741 -0.1705
  736MPD2    C210875   3.020   2.461  12.477 -0.0995 -0.0885  0.4195
  736MPD2    C310876   3.090   2.341  12.485 -0.8137 -0.5252  0.3678
  736MPD2    C410877   3.018   2.227  12.522  0.1226 -0.3898  0.0329
  736MPD2    C510878   2.884   2.238  12.541 -0.0607 -0.6257  1.0550
  736MPD2     H10879   3.088   2.545  12.471  0.0362 -0.0341  2.7197
  736MPD2    H110880   3.068   2.131  12.533  1.4583  0.4743  1.4008
  736MPD2    H210881   2.707   2.341  12.533 -0.9600  0.8874 -0.3861
  736MPD2    H310882   2.820   2.157  12.573 -0.6554  0.3876  2.4624
  736MPD2     N10883   3.230   2.328  12.458 -0.0410  0.4296  0.4659
  736MPD2    H510884   3.270   2.235  12.469 -1.5415 -0.4324 -1.3534
  736MPD2    N110885   2.804   2.588  12.465  0.5737  0.3599 -0.5420
  736MPD2    H710886   2.706   2.579  12.489  0.7376 -2.5947 -1.0149
  737TMC3    C110887   3.450   2.371  12.371  0.6107 -0.0177 -0.3530
  737TMC3    C210888   3.542   2.467  12.332 -0.4106  0.0416 -0.6631
  737TMC3    C310889   3.651   2.427  12.249 -0.3154  0.2442  0.3109
  737TMC3    C410890   3.473   2.234  12.352 -0.1398  0.8424  0.5065
  737TMC3    C510891   3.582   2.203  12.273 -0.3957  0.1423  0.5934
  737TMC3    C610892   3.680   2.294  12.228 -0.1032 -1.1020  0.6179
  737TMC3     C10893   3.317   2.423  12.409  0.0402 -0.2066 -0.3973
  737TMC3     O10894   3.297   2.539  12.379  0.2342  0.0806  0.1923
  737TMC3     H10895   3.524   2.573  12.339  0.3981  0.0196  2.1104
  737TMC3    H110896   3.405   2.154  12.380 -0.0921 -0.0650 -1.9268
  737TMC3    H210897   3.765   2.261  12.171 -0.0386 -0.2490  0.2269
  737TMC3    C710898   3.605   2.062  12.256  0.7434 -0.1907 -0.0994
  737TMC3    C810899   3.720   2.536  12.181  0.0475  0.8417  1.0457
  737TMC3    O110900   3.570   1.988  12.347  0.7616 -0.4360 -0.3709
  737TMC3    O210901   3.719   2.644  12.237  0.3747 -0.2361 -0.5514
  738MPD2     C10902   4.376   1.485  15.463  0.6476 -0.1391 -0.4402
  738MPD2    C110903   4.341   1.465  15.328 -0.1711 -0.2101 -0.2948
  738MPD2    C210904   4.439   1.474  15.226  0.6315  0.9423 -0.1442
  738MPD2    C310905   4.555   1.540  15.262  0.4369  0.1948  0.0959
  738MPD2    C410906   4.582   1.573  15.397 -0.1389 -0.1201 -0.3123
  738MPD2    C510907   4.486   1.552  15.493  0.0103  0.6211 -0.0683
  738MPD2     H10908   4.414   1.455  15.122  2.0949 -0.2718 -0.2788
  738MPD2    H110909   4.676   1.619  15.428 -0.6165  1.2293 -0.8782
  738MPD2    H210910   4.314   1.453  15.546  0.2742 -0.1003 -0.7014
  738MPD2    H310911   4.527   1.560  15.593 -0.8296  0.1428  0.3066
  738MPD2     N10912   4.654   1.579  15.170  0.1080 -0.0516  0.1871
  738MPD2    H510913   0.007   1.621  15.213 -0.2383  1.4176 -0.5920
  738MPD2    N110914   4.210   1.430  15.280 -0.5859  0.3479 -0.1794
  738MPD2    H710915   4.198   1.398  15.184  2.0015  3.5073 -1.5598
  739TMC3    C110916   0.018   1.650  14.961  0.2360  0.7226 -0.8591
  739TMC3    C210917   4.715   1.709  14.847  0.5345 -0.3305 -0.7645
  739TMC3    C310918   0.088   1.772  14.781 -0.1442  1.2151 -0.0307
  739TMC3    C410919   0.142   1.637  15.007  0.2436  0.3620 -0.0385
  739TMC3    C510920   0.244   1.699  14.934  0.4029 -0.0710  0.3078
  739TMC3    C610921   0.219   1.771  14.820  0.2031  0.4094 -0.2761
  739TMC3     C10922   4.640   1.594  15.034  0.1445 -0.7351 -0.5110
  739TMC3     O10923   4.529   1.592  14.982  0.0154 -0.4242  0.0262
  739TMC3     H10924   4.609   1.725  14.828  0.5974  0.3405 -0.5537
  739TMC3    H110925   0.163   1.571  15.090 -0.1309  0.1632 -0.1026
  739TMC3    H210926   0.300   1.809  14.759 -1.0329  0.7094 -1.7545
  739TMC3    C710927   0.381   1.642  14.946 -0.0939 -0.3764 -0.2408
  739TMC3    C810928   0.045   1.813  14.647  0.1972 -0.4167  0.0681
  739TMC3    O110929   0.395   1.526  14.978  0.1551 -1.1942  0.1607
  739TMC3    O210930   4.668   1.766  14.611  0.2310 -0.0702 -0.4198
  740TMC3    C110931   4.608   2.927  14.217  0.2805  0.3343  0.6018
  740TMC3    C210932   4.518   2.825  14.195 -0.1799 -0.1152  0.3974
  740TMC3    C310933   4.527   2.766  14.075  0.4755 -0.9846 -0.1576
  740TMC3    C410934   4.697   2.961  14.119  0.0846 -0.0636 -0.1863
  740TMC3    C510935   4.713   2.892  14.010  0.0551 -0.5044 -0.9510
  740TMC3    C610936   4.622   2.792  13.980 -0.3691 -0.5751  0.4085
  740TMC3     C10937   4.566   3.032  14.308 -0.4319  0.2339 -0.3939
  740TMC3     O10938   4.613   3.141  14.274 -0.0289 -0.6634  0.8606
  740TMC3     H10939   4.458   2.785  14.277 -1.0088 -0.8661 -0.5731
  740TMC3    H110940   0.041   3.037  14.148 -0.9362  1.3765 -1.4195
  740TMC3    H210941   4.645   2.718  13.904 -2.4871  0.2020 -0.9689
  740TMC3    C710942   0.113   2.907  13.946 -0.1271  0.6206 -0.6208
  740TMC3    C810943   4.443   2.651  14.060  0.7696  0.0148 -0.3077
  740TMC3    O110944   0.211   2.926  14.019 -0.3831 -0.3047  0.0567
  740TMC3    O210945   4.396   2.607  14.164 -0.2894  0.4427 -0.2406
  741TMC3    C110946   4.663   2.401  14.404 -0.9575 -0.1446 -0.3933
  741TMC3    C210947   4.535   2.364  14.372 -0.0493  0.2250 -0.1310
  741TMC3    C310948   4.485   2.257  14.437 -0.4937 -0.2502 -0.3047
  741TMC3    C410949   0.008   2.350  14.512  0.4898 -0.0349 -0.1462
  741TMC3    C510950   4.678   2.260  14.585  0.0371  0.9954 -0.1376
  741TMC3    C610951   4.561   2.199  14.545  0.0905 -0.1213 -0.6635
  741TMC3     C10952   0.014   2.473  14.301 -0.0927 -0.5244  0.2620
  741TMC3     O10953   0.122   2.521  14.334  0.2611  0.2543  0.3452
  741TMC3     H10954   4.474   2.414  14.298 -1.7799 -1.8283 -0.0842
  741TMC3    H110955   0.109   2.385  14.530  0.6498 -0.7476  0.3293
  741TMC3    H210956   4.532   2.101  14.581 -0.0786 -0.4107 -1.5887
  741TMC3    C710957   0.009   2.206  14.708 -1.1935  0.0747  0.4222
  741TMC3    C810958   4.380   2.175  14.372 -0.7722 -0.0119  0.1311
  741TMC3    O110959   0.130   2.212  14.713 -0.0233 -0.4714 -0.5476
  741TMC3    O210960   4.349   2.199  14.256 -0.0547  0.1749  0.0077
  742TMC3    C110961   3.960   0.544  15.358 -0.8707  0.0375 -0.0382
  742TMC3    C210962   3.907   0.596  15.245  0.0608 -0.0440  0.5429
  742TMC3    C310963   3.987   0.600  15.133  0.0819 -0.0146  0.4745
  742TMC3    C410964   4.087   0.500  15.369 -0.0957 -0.4514 -0.7541
  742TMC3    C510965   4.167   0.500  15.263  0.4121  0.7897 -0.0922
  742TMC3    C610966   4.117   0.549  15.143  0.1501 -0.8580  0.2013
  742TMC3     C10967   3.891   0.583  15.472 -0.3797  0.6116 -0.4185
  742TMC3     O10968   3.803   0.670  15.471 -0.3437  0.9239  0.5531
  742TMC3     H10969   3.802   0.621  15.243  0.1712  0.1440 -2.6632
  742TMC3    H110970   4.117   0.458  15.465 -2.0000  1.3464  0.6443
  742TMC3    H210971   4.188   0.546  15.061  1.9897  1.3394  1.6874
  742TMC3    C710972   4.237   0.374  15.238 -0.0979  0.2571 -0.0078
  742TMC3    C810973   3.927   0.604  15.005 -0.1909  0.4071 -0.2958
  742TMC3    O110974   4.224   0.323  15.125  0.4236 -0.6865 -0.1500
  742TMC3    O210975   3.986   0.551  14.915 -0.3676 -0.3229  0.4624
  743MPD2     C10976   1.928   1.382   1.534 -0.2007  0.0237  0.0902
  743MPD2    C110977   2.018   1.476   1.568 -0.0205 -0.1465 -0.4356
  743MPD2    C210978   2.151   1.432   1.579  0.1364  0.2205  0.2967
  743MPD2    C310979   2.199   1.300   1.559  0.5212  0.2625  0.3851
  743MPD2    C410980   2.101   1.210   1.524 -0.2358 -0.4051 -0.4209
  743MPD2    C510981   1.979   1.258   1.505 -0.4888  0.3083  0.2256
  743MPD2     H10982   2.224   1.503   1.615  0.3753 -0.3922  1.0156
  743MPD2    H110983   2.132   1.113   1.487  1.1927  0.0838 -0.5311
  743MPD2    H210984   1.824   1.402   1.510 -0.7516 -1.4956  1.1641
  743MPD2    H310985   1.906   1.183   1.479 -2.4052  2.0943  0.4944
  743MPD2     N10986   2.342   1.272   1.547  0.0833 -0.1011 -0.2622
  743MPD2    H510987   2.402   1.353   1.561 -0.5172  0.5904 -1.7254
  743MPD2    N110988   1.983   1.618   1.567  0.1099 -0.1997  0.0298
  743MPD2    H710989   1.882   1.632   1.564 -0.0492 -0.4255  3.6174
  744TMC3    C110990   2.025   1.836   1.482 -0.2417 -0.0775 -0.1152
  744TMC3    C210991   1.892   1.868   1.491 -0.0836  0.3823 -0.2807
  744TMC3    C310992   1.868   1.975   1.407 -0.2231  0.3249  0.0467
  744TMC3    C410993   2.124   1.902   1.403 -0.8364 -0.0152 -0.0439
  744TMC3    C510994   2.089   2.013   1.328 -0.7791 -0.5946 -0.2691
  744TMC3    C610995   1.954   2.046   1.327 -0.4010 -0.7320  0.9525
  744TMC3     C10996   2.078   1.718   1.548  0.1216  0.3781 -0.8410
  744TMC3     O10997   2.198   1.715   1.565  1.0781  0.7021 -0.3304
  744TMC3     H10998   1.826   1.837   1.572 -0.6690 -0.4411 -1.0747
  744TMC3    H110999   2.222   1.859   1.416 -0.9339  0.3160  1.8000
  744TMC3    H211000   1.920   2.134   1.274  2.0842 -0.6922 -0.5376
  744TMC3    C711001   2.175   2.064   1.222  0.0110 -0.1752  0.4638
  744TMC3    C811002   1.732   2.023   1.401  0.7292 -0.3892 -0.1241
  744TMC3    O111003   2.140   2.150   1.145 -0.1569 -0.4856 -0.1621
  744TMC3    O211004   1.722   2.136   1.352 -0.3388 -0.1967  0.0963
  745TMC3    C111005   4.263   0.146  13.088  0.1348  0.1398  0.5993
  745TMC3    C211006   4.155   0.092  13.153 -1.0800 -0.5779  0.0851
  745TMC3    C311007   4.044   0.163  13.187  0.6277 -0.1147  0.6221
  745TMC3    C411008   4.254   0.271  13.035  0.1977 -0.5987  0.1790
  745TMC3    C511009   4.142   0.343  13.067 -0.8465  0.1955  0.1356
  745TMC3    C611010   4.039   0.293  13.154  0.3111 -0.0806 -0.5457
  745TMC3     C11011   4.387   0.112  13.147  0.5904 -0.2267 -0.1061
  745TMC3     O11012   4.398   4.722  13.175 -0.4189  0.0744 -0.0357
  745TMC3     H11013   4.165   4.722  13.200 -0.0925 -0.8352 -0.6548
  745TMC3    H111014   4.335   0.310  12.974  0.9634  0.0871  1.6304
  745TMC3    H211015   3.955   0.353  13.185  0.4345 -0.1283 -0.1198
  745TMC3    C711016   4.113   0.462  12.990  0.1584  0.1015 -0.4265
  745TMC3    C811017   3.984   0.132  13.319  0.3517 -0.8795 -0.2802
  745TMC3    O111018   4.001   0.512  13.007 -0.8907 -0.5119  0.3580
  745TMC3    O211019   3.926   0.029  13.346 -0.0506 -0.7530 -0.6625
  746TMC3    C111020   2.075   2.123  11.161 -0.6705  0.2036  0.5296
  746TMC3    C211021   2.182   2.120  11.076  0.0657 -0.5199 -0.0950
  746TMC3    C311022   2.228   1.993  11.056 -0.1932  0.2862 -0.3756
  746TMC3    C411023   2.019   2.017  11.222 -0.6295 -0.1934 -0.2572
  746TMC3    C511024   2.068   1.890  11.194  0.2123  0.4029  0.1086
  746TMC3    C611025   2.173   1.877  11.104  0.5242  0.4740  0.4362
  746TMC3     C11026   2.013   2.255  11.188 -1.2411 -0.5887 -0.1792
  746TMC3     O11027   1.953   2.271  11.290 -0.1945  0.1341  0.1820
  746TMC3     H11028   2.223   2.213  11.039  0.7685 -1.6321 -2.0914
  746TMC3    H111029   1.922   2.033  11.268 -0.1294 -0.9564  1.0843
  746TMC3    H211030   2.214   1.781  11.075 -1.0462 -0.2833  0.7553
  746TMC3    C711031   1.956   1.802  11.154 -0.2761 -0.0669 -0.4346
  746TMC3    C811032   2.352   1.976  10.978  0.0270 -0.1095  0.1346
  746TMC3    O111033   1.900   1.836  11.049  0.0102  0.1049  0.1430
  746TMC3    O211034   2.409   1.866  10.967  0.3770  0.8613 -0.3953
  747TMC3    C111035   4.010   1.805  11.403  0.1709 -0.7369 -0.1376
  747TMC3    C211036   3.955   1.812  11.529 -0.2986 -0.0931 -0.1027
  747TMC3    C311037   4.032   1.863  11.632  0.8554 -0.6857 -0.1448
  747TMC3    C411038   4.141   1.853  11.378  0.1652 -0.0585  0.2861
  747TMC3    C511039   4.210   1.899  11.485  0.1833 -0.3665 -0.0001
  747TMC3    C611040   4.165   1.903  11.608 -0.1130  0.1736 -0.5973
  747TMC3     C11041   3.914   1.818  11.296 -0.0337  0.1691 -0.0976
  747TMC3     O11042   3.799   1.849  11.330 -0.6983  0.4965 -0.6510
  747TMC3     H11043   3.849   1.792  11.545 -0.2261  1.6718  2.4643
  747TMC3    H111044   4.169   1.880  11.277 -0.6105  1.1137  0.3888
  747TMC3    H211045   4.220   1.945  11.692  1.6558 -0.6565 -1.3225
  747TMC3    C711046   4.351   1.908  11.469  0.7470  0.0878  0.1311
  747TMC3    C811047   3.987   1.868  11.774 -0.4619  0.2343  0.4033
  747TMC3    O111048   4.418   1.964  11.554 -0.1227 -0.0338 -0.1237
  747TMC3    O211049   4.052   1.942  11.847 -0.0754  0.2101  0.4866
  748MPD2     C11050   1.159   3.634   1.966  0.4192  0.5701 -0.8254
  748MPD2    C111051   1.172   3.599   1.831  0.0814 -0.7759 -0.2893
  748MPD2    C211052   1.297   3.594   1.774 -0.3325  0.2449 -0.6282
  748MPD2    C311053   1.399   3.640   1.850  0.3057 -0.2098  0.3970
  748MPD2    C411054   1.380   3.689   1.983 -0.1192 -0.6125 -0.0211
  748MPD2    C511055   1.256   3.684   2.033  0.1419  1.4900 -0.6926
  748MPD2     H11056   1.311   3.563   1.671 -2.6166 -0.6627 -0.6832
  748MPD2    H111057   1.465   3.730   2.036 -1.6403  1.2156  0.9964
  748MPD2    H211058   1.066   3.639   2.021  1.4061  1.0798  0.7619
  748MPD2    H311059   1.234   3.726   2.131 -0.8223 -3.0392  1.0338
  748MPD2     N11060   1.526   3.648   1.789 -0.2249  1.1798 -0.4385
  748MPD2    H511061   1.519   3.630   1.689  0.1912  2.4909 -0.6982
  748MPD2    N111062   1.053   3.549   1.769 -0.0512  0.0123 -0.3584
  748MPD2    H711063   0.970   3.559   1.826 -1.0695  1.5830 -2.1141
  749TMC3    C111064   1.755   3.706   1.774 -0.1853 -0.2765  0.0884
  749TMC3    C211065   1.881   3.689   1.822  0.3392  0.7641  0.3649
  749TMC3    C311066   1.983   3.692   1.732 -0.0518  0.2907 -0.0709
  749TMC3    C411067   1.734   3.739   1.645 -0.8809 -0.3409 -0.3451
  749TMC3    C511068   1.842   3.735   1.557 -0.6127  0.3111 -0.9372
  749TMC3    C611069   1.968   3.702   1.596 -0.4053 -0.3445  0.4123
  749TMC3     C11070   1.644   3.663   1.857 -0.2359 -0.4936  0.4658
  749TMC3     O11071   1.672   3.647   1.975 -0.0664 -1.1317  0.2737
  749TMC3     H11072   1.892   3.659   1.925 -3.2094 -1.1873  0.1678
  749TMC3    H111073   1.636   3.776   1.619 -0.8755 -1.4745 -1.9231
  749TMC3    H211074   2.051   3.702   1.525  1.8255  0.3703  3.0374
  749TMC3    C711075   1.821   3.774   1.424  0.7565 -0.2459 -0.1677
  749TMC3    C811076   2.118   3.673   1.791  0.1464 -0.0312  0.0517
  749TMC3    O111077   1.910   3.828   1.364 -0.3028 -0.0888  0.1783
  749TMC3    O211078   2.125   3.721   1.903  0.2808 -0.1708 -0.0878
  750MPD2     C11079   2.149   4.179  11.554 -0.5335  0.4941  0.1777
  750MPD2    C111080   2.022   4.130  11.590 -0.5816  0.9271 -1.0586
  750MPD2    C211081   1.969   4.020  11.524 -0.2195  0.2868 -0.1029
  750MPD2    C311082   2.033   3.960  11.423 -0.3303 -0.3667  0.2047
  750MPD2    C411083   2.162   4.000  11.400  0.7073 -0.0278 -0.6891
  750MPD2    C511084   2.222   4.110  11.462 -0.2628 -0.4553  0.0503
  750MPD2     H11085   1.871   3.981  11.548  1.0654 -3.3619 -0.7145
  750MPD2    H111086   2.218   3.956  11.318  1.3316  1.0373 -0.8250
  750MPD2    H211087   2.192   4.273  11.588 -1.6990  1.1440 -0.1306
  750MPD2    H311088   2.315   4.152  11.426  0.2725 -1.2636  0.4931
  750MPD2     N11089   1.999   3.847  11.345 -0.6419 -0.6093  0.1711
  750MPD2    H511090   2.069   3.813  11.280  0.5362  0.6711  0.7700
  750MPD2    N111091   1.958   4.200  11.694 -0.4096 -0.1837 -0.5274
  750MPD2    H711092   2.011   4.281  11.727 -0.2831 -0.7547  0.6753
  751TMC3    C111093   1.883   3.678  11.241 -0.0118 -0.6591  0.0021
  751TMC3    C211094   1.796   3.572  11.249  0.3398  0.2387 -0.1023
  751TMC3    C311095   1.802   3.468  11.160 -0.1640 -0.0275  0.0506
  751TMC3    C411096   1.979   3.687  11.138 -0.8318  0.2545 -0.0439
  751TMC3    C511097   1.981   3.576  11.057 -0.0221 -0.1308 -0.0380
  751TMC3    C611098   1.890   3.469  11.057  0.4977  0.6970 -0.7410
  751TMC3     C11099   1.873   3.785  11.342  0.0926  0.1995  0.5275
  751TMC3     O11100   1.770   3.809  11.406 -0.1505  0.5587  0.4237
  751TMC3     H11101   1.738   3.567  11.340 -0.8740  1.1078 -0.8283
  751TMC3    H111102   2.044   3.773  11.133 -0.5908  0.0307 -0.7390
  751TMC3    H211103   1.897   3.395  10.977 -0.6986 -0.0007 -0.2016
  751TMC3    C711104   2.059   3.590  10.928 -0.1529  0.0888  0.2851
  751TMC3    C811105   1.707   3.359  11.154  0.3020 -0.1764 -0.2378
  751TMC3    O111106   2.099   3.702  10.904 -0.5173  0.0682  0.8166
  751TMC3    O211107   1.706   3.299  11.050 -0.1196  0.8734 -0.1274
  752TMC3    C111108   1.320   3.784  16.777 -0.2244  0.3451 -0.3654
  752TMC3    C211109   1.444   3.741  16.821  0.2981 -0.1615  0.5104
  752TMC3    C311110   1.447   3.678  16.948  0.2584  0.8076  0.1645
  752TMC3    C411111   1.205   3.763  16.846  0.2878  0.1756  0.0353
  752TMC3    C511112   1.214   3.714  16.977  0.1017  0.1627  0.4311
  752TMC3    C611113   1.335   3.668  17.025 -0.4843  0.1505 -0.3157
  752TMC3     C11114   1.316   3.862  16.659  0.1950 -0.8670  0.0248
  752TMC3     O11115   1.425   3.876  16.608  0.0047 -0.3065  0.0592
  752TMC3     H11116   1.532   3.748  16.759  1.1822 -1.4033  1.6321
  752TMC3    H111117   1.105   3.789  16.814 -0.4502 -0.1701  2.0740
  752TMC3    H211118   1.334   3.634  17.128  0.1918  0.5439 -0.1786
  752TMC3    C711119   1.087   3.707  17.055 -0.2432  0.2699  0.6042
  752TMC3    C811120   1.574   3.649  17.007 -0.3380  0.7814 -0.6675
  752TMC3    O111121   0.995   3.773  17.006 -0.3721 -0.2787  0.7349
  752TMC3    O211122   1.587   3.648  17.129 -0.2129 -0.1039  0.6329
  753TMC3    C111123   3.038   0.538  13.462 -0.0764  0.5570 -0.5013
  753TMC3    C211124   3.104   0.501  13.571 -0.2647  0.2572 -0.1646
  753TMC3    C311125   3.148   0.375  13.586 -0.2978  0.2894  0.3865
  753TMC3    C411126   3.009   0.450  13.358  0.3595  0.0086  0.0687
  753TMC3    C511127   3.055   0.322  13.377 -0.5722  0.0990 -0.7816
  753TMC3    C611128   3.128   0.281  13.490 -0.8728  0.1381  0.3204
  753TMC3     C11129   3.011   0.683  13.453  0.6931  0.0282  0.4645
  753TMC3     O11130   3.075   0.757  13.527 -0.1868 -0.3629 -0.1841
  753TMC3     H11131   3.114   0.570  13.654  0.1512 -0.3925  0.3297
  753TMC3    H111132   2.956   0.477  13.267 -0.8211  0.9631  1.0383
  753TMC3    H211133   3.154   0.177  13.504 -1.4661  0.0188  0.5048
  753TMC3    C711134   2.971   0.220  13.333  1.2332 -0.0726  0.9820
  753TMC3    C811135   3.195   0.321  13.713 -0.0461 -0.0606 -0.5201
  753TMC3    O111136   3.017   0.110  13.334 -0.0577  0.4686  0.2481
  753TMC3    O211137   3.179   0.205  13.733  0.0221 -0.4634  0.8761
  754MPD2     C11138   2.117   3.972  13.208 -1.3037  0.2159  0.2752
  754MPD2    C111139   2.084   3.835  13.191 -0.0656  0.4288 -0.3453
  754MPD2    C211140   1.959   3.789  13.171 -0.0290 -0.0802 -0.8813
  754MPD2    C311141   1.853   3.878  13.178 -0.1533 -0.6064  0.2126
  754MPD2    C411142   1.877   4.012  13.196  0.1071 -0.4505  0.1134
  754MPD2    C511143   2.007   4.065  13.205 -0.1425  0.8357  0.1606
  754MPD2     H11144   1.936   3.685  13.150 -0.2375 -0.4372  1.0704
  754MPD2    H111145   1.797   4.083  13.216  0.4898 -0.2501  0.9286
  754MPD2    H211146   2.221   3.999  13.219 -0.3656 -2.8675 -1.3092
  754MPD2    H311147   2.025   4.167  13.236 -1.8845  1.3004 -0.3857
  754MPD2     N11148   1.714   3.839  13.167  0.2091  0.2138 -0.1246
  754MPD2    H511149   1.650   3.917  13.165 -1.1618 -0.8988 -0.0187
  754MPD2    N111150   2.192   3.745  13.188  0.3002 -0.5507  0.3413
  754MPD2    H711151   2.281   3.785  13.162 -0.6553 -0.3317 -2.5813
  755MPD2     C11152   1.150   4.352  13.461  0.2079  0.1379  0.0334
  755MPD2    C111153   1.069   4.244  13.449 -0.1293  1.5883  0.1571
  755MPD2    C211154   1.117   4.127  13.382  0.1856 -0.3687 -0.5074
  755MPD2    C311155   1.246   4.127  13.324 -0.1448  0.3442  0.0022
  755MPD2    C411156   1.318   4.247  13.335 -0.2016 -0.3997 -0.9692
  755MPD2    C511157   1.267   4.353  13.399  0.5084 -0.0361 -0.1015
  755MPD2     H11158   1.050   4.043  13.365 -0.9654  0.3643  0.4847
  755MPD2    H111159   1.421   4.259  13.302  0.9233 -2.0775  1.9285
  755MPD2    H211160   1.129   4.444  13.515  0.3877 -0.0267  0.3860
  755MPD2    H311161   1.333   4.439  13.402 -0.4925  0.7244  0.4275
  755MPD2     N11162   1.301   4.021  13.252 -0.2848 -0.1109 -0.8110
  755MPD2    H511163   1.397   4.025  13.219 -0.3516 -0.0150 -0.9962
  755MPD2    N111164   0.947   4.245  13.514  0.2809  0.0432  0.0976
  755MPD2    H711165   0.900   4.158  13.536  2.8679 -1.5784 -0.7872
  756MPD2     C11166   2.132   3.648   9.956 -0.1983  0.0885 -0.9234
  756MPD2    C111167   2.020   3.715   9.922  0.3226 -0.1877 -0.3020
  756MPD2    C211168   1.926   3.649   9.848 -0.2775 -0.2948 -0.0678
  756MPD2    C311169   1.941   3.516   9.804 -0.0779 -0.2570 -0.9202
  756MPD2    C411170   2.055   3.449   9.840 -0.6163 -0.3517 -1.0084
  756MPD2    C511171   2.148   3.512   9.915  0.1675 -0.0228 -0.2475
  756MPD2     H11172   1.838   3.707   9.824 -0.4765 -0.8781 -0.7585
  756MPD2    H111173   2.076   3.343   9.825  2.7335  0.6335 -3.2748
  756MPD2    H211174   2.197   3.689  10.032  4.3701  1.1781 -5.4349
  756MPD2    H311175   2.238   3.459   9.944 -0.9709 -2.6486 -1.5999
  756MPD2     N11176   1.855   3.458   9.708  0.6697  0.0507 -0.0586
  756MPD2    H511177   1.769   3.509   9.688  1.9957  2.6112  0.7689
  756MPD2    N111178   2.002   3.857   9.932 -1.1928  0.4138 -0.1446
  756MPD2    H711179   1.927   3.907   9.884 -0.8881  0.1004 -0.9394
  757MPD2     C11180   0.941   3.027   9.710 -0.9002 -0.7911 -0.1012
  757MPD2    C111181   1.030   2.921   9.690 -0.4975 -0.6818  0.0609
  757MPD2    C211182   1.168   2.944   9.665 -0.5310  0.0396  0.7091
  757MPD2    C311183   1.223   3.071   9.655  0.3961  0.9453 -0.2122
  757MPD2    C411184   1.130   3.177   9.673 -0.5347 -0.7420 -0.0415
  757MPD2    C511185   0.993   3.155   9.693  0.3258 -0.6285  0.3180
  757MPD2     H11186   1.240   2.863   9.661  0.4414  0.8430  2.0790
  757MPD2    H111187   1.168   3.278   9.659 -1.6362 -0.0010  2.3174
  757MPD2    H211188   0.836   3.019   9.737 -0.9664 -0.5227 -0.2853
  757MPD2    H311189   0.927   3.239   9.708 -1.4279 -1.9381 -0.0128
  757MPD2     N11190   1.359   3.092   9.614  0.1119  0.6657 -0.0103
  757MPD2    H511191   1.425   3.017   9.597 -0.9365 -0.2674  0.0117
  757MPD2    N111192   0.977   2.794   9.685  0.2510 -0.3090 -0.1979
  757MPD2    H711193   0.879   2.793   9.712  0.8311  2.0413  2.0899
  758MPD2     C11194   1.724   3.693  16.115 -0.6631  0.9435  0.5770
  758MPD2    C111195   1.838   3.673  16.186 -0.4029  0.5222 -0.0458
  758MPD2    C211196   1.840   3.743  16.306 -0.1192 -0.1610  0.2956
  758MPD2    C311197   1.731   3.807  16.364 -0.0406 -0.5813 -1.2499
  758MPD2    C411198   1.615   3.814  16.292  0.2341  0.3169  0.4211
  758MPD2    C511199   1.614   3.757  16.170 -0.7034 -0.5755  0.0381
  758MPD2     H11200   1.930   3.742  16.367  1.4311 -0.6016 -2.0001
  758MPD2    H111201   1.525   3.866  16.321 -0.0455 -0.4889  1.0024
  758MPD2    H211202   1.715   3.649  16.017  1.9304  1.4619  0.1040
  758MPD2    H311203   1.521   3.762  16.115 -1.9638 -0.1818  2.2444
  758MPD2     N11204   1.733   3.859  16.496 -0.3893  0.7962  0.5568
  758MPD2    H511205   1.645   3.905  16.520 -0.1864  1.3029  0.3292
  758MPD2    N111206   1.949   3.606  16.128  0.0590  0.9759 -0.3228
  758MPD2    H711207   1.933   3.574  16.033  0.4288 -1.6743  0.5119
  759MPD2     C11208   0.129   2.041   9.500 -0.6938 -0.6750 -0.4767
  759MPD2    C111209   0.165   1.922   9.430  0.0705  0.1828 -0.0473
  759MPD2    C211210   0.300   1.904   9.398  0.3145  0.5209  0.2254
  759MPD2    C311211   0.398   1.983   9.456 -0.0703 -0.8168  0.2697
  759MPD2    C411212   0.360   2.098   9.522  0.2149  0.4198 -0.0417
  759MPD2    C511213   0.229   2.123   9.550  0.0005  0.2111  0.2840
  759MPD2     H11214   0.336   1.816   9.346 -1.0545 -0.0721  0.2845
  759MPD2    H111215   0.430   2.174   9.553 -0.1179 -0.4149  2.7671
  759MPD2    H211216   0.031   2.070   9.534 -0.6587 -0.3619 -0.6450
  759MPD2    H311217   0.209   2.217   9.602 -0.9426  1.3912 -2.1926
  759MPD2     N11218   0.535   1.962   9.431 -0.4535  0.8980 -0.6642
  759MPD2    H511219   0.559   1.902   9.353 -2.1442  0.6991 -1.0276
  759MPD2    N111220   0.080   1.814   9.394  0.2126 -0.7839  0.7989
  759MPD2    H711221   0.128   1.734   9.353 -1.9527 -1.7859  0.2297
  760MPD2     C11222   0.435   3.991  12.243 -0.7518  0.1796 -0.3711
  760MPD2    C111223   0.499   3.999  12.121 -0.1982  1.1845  0.5486
  760MPD2    C211224   0.497   3.892  12.037 -0.3664 -0.6748 -0.3217
  760MPD2    C311225   0.441   3.769  12.073  0.4310  0.6370 -0.1940
  760MPD2    C411226   0.398   3.754  12.204  0.3793  0.2291 -0.1593
  760MPD2    C511227   0.397   3.866  12.285 -0.0671 -0.7784 -0.4593
  760MPD2     H11228   0.557   3.908  11.948  1.0200  0.4602  0.8199
  760MPD2    H111229   0.366   3.662  12.252 -0.7400  0.3550 -0.6699
  760MPD2    H211230   0.426   4.067  12.320 -1.1681 -0.5731  0.3231
  760MPD2    H311231   0.366   3.855  12.388 -1.2664  1.9956 -0.5394
  760MPD2     N11232   0.436   3.657  11.990 -0.0602 -0.0109 -0.4500
  760MPD2    H511233   0.397   3.571  12.028 -2.3422  0.8997 -0.7420
  760MPD2    N111234   0.550   4.123  12.075  0.1020  0.4454  0.3737
  760MPD2    H711235   0.610   4.113  11.993  1.3686  1.2534  1.2044
  761MPD2     C11236   1.366   3.044  11.389 -0.4740  0.6407  0.0918
  761MPD2    C111237   1.429   3.020  11.271  0.3540  0.1867  0.0100
  761MPD2    C211238   1.526   3.120  11.233 -0.1487  0.9824  0.4905
  761MPD2    C311239   1.543   3.242  11.298 -0.8392 -0.6300  0.1841
  761MPD2    C411240   1.467   3.261  11.415  0.0518 -0.2331  0.5225
  761MPD2    C511241   1.384   3.157  11.460  0.2788  0.0387 -0.8942
  761MPD2     H11242   1.597   3.101  11.153 -1.6077 -1.3480 -0.2555
  761MPD2    H111243   1.474   3.350  11.477 -0.3132  0.4029 -0.3392
  761MPD2    H211244   1.296   2.972  11.428 -0.7563 -0.6640 -2.8172
  761MPD2    H311245   1.324   3.171  11.549 -1.6389  0.0011 -2.1742
  761MPD2     N11246   1.624   3.350  11.262 -0.4366  0.3289  0.1480
  761MPD2    H511247   1.624   3.427  11.328 -0.8545 -0.1503  0.6943
  761MPD2    N111248   1.406   2.902  11.205  0.5630 -0.5782  0.1621
  761MPD2    H711249   1.337   2.842  11.250  0.5999 -1.7947 -1.4124
  762MPD2     C11250   1.816   2.990  10.756  0.0692 -0.0505 -0.0987
  762MPD2    C111251   1.787   2.861  10.712  0.0066 -0.1237  0.0176
  762MPD2    C211252   1.876   2.792  10.635  0.4381 -0.4948 -1.0167
  762MPD2    C311253   1.990   2.853  10.587  0.5386 -0.1064  0.3527
  762MPD2    C411254   2.028   2.980  10.638  1.0345 -0.1452  0.1313
  762MPD2    C511255   1.938   3.043  10.721  0.0271  0.2980 -0.4137
  762MPD2     H11256   1.850   2.691  10.606  0.1334 -0.4361 -0.9429
  762MPD2    H111257   2.124   3.023  10.612  0.5909  0.7816  0.0246
  762MPD2    H211258   1.748   3.051  10.814 -1.2932 -0.2034 -1.5176
  762MPD2    H311259   1.962   3.142  10.756 -1.2816  0.2333  0.6753
  762MPD2     N11260   2.068   2.787  10.495  0.1500 -0.1904 -0.1656
  762MPD2    H511261   2.046   2.689  10.480  1.2613 -0.5783  0.7839
  762MPD2    N111262   1.667   2.801  10.764  0.0106  0.0303 -0.0668
  762MPD2    H711263   1.613   2.864  10.823 -0.8531 -1.5257  0.8101
  763MPD2     C11264   3.946   3.551  16.362  0.1671 -0.2200  0.6182
  763MPD2    C111265   3.829   3.623  16.351 -0.5271  0.2272 -0.6057
  763MPD2    C211266   3.822   3.748  16.413 -0.0434  0.1813 -0.1155
  763MPD2    C311267   3.935   3.800  16.485  0.1477  0.6019 -0.3086
  763MPD2    C411268   4.048   3.723  16.496 -0.7718  0.3838  0.1970
  763MPD2    C511269   4.055   3.604  16.436  0.3186  0.0694 -0.5334
  763MPD2     H11270   3.732   3.808  16.404 -0.0744 -0.0345 -1.2376
  763MPD2    H111271   4.134   3.750  16.556 -0.5231 -2.5148  1.0932
  763MPD2    H211272   3.954   3.448  16.329  0.4752 -0.2779  0.8703
  763MPD2    H311273   4.138   3.540  16.460 -1.0396 -0.7466  2.0421
  763MPD2     N11274   3.945   3.934  16.539 -0.3730 -0.5773  0.2369
  763MPD2    H511275   4.039   3.965  16.561 -0.5591 -0.3594  0.7323
  763MPD2    N111276   3.722   3.575  16.266  0.5758  0.6330  0.2611
  763MPD2    H711277   3.667   3.647  16.221  1.0413  0.8194 -0.0084
  764MPD2     C11278   2.322   0.759  17.288 -0.1435  0.5302  0.3217
  764MPD2    C111279   2.227   0.689  17.220 -0.1527 -0.1386  0.6713
  764MPD2    C211280   2.157   0.587  17.283  0.4046  0.1222 -0.2017
  764MPD2    C311281   2.184   0.554  17.416 -0.3388 -0.6529  1.3340
  764MPD2    C411282   2.287   0.626  17.480  0.0538 -0.3079 -0.4857
  764MPD2    C511283   2.345   0.732  17.417  0.0677 -0.7606 -0.5927
  764MPD2     H11284   2.084   0.527  17.229  0.5799  0.7655 -1.1564
  764MPD2    H111285   2.330   0.589  17.572 -1.1785 -3.8026 -1.3169
  764MPD2    H211286   2.372   0.843  17.241  0.3735  0.2574  0.3805
  764MPD2    H311287   2.420   0.793  17.465 -1.5168 -0.8013  1.9026
  764MPD2     N11288   2.113   0.443  17.475  0.5671 -0.0816  0.0400
  764MPD2    H511289   2.033   0.412  17.420 -0.8534  0.4099  1.8241
  764MPD2    N111290   2.178   0.722  17.088 -0.1414  0.8469 -0.0891
  764MPD2    H711291   2.101   0.667  17.051  0.3386  0.5189 -0.6013
  765MPD2     C11292   1.371   2.433  15.813  0.0206 -0.0314  0.5611
  765MPD2    C111293   1.421   2.553  15.790  0.0271 -0.4011  0.1094
  765MPD2    C211294   1.555   2.572  15.810 -0.3344 -0.4976 -0.4775
  765MPD2    C311295   1.639   2.467  15.833  0.6250  0.6610  0.5736
  765MPD2    C411296   1.592   2.342  15.852 -0.2601 -0.1783 -0.3537
  765MPD2    C511297   1.455   2.329  15.844  0.0281 -0.6236  0.4643
  765MPD2     H11298   1.600   2.666  15.780 -0.2676 -0.4470 -0.2204
  765MPD2    H111299   1.653   2.265  15.897  1.6175  0.9140 -1.0464
  765MPD2    H211300   1.265   2.411  15.811  0.8260 -3.9594  0.4087
  765MPD2    H311301   1.416   2.231  15.869 -0.0712 -0.8941 -0.7461
  765MPD2     N11302   1.770   2.503  15.815 -0.1916  0.3268  0.1301
  765MPD2    H511303   1.795   2.600  15.799  1.8745 -0.1210  0.5661
  765MPD2    N111304   1.338   2.655  15.742 -0.1232  0.4292 -0.1988
  765MPD2    H711305   1.242   2.624  15.729 -0.3523  2.2013 -2.6233
  766MPD2     C11306   0.947   2.736  15.157  0.1493  0.1499 -0.4553
  766MPD2    C111307   1.071   2.791  15.188  0.4365  0.0898  0.3350
  766MPD2    C211308   1.167   2.809  15.091 -0.2739  0.7480  0.0886
  766MPD2    C311309   1.135   2.777  14.964 -0.5281 -0.1624 -0.3181
  766MPD2    C411310   1.017   2.716  14.934  0.1989  0.1049 -0.0923
  766MPD2    C511311   0.926   2.696  15.034  0.1568  0.2316 -0.2818
  766MPD2     H11312   1.257   2.861  15.122 -0.9024  1.0648  1.3804
  766MPD2    H111313   0.998   2.692  14.830 -2.3579  3.8780 -0.4860
  766MPD2    H211314   0.881   2.718  15.240  0.7208  0.1273 -0.0059
  766MPD2    H311315   0.834   2.645  15.010  0.9086 -0.3527 -1.9481
  766MPD2     N11316   1.220   2.806  14.848  0.0363 -0.3874  0.2932
  766MPD2    H511317   1.202   2.769  14.755 -0.0913 -2.6033  1.1798
  766MPD2    N111318   1.100   2.827  15.321  0.0380  0.5385  0.3287
  766MPD2    H711319   1.198   2.827  15.345  0.4457 -1.2501 -1.2769
  767MPD2     C11320   0.726   2.799  14.742 -0.1998 -0.6474  0.1420
  767MPD2    C111321   0.824   2.899  14.723  0.8757 -0.0929  0.0023
  767MPD2    C211322   0.890   2.901  14.602  0.3746 -0.5774 -0.3398
  767MPD2    C311323   0.861   2.809  14.502 -0.4358  0.3713 -0.0618
  767MPD2    C411324   0.759   2.719  14.525 -0.0393  0.2157 -0.6617
  767MPD2    C511325   0.696   2.717  14.642 -0.5485  0.0537  0.1818
  767MPD2     H11326   0.965   2.977  14.585 -2.9773  2.4713 -1.3939
  767MPD2    H111327   0.728   2.645  14.452  0.7389 -0.9805  0.2209
  767MPD2    H211328   0.668   2.792  14.833 -1.6961  0.8968 -0.6963
  767MPD2    H311329   0.619   2.645  14.663 -0.9174  0.7974  1.3482
  767MPD2     N11330   0.928   2.819  14.382 -0.0437 -0.2893  0.2157
  767MPD2    H511331   1.012   2.875  14.372  1.1149 -1.6026  2.6954
  767MPD2    N111332   0.845   2.989  14.826  0.2465  0.8691  0.0999
  767MPD2    H711333   0.780   2.989  14.904 -1.9281 -1.2250 -1.7241
  768MPD2     C11334   2.067   1.618  10.575 -0.5733  0.0508 -0.1881
  768MPD2    C111335   2.021   1.550  10.689 -0.1920 -0.2715  0.5164
  768MPD2    C211336   2.086   1.543  10.811 -0.1487 -0.2915 -0.1528
  768MPD2    C311337   2.218   1.594  10.815 -0.8386 -0.0180  0.1426
  768MPD2    C411338   2.267   1.674  10.710 -0.1081 -0.1845 -0.5200
  768MPD2    C511339   2.191   1.681  10.592 -0.3328 -0.6356  0.3501
  768MPD2     H11340   2.044   1.492  10.897  0.7924  1.8509  1.5625
  768MPD2    H111341   2.358   1.732  10.719 -1.0328  0.9247  1.4740
  768MPD2    H211342   2.012   1.625  10.481 -0.9222 -0.7694 -0.0535
  768MPD2    H311343   2.216   1.757  10.518  4.1465  0.0728  2.6267
  768MPD2     N11344   2.307   1.575  10.929  0.3196 -0.2290 -0.5162
  768MPD2    H511345   2.377   1.648  10.944  0.5197 -0.5154 -0.0436
  768MPD2    N111346   1.889   1.504  10.698 -0.3139  0.6991 -0.2313
  768MPD2    H711347   1.860   1.466  10.787 -1.2390 -1.1393 -1.3182
  769MPD2     C11348   2.408   4.717  14.719 -0.4397  0.2361 -0.2834
  769MPD2    C111349   2.434   4.612  14.808  0.5446 -0.6096 -0.0303
  769MPD2    C211350   2.505   4.642  14.921  1.1141 -0.5019  0.5130
  769MPD2    C311351   2.540   0.044  14.955  0.3339  0.1633  0.6245
  769MPD2    C411352   2.511   0.145  14.865  0.0932 -0.9333  0.3875
  769MPD2    C511353   2.452   0.115  14.748 -0.3769 -0.2996  0.2422
  769MPD2     H11354   2.520   4.562  14.993  0.5667 -0.1974  0.9571
  769MPD2    H111355   2.527   0.250  14.889 -0.8006 -1.5380  3.6829
  769MPD2    H211356   2.355   4.694  14.628 -1.0598 -1.0018  0.3877
  769MPD2    H311357   2.447   0.191  14.671  0.8308  1.5789  2.0311
  769MPD2     N11358   2.600   0.058  15.085 -0.4721  0.4299 -0.0418
  769MPD2    H511359   2.612   4.698  15.135  1.3909  1.1592  0.7899
  769MPD2    N111360   2.389   4.478  14.770  0.3472  0.4127  0.1114
  769MPD2    H711361   2.349   4.474  14.677 -0.3592 -0.4820  0.4601
  770MPD2     C11362   1.795   3.625  14.976  0.8337  0.6864  0.0765
  770MPD2    C111363   1.897   3.581  14.897  0.2429 -0.5693 -0.5555
  770MPD2    C211364   2.003   3.663  14.870  0.9005  0.0491 -0.2343
  770MPD2    C311365   2.018   3.785  14.931 -0.3231 -0.1896 -0.8630
  770MPD2    C411366   1.920   3.830  15.012  0.1129 -0.1392 -0.1394
  770MPD2    C511367   1.812   3.753  15.031  0.4413  0.3205 -0.4392
  770MPD2     H11368   2.080   3.629  14.801  1.9084  0.8608  0.5024
  770MPD2    H111369   1.924   3.924  15.066 -0.1550 -1.1752  1.6857
  770MPD2    H211370   1.712   3.565  15.011 -0.8823  2.3966 -1.0279
  770MPD2    H311371   1.739   3.789  15.102 -0.1335  0.8486 -1.2956
  770MPD2     N11372   2.128   3.864  14.896  0.4049 -0.2686  0.2308
  770MPD2    H511373   2.185   3.821  14.825  1.0125 -1.3316  1.3721
  770MPD2    N111374   1.906   3.449  14.853  0.5339 -0.2277 -0.0869
  770MPD2    H711375   1.990   3.421  14.803  1.7280  0.9688  1.2458
  771MPD2     C11376   4.081   2.269  13.434 -0.5456 -0.4958  0.0232
  771MPD2    C111377   4.006   2.381  13.462 -0.2330  1.0100  0.1110
  771MPD2    C211378   3.870   2.384  13.437 -0.3998 -0.1108  0.0417
  771MPD2    C311379   3.806   2.273  13.384 -0.0240  0.0952  0.1478
  771MPD2    C411380   3.883   2.166  13.348 -0.5665 -0.3991 -0.1448
  771MPD2    C511381   4.019   2.165  13.370 -0.2871  0.4789 -0.3816
  771MPD2     H11382   3.817   2.477  13.450 -0.6192 -0.3178  0.6519
  771MPD2    H111383   3.840   2.077  13.305  0.0738 -0.0918 -1.4110
  771MPD2    H211384   4.188   2.257  13.448  0.2583  2.5726 -3.6742
  771MPD2    H311385   4.080   2.079  13.346 -1.6480 -0.3158 -0.9446
  771MPD2     N11386   3.668   2.280  13.348  0.0119  0.1279 -1.1662
  771MPD2    H511387   3.618   2.364  13.376 -2.3702 -2.2365  1.7159
  771MPD2    N111388   4.058   2.502  13.518  0.2935 -0.5560  0.5941
  771MPD2    H711389   3.996   2.573  13.557  1.2475 -0.3673  1.7904
  772MPD2     C11390   3.931   2.953  14.076  1.1368  0.0501  0.5495
  772MPD2    C111391   3.895   2.904  13.953 -0.2953  0.6721 -0.4803
  772MPD2    C211392   3.762   2.917  13.909 -0.4940  0.9550  0.2428
  772MPD2    C311393   3.669   2.979  13.988  1.0233 -0.0287 -0.1836
  772MPD2    C411394   3.705   3.018  14.118  0.1036 -0.0404 -0.0513
  772MPD2    C511395   3.836   3.001  14.161 -0.0829 -0.0800  0.2935
  772MPD2     H11396   3.736   2.872  13.814  0.4263  0.1936  0.3453
  772MPD2    H111397   3.638   3.071  14.185 -1.0382  0.3932 -1.5567
  772MPD2    H211398   4.035   2.953  14.106  0.8979 -1.9237  1.3706
  772MPD2    H311399   3.865   3.032  14.261  2.1294 -0.5500 -0.2001
  772MPD2     N11400   3.540   3.007  13.942 -0.1185 -0.0912  0.1635
  772MPD2    H511401   3.479   3.056  14.006  1.2686  1.8749 -0.0259
  772MPD2    N111402   3.991   2.843  13.866 -0.5677  0.2529 -0.3784
  772MPD2    H711403   3.943   2.791  13.794 -1.0676  0.4563 -0.1928
  773MPD2     C11404   2.528   4.463   0.707  0.4905 -1.0131  1.3460
  773MPD2    C111405   2.508   4.397   0.586 -0.0636 -0.5269 -0.6491
  773MPD2    C211406   2.593   4.299   0.543 -0.5069  0.1910  0.9697
  773MPD2    C311407   2.686   4.251   0.633 -0.5365  0.3882 -0.3695
  773MPD2    C411408   2.713   4.321   0.749 -0.5440 -0.0406 -0.2973
  773MPD2    C511409   2.627   4.419   0.791 -0.2430  0.0550 -0.1301
  773MPD2     H11410   2.570   4.250   0.450  2.2862  0.0315  0.3893
  773MPD2    H111411   2.791   4.292   0.818  0.8499  0.2461 -1.7536
  773MPD2    H211412   2.472   4.552   0.734 -0.2384 -0.6519 -1.3224
  773MPD2    H311413   2.641   4.465   0.887  1.1343 -0.6582  0.0163
  773MPD2     N11414   2.766   4.141   0.597 -0.5334 -0.8244 -0.4741
  773MPD2    H511415   2.752   4.094   0.508 -1.6594 -1.5656  0.0900
  773MPD2    N111416   2.411   4.424   0.495  0.3940 -0.5318 -0.1164
  773MPD2    H711417   2.429   4.396   0.399  0.1136  0.2276 -0.3942
  774MPD2     C11418   2.066   2.694  13.387 -0.8289  0.2553  0.4641
  774MPD2    C111419   2.029   2.767  13.497 -0.4352  0.4048 -0.0607
  774MPD2    C211420   1.991   2.897  13.477 -0.9402 -0.4663  0.3290
  774MPD2    C311421   1.997   2.965  13.363 -0.4649 -0.2887  0.6100
  774MPD2    C411422   2.041   2.892  13.257  0.3718 -0.4615  0.2695
  774MPD2    C511423   2.073   2.760  13.270 -0.4923  0.3444 -0.4598
  774MPD2     H11424   1.960   2.963  13.558  0.2177  0.5319 -0.0419
  774MPD2    H111425   2.054   2.933  13.158 -0.1885  1.2793  0.9085
  774MPD2    H211426   2.099   2.592  13.399  2.6946  1.1804 -1.4046
  774MPD2    H311427   2.118   2.709  13.186  2.8623  0.0298  1.5044
  774MPD2     N11428   1.970   3.111  13.358 -0.2372  0.0638 -0.1275
  774MPD2    H511429   1.944   3.159  13.444  1.7454 -0.5932  0.8475
  774MPD2    N111430   2.038   2.694  13.620  0.2274 -0.0012  0.4303
  774MPD2    H711431   2.074   2.599  13.617  0.5965  0.2639 -3.4666
  775MPD2     C11432   3.222   4.525  16.176  0.1734  0.7492 -0.0807
  775MPD2    C111433   3.182   4.655  16.217 -0.1572 -0.9968  0.4602
  775MPD2    C211434   3.245   0.040  16.158  0.2113  0.4902  0.0781
  775MPD2    C311435   3.347   0.020  16.061  0.0565 -0.1367  0.5141
  775MPD2    C411436   3.397   4.622  16.044 -0.1719  0.9471  0.2567
  775MPD2    C511437   3.336   4.514  16.103 -0.3233  0.2440  0.3970
  775MPD2     H11438   3.218   0.144  16.171  1.5944  1.0086 -1.2014
  775MPD2    H111439   3.471   4.604  15.968  0.0575 -2.2999  1.2601
  775MPD2    H211440   3.178   4.435  16.216 -0.2671  1.1565  0.3581
  775MPD2    H311441   3.380   4.416  16.091 -0.3841  0.0336  1.9099
  775MPD2     N11442   3.410   0.123  15.983  0.2954 -0.4086 -0.3148
  775MPD2    H511443   3.477   0.103  15.910  1.5456 -0.6633  0.8949
  775MPD2    N111444   3.074   4.663  16.309 -0.0406 -0.3414  0.2235
  775MPD2    H711445   3.023   4.579  16.336 -0.8027  0.0269 -0.0811
  776MPD2     C11446   2.153   4.693  12.260 -0.3988  0.5685 -0.3324
  776MPD2    C111447   2.084   4.700  12.140  0.7368  0.3451  0.3620
  776MPD2    C211448   2.100   0.086  12.066  0.1363 -0.5464 -0.0596
  776MPD2    C311449   2.176   0.187  12.117  0.2031  0.3093  0.0623
  776MPD2    C411450   2.241   0.177  12.233 -0.0936 -0.1771 -0.7606
  776MPD2    C511451   2.225   0.064  12.300  0.0822  0.6151  0.0695
  776MPD2     H11452   2.041   0.096  11.975  0.7540  2.4747 -0.1524
  776MPD2    H111453   2.299   0.256  12.278  0.1546 -0.9249  0.2137
  776MPD2    H211454   2.135   4.603  12.318 -1.2346  0.1189 -1.2778
  776MPD2    H311455   2.273   0.064  12.397 -2.6167 -0.8051  1.4040
  776MPD2     N11456   2.179   0.295  12.026 -0.5226 -0.5078  0.1701
  776MPD2    H511457   2.136   0.286  11.935 -0.8176  1.1693  0.1453
  776MPD2    N111458   2.014   4.582  12.104 -0.6734 -0.2257  0.0070
  776MPD2    H711459   2.027   4.503  12.167 -0.2528  1.4170  1.9650
  777MPD2     C11460   2.675   3.194   0.795  1.0208 -0.1377  0.0612
  777MPD2    C111461   2.639   3.107   0.893  0.0556  0.0272 -0.4497
  777MPD2    C211462   2.589   2.982   0.862  0.0935  0.2808  0.0173
  777MPD2    C311463   2.567   2.941   0.735  0.8705 -0.7941 -0.8492
  777MPD2    C411464   2.591   3.035   0.641  0.2759  0.2880 -0.6386
  777MPD2    C511465   2.638   3.159   0.670  0.7638 -0.1814 -0.3766
  777MPD2     H11466   2.568   2.914   0.944  2.0866  1.2998  1.3676
  777MPD2    H111467   2.577   3.011   0.536  0.9911 -0.8112 -0.4824
  777MPD2    H211468   2.719   3.288   0.825 -0.5086  1.4513 -2.7129
  777MPD2    H311469   2.660   3.235   0.596 -2.1521 -1.0321 -2.1611
  777MPD2     N11470   2.528   2.808   0.719 -0.3086 -0.6263  0.5761
  777MPD2    H511471   2.508   2.751   0.801 -0.0317  0.6553  1.5389
  777MPD2    N111472   2.659   3.149   1.022 -0.1967  0.0097  0.4086
  777MPD2    H711473   2.669   3.248   1.037 -0.8067  0.1701 -0.2551
  778MPD2     C11474   3.540   2.345  15.332  0.7373 -0.5185 -1.0457
  778MPD2    C111475   3.517   2.349  15.194  0.3080 -0.2169  0.0019
  778MPD2    C211476   3.598   2.426  15.107  0.9636  0.8883  0.4171
  778MPD2    C311477   3.700   2.500  15.155  0.0648  0.0926 -0.1419
  778MPD2    C411478   3.706   2.513  15.292 -0.0650 -0.3631 -0.2888
  778MPD2    C511479   3.637   2.432  15.374  0.7017 -1.0497 -0.3136
  778MPD2     H11480   3.586   2.437  15.000  2.3080 -1.3998  0.0299
  778MPD2    H111481   3.786   2.568  15.339 -2.3344  1.5891  1.2582
  778MPD2    H211482   3.483   2.278  15.394  0.4808 -0.3620 -1.1141
  778MPD2    H311483   3.637   2.443  15.482 -0.4169 -0.5065 -0.3614
  778MPD2     N11484   3.786   2.561  15.063  0.7078 -0.1312 -0.6492
  778MPD2    H511485   3.764   2.537  14.967  2.5521 -0.0383 -1.1040
  778MPD2    N111486   3.411   2.270  15.155 -0.0572 -0.0500 -0.2794
  778MPD2    H711487   3.364   2.218  15.228  1.8895  0.0268  1.0229
  779MPD2     C11488   3.303   1.379  14.122  0.9495  0.1715 -0.3306
  779MPD2    C111489   3.432   1.346  14.117 -0.3250  0.6722  0.1810
  779MPD2    C211490   3.529   1.431  14.060  0.2011  0.6229 -0.8600
  779MPD2    C311491   3.483   1.545  13.989  0.7569  0.4855  0.0635
  779MPD2    C411492   3.350   1.576  13.986  0.3590  0.2220 -0.6205
  779MPD2    C511493   3.262   1.497  14.061  0.8398  0.1481 -0.6159
  779MPD2     H11494   3.632   1.401  14.066 -0.8169 -2.8152 -0.6296
  779MPD2    H111495   3.297   1.661  13.945  0.1210  0.6815  0.6550
  779MPD2    H211496   3.221   1.324  14.166  0.5142  0.8282 -0.3046
  779MPD2    H311497   3.159   1.530  14.060 -0.3386 -3.4621  1.1268
  779MPD2     N11498   3.586   1.630  13.951  0.3027 -0.2643 -0.2393
  779MPD2    H511499   3.681   1.601  13.967  0.0387 -1.2620 -0.4847
  779MPD2    N111500   3.465   1.220  14.182  0.5806 -0.1073 -0.1805
  779MPD2    H711501   3.385   1.172  14.222  1.7817 -0.7468  1.4171
  780MPD2     C11502   2.205   1.956   0.805  0.7111 -0.5508  0.5480
  780MPD2    C111503   2.245   1.829   0.831  0.5233 -0.5796  0.3667
  780MPD2    C211504   2.344   1.758   0.768  0.1030  1.0713 -0.6483
  780MPD2    C311505   2.407   1.811   0.661  0.1625  0.7645  0.5252
  780MPD2    C411506   2.370   1.945   0.629  0.2080 -0.0528 -0.3310
  780MPD2    C511507   2.263   2.011   0.695  0.4323  0.0422 -0.2504
  780MPD2     H11508   2.367   1.663   0.814 -0.2824  1.3968  0.2135
  780MPD2    H111509   2.410   1.989   0.539 -0.8486  2.0245  0.2243
  780MPD2    H211510   2.129   2.009   0.861 -0.3201 -1.2305 -0.2155
  780MPD2    H311511   2.246   2.111   0.658  1.2401  0.9997  1.9890
  780MPD2     N11512   2.515   1.748   0.585 -0.3702  0.2408 -0.1248
  780MPD2    H511513   2.562   1.813   0.523  0.1508 -0.2029 -0.1983
  780MPD2    N111514   2.188   1.764   0.942 -0.2995 -0.8915  0.7351
  780MPD2    H711515   2.227   1.670   0.947 -2.0608 -1.6846 -0.4405
  781MPD2     C11516   0.110   2.664  11.672  0.0563  0.0217  0.2730
  781MPD2    C111517   0.193   2.592  11.756 -0.2252  0.3543 -0.7105
  781MPD2    C211518   0.248   2.475  11.716 -0.0923 -0.5660 -0.7340
  781MPD2    C311519   0.231   2.431  11.586 -0.2989  0.2389  0.1938
  781MPD2    C411520   0.141   2.496  11.512  0.3617  0.0429 -0.6218
  781MPD2    C511521   0.083   2.612  11.550  0.0128 -0.4659  0.1185
  781MPD2     H11522   0.312   2.416  11.781 -0.3003  0.0415  0.0297
  781MPD2    H111523   0.124   2.469  11.409  0.0458  0.6386 -0.7259
  781MPD2    H211524   0.056   2.755  11.696  0.8251  0.2746  1.0730
  781MPD2    H311525   0.024   2.672  11.481  0.5718 -0.6356 -0.5046
  781MPD2     N11526   0.290   2.324  11.523 -0.2810  0.1398 -0.0731
  781MPD2    H511527   0.261   2.306  11.427  0.9719 -0.3789 -0.3433
  781MPD2    N111528   0.214   2.625  11.894 -0.7855 -0.2890  0.0688
  781MPD2    H711529   0.255   2.544  11.938  0.5730  0.2462 -0.1922
  782MPD2     C11530   2.215   4.224  10.621 -0.4298 -0.1404  0.0391
  782MPD2    C111531   2.336   4.183  10.562  0.1650 -0.3199 -0.8588
  782MPD2    C211532   2.451   4.225  10.627 -0.6540 -0.6387 -0.4951
  782MPD2    C311533   2.446   4.293  10.746 -0.5023 -0.3968  0.0423
  782MPD2    C411534   2.323   4.321  10.807  0.2084  0.1876 -0.4080
  782MPD2    C511535   2.214   4.295  10.740  0.6061  0.4658 -0.3824
  782MPD2     H11536   2.547   4.199  10.586 -0.0574 -1.2605  1.2942
  782MPD2    H111537   2.317   4.370  10.904 -0.8456 -1.1817  0.2222
  782MPD2    H211538   2.121   4.211  10.568 -0.8564  2.9291  0.0537
  782MPD2    H311539   2.117   4.327  10.777  0.3652  0.9783 -1.4573
  782MPD2     N11540   2.570   4.316  10.811 -0.4542  0.2357 -0.0766
  782MPD2    H511541   2.653   4.283  10.762  0.7971 -1.1237  2.9282
  782MPD2    N111542   2.328   4.107  10.434  0.4519  0.4747  0.1207
  782MPD2    H711543   2.235   4.084  10.403  0.9173  2.4235 -2.7030
  783MPD2     C11544   2.215   3.327  10.732 -0.0808  0.7878  0.5056
  783MPD2    C111545   2.179   3.464  10.760 -0.0211 -0.3231  0.1589
  783MPD2    C211546   2.195   3.566  10.667 -0.2798  0.0821 -0.2545
  783MPD2    C311547   2.244   3.527  10.546  0.5127  0.4001 -0.6145
  783MPD2    C411548   2.288   3.402  10.520 -0.4437 -0.5815 -0.1675
  783MPD2    C511549   2.275   3.302  10.614 -0.0655 -0.7239  0.2363
  783MPD2     H11550   2.159   3.665  10.692  0.8391  0.2547  0.6628
  783MPD2    H111551   2.348   3.372  10.435 -0.7737 -0.0668 -0.5805
  783MPD2    H211552   2.193   3.244  10.798  0.2208 -0.4547 -0.9556
  783MPD2    H311553   2.319   3.204  10.598 -0.4049 -0.6276 -1.3267
  783MPD2     N11554   2.275   3.633  10.455  0.5708 -0.7724 -0.5376
  783MPD2    H511555   2.278   3.726  10.497  2.2621  0.2746 -2.9449
  783MPD2    N111556   2.109   3.475  10.880 -0.7878 -0.2802 -0.1886
  783MPD2    H711557   2.089   3.384  10.922  3.2714 -1.4282 -0.7204
  784MPD2     C11558   0.534   0.269   0.675  0.2259  0.1012 -0.1132
  784MPD2    C111559   0.457   0.253   0.790  0.4605 -0.0039  0.1689
  784MPD2    C211560   0.317   0.268   0.777 -0.0889 -0.0443 -0.4511
  784MPD2    C311561   0.260   0.279   0.652  0.7438  1.0386 -0.2342
  784MPD2    C411562   0.343   0.287   0.544  0.7588  0.3185  0.1434
  784MPD2    C511563   0.477   0.286   0.555  0.4192  0.3319  0.5130
  784MPD2     H11564   0.254   0.270   0.864  1.0811  1.8469  0.3664
  784MPD2    H111565   0.310   0.310   0.443  0.1384 -1.7480 -0.1342
  784MPD2    H211566   0.643   0.263   0.675  0.0300 -3.3587 -1.8093
  784MPD2    H311567   0.536   0.310   0.467 -0.3640 -0.0413 -0.1094
  784MPD2     N11568   0.119   0.260   0.643 -0.4493 -0.1821 -0.3285
  784MPD2    H511569   0.070   0.237   0.730  1.0396 -0.7817  0.3428
  784MPD2    N111570   0.518   0.232   0.914 -0.9352 -0.1083 -0.0102
  784MPD2    H711571   0.458   0.236   0.996 -0.4355  0.4761  0.3246
  785MPD2     C11572   0.210   1.871  10.947 -0.4324  0.2728 -0.0081
  785MPD2    C111573   0.181   1.994  10.982 -0.1688  0.8157  0.2024
  785MPD2    C211574   0.047   2.016  11.012 -0.2972  0.3316  0.4730
  785MPD2    C311575   4.671   1.929  10.994  0.2068 -0.1230 -0.0150
  785MPD2    C411576   4.706   1.802  10.954  0.7333 -0.0687 -0.1289
  785MPD2    C511577   0.108   1.782  10.927  0.2092 -0.6809  0.1968
  785MPD2     H11578   0.022   2.117  11.044 -1.4495  0.2774 -0.2830
  785MPD2    H111579   4.632   1.725  10.937 -0.2867  0.6573  1.0846
  785MPD2    H211580   0.311   1.839  10.928 -0.0814  0.5951  1.2909
  785MPD2    H311581   0.137   1.681  10.899  4.0134  0.5413 -0.1987
  785MPD2     N11582   4.550   1.981  11.043 -0.1682 -0.1017 -0.5381
  785MPD2    H511583   4.558   2.073  11.084  1.5654 -0.3774 -0.2662
  785MPD2    N111584   0.281   2.095  10.992 -0.0422  0.5786  0.2630
  785MPD2    H711585   0.254   2.183  11.035 -0.8436  0.7195 -0.5253
  786MPD2     C11586   3.572   0.658  14.646  0.2041 -0.5730 -0.9415
  786MPD2    C111587   3.665   0.559  14.664 -0.2885  0.0507 -0.6195
  786MPD2    C211588   3.744   0.568  14.773  0.2196  0.6750  0.8271
  786MPD2    C311589   3.719   0.653  14.875  0.1517  0.3867  0.4293
  786MPD2    C411590   3.615   0.744  14.862 -0.1686 -0.3577 -0.0931
  786MPD2    C511591   3.548   0.746  14.747  0.0807  0.3276  0.1664
  786MPD2     H11592   3.819   0.492  14.790 -1.1045 -1.0802 -1.1410
  786MPD2    H111593   3.592   0.823  14.932 -1.2975 -0.6454 -0.1364
  786MPD2    H211594   3.514   0.662  14.555 -1.1455 -0.8737 -0.1022
  786MPD2    H311595   3.476   0.827  14.741 -0.9600 -0.5552  0.7695
  786MPD2     N11596   3.806   0.668  14.991  0.4481  0.1443 -0.5626
  786MPD2    H511597   3.768   0.727  15.065  0.0899  0.5044 -1.0314
  786MPD2    N111598   3.696   0.449  14.579  0.0893  0.0256 -0.5178
  786MPD2    H711599   3.767   0.384  14.611 -0.5693  0.1779  1.2465
  787MPD2     C11600   3.730   4.689  14.929  0.2026  0.3207  0.0178
  787MPD2    C111601   3.759   4.641  14.805  0.0808  0.1648  0.4730
  787MPD2    C211602   3.833   4.522  14.800 -0.2309 -0.1301 -0.8765
  787MPD2    C311603   3.876   4.455  14.915 -0.0469 -0.1153  0.3929
  787MPD2    C411604   3.852   4.512  15.033 -0.1426  0.5340 -0.2883
  787MPD2    C511605   3.777   4.628  15.042  0.5138  0.5863 -0.0816
  787MPD2     H11606   3.865   4.473  14.709  0.5173  2.9010 -2.2753
  787MPD2    H111607   3.890   4.468  15.126 -1.4716 -0.8176 -0.3819
  787MPD2    H211608   3.662   0.042  14.952 -1.1615 -1.0591  0.8616
  787MPD2    H311609   3.744   4.664  15.138 -2.3571 -3.8440  0.5732
  787MPD2     N11610   3.939   4.330  14.911 -0.0738  0.5888 -0.6167
  787MPD2    H511611   3.948   4.285  14.820  3.0735 -1.3748  0.6542
  787MPD2    N111612   3.725   4.720  14.694  0.4581 -0.0874 -0.0223
  787MPD2    H711613   3.672   0.077  14.712  1.0514 -0.1536  2.0680
  788MPD2     C11614   0.660   3.443   1.182  0.0157  0.2430 -0.8813
  788MPD2    C111615   0.762   3.410   1.090 -0.5420  0.1432  0.4267
  788MPD2    C211616   0.822   3.518   1.021 -0.5622  0.3516 -0.7765
  788MPD2    C311617   0.786   3.650   1.057 -0.4505 -0.2275  0.2399
  788MPD2    C411618   0.701   3.672   1.164 -0.0978 -0.3084  0.3063
  788MPD2    C511619   0.638   3.570   1.223 -0.2886 -0.4970 -0.4155
  788MPD2     H11620   0.888   3.493   0.939  0.6992  1.9221 -0.2222
  788MPD2    H111621   0.690   3.775   1.194 -1.0067 -0.3912  0.2568
  788MPD2    H211622   0.609   3.360   1.230  2.1663  0.9500  2.5902
  788MPD2    H311623   0.568   3.589   1.303 -0.2045 -1.2577 -0.1555
  788MPD2     N11624   0.819   3.762   0.964  0.2689  0.3235 -0.1791
  788MPD2    H511625   0.776   3.852   0.986  1.0904  0.6881 -0.0794
  788MPD2    N111626   0.770   3.272   1.054  0.1281 -0.2243 -0.5719
  788MPD2    H711627   0.701   3.213   1.098  1.3571 -0.0417  1.5647
  789MPD2     C11628   1.680   3.431  16.510  0.4651  0.4209  0.6077
  789MPD2    C111629   1.646   3.351  16.616  0.7995  0.0111  0.1966
  789MPD2    C211630   1.519   3.373  16.671 -0.6356 -0.0961  0.7722
  789MPD2    C311631   1.426   3.465  16.613 -0.1564  0.0214  0.2225
  789MPD2    C411632   1.468   3.536  16.500 -0.3170  0.7446  0.7524
  789MPD2    C511633   1.586   3.514  16.452 -0.4485  0.9433  0.0734
  789MPD2     H11634   1.482   3.305  16.748 -2.1013  0.9740  1.0180
  789MPD2    H111635   1.400   3.588  16.433 -0.7823  0.8986  1.3382
  789MPD2    H211636   1.775   3.419  16.459 -0.9161 -0.0062 -1.9161
  789MPD2    H311637   1.628   3.558  16.363 -1.7635 -2.9893 -2.4789
  789MPD2     N11638   1.293   3.473  16.646  0.1044  0.8389 -0.1510
  789MPD2    H511639   1.238   3.517  16.573 -2.2271 -2.3780 -0.3329
  789MPD2    N111640   1.728   3.252  16.666  0.8505  0.1171 -0.2420
  789MPD2    H711641   1.695   3.198  16.745  1.8355  0.8458  0.6735
  790MPD2     C11642   2.173   0.744  13.597 -0.4239 -0.2793 -0.3253
  790MPD2    C111643   2.226   0.620  13.641  0.4783 -0.2294  0.4862
  790MPD2    C211644   2.188   0.508  13.566 -0.4048  0.1631 -0.0028
  790MPD2    C311645   2.112   0.518  13.452  0.3313  0.1343  0.7866
  790MPD2    C411646   2.068   0.641  13.408 -0.1468  0.0604 -0.0274
  790MPD2    C511647   2.092   0.754  13.485  0.2964 -0.1748 -0.1383
  790MPD2     H11648   2.215   0.410  13.604 -2.0351  0.3885  1.7312
  790MPD2    H111649   2.028   0.654  13.308 -1.0424 -0.8491  0.2170
  790MPD2    H211650   2.196   0.836  13.650  1.4080 -1.1157  0.3414
  790MPD2    H311651   2.042   0.846  13.457  0.1637  0.3330  1.7880
  790MPD2     N11652   2.073   0.396  13.383 -0.1619  0.0159 -0.3413
  790MPD2    H511653   2.086   0.312  13.438 -1.3201 -0.7106 -1.1890
  790MPD2    N111654   2.295   0.614  13.762  0.3652 -0.2473  0.2415
  790MPD2    H711655   2.320   0.702  13.805 -0.0008  0.0742 -0.2070
  791MPD2     C11656   1.382   0.312  13.161  0.0407 -0.1873  0.2853
  791MPD2    C111657   1.443   0.220  13.083 -0.6364  0.5150 -0.3468
  791MPD2    C211658   1.382   0.145  12.989  0.6607  0.1566 -0.3025
  791MPD2    C311659   1.247   0.156  12.974 -0.7170  0.3555  0.0545
  791MPD2    C411660   1.179   0.243  13.050  0.1246  0.4736 -0.2602
  791MPD2    C511661   1.249   0.322  13.141  0.1039 -0.2923  0.0869
  791MPD2     H11662   1.444   0.083  12.924 -0.5077 -0.7161 -0.6046
  791MPD2    H111663   1.071   0.251  13.045  0.1109 -0.8705 -2.3009
  791MPD2    H211664   1.429   0.364  13.244  2.2444  0.1600 -1.1530
  791MPD2    H311665   1.199   0.387  13.212 -0.7199  0.4109 -1.1134
  791MPD2     N11666   1.187   0.104  12.858  0.2033  0.0578 -1.2218
  791MPD2    H511667   1.249   0.073  12.784  1.7723  0.8457 -0.2250
  791MPD2    N111668   1.578   0.202  13.118 -0.1113 -0.1877  0.2538
  791MPD2    H711669   1.619   0.273  13.178  1.9064 -1.4292  0.3364
  792MPD2     C11670   2.286   4.568  11.412  1.3514  0.1773 -0.2063
  792MPD2    C111671   2.280   4.583  11.271  0.2339  0.2502  0.1626
  792MPD2    C211672   2.177   4.527  11.197  0.3747  0.3009  0.4213
  792MPD2    C311673   2.068   4.470  11.264  0.1518 -0.5789  0.2785
  792MPD2    C411674   2.075   4.450  11.401 -0.3883 -0.0918 -0.2019
  792MPD2    C511675   2.185   4.501  11.472  0.0390 -0.3973  0.1410
  792MPD2     H11676   2.173   4.550  11.091  1.4040  1.7041  0.6985
  792MPD2    H111677   1.986   4.416  11.454 -0.8471 -3.1006 -2.9092
  792MPD2    H211678   2.368   4.616  11.464  0.2508 -0.6994  2.3311
  792MPD2    H311679   2.183   4.492  11.580  1.3022  0.4680  0.2343
  792MPD2     N11680   1.947   4.430  11.201  0.5417  0.2562 -0.0331
  792MPD2    H511681   1.871   4.393  11.257 -1.5711  2.4549 -1.4265
  792MPD2    N111682   2.380   4.673  11.213  0.4228 -0.2846 -0.4909
  792MPD2    H711683   2.450   4.712  11.276  0.5823 -0.6060 -0.4702
  793MPD2     C11684   1.621   4.440  10.190 -0.8177  0.5431 -0.0324
  793MPD2    C111685   1.709   4.344  10.227 -0.3237  0.1851  0.0671
  793MPD2    C211686   1.719   4.306  10.359 -0.4266 -0.7407 -0.2457
  793MPD2    C311687   1.647   4.370  10.457 -0.5228 -0.2547 -0.4029
  793MPD2    C411688   1.554   4.466  10.420 -0.4205 -0.0523 -0.6726
  793MPD2    C511689   1.549   4.499  10.287 -0.2411  0.1552  0.1871
  793MPD2     H11690   1.797   4.234  10.380 -1.2980 -2.0999 -1.6518
  793MPD2    H111691   1.493   4.522  10.489  0.1577  0.9628 -0.9992
  793MPD2    H211692   1.614   4.475  10.088  1.6936  2.5214  0.4855
  793MPD2    H311693   1.485   4.583  10.261 -0.4020 -0.1134 -0.2685
  793MPD2     N11694   1.663   4.326  10.593  0.0229 -0.3362 -0.1738
  793MPD2    H511695   1.716   4.241  10.607  1.3549  0.5701  0.2600
  793MPD2    N111696   1.808   4.294  10.141  0.1767 -0.1343 -0.1817
  793MPD2    H711697   1.863   4.218  10.179 -0.2696  1.1187  2.9071
  794MPD2     C11698   2.279   0.038  17.501 -0.2193 -0.6930 -0.8974
  794MPD2    C111699   2.212   4.645  17.505  0.1049  0.8832 -0.3409
  794MPD2    C211700   2.158   4.598  17.390  0.4718 -0.4859  0.0625
  794MPD2    C311701   2.146   4.676  17.270  0.3535  0.8062 -0.7098
  794MPD2    C411702   2.221   0.066  17.276  0.0847 -0.3370 -0.7370
  794MPD2    C511703   2.289   0.113  17.388 -0.0443  0.3807  1.0571
  794MPD2     H11704   2.106   4.503  17.396  0.1633 -0.2434  1.2740
  794MPD2    H111705   2.228   0.137  17.195  0.4438 -1.2524 -1.5143
  794MPD2    H211706   2.327   0.080  17.589 -0.7458 -0.6971 -0.6121
  794MPD2    H311707   2.345   0.206  17.388 -0.1640  0.4529  1.0803
  794MPD2     N11708   2.059   4.645  17.167 -0.3795  0.1780 -0.7607
  794MPD2    H511709   2.042   4.721  17.102 -0.0912 -0.9749 -2.1713
  794MPD2    N111710   2.207   4.568  17.625  0.2749  0.9287  0.0211
  794MPD2    H711711   2.151   4.483  17.622  0.7026  0.6358  0.3562
  795MPD2     C11712   4.565   1.445  13.332 -0.5988 -0.1934 -0.3919
  795MPD2    C111713   4.479   1.349  13.385  0.2097  1.2114  0.3649
  795MPD2    C211714   4.539   1.233  13.425  0.2823 -0.5523 -0.1675
  795MPD2    C311715   4.674   1.208  13.410  0.1355  0.3515 -0.7482
  795MPD2    C411716   0.032   1.304  13.358  0.0198 -0.0298  0.2734
  795MPD2    C511717   4.701   1.422  13.326  0.7289 -0.3049 -0.4218
  795MPD2     H11718   4.489   1.149  13.470  2.8813 -1.7519  0.4909
  795MPD2    H111719   0.140   1.291  13.355 -0.1412 -1.3958  0.0238
  795MPD2    H211720   4.537   1.540  13.287 -0.1142  0.7565  1.3400
  795MPD2    H311721   0.030   1.510  13.297  0.0293  0.3674  0.2088
  795MPD2     N11722   4.717   1.085  13.454  0.9096 -0.2529  0.1410
  795MPD2    H511723   4.649   1.025  13.499  0.8066  1.2390  1.9886
  795MPD2    N111724   4.343   1.370  13.399  0.0531 -0.5330  0.0296
  795MPD2    H711725   4.273   1.297  13.412 -2.4682  1.8469 -0.1621
  796MPD2     C11726   4.078   3.204  16.006 -0.0228 -0.4477 -0.2279
  796MPD2    C111727   4.175   3.256  16.096  0.0804 -0.0395  0.0701
  796MPD2    C211728   4.178   3.390  16.113  0.1272 -0.2506  0.1548
  796MPD2    C311729   4.076   3.470  16.058 -0.6442  0.0840 -0.6754
  796MPD2    C411730   3.977   3.418  15.983  0.0181 -0.2224 -0.1649
  796MPD2    C511731   3.979   3.286  15.953  0.4087 -0.1176 -0.3775
  796MPD2     H11732   4.240   3.446  16.182  0.7157 -1.5224  0.6668
  796MPD2    H111733   3.894   3.476  15.944 -0.8256 -0.6588  0.9865
  796MPD2    H211734   4.074   3.099  15.982 -1.3156  0.0726 -2.2518
  796MPD2    H311735   3.904   3.240  15.889  0.1848 -0.6185  0.2399
  796MPD2     N11736   4.073   3.608  16.084 -0.5429  0.1842 -0.7092
  796MPD2    H511737   4.135   3.646  16.155 -0.1497  0.0606 -0.9841
  796MPD2    N111738   4.269   3.169  16.148 -0.1213 -0.0800  0.5119
  796MPD2    H711739   4.245   3.072  16.136 -0.3952  0.1793 -1.0848
  797MPD2     C11740   0.375   2.712  17.289 -0.3246  0.4509  0.6120
  797MPD2    C111741   0.383   2.837  17.356  0.3224  0.1177 -0.2781
  797MPD2    C211742   0.269   2.907  17.387  0.0844 -0.2317  0.2479
  797MPD2    C311743   0.148   2.864  17.336  0.0499 -0.1702  0.0928
  797MPD2    C411744   0.141   2.753  17.263 -0.9501 -0.0830  0.0931
  797MPD2    C511745   0.249   2.670  17.247  0.1761  0.4065  0.3524
  797MPD2     H11746   0.281   2.996  17.447 -1.3490  1.6738 -2.2894
  797MPD2    H111747   0.042   2.732  17.224 -0.6594 -0.2316 -0.5810
  797MPD2    H211748   0.465   2.652  17.279 -1.4599 -1.1244 -0.2127
  797MPD2    H311749   0.245   2.572  17.201 -0.4794  0.9585 -0.7662
  797MPD2     N11750   0.024   2.933  17.361  0.4362  0.0230  0.2837
  797MPD2    H511751   4.670   2.899  17.311  0.5046 -0.5494  0.5497
  797MPD2    N111752   0.502   2.888  17.416  0.1632 -0.1832 -0.2914
  797MPD2    H711753   0.497   2.970  17.476 -0.4719 -0.7493  0.4215
  798MPD2     C11754   0.261   3.529  17.630 -0.4395  0.0818  1.0563
  798MPD2    C111755   0.218   3.398  17.621 -0.0641  0.2205 -0.0436
  798MPD2    C211756   0.308   3.295  17.649  0.0095 -0.3666  0.7914
  798MPD2    C311757   0.445   3.321  17.670  0.3042  0.9016 -0.1504
  798MPD2    C411758   0.489   3.450  17.671  0.0052  0.6030  0.4316
  798MPD2    C511759   0.395   3.553  17.652 -0.3907 -0.6095  1.0742
  798MPD2     H11760   0.274   3.193  17.633 -0.8587  0.2834 -1.4892
  798MPD2    H111761   0.591   3.475  17.699  0.7431 -1.7316 -0.1614
  798MPD2    H211762   0.199   3.615  17.607  0.3703  0.8337  1.7089
  798MPD2    H311763   0.415   3.659  17.664 -0.9657 -0.5002  1.0588
  798MPD2     N11764   0.535   3.207  17.680  0.3315 -0.0943 -0.2682
  798MPD2    H511765   0.494   3.117  17.654  0.1389  0.2977 -1.3431
  798MPD2    N111766   0.091   3.355  17.574 -0.4453 -0.3821  0.4470
  798MPD2    H711767   0.075   3.255  17.563 -1.2878 -0.1844 -0.1045
  799MPD2     C11768   3.608   4.223  14.907 -0.3791 -0.2726  0.6423
  799MPD2    C111769   3.609   4.121  14.815  0.1553  0.1862 -0.2033
  799MPD2    C211770   3.561   4.147  14.684  0.4991 -0.3503  0.1764
  799MPD2    C311771   3.528   4.279  14.649  0.3412  0.4710 -1.2306
  799MPD2    C411772   3.528   4.377  14.750  0.2679 -0.3322 -0.5240
  799MPD2    C511773   3.559   4.348  14.879  0.1020 -0.0033 -0.2970
  799MPD2     H11774   3.562   4.063  14.616  2.2782  1.1908 -1.7048
  799MPD2    H111775   3.497   4.478  14.725  1.3432  0.4335  1.2198
  799MPD2    H211776   3.645   4.208  15.008 -2.6326 -2.5892  1.1284
  799MPD2    H311777   3.552   4.420  14.959 -1.3326 -0.5144  0.0404
  799MPD2     N11778   3.496   4.325  14.521 -0.4070  0.1938 -0.8944
  799MPD2    H511779   3.473   4.423  14.510  3.6754  1.4667  1.7553
  799MPD2    N111780   3.665   3.994  14.841 -0.3727  0.6120  0.5199
  799MPD2    H711781   3.671   3.924  14.767 -3.9384 -1.3146  2.0505
  800MPD2     C11782   3.993   0.258  13.816 -0.4958 -0.4890 -0.0115
  800MPD2    C111783   4.074   0.346  13.753  0.1771 -0.6721  0.1925
  800MPD2    C211784   4.084   0.334  13.611 -0.3097  0.1787  0.6170
  800MPD2    C311785   4.008   0.238  13.542  0.4987 -0.2715 -0.0232
  800MPD2    C411786   3.942   0.138  13.618 -0.2441  0.4802 -0.6679
  800MPD2    C511787   3.941   0.144  13.757  0.0651 -0.3621 -0.4397
  800MPD2     H11788   4.138   0.411  13.558 -0.1563  0.9753  1.9197
  800MPD2    H111789   3.878   0.065  13.571 -0.9159 -1.0325  2.6442
  800MPD2    H211790   3.971   0.270  13.921  1.4978 -3.0199  0.6992
  800MPD2    H311791   3.884   0.075  13.818 -0.2046 -1.4093 -1.8708
  800MPD2     N11792   4.020   0.238  13.404 -0.5315  0.0328  0.6238
  800MPD2    H511793   4.068   0.323  13.374  0.0701  0.0256  1.5847
  800MPD2    N111794   4.133   0.451  13.826 -0.5087  0.3329 -0.4998
  800MPD2    H711795   4.112   0.461  13.925 -3.4020  0.3819 -1.1252
  801MPD2     C11796   4.425   1.277  13.765 -0.1758 -0.3987  0.2920
  801MPD2    C111797   4.416   1.227  13.896  0.4366  0.3719  0.5590
  801MPD2    C211798   4.452   1.314  13.999  0.3644  0.0923 -0.3519
  801MPD2    C311799   4.486   1.445  13.973 -0.1459 -1.1117  0.5939
  801MPD2    C411800   4.505   1.488  13.846  0.2773  0.3022 -0.3885
  801MPD2    C511801   4.476   1.402  13.746  0.1020 -0.0549  0.7274
  801MPD2     H11802   4.441   1.278  14.100  3.1714 -2.1390 -0.8477
  801MPD2    H111803   4.544   1.586  13.819  2.4365 -0.4579  0.0348
  801MPD2    H211804   4.404   1.219  13.675  0.6232  2.2481 -1.5877
  801MPD2    H311805   4.475   1.430  13.641  0.7634 -1.7961  0.2492
  801MPD2     N11806   4.517   1.531  14.076  0.3203  0.1469  0.0766
  801MPD2    H511807   4.575   1.612  14.056 -0.6412  1.1739  1.4061
  801MPD2    N111808   4.374   1.095  13.935 -0.4117 -0.1766  0.3269
  801MPD2    H711809   4.366   1.068  14.032  0.5979  0.7931  0.6792
  802MPD2     C11810   3.835   0.822  17.598 -0.9332  0.2554 -0.4860
  802MPD2    C111811   3.898   0.948  17.582  0.2373  0.1837 -0.1723
  802MPD2    C211812   3.968   0.976  17.466 -0.8208  1.1968 -0.4641
  802MPD2    C311813   3.976   0.881  17.366  0.5496 -1.1362 -0.5818
  802MPD2    C411814   3.903   0.764  17.379  0.2273  0.1523  0.3206
  802MPD2    C511815   3.832   0.737  17.490 -0.4350 -0.1503 -0.2861
  802MPD2     H11816   4.005   1.077  17.459  0.6036  0.7566  0.6998
  802MPD2    H111817   3.902   0.685  17.305  0.2626 -0.1887  0.6804
  802MPD2    H211818   3.773   0.808  17.686  0.5661 -3.0421  0.0541
  802MPD2    H311819   3.784   0.640  17.500 -0.1828 -0.1874  0.5726
  802MPD2     N11820   4.047   0.912  17.248 -0.5115  0.0185 -0.2726
  802MPD2    H511821   4.110   0.991  17.250 -0.2397 -0.2315  0.8160
  802MPD2    N111822   3.894   1.057  17.677 -0.4695  0.1233  0.1629
  802MPD2    H711823   3.931   1.147  17.648  0.9616 -1.0250 -1.5433
  803MPD2     C11824   0.425   0.013  11.976  0.3253  0.7341  0.2202
  803MPD2    C111825   0.373   0.061  12.093 -0.0625 -0.0766  0.0512
  803MPD2    C211826   0.312   4.695  12.178  0.1758 -0.6115 -0.0160
  803MPD2    C311827   0.290   4.567  12.140  0.9756 -0.7005  0.4022
  803MPD2    C411828   0.348   4.519  12.024 -0.8940 -0.1480 -0.1001
  803MPD2    C511829   0.415   4.608  11.945  0.2260 -0.4154 -0.6247
  803MPD2     H11830   0.281   0.008  12.273 -0.9601 -0.2079 -0.5513
  803MPD2    H111831   0.348   4.420  11.980  1.0635 -0.5585  0.8273
  803MPD2    H211832   0.475   0.079  11.906  0.1689 -0.1558 -0.7123
  803MPD2    H311833   0.454   4.575  11.850 -0.6059  1.3442 -1.5696
  803MPD2     N11834   0.210   4.472  12.206 -0.2905  0.4071 -0.2396
  803MPD2    H511835   0.211   4.375  12.177 -0.0024  0.1944  0.4945
  803MPD2    N111836   0.402   0.194  12.142 -0.2121 -0.1891  0.6949
  803MPD2    H711837   0.363   0.215  12.234 -0.7655  1.7374  0.0276
  804MPD2     C11838   4.661   1.812  16.970  0.0911  0.8871 -0.2862
  804MPD2    C111839   0.016   1.738  17.058 -0.8801  0.3887 -0.0833
  804MPD2    C211840   0.112   1.809  17.131  0.3094  0.1324 -0.3214
  804MPD2    C311841   0.132   1.942  17.105  0.5369  0.6531 -0.4082
  804MPD2    C411842   0.057   2.012  17.007 -0.2312 -0.2196  0.3379
  804MPD2    C511843   4.685   1.941  16.947 -0.3350 -0.0573 -0.0955
  804MPD2     H11844   0.169   1.759  17.208  0.0592  4.2514  2.4929
  804MPD2    H111845   0.062   2.117  16.985 -0.1973 -0.2742  0.0871
  804MPD2    H211846   4.583   1.760  16.917 -0.8347 -1.2401  3.1609
  804MPD2    H311847   4.611   1.989  16.884  0.0490  0.1280 -0.4075
  804MPD2     N11848   0.222   2.008  17.186  0.2870 -0.2402 -0.3902
  804MPD2    H511849   0.296   1.948  17.221  0.1424 -0.3105 -0.2012
  804MPD2    N111850   0.017   1.598  17.070 -0.2457  0.1330 -0.6696
  804MPD2    H711851   0.080   1.565  17.142 -0.9929 -0.5329 -0.3181
  805MPD2     C11852   3.571   4.432  15.777 -0.1594 -0.4920 -0.1141
  805MPD2    C111853   3.646   4.483  15.671 -0.0146  0.4198  0.3905
  805MPD2    C211854   3.784   4.487  15.670  0.0701 -0.7138  0.7354
  805MPD2    C311855   3.860   4.442  15.776 -0.0482  0.2738 -1.0576
  805MPD2    C411856   3.780   4.394  15.880  0.1032 -0.5330 -0.6806
  805MPD2    C511857   3.640   4.387  15.876 -0.4720 -0.6142 -0.5680
  805MPD2     H11858   3.834   4.522  15.581 -0.9283  0.5004  0.6473
  805MPD2    H111859   3.831   4.354  15.966 -0.6187 -3.4430 -1.6236
  805MPD2    H211860   3.463   4.417  15.775  0.1135 -2.4934  0.5699
  805MPD2    H311861   3.604   4.338  15.966 -2.8838  2.1750  0.0122
  805MPD2     N11862   4.003   4.445  15.774  0.0263 -0.4935  0.3091
  805MPD2    H511863   4.047   4.481  15.690 -0.8400  0.9120  0.4518
  805MPD2    N111864   3.586   4.530  15.552 -0.4123  0.1688  0.3937
  805MPD2    H711865   3.648   4.556  15.477 -2.0475  1.1098 -0.6319
  806MPD2     C11866   0.116   4.392   0.399 -0.1676 -0.6261  1.0714
  806MPD2    C111867   0.163   4.497   0.477  0.4864  0.3732 -0.2115
  806MPD2    C211868   0.162   4.619   0.407 -0.0138  1.1572 -0.3662
  806MPD2    C311869   0.111   4.631   0.282 -0.1370  0.2786  0.6553
  806MPD2    C411870   0.076   4.521   0.209 -0.2469 -0.2008 -0.2890
  806MPD2    C511871   0.080   4.404   0.266  0.4853 -0.1447  0.6394
  806MPD2     H11872   0.195   4.709   0.458 -2.5095  1.6062  0.4695
  806MPD2    H111873   0.029   4.526   0.111 -0.0123 -1.2533 -0.4549
  806MPD2    H211874   0.111   4.291   0.438  1.3322  0.2838  3.6239
  806MPD2    H311875   0.059   4.319   0.201  2.7120  0.0801 -0.3876
  806MPD2     N11876   0.089   0.038   0.234 -0.3827 -0.1014  0.2121
  806MPD2    H511877   0.123   0.114   0.291 -1.5407 -1.0097  2.1162
  806MPD2    N111878   0.205   4.481   0.606 -0.1756  0.5273 -0.3498
  806MPD2    H711879   0.192   4.393   0.655  1.9674  1.1934  1.3886
  807MPD2     C11880   0.166   4.653   1.431 -0.1270  0.1048  0.5671
  807MPD2    C111881   0.173   4.533   1.372  1.1680  0.0399  0.4874
  807MPD2    C211882   0.121   4.417   1.429 -0.1923 -0.0356  0.5133
  807MPD2    C311883   0.056   4.424   1.553 -0.0462 -0.3071 -0.1435
  807MPD2    C411884   0.054   4.546   1.614 -0.2104 -0.9631  0.6635
  807MPD2    C511885   0.097   4.657   1.549 -0.3362  0.2047 -0.1486
  807MPD2     H11886   0.133   4.318   1.386  1.4869  0.4593 -0.1393
  807MPD2    H111887   4.719   4.553   1.702 -0.0838 -3.0982  0.9167
  807MPD2    H211888   0.219   0.009   1.388 -0.9295  0.6509  0.6530
  807MPD2    H311889   0.095   0.023   1.605  0.3897  0.8912 -1.2770
  807MPD2     N11890   4.714   4.320   1.616 -0.6867 -0.1201  0.2577
  807MPD2    H511891   4.682   4.331   1.712 -1.4006 -0.2721  0.0405
  807MPD2    N111892   0.244   4.519   1.247  0.2353  0.2510  0.0425
  807MPD2    H711893   0.248   4.421   1.218  0.8331  0.1201  0.5878
  808MPD2     C11894   3.853   0.180   9.327  0.2892  0.3297  0.1123
  808MPD2    C111895   3.972   0.146   9.371 -0.0868 -0.3128 -0.5611
  808MPD2    C211896   4.082   0.209   9.321  0.4714  0.3088 -0.6020
  808MPD2    C311897   4.076   0.320   9.239  0.2963 -0.3142 -0.4416
  808MPD2    C411898   3.952   0.370   9.213  0.6370 -0.2407 -0.3797
  808MPD2    C511899   3.840   0.291   9.251  0.1371  0.5457 -0.3566
  808MPD2     H11900   4.182   0.183   9.352  0.3773  2.8688  1.8257
  808MPD2    H111901   3.941   0.456   9.149  1.1282  0.2828  0.2519
  808MPD2    H211902   3.757   0.136   9.353  0.7361 -1.2102 -0.8411
  808MPD2    H311903   3.740   0.315   9.217 -0.9568 -4.6735 -0.8395
  808MPD2     N11904   4.189   0.394   9.190 -0.6435  0.1628  0.0026
  808MPD2    H511905   4.165   0.476   9.136  1.0728  1.4379  1.1720
  808MPD2    N111906   3.992   0.029   9.454 -0.0045 -0.8975 -0.1614
  808MPD2    H711907   4.084   0.013   9.494  0.2567 -2.2656 -1.3228
  809MPD2     C11908   0.437   0.115   9.121  0.1363 -0.4844 -0.0528
  809MPD2    C111909   0.431   0.221   9.036 -0.4295  0.5325  0.2528
  809MPD2    C211910   0.312   0.292   9.024 -0.7972 -0.3428 -0.1882
  809MPD2    C311911   0.199   0.254   9.099  0.1115 -0.4307 -0.4848
  809MPD2    C411912   0.209   0.133   9.167  0.0648  0.4972  0.4644
  809MPD2    C511913   0.328   0.069   9.179 -0.3400  0.1185  0.1861
  809MPD2     H11914   0.297   0.379   8.961  2.8192 -0.9087 -1.8548
  809MPD2    H111915   0.126   0.088   9.221 -1.0751 -1.1431 -2.7071
  809MPD2    H211916   0.520   0.049   9.146 -1.5932 -2.2765  0.9096
  809MPD2    H311917   0.324   4.700   9.227 -0.6017  0.1275  0.1826
  809MPD2     N11918   0.078   0.326   9.098  0.8781 -0.3899 -0.6081
  809MPD2    H511919   0.002   0.285   9.151  1.3125 -0.1192  0.2183
  809MPD2    N111920   0.536   0.264   8.957 -0.2276  0.2352 -0.1541
  809MPD2    H711921   0.522   0.338   8.889  0.3199  0.5725  0.0948
  810MPD2     C11922   4.389   4.337  10.377 -1.2249  0.0007  0.5996
  810MPD2    C111923   4.302   4.440  10.351  0.8981 -0.0442  0.0282
  810MPD2    C211924   4.332   4.565  10.401  0.8865 -0.3406 -0.0593
  810MPD2    C311925   4.451   4.587  10.466 -0.0216  0.1594  0.0306
  810MPD2    C411926   4.535   4.482  10.498 -0.5618 -0.7290  0.1611
  810MPD2    C511927   4.500   4.354  10.451 -0.3864  0.0635 -0.1910
  810MPD2     H11928   4.261   4.646  10.386  0.7374 -0.5543 -0.5030
  810MPD2    H111929   4.629   4.502  10.546 -0.0795  0.5466 -1.3057
  810MPD2    H211930   4.369   4.237  10.340  1.8401  0.0842 -1.3080
  810MPD2    H311931   4.563   4.270  10.478 -0.3527 -0.0612 -0.6579
  810MPD2     N11932   4.482   4.709  10.518 -0.3188  0.2602 -0.4705
  810MPD2    H511933   4.564   4.706  10.576 -0.5459 -1.5302 -0.2465
  810MPD2    N111934   4.186   4.406  10.277  0.0099 -0.2023 -0.1764
  810MPD2    H711935   4.177   4.311  10.240 -0.9698 -0.5971  1.0825
  811MPD2     C11936   3.477   4.525   9.661 -0.8558  0.2635 -0.0525
  811MPD2    C111937   3.573   4.589   9.733  0.0333 -0.2444 -0.4268
  811MPD2    C211938   3.610   4.716   9.698  0.2857 -0.3030 -0.2137
  811MPD2    C311939   3.548   0.052   9.591  0.1264  0.0427  0.6783
  811MPD2    C411940   3.447   4.712   9.527  0.9487 -0.2606 -0.0253
  811MPD2    C511941   3.404   4.589   9.563  0.0862  0.1815  0.0563
  811MPD2     H11942   3.694   0.039   9.745  1.4296  0.1643 -2.7510
  811MPD2    H111943   3.381   0.030   9.453  2.1430  0.1520 -0.8385
  811MPD2    H211944   3.457   4.421   9.684 -1.1880  0.0798 -1.1686
  811MPD2    H311945   3.329   4.531   9.510  0.0968  0.0210  0.2194
  811MPD2     N11946   3.593   0.178   9.539 -0.3661 -0.4258  0.1833
  811MPD2    H511947   3.675   0.205   9.593 -0.3900 -0.0147  0.0144
  811MPD2    N111948   3.645   4.518   9.836  0.0578  0.4867  0.3671
  811MPD2    H711949   3.623   4.420   9.850  0.0940  0.5764  1.0605
  812MPD2     C11950   2.885   4.421  12.337 -0.5003 -1.0900  0.0927
  812MPD2    C111951   2.856   4.499  12.449  0.6431  0.3133  0.2375
  812MPD2    C211952   2.834   4.441  12.569  0.0561 -0.3699  0.6094
  812MPD2    C311953   2.823   4.297  12.579 -0.8290  0.0342 -0.3525
  812MPD2    C411954   2.834   4.223  12.466  0.2177 -0.2768 -0.6569
  812MPD2    C511955   2.863   4.290  12.351  0.3885 -0.6412 -0.0466
  812MPD2     H11956   2.819   4.502  12.657  1.4970  1.2122 -0.2305
  812MPD2    H111957   2.853   4.117  12.473  1.8214 -0.0104 -0.8637
  812MPD2    H211958   2.914   4.469  12.244 -0.1474 -1.0458  0.2231
  812MPD2    H311959   2.877   4.228  12.263  1.6453 -1.7919  0.9549
  812MPD2     N11960   2.799   4.231  12.702  0.2604 -0.4887  0.6335
  812MPD2    H511961   2.796   4.292  12.783  1.0126  2.9274 -1.9034
  812MPD2    N111962   2.882   4.643  12.443 -0.2750 -0.4397  0.0457
  812MPD2    H711963   2.896   4.687  12.353  0.4240 -0.2634  0.2439
  813MPD2     C11964   2.076   2.149  12.875 -0.6464 -0.4346  0.1673
  813MPD2    C111965   2.178   2.083  12.942 -0.6597  0.1805 -0.4514
  813MPD2    C211966   2.134   2.000  13.051 -0.6236  0.2616 -0.0853
  813MPD2    C311967   2.001   1.993  13.099  0.3618 -0.0588 -0.6062
  813MPD2    C411968   1.908   2.069  13.031  0.5468  0.4450  0.7064
  813MPD2    C511969   1.945   2.146  12.921 -0.5467 -0.1822  0.5412
  813MPD2     H11970   2.211   1.954  13.112 -0.9530  0.0090  0.1462
  813MPD2    H111971   1.810   2.066  13.077  0.8710  0.3433  1.3885
  813MPD2    H211972   2.101   2.223  12.800  1.6792 -0.3520  1.0238
  813MPD2    H311973   1.871   2.203  12.867  1.0167 -0.5977 -2.0457
  813MPD2     N11974   1.981   1.920  13.219 -0.8295  0.5480  0.2348
  813MPD2    H511975   2.066   1.893  13.268 -0.7550 -0.4011 -0.3999
  813MPD2    N111976   2.309   2.106  12.890 -0.1569 -0.4445 -0.5225
  813MPD2    H711977   2.312   2.172  12.812 -2.2295 -3.2705 -3.0157
  814MPD2     C11978   2.332   3.226  12.261  0.1121  0.1878 -0.1806
  814MPD2    C111979   2.347   3.273  12.136  0.7976 -0.2029  0.0896
  814MPD2    C211980   2.415   3.398  12.119 -0.2904  0.4106 -0.3360
  814MPD2    C311981   2.471   3.466  12.228  0.1768  0.9932  0.1038
  814MPD2    C411982   2.463   3.401  12.348  0.0984  0.2361 -0.0324
  814MPD2    C511983   2.393   3.286  12.367 -0.2792  0.3014  0.2414
  814MPD2     H11984   2.406   3.446  12.023 -1.7616 -1.0578 -0.9324
  814MPD2    H111985   2.509   3.445  12.435  0.0705  0.9948 -0.3992
  814MPD2    H211986   2.276   3.136  12.284  1.8936 -0.9149 -0.1716
  814MPD2    H311987   2.383   3.245  12.466  1.3012 -0.6894 -0.0108
  814MPD2     N11988   2.543   3.590  12.218 -0.8676 -0.0831 -0.6061
  814MPD2    H511989   2.585   3.625  12.304  0.0560  0.7531 -1.3985
  814MPD2    N111990   2.287   3.217  12.025  0.2021  0.2382  0.4373
  814MPD2    H711991   2.287   3.270  11.938  0.6227 -2.2120 -1.0852
  815MPD2     C11992   3.112   1.804  11.711  0.5288 -0.2377  0.0229
  815MPD2    C111993   3.145   1.670  11.717  0.4792  0.0473  0.2973
  815MPD2    C211994   3.105   1.590  11.830 -0.0115 -0.7262 -0.4775
  815MPD2    C311995   3.027   1.649  11.925 -0.0834  0.2037 -0.1338
  815MPD2    C411996   3.004   1.790  11.927 -0.5689  0.4910  0.1978
  815MPD2    C511997   3.051   1.862  11.819  0.6603  0.3872 -0.7089
  815MPD2     H11998   3.123   1.484  11.841  1.5109 -0.4522 -0.2673
  815MPD2    H111999   2.961   1.842  12.012  0.3475  0.5979  0.5964
  815MPD2    H212000   3.138   1.877  11.635 -1.3489  1.1259  0.6925
  815MPD2    H312001   3.034   1.969  11.813 -3.3404 -0.1374  0.8225
  815MPD2     N12002   2.984   1.549  12.023  0.3157 -0.0410 -0.2508
  815MPD2    H512003   3.022   1.456  12.013 -0.5040 -0.5813  1.5578
  815MPD2    N112004   3.213   1.608  11.607 -0.5413 -0.1356 -0.2810
  815MPD2    H712005   3.237   1.657  11.522 -0.8192 -0.6281 -0.6465
  816MPD2     C12006   2.943   0.953  17.350 -0.2006 -0.5382 -0.1882
  816MPD2    C112007   2.958   1.059  17.255 -0.2481  0.9296 -0.2407
  816MPD2    C212008   3.062   1.065  17.159  0.2992  0.2393  0.3880
  816MPD2    C312009   3.148   0.961  17.155  0.0756  0.2584 -0.0121
  816MPD2    C412010   3.137   0.865  17.253 -0.0838 -0.2792  0.7559
  816MPD2    C512011   3.038   0.853  17.345  0.0131  0.4455  0.3288
  816MPD2     H12012   3.077   1.144  17.087  0.8879 -0.9065 -0.7442
  816MPD2    H112013   3.206   0.781  17.254 -1.4763 -1.4297  0.8472
  816MPD2    H212014   2.861   0.954  17.422 -0.7017  1.2796 -0.8036
  816MPD2    H312015   3.047   0.771  17.415  1.0989  0.1739 -0.1346
  816MPD2     N12016   3.248   0.958  17.056  0.1395  0.4014 -0.0239
  816MPD2    H512017   3.267   1.046  17.011  2.6059  0.7439  1.6982
  816MPD2    N112018   2.859   1.164  17.267 -0.5611  0.1537 -0.4317
  816MPD2    H712019   2.786   1.141  17.334  0.2519  1.6067  0.9445
  817MPD2     C12020   2.431   1.920  10.242 -0.1635  0.1699  0.4081
  817MPD2    C112021   2.500   1.956  10.134  0.4816 -0.1125 -0.0350
  817MPD2    C212022   2.476   2.084  10.086  0.1690  0.1729  0.4318
  817MPD2    C312023   2.406   2.183  10.151 -0.2896 -0.7519  0.2670
  817MPD2    C412024   2.331   2.142  10.259  0.1516  0.0979 -0.6286
  817MPD2    C512025   2.350   2.014  10.306 -0.7716 -0.4310 -0.6534
  817MPD2     H12026   2.522   2.122   9.996 -0.4467  1.9952  0.8781
  817MPD2    H112027   2.270   2.214  10.312 -0.4383 -2.2646  1.9167
  817MPD2    H212028   2.436   1.820  10.285  1.5707 -0.2052 -0.7023
  817MPD2    H312029   2.295   1.982  10.394 -0.1963 -0.5284 -0.3266
  817MPD2     N12030   2.403   2.320  10.111 -0.3651 -0.2330  0.3277
  817MPD2    H512031   2.326   2.376  10.147 -0.3505  0.1485 -0.2386
  817MPD2    N112032   2.579   1.865  10.063 -0.0183 -0.2832 -0.3553
  817MPD2    H712033   2.622   1.888   9.974  1.2326 -3.0692 -0.4667
  818MPD2     C12034   1.478   1.979  10.007  0.0471 -1.0397 -0.1948
  818MPD2    C112035   1.377   1.913  10.079 -0.4226 -0.6015 -0.0939
  818MPD2    C212036   1.403   1.782  10.127  1.2037  0.1462 -0.4709
  818MPD2    C312037   1.517   1.711  10.097 -0.0292 -0.4010 -0.0794
  818MPD2    C412038   1.609   1.774  10.016  0.5113 -0.2800 -0.6897
  818MPD2    C512039   1.590   1.908   9.983 -0.0637  0.6057 -0.1115
  818MPD2     H12040   1.338   1.727  10.195  1.1107 -0.5943 -1.1492
  818MPD2    H112041   1.706   1.731   9.993  0.3851 -1.9355  1.8730
  818MPD2    H212042   1.477   2.081   9.970 -0.9136 -1.4206 -1.2162
  818MPD2    H312043   1.670   1.967   9.940  1.7277 -1.3807  0.5094
  818MPD2     N12044   1.530   1.590  10.158  0.1144 -0.1414  0.3548
  818MPD2    H512045   1.454   1.566  10.220 -1.8024 -0.7067 -2.2311
  818MPD2    N112046   1.257   1.972  10.116 -0.0868 -0.0998  0.2215
  818MPD2    H712047   1.201   1.924  10.186 -2.1443 -0.1116 -1.4212
  819MPD2     C12048   4.296   4.090  15.750 -0.0370 -0.7344 -0.4188
  819MPD2    C112049   4.290   3.954  15.735 -0.3066 -0.3570 -0.3844
  819MPD2    C212050   4.411   3.883  15.745  0.1827  0.0425  0.2188
  819MPD2    C312051   4.531   3.950  15.772  0.6371 -0.2773 -0.0224
  819MPD2    C412052   4.528   4.083  15.799 -0.1724 -0.0782  0.2340
  819MPD2    C512053   4.412   4.145  15.775 -0.7210  1.2748 -0.2412
  819MPD2     H12054   4.418   3.775  15.732  0.9202  0.3756 -2.1281
  819MPD2    H112055   4.617   4.141  15.822 -1.9101  2.8583 -0.5447
  819MPD2    H212056   4.211   4.154  15.728 -0.3945 -0.8370  0.6643
  819MPD2    H312057   4.425   4.253  15.781  0.8261  1.0076  1.2300
  819MPD2     N12058   4.652   3.873  15.795  0.3902 -0.0372 -0.5436
  819MPD2    H512059   4.652   3.782  15.751 -0.2812  0.0385 -0.7068
  819MPD2    N112060   4.160   3.897  15.713  0.1542  0.0452 -0.0725
  819MPD2    H712061   4.086   3.963  15.692  0.5523  0.8045  0.9129
  820MPD2     C12062   3.363   3.918  15.108 -0.3258 -0.2521 -0.0570
  820MPD2    C112063   3.439   4.004  15.186  0.3371 -0.3704 -1.4636
  820MPD2    C212064   3.533   3.951  15.279  0.2794 -0.0331 -0.3707
  820MPD2    C312065   3.545   3.814  15.301  0.5594  1.0798  0.2333
  820MPD2    C412066   3.446   3.740  15.237 -0.5626  0.3377  0.0323
  820MPD2    C512067   3.355   3.788  15.146 -0.3436  0.0185  0.5611
  820MPD2     H12068   3.596   4.014  15.342 -0.7558 -0.8376  1.4465
  820MPD2    H112069   3.446   3.634  15.259  1.1206  0.3641  0.2117
  820MPD2    H212070   3.307   3.954  15.023 -0.5164 -1.4927 -0.4665
  820MPD2    H312071   3.286   3.722  15.096  1.1009 -0.5572 -0.6846
  820MPD2     N12072   3.643   3.760  15.390  0.0661  0.2289  0.0607
  820MPD2    H512073   3.629   3.660  15.406  1.0437 -0.4027 -3.0792
  820MPD2    N112074   3.418   4.141  15.170  0.5749 -0.4651  0.0311
  820MPD2    H712075   3.348   4.170  15.102 -2.1799  2.5054  4.1034
  821MPD2     C12076   4.108   0.629  12.743  0.6402 -0.2871  0.4489
  821MPD2    C112077   4.218   0.616  12.822 -0.0872 -1.6579  0.0402
  821MPD2    C212078   4.339   0.680  12.786  0.0846 -1.2648 -0.4892
  821MPD2    C312079   4.337   0.776  12.687 -0.2135 -0.0616  0.2124
  821MPD2    C412080   4.228   0.773  12.605 -0.3655 -0.2629 -0.7036
  821MPD2    C512081   4.125   0.690  12.631  0.2867  0.6103 -0.1837
  821MPD2     H12082   4.431   0.671  12.842 -0.7581  1.1055  1.2932
  821MPD2    H112083   4.221   0.825  12.510 -0.0392  0.3260 -0.4055
  821MPD2    H212084   4.013   0.582  12.766 -0.6630  1.1479 -2.0562
  821MPD2    H312085   4.039   0.692  12.565  1.2925  0.9531 -1.4867
  821MPD2     N12086   4.445   0.857  12.649 -0.3184  0.6257  0.2316
  821MPD2    H512087   4.440   0.910  12.562 -1.3484  1.7659  0.9842
  821MPD2    N112088   4.227   0.519  12.931 -0.2180  0.4350 -0.5269
  821MPD2    H712089   4.314   0.499  12.981 -1.2123 -0.5483  0.8195
  822MPD2     C12090   0.333   0.776  15.701 -0.2031  0.2105  0.3616
  822MPD2    C112091   0.442   0.774  15.786 -0.4984 -0.5041 -0.3094
  822MPD2    C212092   0.462   0.881  15.871  0.2345  0.2811  0.5953
  822MPD2    C312093   0.372   0.985  15.875 -0.4431 -0.1027 -0.7852
  822MPD2    C412094   0.268   0.990  15.786  0.0190 -0.7291 -0.2672
  822MPD2    C512095   0.244   0.887  15.698 -0.7033 -0.1273 -0.0548
  822MPD2     H12096   0.547   0.878  15.938  1.3245  0.0263 -0.7692
  822MPD2    H112097   0.199   1.072  15.799  2.2551  0.7879  1.9593
  822MPD2    H212098   0.310   0.693  15.635 -1.1101  1.5751 -1.0719
  822MPD2    H312099   0.159   0.902  15.633 -0.3823  2.1997  0.0521
  822MPD2     N12100   0.403   1.084  15.970 -0.0218  0.2128  0.3586
  822MPD2    H512101   0.474   1.055  16.036  0.5301 -2.1423 -1.2785
  822MPD2    N112102   0.530   0.666  15.792 -0.3439  0.3634 -0.1056
  822MPD2    H712103   0.583   0.668  15.878  0.1265 -0.7545 -0.3764
  823MPD2     C12104   0.301   1.190  16.800 -0.1080 -0.8273  0.6610
  823MPD2    C112105   0.292   1.112  16.684  0.0528  0.4228  0.3057
  823MPD2    C212106   0.289   0.977  16.689  0.8582  0.0565 -0.5925
  823MPD2    C312107   0.297   0.913  16.815  0.2057  0.1191  0.2935
  823MPD2    C412108   0.292   0.986  16.925 -0.5469  0.7247 -0.7852
  823MPD2    C512109   0.294   1.125  16.921 -0.1075  0.3001  0.1705
  823MPD2     H12110   0.291   0.923  16.595  1.1422  0.2006 -0.6685
  823MPD2    H112111   0.297   0.950  17.027 -0.7048 -0.1759 -1.0966
  823MPD2    H212112   0.310   1.296  16.778 -1.8042 -0.1217  3.4162
  823MPD2    H312113   0.296   1.181  17.014 -0.3894 -0.7743  0.8236
  823MPD2     N12114   0.303   0.769  16.825 -0.2765 -0.4966 -0.1285
  823MPD2    H512115   0.301   0.727  16.918  0.0058 -0.0942  0.0599
  823MPD2    N112116   0.290   1.189  16.561  0.1235 -0.2251  0.1275
  823MPD2    H712117   0.318   1.287  16.567  1.9368 -0.5536 -2.8666
  824MPD2     C12118   0.474   4.533  15.734  0.8097 -0.3120  0.1920
  824MPD2    C112119   0.579   4.578  15.813  0.4117  0.3008 -0.5573
  824MPD2    C212120   0.668   4.486  15.859  0.2149 -0.6314 -0.9338
  824MPD2    C312121   0.660   4.352  15.825  0.1750 -0.2168 -0.7655
  824MPD2    C412122   0.559   4.314  15.737  0.0796  0.1314  0.5380
  824MPD2    C512123   0.464   4.403  15.696  0.3179 -0.0653 -1.3904
  824MPD2     H12124   0.750   4.517  15.923 -0.8525  0.2696  0.0248
  824MPD2    H112125   0.551   4.215  15.693  0.0726  0.4304 -0.1382
  824MPD2    H212126   0.414   4.611  15.688 -0.1031  0.1829  2.2077
  824MPD2    H312127   0.388   4.364  15.629 -1.3382 -0.9207  0.9914
  824MPD2     N12128   0.767   4.263  15.854  0.3554  0.2097 -0.9254
  824MPD2    H512129   0.853   4.313  15.871  1.6384 -2.0798 -0.6891
  824MPD2    N112130   0.605   4.713  15.844  0.2441  0.7025 -0.4928
  824MPD2    H712131   0.687   0.008  15.899  1.4150 -2.4130 -0.9284
  825MPD2     C12132   1.346   3.993  15.279 -0.6030  0.0432  0.0067
  825MPD2    C112133   1.273   4.086  15.352  0.1973 -0.3337 -0.4782
  825MPD2    C212134   1.292   4.222  15.323  0.4483 -0.5554  0.2608
  825MPD2    C312135   1.382   4.257  15.224 -0.6485  0.2247  0.0851
  825MPD2    C412136   1.452   4.163  15.152 -0.6797  0.4999  0.2180
  825MPD2    C512137   1.430   4.029  15.178 -0.0748  0.1828  0.1834
  825MPD2     H12138   1.230   4.301  15.364  2.0778  0.8315  0.0445
  825MPD2    H112139   1.507   4.187  15.062  0.7004 -1.5629  0.5376
  825MPD2    H212140   1.319   3.888  15.284  2.4059 -0.9126 -2.9383
  825MPD2    H312141   1.486   3.947  15.135  1.6593  2.6784 -2.3407
  825MPD2     N12142   1.399   4.392  15.182 -0.0022  0.2034  0.4483
  825MPD2    H512143   1.440   4.413  15.091  0.0737 -1.4943  0.0891
  825MPD2    N112144   1.181   4.034  15.454 -0.2381 -0.3363 -0.6362
  825MPD2    H712145   1.182   3.932  15.452  1.6204 -0.2773 -2.2669
  826MPD2     C12146   1.133   4.324  13.926 -1.0186  0.4178 -0.0164
  826MPD2    C112147   1.179   4.423  13.843 -0.3238  0.3190 -0.0484
  826MPD2    C212148   1.087   4.534  13.818  0.0521 -0.0460  0.5865
  826MPD2    C312149   0.963   4.551  13.875  0.6296 -0.1191 -0.3860
  826MPD2    C412150   0.936   4.465  13.982 -0.3129  0.8281  0.2520
  826MPD2    C512151   1.014   4.348  13.996  0.8399 -0.4305 -0.2477
  826MPD2     H12152   1.114   4.608  13.743 -0.6935  0.9506  1.3120
  826MPD2    H112153   0.841   4.477  14.034 -0.5874 -1.1115  0.2239
  826MPD2    H212154   1.189   4.233  13.942 -0.0834  1.6738  3.8432
  826MPD2    H312155   0.986   4.275  14.071 -2.0153 -0.3959 -1.2928
  826MPD2     N12156   0.884   4.663  13.852 -0.1510  0.1512 -0.3838
  826MPD2    H512157   0.795   4.665  13.900 -0.0418 -1.3620 -0.1133
  826MPD2    N112158   1.302   4.415  13.790 -0.0645 -0.6695 -0.3655
  826MPD2    H712159   1.356   4.332  13.814  1.9932  0.5612 -0.6654
  827MPD2     C12160   1.928   1.012  10.181 -0.7441  0.1065 -0.9104
  827MPD2    C112161   1.883   0.916  10.266  0.0916  0.1819  0.7362
  827MPD2    C212162   1.754   0.862  10.238 -0.2570 -0.4554 -0.5691
  827MPD2    C312163   1.681   0.913  10.133  0.0282 -0.4503  0.1059
  827MPD2    C412164   1.737   1.006  10.047 -0.4584  0.2945 -0.3329
  827MPD2    C512165   1.862   1.050  10.073  0.2553 -0.0496  0.0396
  827MPD2     H12166   1.724   0.786  10.309 -2.7811  1.5183  0.4685
  827MPD2    H112167   1.689   1.033   9.954 -0.7250  1.0324  0.0179
  827MPD2    H212168   2.026   1.059  10.193 -1.1103  1.1386 -1.9921
  827MPD2    H312169   1.905   1.121  10.003 -4.1530  0.1577 -2.4636
  827MPD2     N12170   1.542   0.869  10.127 -0.0292 -0.0729 -0.7664
  827MPD2    H512171   1.509   0.801  10.194  1.7597 -0.5370 -0.3418
  827MPD2    N112172   1.963   0.880  10.375  0.9110 -0.4473 -0.2274
  827MPD2    H712173   2.050   0.930  10.378 -1.0972  2.8903  2.7414
  828MPD2     C12174   0.150   0.829  12.355  0.2007  0.4220 -0.2370
  828MPD2    C112175   0.139   0.784  12.224 -0.3281  0.1280 -0.3293
  828MPD2    C212176   0.250   0.761  12.146  0.2387 -0.4197 -0.2038
  828MPD2    C312177   0.380   0.792  12.196  0.5746  0.2336 -0.3366
  828MPD2    C412178   0.391   0.842  12.322  0.5072  0.3264 -0.4499
  828MPD2    C512179   0.275   0.850  12.401 -0.3233 -0.1306  0.0290
  828MPD2     H12180   0.230   0.720  12.048 -0.6416  1.3342 -0.7596
  828MPD2    H112181   0.481   0.882  12.367 -0.6099 -0.5747  2.5326
  828MPD2    H212182   0.067   0.842  12.424  0.4899 -1.1736  0.3995
  828MPD2    H312183   0.305   0.877  12.501  0.7360 -2.1937  0.2790
  828MPD2     N12184   0.497   0.769  12.123  0.7563  0.3862  0.0120
  828MPD2    H512185   0.586   0.793  12.165 -0.2756  1.5104  1.5755
  828MPD2    N112186   0.014   0.740  12.172 -0.0535 -0.7828 -0.5501
  828MPD2    H712187   0.015   0.690  12.083  2.5966 -0.5249 -0.6450
  829MPD2     C12188   4.669   0.404  11.428  0.0803  0.1854  0.4862
  829MPD2    C112189   4.556   0.471  11.424  0.0146  0.3454  0.2617
  829MPD2    C212190   4.510   0.520  11.547 -0.1756  0.2644 -0.1533
  829MPD2    C312191   4.577   0.506  11.668  0.0571  0.3372 -0.1695
  829MPD2    C412192   4.689   0.423  11.666 -0.0525 -0.3554  0.5868
  829MPD2    C512193   0.005   0.378  11.545 -0.8639  0.1134 -0.1734
  829MPD2     H12194   4.415   0.572  11.543  0.5642  1.5682 -0.7607
  829MPD2    H112195   0.011   0.392  11.757  2.0137 -0.1323 -0.4749
  829MPD2    H212196   4.722   0.359  11.344  1.6119 -0.0563  1.5747
  829MPD2    H312197   0.089   0.310  11.545 -0.9171  0.0481 -0.1617
  829MPD2     N12198   4.535   0.568  11.790  0.4722 -0.2186  0.9612
  829MPD2    H512199   4.595   0.559  11.871  0.0952  2.1392  1.4955
  829MPD2    N112200   4.491   0.488  11.303 -0.3769 -0.0943 -0.0697
  829MPD2    H712201   4.531   0.440  11.223 -0.9838  1.2876 -1.2052
  830MPD2     C12202   0.548   3.331  15.647 -0.0400  0.0312  0.2447
  830MPD2    C112203   0.475   3.448  15.635  0.3114 -0.4447 -0.6891
  830MPD2    C212204   0.530   3.546  15.555 -0.3278 -0.8584  0.1214
  830MPD2    C312205   0.637   3.521  15.468  0.3487 -0.4837 -0.0236
  830MPD2    C412206   0.693   3.394  15.472  0.1305  0.9737 -0.3329
  830MPD2    C512207   0.648   3.296  15.560 -0.1866 -0.0151  0.3073
  830MPD2     H12208   0.478   3.640  15.558  1.1550  0.0281 -2.2647
  830MPD2    H112209   0.774   3.362  15.408  0.0171 -0.1680  0.1018
  830MPD2    H212210   0.541   3.269  15.736 -1.0409  0.2930  0.3483
  830MPD2    H312211   0.704   3.204  15.570  0.5070  0.4084  0.3145
  830MPD2     N12212   0.698   3.613  15.386 -0.3009 -0.4734  0.0286
  830MPD2    H512213   0.760   3.580  15.312  1.2815 -1.5283  1.8184
  830MPD2    N112214   0.380   3.478  15.735  0.1083 -0.4083  0.4815
  830MPD2    H712215   0.378   3.412  15.812  0.9080 -1.2466 -0.2258
  831MPD2     C12216   0.755   1.152  16.481  0.0944 -0.0355  0.3045
  831MPD2    C112217   0.740   1.121  16.347 -0.7571  0.1205  1.2827
  831MPD2    C212218   0.650   1.023  16.317  0.4796 -0.0470 -0.7266
  831MPD2    C312219   0.587   0.944  16.417 -0.4963 -0.3350  0.0189
  831MPD2    C412220   0.604   0.989  16.547 -0.1095  0.0380 -0.0435
  831MPD2    C512221   0.689   1.087  16.577  0.6941  1.3128  0.6787
  831MPD2     H12222   0.627   0.999  16.214  3.0759 -2.2332 -0.7850
  831MPD2    H112223   0.551   0.937  16.626 -2.6761  2.4574 -0.2060
  831MPD2    H212224   0.829   1.226  16.509 -0.1251  0.2857  0.0280
  831MPD2    H312225   0.705   1.121  16.679 -1.3177 -0.4047  1.5722
  831MPD2     N12226   0.506   0.835  16.396 -0.4074 -1.1146  0.7321
  831MPD2    H512227   0.450   0.800  16.473  0.8560 -2.0754  1.2135
  831MPD2    N112228   0.818   1.195  16.252 -0.8248  1.0634  0.9078
  831MPD2    H712229   0.901   1.246  16.283  0.2864 -1.9251  2.8243
  832MPD2     C12230   3.835   2.103  17.269 -0.0081  0.6160 -1.5724
  832MPD2    C112231   3.743   2.193  17.308 -0.1466 -0.2716 -0.4034
  832MPD2    C212232   3.619   2.198  17.247  0.1295 -0.2046  0.1329
  832MPD2    C312233   3.593   2.120  17.134  0.6302 -0.6753 -0.0114
  832MPD2    C412234   3.680   2.023  17.103 -0.4646 -0.2328 -0.4019
  832MPD2    C512235   3.801   2.016  17.173 -0.2910 -0.7765 -0.4408
  832MPD2     H12236   3.548   2.275  17.277  1.7598  0.0589  3.2928
  832MPD2    H112237   3.655   1.959  17.019 -0.9403 -0.3462 -0.1729
  832MPD2    H212238   3.930   2.105  17.321  0.0110 -1.3266 -1.5406
  832MPD2    H312239   3.877   1.945  17.142 -2.0985 -1.6473 -2.9016
  832MPD2     N12240   3.469   2.133  17.063 -0.2928 -0.0135  0.5174
  832MPD2    H512241   3.425   2.059  17.009 -0.1345 -0.7765  1.4349
  832MPD2    N112242   3.764   2.270  17.424 -0.2594  0.6432 -0.8004
  832MPD2    H712243   3.859   2.274  17.460 -1.2345  0.2606  1.8268
  833MPD2     C12244   1.243   3.253  12.597  0.9296 -0.0846 -0.1435
  833MPD2    C112245   1.176   3.276  12.474 -0.2230 -0.2610  0.8058
  833MPD2    C212246   1.136   3.165  12.407 -0.3305  0.5109  0.3827
  833MPD2    C312247   1.174   3.033  12.444 -0.1290  0.0105 -0.2498
  833MPD2    C412248   1.264   3.024  12.551  0.2976 -0.2490  0.8507
  833MPD2    C512249   1.296   3.130  12.628 -0.6524 -0.5242  0.9393
  833MPD2     H12250   1.074   3.168  12.318  1.2956 -0.4259 -0.7829
  833MPD2    H112251   1.297   2.924  12.573  2.4820  0.1678 -0.5540
  833MPD2    H212252   1.268   3.325  12.675  0.3751  1.0691 -1.0410
  833MPD2    H312253   1.355   3.122  12.719  0.9618  0.7490  0.0028
  833MPD2     N12254   1.131   2.917  12.374 -0.2046 -0.3757 -0.7586
  833MPD2    H512255   1.186   2.833  12.388 -1.4405 -1.4420 -2.3185
  833MPD2    N112256   1.127   3.403  12.446 -0.2789 -0.6949  0.1537
  833MPD2    H712257   1.127   3.473  12.520  1.4522  0.1872 -0.6856
  834MPD2     C12258   1.127   2.034  11.904  0.1685  0.5953 -0.2589
  834MPD2    C112259   1.138   2.112  11.787 -0.2049  0.2483  0.7988
  834MPD2    C212260   1.159   2.250  11.797  0.4904  0.2809  0.3685
  834MPD2    C312261   1.168   2.315  11.915  0.1035  0.6494 -0.1222
  834MPD2    C412262   1.143   2.242  12.030  0.8227 -0.2516 -0.1505
  834MPD2    C512263   1.126   2.102  12.021 -0.3193  0.0687 -0.6688
  834MPD2     H12264   1.171   2.307  11.706  0.2077  0.3388  0.3659
  834MPD2    H112265   1.129   2.282  12.131 -0.7248 -1.7180  0.2126
  834MPD2    H212266   1.104   1.928  11.901  1.0950  0.3958 -0.0261
  834MPD2    H312267   1.097   2.052  12.113 -1.2045  2.0859  0.1417
  834MPD2     N12268   1.171   2.458  11.920 -0.3703  0.2141  0.1052
  834MPD2    H512269   1.159   2.511  11.835 -0.7734 -1.3696 -0.8367
  834MPD2    N112270   1.141   2.038  11.663  0.2302 -0.4415  0.5234
  834MPD2    H712271   1.135   1.938  11.679 -0.2703 -0.6087 -0.7211
  835MPD2     C12272   1.141   0.777  10.667 -0.6509 -0.4080 -0.4597
  835MPD2    C112273   1.010   0.743  10.715  0.0578  0.5918 -0.7595
  835MPD2    C212274   0.992   0.677  10.836  0.4698  0.3376 -0.1313
  835MPD2    C312275   1.095   0.633  10.913 -0.1339 -0.4104 -0.6102
  835MPD2    C412276   1.223   0.654  10.860  0.4250 -0.0216  0.2047
  835MPD2    C512277   1.247   0.723  10.741  0.1634  0.2527  0.6608
  835MPD2     H12278   0.890   0.656  10.868 -0.5656  2.3238 -2.0990
  835MPD2    H112279   1.308   0.623  10.920 -0.1188 -2.0357 -0.0820
  835MPD2    H212280   1.169   0.832  10.578  1.2952 -0.5777  0.0304
  835MPD2    H312281   1.351   0.728  10.714 -0.2065 -0.2844 -0.8570
  835MPD2     N12282   1.083   0.563  11.042 -0.4392  0.3634 -0.6700
  835MPD2    H512283   1.172   0.542  11.086  0.0915  0.1722 -1.8367
  835MPD2    N112284   0.897   0.803  10.663  0.0832 -0.4930 -0.5954
  835MPD2    H712285   0.807   0.778  10.703  0.0813 -1.3549 -1.1551
  836MPD2     C12286   0.411   0.533  11.093 -0.5204 -0.1362 -0.3685
  836MPD2    C112287   0.451   0.562  11.222 -0.3790 -1.0309 -0.1780
  836MPD2    C212288   0.359   0.618  11.306 -0.2632  0.4316  0.1332
  836MPD2    C312289   0.229   0.646  11.270 -0.7280  0.7779  0.5225
  836MPD2    C412290   0.199   0.632  11.133  0.1155  0.2123 -0.2691
  836MPD2    C512291   0.295   0.590  11.039  0.0722  0.4923 -0.0906
  836MPD2     H12292   0.385   0.640  11.409 -1.3870 -3.1134  1.1702
  836MPD2    H112293   0.104   0.663  11.092 -0.1935 -0.6660 -0.2133
  836MPD2    H212294   0.489   0.491  11.031 -0.9909 -2.8246  0.8779
  836MPD2    H312295   0.272   0.594  10.933  2.3533 -1.9382 -0.6626
  836MPD2     N12296   0.138   0.711  11.362 -0.3262 -0.2445 -0.0824
  836MPD2    H512297   0.060   0.753  11.313 -0.3802 -1.4019 -0.9997
  836MPD2    N112298   0.588   0.539  11.251 -0.4055 -0.3204 -0.4814
  836MPD2    H712299   0.656   0.510  11.181  0.0702  0.5295 -0.3744
  837MPD2     C12300   3.662   0.767   9.978  0.5661 -0.1469 -0.0425
  837MPD2    C112301   3.630   0.810   9.856  0.0946 -0.8278 -0.5933
  837MPD2    C212302   3.559   0.926   9.850  0.8664  0.8751  0.1936
  837MPD2    C312303   3.520   0.998   9.962  0.0402  0.1492  0.4485
  837MPD2    C412304   3.562   0.957  10.091 -0.3653 -0.1816 -0.3401
  837MPD2    C512305   3.635   0.842  10.096 -0.6017 -0.6267 -0.1718
  837MPD2     H12306   3.540   0.962   9.749  0.8285 -2.2730 -0.8971
  837MPD2    H112307   3.534   1.008  10.182  0.2255 -1.4002  0.5133
  837MPD2    H212308   3.711   0.670   9.989  1.0383  0.0423 -0.4330
  837MPD2    H312309   3.668   0.806  10.193 -1.6252  0.4148  0.5685
  837MPD2     N12310   3.430   1.104   9.935  0.2165 -0.3825  0.1333
  837MPD2    H512311   3.424   1.137   9.840 -2.1556 -3.2528 -0.7019
  837MPD2    N112312   3.679   0.749   9.735 -0.2488  0.0160  0.7576
  837MPD2    H712313   3.654   0.796   9.649 -2.5886  0.0280  1.4474
  838MPD2     C12314   1.879   3.804  11.816  0.5397  0.1066  0.3824
  838MPD2    C112315   1.870   3.808  11.955 -0.5514  0.4432 -0.4537
  838MPD2    C212316   1.778   3.731  12.023 -0.6358 -0.1858 -0.0120
  838MPD2    C312317   1.717   3.636  11.945 -0.2735  0.3865  0.8210
  838MPD2    C412318   1.737   3.619  11.810  0.1232  0.1044 -0.0115
  838MPD2    C512319   1.808   3.710  11.746 -0.0299 -0.1726  0.2119
  838MPD2     H12320   1.764   3.746  12.130  0.9694 -0.8583  0.2941
  838MPD2    H112321   1.717   3.537  11.743  0.5921 -0.1072  0.1098
  838MPD2    H212322   1.945   3.861  11.751 -0.1410  0.6056  0.1325
  838MPD2    H312323   1.834   3.705  11.640 -1.5049 -2.7693 -0.0387
  838MPD2     N12324   1.631   3.545  12.013 -0.1794 -0.2690  0.4299
  838MPD2    H512325   1.614   3.552  12.113 -1.6376  0.6643  0.1233
  838MPD2    N112326   1.941   3.898  12.034  0.2199 -0.3516  0.2709
  838MPD2    H712327   1.898   3.912  12.125  2.3479 -0.0612  1.2437
  839MPD2     C12328   1.843   3.163  11.956  0.9148 -0.8267  0.2421
  839MPD2    C112329   1.853   3.229  11.835  0.4015  0.2746  0.6417
  839MPD2    C212330   1.943   3.337  11.827 -0.2664  0.9018  1.0510
  839MPD2    C312331   2.017   3.376  11.940 -0.0367  0.3802  0.5359
  839MPD2    C412332   1.985   3.316  12.065  0.4013  0.2911 -1.0923
  839MPD2    C512333   1.899   3.208  12.069 -0.1931 -0.0591  0.2369
  839MPD2     H12334   1.958   3.402  11.742 -2.4542 -0.0588 -0.0614
  839MPD2    H112335   2.039   3.356  12.149  0.3783 -0.3196 -0.7854
  839MPD2    H212336   1.780   3.077  11.973 -0.4904  0.0634 -0.3791
  839MPD2    H312337   1.885   3.151  12.160  1.3085 -0.6467  0.1056
  839MPD2     N12338   2.117   3.480  11.938 -0.4522  0.6730 -0.2005
  839MPD2    H512339   2.133   3.538  12.020  0.0560 -0.8822  0.7885
  839MPD2    N112340   1.793   3.164  11.716  0.0141 -0.4559  0.0303
  839MPD2    H712341   1.831   3.186  11.625  0.3079  1.0458  0.5291
  840MPD2     C12342   2.552   1.064  10.388  0.3441 -0.2822 -0.0284
  840MPD2    C112343   2.511   1.055  10.516  0.0745 -0.4695  0.7256
  840MPD2    C212344   2.544   1.155  10.609 -0.8415  0.2077 -0.0410
  840MPD2    C312345   2.603   1.272  10.564 -0.6246 -0.5281  0.3152
  840MPD2    C412346   2.649   1.285  10.432 -0.5536  0.4449  0.7264
  840MPD2    C512347   2.621   1.176  10.354  0.5854 -0.2937 -0.1078
  840MPD2     H12348   2.501   1.148  10.708  1.0156 -1.9496  0.5995
  840MPD2    H112349   2.706   1.367  10.389  0.3834  0.3049  1.6925
  840MPD2    H212350   2.520   0.996  10.309 -1.0766 -1.0408  1.1966
  840MPD2    H312351   2.648   1.191  10.251 -0.5929 -0.2955 -0.4206
  840MPD2     N12352   2.644   1.374  10.654  0.0865 -0.0068 -0.6712
  840MPD2    H512353   2.694   1.450  10.608 -1.2364  1.6881  0.7066
  840MPD2    N112354   2.418   0.959  10.553 -0.7133  0.2456 -0.0256
  840MPD2    H712355   2.367   0.913  10.479 -0.7462 -0.1842  0.2609
  841MPD2     C12356   1.880   1.017  14.409 -0.5785  0.6056 -0.0954
  841MPD2    C112357   2.003   0.974  14.351  1.0895 -0.1632 -0.1366
  841MPD2    C212358   2.096   1.075  14.334  0.0984 -0.3212 -0.4883
  841MPD2    C312359   2.070   1.209  14.362 -0.2914 -0.0329 -1.1970
  841MPD2    C412360   1.946   1.250  14.413 -0.3503 -0.2088 -0.2668
  841MPD2    C512361   1.861   1.148  14.445 -0.8301 -0.2367  0.6358
  841MPD2     H12362   2.195   1.045  14.301  0.7609 -0.9528  2.1413
  841MPD2    H112363   1.928   1.354  14.439 -0.8363 -0.5311  0.6809
  841MPD2    H212364   1.807   0.939  14.430 -2.6508  2.2658 -1.1267
  841MPD2    H312365   1.763   1.172  14.487 -1.1730  3.0266 -1.9954
  841MPD2     N12366   2.191   1.287  14.344 -0.0702 -0.4058 -0.1901
  841MPD2    H512367   2.273   1.244  14.302  0.2616 -1.4041  1.5228
  841MPD2    N112368   2.039   0.843  14.308  0.1932 -0.1301  0.5716
  841MPD2    H712369   2.123   0.854  14.253 -0.8061 -0.5115 -1.0245
  842MPD2     C12370   3.073   2.780  16.630  0.0105  0.4140  0.1741
  842MPD2    C112371   2.993   2.678  16.678  0.7191 -0.6837 -0.2117
  842MPD2    C212372   3.005   2.641  16.814  0.0879 -0.1874  0.3352
  842MPD2    C312373   3.112   2.678  16.887  0.4824 -0.5642  0.5000
  842MPD2    C412374   3.189   2.787  16.845 -0.3476 -0.0962 -0.4785
  842MPD2    C512375   3.170   2.830  16.715 -0.2965  0.3825  0.0416
  842MPD2     H12376   2.955   2.550  16.847 -0.3023  1.2497  3.7439
  842MPD2    H112377   3.274   2.824  16.901 -1.4083 -3.4233  3.3445
  842MPD2    H212378   3.071   2.814  16.528  0.1524  1.0011  0.3635
  842MPD2    H312379   3.221   2.917  16.676 -0.1741  0.5144  0.4965
  842MPD2     N12380   3.153   2.628  17.019 -0.2763  0.1333  0.2870
  842MPD2    H512381   3.242   2.660  17.055  0.9040 -2.2681 -0.4922
  842MPD2    N112382   2.905   2.626  16.580 -0.0054 -0.0652  0.1976
  842MPD2    H712383   2.914   2.665  16.486 -1.1853 -0.6650 -0.1523
  843MPD2     C12384   4.232   3.130   0.156  0.1379  0.8364 -0.0134
  843MPD2    C112385   4.326   3.036   0.201 -0.2136 -0.3067 -0.0391
  843MPD2    C212386   4.454   3.069   0.213  0.4081 -0.0183  0.3444
  843MPD2    C312387   4.498   3.194   0.179 -0.7313  0.2098  0.3964
  843MPD2    C412388   4.399   3.284   0.138  0.5401  0.8120 -0.1211
  843MPD2    C512389   4.275   3.257   0.135 -0.0340 -0.2585 -0.4843
  843MPD2     H12390   4.518   2.989   0.251 -2.1583 -2.2168  0.0747
  843MPD2    H112391   4.431   3.377   0.091 -0.8159  1.9252  1.1834
  843MPD2    H212392   4.125   3.110   0.153 -0.2102  2.7222 -0.2201
  843MPD2    H312393   4.203   3.328   0.098  1.5009  0.6867 -1.6672
  843MPD2     N12394   4.626   3.244   0.187  0.2587  0.1164  1.1214
  843MPD2    H512395   4.626   3.345   0.179 -0.1548 -0.1150 -1.7672
  843MPD2    N112396   4.276   2.907   0.224  0.5394  0.3098  0.1946
  843MPD2    H712397   4.181   2.881   0.201  0.3630  0.2012  1.0484
  844MPD2     C12398   3.397   1.965  16.441  0.3098  0.2631  0.0688
  844MPD2    C112399   3.501   1.877  16.421 -0.5976 -0.0116 -1.1741
  844MPD2    C212400   3.617   1.881  16.498  0.3304  0.3713 -0.3332
  844MPD2    C312401   3.623   1.975  16.603  0.3687 -0.1355 -0.0649
  844MPD2    C412402   3.513   2.054  16.631 -0.0389 -0.2782  0.4404
  844MPD2    C512403   3.403   2.052  16.548  0.5856 -0.1555 -0.2882
  844MPD2     H12404   3.696   1.814  16.466 -0.4467  0.9615 -3.3919
  844MPD2    H112405   3.505   2.114  16.722  2.2878 -0.3996  0.7182
  844MPD2    H212406   3.302   1.970  16.390 -0.2322 -3.2996  0.7527
  844MPD2    H312407   3.313   2.110  16.566  1.9369  2.1409 -0.8985
  844MPD2     N12408   3.743   1.985  16.673 -0.1256 -0.3829 -0.6936
  844MPD2    H512409   3.819   1.921  16.651  1.3915  0.9507  0.6921
  844MPD2    N112410   3.509   1.789  16.309  0.3800 -0.5565 -0.2502
  844MPD2    H712411   3.586   1.725  16.289  0.7390  0.2966 -1.6467
  845MPD2     C12412   4.034   2.744  17.264 -0.7584 -0.2544  0.1152
  845MPD2    C112413   3.912   2.678  17.266 -0.1237 -0.7520  0.5341
  845MPD2    C212414   3.900   2.547  17.215 -0.0131 -0.0915 -0.1558
  845MPD2    C312415   4.015   2.480  17.176 -0.4802  0.3031 -0.4152
  845MPD2    C412416   4.135   2.541  17.196  0.2491  0.1903 -0.5701
  845MPD2    C512417   4.143   2.667  17.247 -0.2748  0.1935  0.1620
  845MPD2     H12418   3.801   2.505  17.211 -0.5479  1.1753 -0.2547
  845MPD2    H112419   4.224   2.485  17.173  0.9854  1.2124 -0.2051
  845MPD2    H212420   4.036   2.847  17.297  0.7867  0.1047 -1.0650
  845MPD2    H312421   4.239   2.711  17.272 -1.3229  1.1782  2.4616
  845MPD2     N12422   3.998   2.359  17.104  0.2951 -0.8168 -0.4489
  845MPD2    H512423   3.902   2.344  17.072 -0.1533  0.1317  0.4243
  845MPD2    N112424   3.803   2.749  17.312 -0.1205  0.2052 -0.0605
  845MPD2    H712425   3.818   2.848  17.330  0.8142 -0.2799  1.7989
  846MPD2     C12426   0.424   2.905  13.523  0.5121 -0.5116  0.2004
  846MPD2    C112427   0.292   2.924  13.488  0.5523 -1.0816 -0.4200
  846MPD2    C212428   0.191   2.927  13.581  0.6113  0.4612 -0.4836
  846MPD2    C312429   0.214   2.912  13.716 -0.1436 -0.2623  0.2843
  846MPD2    C412430   0.341   2.901  13.753  0.5582 -1.4659  0.1342
  846MPD2    C512431   0.442   2.901  13.657 -0.3376 -0.4600 -0.1482
  846MPD2     H12432   0.086   2.929  13.553  0.6918  0.9413 -0.7497
  846MPD2    H112433   0.365   2.887  13.858  1.1189 -0.4787  0.1390
  846MPD2    H212434   0.513   2.891  13.462 -0.3939  0.0549 -1.2604
  846MPD2    H312435   0.539   2.880  13.700  0.4960  2.4017 -0.5968
  846MPD2     N12436   0.103   2.903  13.809  0.2701 -0.1107 -0.4320
  846MPD2    H512437   0.009   2.886  13.774  0.2837 -1.6232  0.2390
  846MPD2    N112438   0.261   2.952  13.350 -0.1945  0.6413 -0.0801
  846MPD2    H712439   0.173   3.000  13.345 -0.0651  1.0637  1.8627
  847MPD2     C12440   0.380   3.760  13.881  0.2355 -0.6195  0.9406
  847MPD2    C112441   0.410   3.854  13.982 -0.4450  0.3749 -0.2575
  847MPD2    C212442   0.517   3.839  14.055  0.5142 -0.2348  0.1436
  847MPD2    C312443   0.598   3.729  14.038  0.2595 -0.9750  0.2078
  847MPD2    C412444   0.577   3.641  13.932  0.3685  0.0085  0.6976
  847MPD2    C512445   0.463   3.654  13.858  0.1668  0.4826  0.2065
  847MPD2     H12446   0.549   3.910  14.131  0.6560  1.9689 -1.9838
  847MPD2    H112447   0.635   3.552  13.912 -3.6290 -1.8743 -2.4931
  847MPD2    H212448   0.290   3.758  13.820  1.0661 -1.3416 -0.2860
  847MPD2    H312449   0.459   3.584  13.775  0.5361  1.7050 -0.8318
  847MPD2     N12450   0.710   3.719  14.124  0.1563 -0.6994  0.1604
  847MPD2    H512451   0.727   3.794  14.191  1.0402 -1.6373  0.9937
  847MPD2    N112452   0.333   3.969  14.009  0.0699 -0.6442 -0.2334
  847MPD2    H712453   0.343   4.004  14.103 -0.2622  1.1048 -0.8468
  848MPD2     C12454   3.168   2.469  16.392  0.1689  0.2408 -0.0896
  848MPD2    C112455   3.253   2.519  16.489  0.4103  0.4369 -0.4425
  848MPD2    C212456   3.326   2.630  16.461 -0.1140  0.1098  0.6612
  848MPD2    C312457   3.316   2.697  16.339  0.2857 -0.1493  0.5579
  848MPD2    C412458   3.220   2.654  16.245  0.2536 -0.5848 -0.7162
  848MPD2    C512459   3.154   2.539  16.282  0.3009 -0.3620 -0.1196
  848MPD2     H12460   3.367   2.679  16.549  2.6086 -1.2209  0.1525
  848MPD2    H112461   3.214   2.698  16.146 -0.5195 -1.1799 -0.9385
  848MPD2    H212462   3.112   2.376  16.393  0.1855  0.2334  0.1386
  848MPD2    H312463   3.097   2.503  16.197 -0.6886  1.5073 -0.2272
  848MPD2     N12464   3.392   2.815  16.311 -0.8460  0.2262  0.3361
  848MPD2    H512465   3.367   2.849  16.219 -2.8241 -3.1824 -0.3415
  848MPD2    N112466   3.251   2.465  16.620  0.0412 -0.3164  0.7209
  848MPD2    H712467   3.313   2.500  16.693  1.6957  0.9697 -1.3059
  849MPD2     C12468   2.802   2.411  14.049 -0.4145  0.2851  0.9791
  849MPD2    C112469   2.942   2.435  14.037  0.2221  0.0014  0.1650
  849MPD2    C212470   3.011   2.452  14.152  0.1669  0.5743 -0.0005
  849MPD2    C312471   2.946   2.460  14.273 -0.7756 -0.2614 -0.2632
  849MPD2    C412472   2.807   2.456  14.281 -0.8523 -0.0440 -0.5174
  849MPD2    C512473   2.736   2.425  14.167  0.2253  0.1488  0.2566
  849MPD2     H12474   3.120   2.448  14.152  0.1078 -1.5565 -2.8477
  849MPD2    H112475   2.760   2.474  14.376  2.1207  2.4901  0.4753
  849MPD2    H212476   2.748   2.380  13.961 -1.6531  2.7117  0.8844
  849MPD2    H312477   2.628   2.420  14.174  0.1605 -1.2622 -1.9882
  849MPD2     N12478   3.016   2.476  14.391  0.6759  0.3050 -0.1115
  849MPD2    H512479   3.115   2.462  14.378  0.4507 -0.2454 -1.1822
  849MPD2    N112480   3.019   2.426  13.917 -0.3016 -0.1412 -0.2298
  849MPD2    H712481   3.114   2.457  13.930  0.6629 -3.2306  0.0990
  850MPD2     C12482   0.116   0.439  14.856  0.3225  0.9351 -0.7808
  850MPD2    C112483   0.192   0.325  14.856  0.1601  0.1491  1.1706
  850MPD2    C212484   0.324   0.338  14.897  0.2731  0.0395  0.0092
  850MPD2    C312485   0.370   0.458  14.947  0.3268 -0.0936  0.6381
  850MPD2    C412486   0.291   0.566  14.953 -0.1276  0.5632 -0.3247
  850MPD2    C512487   0.168   0.555  14.894 -0.2878 -0.2891 -0.5383
  850MPD2     H12488   0.394   0.255  14.903  2.7539  2.0293 -1.2687
  850MPD2    H112489   0.317   0.663  14.994  0.3539 -0.6826  2.3478
  850MPD2    H212490   0.011   0.429  14.830  0.6417 -0.6836 -1.4373
  850MPD2    H312491   0.112   0.648  14.902  0.3745  0.2311 -1.8746
  850MPD2     N12492   0.507   0.458  14.999  0.2203  0.2437  0.3758
  850MPD2    H512493   0.554   0.370  15.017 -1.3599 -0.5460  0.7093
  850MPD2    N112494   0.128   0.200  14.844 -0.5778  0.1904  0.2491
  850MPD2    H712495   0.028   0.206  14.828 -1.1311 -0.0293  3.6251
  851MPD2     C12496   0.498   4.576  15.122  0.0414 -0.1532 -0.0726
  851MPD2    C112497   0.469   4.468  15.042  0.3020  0.2304 -0.3020
  851MPD2    C212498   0.534   4.347  15.058 -0.5113 -0.3169  0.6775
  851MPD2    C312499   0.635   4.335  15.153  0.7634 -0.7905  0.6797
  851MPD2    C412500   0.659   4.439  15.239  0.3194 -0.1946 -0.0780
  851MPD2    C512501   0.600   4.562  15.214 -0.8420  0.0031 -0.0638
  851MPD2     H12502   0.506   4.261  14.998  0.3390 -0.1288  0.0125
  851MPD2    H112503   0.739   4.433  15.312 -0.4683 -2.0574  0.6263
  851MPD2    H212504   0.439   4.666  15.114  1.8237  0.8677 -1.8592
  851MPD2    H312505   0.633   4.649  15.269  1.4515 -1.4278  0.8298
  851MPD2     N12506   0.696   4.210  15.169  0.2573  0.1047  0.0515
  851MPD2    H512507   0.680   4.149  15.089 -1.4923  2.3841 -1.3385
  851MPD2    N112508   0.357   4.487  14.955 -0.1534  0.6745  0.7011
  851MPD2    H712509   0.328   4.584  14.959 -0.5682  0.4991  2.0470
  852MPD2     C12510   4.120   2.383  10.552 -0.5033  0.2832  0.5257
  852MPD2    C112511   4.249   2.381  10.594 -0.4730  0.5559  0.1551
  852MPD2    C212512   4.344   2.458  10.527 -0.1185  0.7934  0.0849
  852MPD2    C312513   4.318   2.518  10.405  0.4094  0.3031  0.7790
  852MPD2    C412514   4.187   2.516  10.355 -0.3159  0.1606 -0.7816
  852MPD2    C512515   4.095   2.447  10.431  0.7436 -0.6645 -0.2471
  852MPD2     H12516   4.448   2.463  10.557 -0.4296  1.2036  1.0653
  852MPD2    H112517   4.157   2.563  10.262  0.6640 -0.0522 -1.1987
  852MPD2    H212518   4.035   2.330  10.592 -0.0631 -1.7360 -1.2094
  852MPD2    H312519   3.994   2.429  10.397  0.6550  0.2423 -0.4803
  852MPD2     N12520   4.419   2.594  10.347  0.1831 -0.1544 -0.1318
  852MPD2    H512521   4.509   2.585  10.393  1.9383  0.4412 -3.4356
  852MPD2    N112522   4.297   2.304  10.704 -0.3016 -0.4239 -0.5456
  852MPD2    H712523   4.395   2.308  10.728 -0.7238  0.3104  1.0863
  853MPD2     C12524   2.201   2.508  12.420 -0.9686 -0.6412 -0.3511
  853MPD2    C112525   2.075   2.458  12.397 -0.7184 -0.1245 -0.1062
  853MPD2    C212526   2.050   2.396  12.276  0.0205  0.0716 -0.3784
  853MPD2    C312527   2.143   2.380  12.171  0.3274  0.2860 -0.4661
  853MPD2    C412528   2.266   2.431  12.194 -0.2728  0.2390  0.0810
  853MPD2    C512529   2.296   2.499  12.319 -0.2806  0.2991  0.0827
  853MPD2     H12530   1.952   2.354  12.258  0.1831 -0.0885 -0.9008
  853MPD2    H112531   2.345   2.429  12.119 -0.9215 -2.4383 -0.5049
  853MPD2    H212532   2.231   2.548  12.516  0.9849 -1.4225 -0.6331
  853MPD2    H312533   2.393   2.547  12.331  1.9254 -4.2771  0.5387
  853MPD2     N12534   2.126   2.319  12.047 -0.6226 -0.0836  0.4038
  853MPD2    H512535   2.207   2.305  11.987 -1.2376 -0.3309 -0.3667
  853MPD2    N112536   1.984   2.479  12.498 -0.5361  0.1667  0.2321
  853MPD2    H712537   2.028   2.514  12.582 -0.5834 -0.6306  0.5925
  854MPD2     C12538   3.482   2.476  12.700  0.3896  0.2205  0.2466
  854MPD2    C112539   3.615   2.517  12.676  0.2746  0.3198  0.7747
  854MPD2    C212540   3.715   2.422  12.704 -0.4387 -0.4394 -0.4203
  854MPD2    C312541   3.674   2.294  12.756  0.6266 -0.0268  0.2772
  854MPD2    C412542   3.544   2.259  12.773 -0.5736  0.7477 -0.5700
  854MPD2    C512543   3.448   2.351  12.746  0.3557 -0.0168  1.0211
  854MPD2     H12544   3.819   2.451  12.698 -0.8124  0.8671 -0.5734
  854MPD2    H112545   3.505   2.166  12.813  2.6154  0.9859  3.0349
  854MPD2    H212546   3.405   2.542  12.662 -0.7861 -1.5397 -0.4096
  854MPD2    H312547   3.343   2.326  12.756  0.0937  1.1265  1.1226
  854MPD2     N12548   3.767   2.190  12.793  0.2031  0.0556 -0.3990
  854MPD2    H512549   3.735   2.094  12.791  2.0288 -0.5543 -0.3119
  854MPD2    N112550   3.636   2.640  12.614 -0.7194 -0.6171  0.2825
  854MPD2    H712551   3.547   2.687  12.601 -0.5284 -0.2758  0.2106
  855MPD2     C12552   4.505   2.167  13.437 -0.1327 -0.5514 -0.0682
  855MPD2    C112553   4.427   2.050  13.447 -0.1312  0.4464 -0.7309
  855MPD2    C212554   4.350   2.009  13.335 -0.0034 -0.0053  0.1238
  855MPD2    C312555   4.349   2.080  13.222 -0.0231 -0.4598 -0.0871
  855MPD2    C412556   4.428   2.187  13.214  0.1369 -0.0246  0.9109
  855MPD2    C512557   4.514   2.229  13.313  0.2805  0.4243 -0.2054
  855MPD2     H12558   4.290   1.920  13.352  1.0921 -0.9501 -0.9861
  855MPD2    H112559   4.437   2.249  13.126 -0.2785 -1.1174  0.0942
  855MPD2    H212560   4.547   2.222  13.520 -1.5916  0.1140  0.2326
  855MPD2    H312561   4.588   2.308  13.303 -2.8090  3.2053 -1.1816
  855MPD2     N12562   4.265   2.050  13.107 -0.4300 -0.1100 -1.1636
  855MPD2    H512563   4.260   2.123  13.037 -2.3082  1.3445  0.4669
  855MPD2    N112564   4.405   1.984  13.568  0.1408  0.2681  0.5358
  855MPD2    H712565   4.335   1.912  13.578  1.5088 -1.1918 -0.3836
  856MPD2     C12566   1.434   3.227  13.857  1.0563  0.0420 -0.5535
  856MPD2    C112567   1.528   3.315  13.807  0.2638 -0.0163  0.3287
  856MPD2    C212568   1.491   3.417  13.724  0.1288 -0.4295 -0.2082
  856MPD2    C312569   1.352   3.443  13.702 -0.1297  0.1568 -0.5438
  856MPD2    C412570   1.264   3.351  13.751  1.3880  0.2722  0.1529
  856MPD2    C512571   1.303   3.243  13.824 -0.3524  0.7189 -0.2600
  856MPD2     H12572   1.555   3.499  13.693  1.8341 -0.9421  1.9736
  856MPD2    H112573   1.159   3.364  13.727  2.1220  1.2101 -2.5639
  856MPD2    H212574   1.466   3.144  13.918 -0.4429  0.0887  0.2895
  856MPD2    H312575   1.236   3.176  13.875 -0.1161  2.3559  2.2318
  856MPD2     N12576   1.295   3.545  13.629  0.1198  0.0461  0.1902
  856MPD2    H512577   1.195   3.558  13.639 -0.2383 -0.6280 -2.4274
  856MPD2    N112578   1.667   3.290  13.818  0.3068 -0.4947 -0.2496
  856MPD2    H712579   1.725   3.358  13.769  0.5874 -0.6407 -0.1237
  857MPD2     C12580   2.649   0.427  12.878 -0.5198  0.4998  0.1651
  857MPD2    C112581   2.775   0.416  12.912  0.3555 -0.1212  0.0320
  857MPD2    C212582   2.855   0.524  12.934 -0.9082 -0.1887 -0.2360
  857MPD2    C312583   2.799   0.653  12.909  0.4493  0.1456  0.3057
  857MPD2    C412584   2.667   0.672  12.877 -0.3306 -0.2222 -0.4250
  857MPD2    C512585   2.594   0.551  12.875 -0.1066 -0.1695 -0.3897
  857MPD2     H12586   2.960   0.522  12.961 -0.1883  2.8295 -2.7323
  857MPD2    H112587   2.619   0.767  12.855  0.4626 -0.8027 -4.5392
  857MPD2    H212588   2.584   0.341  12.868 -1.3668  1.3107 -1.2142
  857MPD2    H312589   2.487   0.560  12.855 -0.3132  1.5555  1.4595
  857MPD2     N12590   2.891   0.760  12.922  0.4939  0.3124 -0.2922
  857MPD2    H512591   2.990   0.739  12.932 -0.2571 -1.9484  2.5468
  857MPD2    N112592   2.823   0.290  12.945 -1.0284 -0.3236  0.1144
  857MPD2    H712593   2.766   0.209  12.925  0.4933 -1.1899 -0.6897
  858MPD2     C12594   3.466   4.407  16.886 -0.0680  0.2426 -0.0381
  858MPD2    C112595   3.577   4.471  16.844 -0.8056  0.3067 -0.5474
  858MPD2    C212596   3.619   4.587  16.904 -0.5878 -0.2450 -0.0310
  858MPD2    C312597   3.532   4.658  16.988 -0.6024  0.4457 -0.3862
  858MPD2    C412598   3.418   4.597  17.028  0.1887  0.5945 -0.5612
  858MPD2    C512599   3.384   4.471  16.979  0.6428 -0.4956 -0.3413
  858MPD2     H12600   3.722   4.621  16.899 -0.0595 -1.7743  0.3660
  858MPD2    H112601   3.353   4.656  17.091  0.9749  0.4153  0.4182
  858MPD2    H212602   3.442   4.308  16.848 -1.3067  0.5509 -0.0702
  858MPD2    H312603   3.291   4.428  17.014 -1.0055  1.7779 -1.9509
  858MPD2     N12604   3.561   0.056  17.038 -0.2298  0.6290  0.8308
  858MPD2    H512605   3.493   0.101  17.099 -0.1518  2.5404 -0.4909
  858MPD2    N112606   3.659   4.406  16.753  0.4414  0.2907 -0.3892
  858MPD2    H712607   3.636   4.310  16.730  2.1840 -0.8235  2.5292
  859MPD2     C12608   2.661   2.030  14.816 -0.3367 -0.2297 -0.4854
  859MPD2    C112609   2.711   2.067  14.942 -0.5475 -0.5882  0.1119
  859MPD2    C212610   2.691   1.983  15.046 -0.5073  0.6599 -0.2198
  859MPD2    C312611   2.650   1.857  15.021  0.5453  0.4174  0.5787
  859MPD2    C412612   2.622   1.815  14.893 -0.5770  0.5438  0.5268
  859MPD2    C512613   2.626   1.904  14.790  0.0181  0.1020  0.0134
  859MPD2     H12614   2.719   2.014  15.146 -0.9069 -2.5312  0.8775
  859MPD2    H112615   2.587   1.715  14.868  1.6052 -0.1754  0.2969
  859MPD2    H212616   2.656   2.102  14.735 -3.4420 -1.4837 -1.3890
  859MPD2    H312617   2.586   1.868  14.696 -0.7901  3.5356 -0.9650
  859MPD2     N12618   2.646   1.752  15.112  0.3106 -0.0741  0.1622
  859MPD2    H512619   2.605   1.663  15.086  1.1770  0.2097 -2.2167
  859MPD2    N112620   2.760   2.197  14.947  0.4421 -0.7694 -0.4346
  859MPD2    H712621   2.761   2.232  14.852 -1.1147 -0.2317 -0.2506
  860MPD2     C12622   0.220   1.417  11.690 -0.0519 -0.8329 -0.7361
  860MPD2    C112623   0.233   1.518  11.776 -0.5059 -0.2651  0.1864
  860MPD2    C212624   0.117   1.585  11.806  0.0664  0.2177  0.2874
  860MPD2    C312625   4.722   1.563  11.740  0.2165  0.1326  0.5218
  860MPD2    C412626   4.714   1.463  11.649  0.1587  0.1913 -0.0434
  860MPD2    C512627   0.100   1.392  11.626 -0.1668  0.1157 -0.5985
  860MPD2     H12628   0.123   1.657  11.887 -0.9832  2.1202 -1.3339
  860MPD2    H112629   4.628   1.441  11.587 -0.4264 -1.2601  1.2901
  860MPD2    H212630   0.307   1.355  11.673  1.0084  0.1276  1.1674
  860MPD2    H312631   0.105   1.314  11.550 -2.0631 -1.5756  1.0197
  860MPD2     N12632   4.611   1.643  11.777 -0.9121  0.2886 -1.1661
  860MPD2    H512633   4.625   1.712  11.850  1.4412  1.4929 -2.7491
  860MPD2    N112634   0.341   1.538  11.860 -0.6161  0.5317 -0.5220
  860MPD2    H712635   0.330   1.603  11.937 -2.2369  1.9290 -1.9320
  861MPD2     C12636   3.651   0.168  11.000  0.7589  0.7594  0.3294
  861MPD2    C112637   3.554   0.230  11.073 -0.0638 -0.1166 -0.7870
  861MPD2    C212638   3.442   0.281  11.010 -0.0844  0.1601 -0.4724
  861MPD2    C312639   3.426   0.265  10.870 -0.0846  0.4870  0.3349
  861MPD2    C412640   3.523   0.192  10.805 -0.3315  1.3647 -0.1112
  861MPD2    C512641   3.633   0.143  10.867  0.0707 -0.5244 -0.2292
  861MPD2     H12642   3.370   0.342  11.064 -0.4901  0.7775 -1.7071
  861MPD2    H112643   3.500   0.171  10.701 -1.2112 -0.0439  0.3615
  861MPD2    H212644   3.739   0.119  11.040 -0.7554 -0.1271  2.5689
  861MPD2    H312645   3.697   0.078  10.809  1.5602  2.6981 -2.1926
  861MPD2     N12646   3.314   0.312  10.789  0.0429  0.2964  0.2601
  861MPD2    H512647   3.319   0.290  10.689  0.9941  0.6188  0.2430
  861MPD2    N112648   3.562   0.254  11.215 -0.3811  0.5127  0.0709
  861MPD2    H712649   3.493   0.310  11.264 -0.3471  1.3280 -0.8033
  862MPD2     C12650   3.048   0.399  10.128  0.2462 -0.4639  0.0888
  862MPD2    C112651   3.087   0.349  10.244  0.5224  0.4292 -0.1939
  862MPD2    C212652   3.098   0.211  10.256  0.6975  0.3336 -0.0196
  862MPD2    C312653   3.067   0.119  10.160  0.1130  1.1562 -0.2250
  862MPD2    C412654   3.019   0.178  10.047  0.7117  0.8374 -0.1029
  862MPD2    C512655   3.006   0.312  10.032  0.4103 -0.2467 -0.3379
  862MPD2     H12656   3.131   0.180  10.355 -0.0828  0.9292  0.4208
  862MPD2    H112657   2.993   0.106   9.970 -1.3546  1.6986 -0.2017
  862MPD2    H212658   3.047   0.506  10.114 -3.4474 -0.6184 -0.7525
  862MPD2    H312659   2.978   0.357   9.938 -2.4992 -1.3178  0.0221
  862MPD2     N12660   3.064   4.708  10.177  0.3895  0.2557  0.0009
  862MPD2    H512661   3.041   4.643  10.103 -0.3178 -0.4191  0.8097
  862MPD2    N112662   3.112   0.429  10.357  0.6287 -0.0181 -0.5093
  862MPD2    H712663   3.120   0.371  10.440  0.7135 -0.4110 -0.7898
  863MPD2     C12664   2.351   3.899  17.005 -0.3244 -0.0793  0.1653
  863MPD2    C112665   2.230   3.897  17.072  0.0084  0.2192  0.3456
  863MPD2    C212666   2.234   3.882  17.209  0.8794 -0.0704  0.5617
  863MPD2    C312667   2.355   3.866  17.276 -0.0734 -0.6771 -0.5614
  863MPD2    C412668   2.471   3.861  17.204 -0.1030 -0.2302 -0.1883
  863MPD2    C512669   2.474   3.891  17.069  0.6823  0.8272  0.6107
  863MPD2     H12670   2.141   3.865  17.262 -0.2670  0.2424 -1.3201
  863MPD2    H112671   2.569   3.841  17.246 -0.6266 -0.3039  0.9930
  863MPD2    H212672   2.342   3.905  16.897  1.1159  1.4532  0.1135
  863MPD2    H312673   2.568   3.887  17.016 -0.0804 -0.1226 -0.6398
  863MPD2     N12674   2.363   3.833  17.415  0.3934 -0.1987 -0.8323
  863MPD2    H512675   2.457   3.815  17.450 -0.5374 -0.6549  1.4873
  863MPD2    N112676   2.114   3.914  16.989 -0.1051  0.1916  0.0660
  863MPD2    H712677   2.130   3.907  16.889  1.3718 -0.1354  0.3247
  864MPD2     C12678   2.518   0.234   0.071  0.5238  0.4565  0.0011
  864MPD2    C112679   2.601   0.160  17.701 -0.0720  0.6037 -0.4449
  864MPD2    C212680   2.696   0.228  17.627 -0.0839 -0.0799  0.1631
  864MPD2    C312681   2.710   0.366  17.632 -0.4396  0.9783 -0.2585
  864MPD2    C412682   2.625   0.439   0.008 -0.4088 -0.5892 -0.5402
  864MPD2    C512683   2.527   0.369   0.076  0.3811  0.4579  0.4362
  864MPD2     H12684   2.763   0.183  17.554  0.3686 -0.8438  1.0463
  864MPD2    H112685   2.641   0.546   0.014  2.0698 -0.9434 -1.0093
  864MPD2    H212686   2.439   0.189   0.130  0.1076 -0.8099 -1.5223
  864MPD2    H312687   2.469   0.428   0.146  2.1021  2.3859  0.2167
  864MPD2     N12688   2.800   0.438  17.555  0.6799  0.1280  0.5079
  864MPD2    H512689   2.796   0.538  17.572 -2.4335  0.4115 -1.7931
  864MPD2    N112690   2.588   0.018  17.677 -1.0578  0.6679 -0.6583
  864MPD2    H712691   2.522   4.699   0.026 -0.6606 -0.3057 -0.9865
  865MPD2     C12692   2.420   0.357  16.835  0.3544  0.4044  0.3966
  865MPD2    C112693   2.550   0.351  16.788  0.3066 -0.0123  0.0457
  865MPD2    C212694   2.645   0.424  16.852  0.4049 -0.7915  0.4248
  865MPD2    C312695   2.615   0.508  16.956  0.5922  0.3407 -0.4090
  865MPD2    C412696   2.490   0.513  17.002 -0.0740 -0.0741  0.2984
  865MPD2    C512697   2.396   0.441  16.940 -0.1867  0.3752 -0.4977
  865MPD2     H12698   2.749   0.410  16.827  0.7512 -0.9547  1.9229
  865MPD2    H112699   2.462   0.579  17.083  0.2973  0.0523  0.3235
  865MPD2    H212700   2.346   0.285  16.801  1.5216 -0.3493 -0.5131
  865MPD2    H312701   2.300   0.435  16.991  0.2874  1.9638  0.6018
  865MPD2     N12702   2.728   0.567  17.011  0.2520 -0.1202  0.2901
  865MPD2    H512703   2.812   0.524  16.973 -0.7199 -2.1259  0.4008
  865MPD2    N112704   2.578   0.258  16.689 -0.0078  0.1720 -0.2449
  865MPD2    H712705   2.520   0.175  16.689  0.6493 -0.3061  1.9329
  866MPD2     C12706   4.153   0.444  11.415  0.4437  0.8899  0.5117
  866MPD2    C112707   4.104   0.379  11.308  0.1455 -0.5898 -0.0121
  866MPD2    C212708   3.992   0.416  11.242 -0.5062  0.7291  0.1783
  866MPD2    C312709   3.922   0.526  11.286 -0.0564  0.2861  0.7312
  866MPD2    C412710   3.967   0.600  11.395  0.3557  0.0227  0.1168
  866MPD2    C512711   4.080   0.548  11.461  0.1897  0.9305  0.4081
  866MPD2     H12712   3.950   0.356  11.162  0.2338  1.2917 -0.6253
  866MPD2    H112713   3.916   0.692  11.423  1.8429  0.2344  2.2159
  866MPD2    H212714   4.250   0.429  11.462 -0.8693 -0.0977  2.9595
  866MPD2    H312715   4.132   0.607  11.535  0.9852  0.6716  0.0577
  866MPD2     N12716   3.807   0.574  11.215 -0.4768  0.1597 -0.2543
  866MPD2    H512717   3.755   0.649  11.257 -1.0707 -0.1563 -0.4308
  866MPD2    N112718   4.183   0.270  11.263 -1.2029  0.0451 -0.4169
  866MPD2    H712719   4.178   0.237  11.168 -1.5790 -1.0153 -0.0247
  867MPD2     C12720   1.581   0.270  16.587  0.4514  0.2935 -0.8184
  867MPD2    C112721   1.691   0.253  16.668  0.7164  0.4349  0.0082
  867MPD2    C212722   1.781   0.349  16.683  1.0425 -0.1919 -0.8079
  867MPD2    C312723   1.768   0.474  16.628 -0.0754 -0.5728  0.1651
  867MPD2    C412724   1.666   0.495  16.543 -0.0841  0.3966  0.1032
  867MPD2    C512725   1.572   0.391  16.516 -0.1307 -0.0857  0.6266
  867MPD2     H12726   1.865   0.325  16.747  1.7944 -1.4033 -2.2448
  867MPD2    H112727   1.671   0.593  16.497  0.1969 -0.1988 -1.1275
  867MPD2    H212728   1.500   0.200  16.572 -1.3958  2.5362 -1.1992
  867MPD2    H312729   1.492   0.412  16.446 -0.2757 -0.0311  0.8089
  867MPD2     N12730   1.854   0.584  16.642 -0.4963 -0.4435 -0.0890
  867MPD2    H512731   1.815   0.677  16.626 -1.1826 -0.0830  3.5189
  867MPD2    N112732   1.701   0.130  16.738 -0.1639 -0.1278  0.1083
  867MPD2    H712733   1.641   0.053  16.711  0.2739  0.1242 -1.5595
  868MPD2     C12734   3.887   2.876  12.865 -0.1921 -0.4473 -0.7061
  868MPD2    C112735   3.864   3.011  12.864 -0.0257 -0.0106  0.1855
  868MPD2    C212736   3.730   3.059  12.891 -1.0160  0.5288  0.5651
  868MPD2    C312737   3.625   2.969  12.906  0.7829  0.9584 -0.3322
  868MPD2    C412738   3.652   2.830  12.911 -0.4604 -0.5450 -0.0697
  868MPD2    C512739   3.788   2.787  12.895  0.3693  1.0026 -0.3658
  868MPD2     H12740   3.716   3.166  12.882 -2.1991  0.2781 -0.6800
  868MPD2    H112741   3.573   2.759  12.932  0.8486 -1.7440  0.8417
  868MPD2    H212742   3.991   2.845  12.860 -0.3502 -1.0983 -0.0778
  868MPD2    H312743   3.809   2.681  12.901 -0.2248  0.8883 -0.3238
  868MPD2     N12744   3.495   3.032  12.922  0.0439  0.2319 -0.0268
  868MPD2    H512745   3.497   3.133  12.920  2.1694  0.0999 -4.0610
  868MPD2    N112746   3.969   3.105  12.833  0.8536  0.4654  0.5615
  868MPD2    H712747   3.941   3.202  12.832 -0.8419 -0.0096  2.0297
  869MPD2     C12748   3.892   1.834   1.719 -0.1135  0.7099  0.6403
  869MPD2    C112749   4.003   1.891   1.779  0.9009 -0.8133 -0.2886
  869MPD2    C212750   4.065   1.993   1.714  0.1528  0.1979  0.1595
  869MPD2    C312751   3.997   2.054   1.609  0.0275 -0.1109 -0.5052
  869MPD2    C412752   3.890   1.995   1.551  0.4563 -0.2189  0.5044
  869MPD2    C512753   3.840   1.882   1.604 -0.5704 -0.7661 -0.4991
  869MPD2     H12754   4.154   2.039   1.755 -0.2227 -1.0429  2.3441
  869MPD2    H112755   3.849   2.027   1.456  1.0302  2.6553  1.2262
  869MPD2    H212756   3.841   1.748   1.759  1.0363 -0.2139  0.1197
  869MPD2    H312757   3.748   1.837   1.569 -1.5032  0.4119  0.3971
  869MPD2     N12758   4.037   2.180   1.546  0.2404 -0.6204  0.8393
  869MPD2    H512759   3.974   2.219   1.477 -0.3197 -0.2760  1.5429
  869MPD2    N112760   4.051   1.835   1.906 -0.6172 -0.4277  0.2352
  869MPD2    H712761   3.990   1.759   1.934  0.3908 -0.6417  1.7850
  870MPD2     C12762   3.486   0.987   1.477 -0.2184 -0.4740  0.0736
  870MPD2    C112763   3.595   1.060   1.443 -0.0399  0.2172  0.1383
  870MPD2    C212764   3.583   1.135   1.326  0.0644 -0.3115  0.1642
  870MPD2    C312765   3.466   1.132   1.249 -0.0274  0.4837 -0.1480
  870MPD2    C412766   3.363   1.059   1.290  0.2977 -0.2062  0.2339
  870MPD2    C512767   3.374   0.988   1.402 -0.2567 -0.4102 -0.3060
  870MPD2     H12768   3.674   1.177   1.284  0.4614 -3.2281 -1.9244
  870MPD2    H112769   3.269   1.051   1.237 -0.6628  1.8622  1.6050
  870MPD2    H212770   3.494   0.914   1.556  2.2661 -1.3562 -0.9902
  870MPD2    H312771   3.292   0.921   1.427 -1.2223  0.4536 -1.1506
  870MPD2     N12772   3.465   1.212   1.133 -0.3625  0.0073  0.3732
  870MPD2    H512773   3.545   1.271   1.110 -1.6608  1.8083  0.4732
  870MPD2    N112774   3.708   1.064   1.520 -0.4217 -0.1837 -0.0955
  870MPD2    H712775   3.721   0.995   1.594 -2.2488 -3.6475 -3.0026
  871MPD2     C12776   0.346   0.249  16.218 -0.2266 -0.5258  0.5979
  871MPD2    C112777   0.404   0.197  16.337 -0.3676  0.2786  0.0039
  871MPD2    C212778   0.461   0.070  16.334  0.3979 -0.9736 -0.1136
  871MPD2    C312779   0.446   4.726  16.219 -0.4694 -0.5063  0.9952
  871MPD2    C412780   0.387   0.047  16.108 -0.3741 -0.3981  0.4278
  871MPD2    C512781   0.334   0.171  16.105  0.4177  0.6326 -0.2084
  871MPD2     H12782   0.507   0.017  16.417  0.9822 -0.3872 -0.0709
  871MPD2    H112783   0.377   4.714  16.019  1.7019  0.8000 -0.6097
  871MPD2    H212784   0.296   0.345  16.227  0.8003 -0.2739  3.4237
  871MPD2    H312785   0.272   0.198  16.021  0.3166  1.0591  0.0016
  871MPD2     N12786   0.489   4.592  16.225 -0.2573 -0.3984 -0.3837
  871MPD2    H512787   0.541   4.568  16.309 -0.7625 -1.3780 -0.3519
  871MPD2    N112788   0.399   0.272  16.456 -0.4271  0.2347 -0.3460
  871MPD2    H712789   0.362   0.366  16.445 -0.5012  0.1384 -0.9022
  872MPD2     C12790   1.808   2.336  14.339  0.1296 -0.2793  0.5335
  872MPD2    C112791   1.775   2.399  14.223  0.1154 -0.4464 -0.2313
  872MPD2    C212792   1.641   2.393  14.183  0.7932  0.1634 -0.6530
  872MPD2    C312793   1.538   2.339  14.263  0.7305  0.6156 -0.1357
  872MPD2    C412794   1.574   2.275  14.379 -0.4615  0.7238  0.2448
  872MPD2    C512795   1.708   2.275  14.410 -0.6132  0.5015 -0.3832
  872MPD2     H12796   1.618   2.440  14.089  0.0935  2.5225  0.6950
  872MPD2    H112797   1.509   2.226  14.450 -0.0232  0.2500  0.3152
  872MPD2    H212798   1.911   2.321  14.368  0.2548  0.7739  0.6474
  872MPD2    H312799   1.736   2.212  14.493 -0.7528  0.1376 -0.6103
  872MPD2     N12800   1.399   2.351  14.235  0.8532  0.2779  0.3720
  872MPD2    H512801   1.334   2.344  14.312 -1.4939  1.2418 -1.5399
  872MPD2    N112802   1.871   2.459  14.135 -0.0465  0.5399  0.2451
  872MPD2    H712803   1.837   2.500  14.048 -0.1636  0.2415  0.1523
  873MPD2     C12804   2.924   2.924   0.707  0.4274  0.0427  0.6242
  873MPD2    C112805   2.946   2.926   0.844 -0.6128  0.1840 -0.8146
  873MPD2    C212806   2.929   2.806   0.914  0.1899 -0.0631  0.0731
  873MPD2    C312807   2.894   2.689   0.840 -0.8488  0.6515  0.4027
  873MPD2    C412808   2.879   2.689   0.705  0.2139 -0.6636  0.0862
  873MPD2    C512809   2.886   2.809   0.644 -0.6228 -0.6204 -0.0774
  873MPD2     H12810   2.944   2.794   1.021 -0.0170 -0.9432  0.0053
  873MPD2    H112811   2.836   2.608   0.648 -1.7881 -0.0560  0.7334
  873MPD2    H212812   2.927   3.012   0.643 -1.9846 -0.4957 -0.2080
  873MPD2    H312813   2.888   2.803   0.536  2.0154 -0.5640 -0.0298
  873MPD2     N12814   2.883   2.567   0.918  0.1465  0.1956 -0.0674
  873MPD2    H512815   2.876   2.574   1.019  0.6656  0.1338 -0.0292
  873MPD2    N112816   2.976   3.046   0.903  0.4070 -0.3906  0.5813
  873MPD2    H712817   2.989   3.126   0.842  0.2341 -1.2361 -0.5547
  874MPD2     C12818   2.781   3.033  16.020  0.0426 -0.4804  0.1103
  874MPD2    C112819   2.825   2.967  16.132  0.5658 -0.0693 -0.2757
  874MPD2    C212820   2.938   3.007  16.184  0.0301 -0.3362  0.1723
  874MPD2    C312821   3.022   3.099  16.127 -0.4271  0.1368 -0.8387
  874MPD2    C412822   2.987   3.158  16.012  0.4090 -0.4242 -0.3204
  874MPD2    C512823   2.866   3.132  15.958 -0.2744 -0.1990 -0.0291
  874MPD2     H12824   2.968   2.968  16.280 -0.4531 -1.2731 -0.0594
  874MPD2    H112825   3.052   3.235  15.971  1.0068 -0.9751 -0.4046
  874MPD2    H212826   2.683   3.012  15.979  0.9991  1.4084 -3.0568
  874MPD2    H312827   2.831   3.174  15.864 -1.9006 -0.2913  0.5338
  874MPD2     N12828   3.140   3.126  16.198 -0.4323  0.0657 -0.2513
  874MPD2    H512829   3.145   3.090  16.292 -1.3117  3.2830  1.0380
  874MPD2    N112830   2.739   2.868  16.182  0.1384  0.3778 -0.2212
  874MPD2    H712831   2.655   2.859  16.126  0.9535  1.5699 -1.6348
  875MPD2     C12832   4.048   0.917  14.641  0.4686  0.3871 -0.4126
  875MPD2    C112833   3.922   0.919  14.683  0.3867 -0.3166 -0.0075
  875MPD2    C212834   3.891   0.970  14.807 -0.7892 -0.2747 -0.0682
  875MPD2    C312835   3.990   1.021  14.889 -0.2969 -0.2176  0.3033
  875MPD2    C412836   4.123   1.012  14.846 -0.1805  0.2802  0.2135
  875MPD2    C512837   4.151   0.942  14.726  0.3351 -0.0881 -0.4424
  875MPD2     H12838   3.789   0.988  14.841 -0.1970 -0.9795  2.0605
  875MPD2    H112839   4.212   1.041  14.900 -0.4121  0.4259  0.5208
  875MPD2    H212840   4.070   0.915  14.535  0.8339 -1.7052 -0.2981
  875MPD2    H312841   4.252   0.952  14.689  0.1413 -2.3767 -1.6200
  875MPD2     N12842   3.975   1.090  15.015  0.3226 -1.0478 -0.1818
  875MPD2    H512843   4.047   1.153  15.049 -2.6359  1.7406  0.9123
  875MPD2    N112844   3.816   0.910  14.580  0.2452 -0.0873  0.1847
  875MPD2    H712845   3.728   0.950  14.609 -0.2474 -0.7705 -0.3738
  876MPD2     C12846   2.529   2.393  16.170  0.8543  0.1129 -0.2948
  876MPD2    C112847   2.658   2.369  16.133  0.0878 -0.4862  0.1612
  876MPD2    C212848   2.716   2.250  16.172  0.1362 -0.1775 -0.1168
  876MPD2    C312849   2.641   2.152  16.233  0.1727 -0.5971 -0.6719
  876MPD2    C412850   2.510   2.176  16.269  0.3828  0.2839  1.0962
  876MPD2    C512851   2.455   2.305  16.244 -0.0197  0.1979 -0.3210
  876MPD2     H12852   2.815   2.224  16.137  0.1099  2.1023 -1.9015
  876MPD2    H112853   2.445   2.106  16.319 -1.2203  0.8844 -0.1531
  876MPD2    H212854   2.474   2.477  16.130  2.8237  1.2256 -0.6100
  876MPD2    H312855   2.362   2.328  16.294  1.4062  0.8898  2.0252
  876MPD2     N12856   2.699   2.027  16.244  0.3699  0.2388  0.1991
  876MPD2    H512857   2.797   2.011  16.222  0.3155 -1.1360  0.9343
  876MPD2    N112858   2.720   2.467  16.047  0.0819 -0.5559 -0.4343
  876MPD2    H712859   2.657   2.528  15.996  2.5445  3.1565  1.0013
  877MPD2     C12860   2.639   2.756  15.459  0.2382 -0.3578 -0.2350
  877MPD2    C112861   2.751   2.834  15.480  0.3064  0.0079 -0.2571
  877MPD2    C212862   2.809   2.904  15.380  0.3718  0.1235  0.4929
  877MPD2    C312863   2.772   2.891  15.247  0.0788  0.9436 -0.7475
  877MPD2    C412864   2.659   2.812  15.229  0.1089  0.5747  0.4878
  877MPD2    C512865   2.588   2.764  15.336 -0.8951  1.1254 -0.3684
  877MPD2     H12866   2.884   2.975  15.413 -0.9974  1.6401  0.2772
  877MPD2    H112867   2.620   2.787  15.131 -1.3866  0.2323  1.1756
  877MPD2    H212868   2.595   2.693  15.535  2.4634 -1.5447  0.0856
  877MPD2    H312869   2.492   2.717  15.317 -0.8035  1.6742 -2.1660
  877MPD2     N12870   2.845   2.958  15.144 -0.2906  0.1051 -0.2268
  877MPD2    H512871   2.814   2.942  15.049 -1.6431  1.2046  0.0362
  877MPD2    N112872   2.814   2.849  15.608 -0.4751 -0.4910  0.3041
  877MPD2    H712873   2.904   2.894  15.617 -0.3550 -0.6577 -0.0300
  878MPD2     C12874   3.012   1.797  13.209  0.5863 -0.4819  0.2630
  878MPD2    C112875   2.985   1.931  13.187  0.3523  0.0390  0.0484
  878MPD2    C212876   3.050   2.026  13.268 -0.6309  0.1348 -0.0581
  878MPD2    C312877   3.135   1.987  13.375 -0.0295 -0.0890 -0.3216
  878MPD2    C412878   3.156   1.854  13.403 -0.1455  0.0917 -0.2126
  878MPD2    C512879   3.098   1.765  13.311 -0.5173  0.1133 -0.1290
  878MPD2     H12880   3.033   2.130  13.244 -1.6496  0.6185  2.7779
  878MPD2    H112881   3.225   1.814  13.476 -0.8937 -2.1446 -0.7472
  878MPD2    H212882   2.956   1.730  13.144 -1.5380 -0.7885  2.3889
  878MPD2    H312883   3.129   1.661  13.316 -3.2065 -0.7248 -0.6086
  878MPD2     N12884   3.179   2.091  13.460  0.1135  0.3080  0.0814
  878MPD2    H512885   3.149   2.183  13.429 -1.0098 -1.1074 -2.9927
  878MPD2    N112886   2.898   1.968  13.083 -0.3989  0.4769  0.1944
  878MPD2    H712887   2.862   1.894  13.023  0.0557  1.3619 -1.1580
  879MPD2     C12888   3.151   3.657  17.475  0.1588  0.3571  0.4683
  879MPD2    C112889   3.197   3.543  17.401  0.4596  0.3575  0.1685
  879MPD2    C212890   3.152   3.528  17.269 -0.5942  0.0789  0.3968
  879MPD2    C312891   3.054   3.610  17.220 -0.4948 -0.4603 -0.1264
  879MPD2    C412892   3.002   3.705  17.301  0.2865 -0.1976  0.2503
  879MPD2    C512893   3.056   3.740  17.421 -0.2835  0.5930 -0.2521
  879MPD2     H12894   3.175   3.439  17.211 -0.3968 -0.6637  1.5880
  879MPD2    H112895   2.922   3.763  17.257 -0.1429 -1.5796 -0.7686
  879MPD2    H212896   3.191   3.675  17.574 -2.0947 -0.7778  1.6121
  879MPD2    H312897   3.030   3.831  17.472 -1.5277  0.5202 -0.7576
  879MPD2     N12898   2.984   3.579  17.098  0.3355 -0.3598 -0.3233
  879MPD2    H512899   2.894   3.623  17.080  1.0597  1.5661  0.7276
  879MPD2    N112900   3.287   3.451  17.464 -0.1934  0.8913  0.7708
  879MPD2    H712901   3.288   3.454  17.565  0.6809 -0.8695  0.7981
  880MPD2     C12902   4.025   0.634   0.581 -0.4508 -0.0479  0.3489
  880MPD2    C112903   4.150   0.665   0.529  0.1262  0.1917  0.0575
  880MPD2    C212904   4.250   0.572   0.512 -0.0157  0.4723  0.3085
  880MPD2    C312905   4.228   0.436   0.544 -0.1920  0.2608 -0.2473
  880MPD2    C412906   4.101   0.406   0.593  0.7343  0.2082  0.7442
  880MPD2    C512907   4.004   0.500   0.618 -0.6035  0.8152  0.7080
  880MPD2     H12908   4.350   0.603   0.485 -0.4815  1.4770 -0.2612
  880MPD2    H112909   4.061   0.309   0.624  0.8965 -0.4101 -0.9813
  880MPD2    H212910   3.946   0.704   0.605  1.6598  2.1413  0.8240
  880MPD2    H312911   3.910   0.469   0.662 -0.2025 -0.4333  0.6960
  880MPD2     N12912   4.330   0.340   0.527  0.3087 -0.3236 -0.0914
  880MPD2    H512913   4.425   0.376   0.520  0.2236  0.1583  1.2070
  880MPD2    N112914   4.163   0.806   0.492 -0.1808  0.1268  0.0660
  880MPD2    H712915   4.076   0.857   0.497 -0.6002 -0.4677 -1.1062
  881MPD2     C12916   4.724   1.516  17.626 -0.0072  0.7300 -0.0339
  881MPD2    C112917   4.677   1.393  17.591 -0.1689  0.2293  0.4453
  881MPD2    C212918   4.574   1.338  17.663  0.1810  0.0111  0.4091
  881MPD2    C312919   4.525   1.411   0.062 -0.2485  0.0277 -0.3889
  881MPD2    C412920   4.587   1.523   0.112 -0.6365 -0.4506  0.0574
  881MPD2    C512921   4.675   1.581   0.029  0.6701  0.3892 -0.2944
  881MPD2     H12922   4.523   1.250  17.624 -0.3260 -0.1955  1.5430
  881MPD2    H112923   4.532   1.571   0.191 -0.1010  3.9073 -2.2206
  881MPD2    H212924   0.063   1.579  17.569 -2.0905  1.1099 -2.0461
  881MPD2    H312925   4.712   1.679   0.055 -1.2749  1.0681 -0.0402
  881MPD2     N12926   4.434   1.348   0.150  0.2974  0.3335  0.7948
  881MPD2    H512927   4.405   1.396   0.234 -2.6111 -0.3622  0.1697
  881MPD2    N112928   4.719   1.349  17.470 -0.4041  0.2817 -0.5624
  881MPD2    H712929   0.068   1.406  17.437 -0.0395 -0.8085 -1.5748
  882MPD2     C12930   3.131   2.912  14.445  0.4022  0.0357 -0.5095
  882MPD2    C112931   3.022   2.976  14.507 -0.0836 -0.2309  0.0382
  882MPD2    C212932   2.896   2.952  14.460  0.2426  0.2718  0.1345
  882MPD2    C312933   2.876   2.857  14.362  0.1842  0.1295  0.4534
  882MPD2    C412934   2.980   2.792  14.300 -0.1614  0.4405  0.1633
  882MPD2    C512935   3.106   2.829  14.346  0.4092  0.2082 -0.2463
  882MPD2     H12936   2.813   3.012  14.497 -0.4715 -0.1679 -0.7366
  882MPD2    H112937   2.966   2.715  14.225 -0.5888 -0.1566  0.8562
  882MPD2    H212938   3.232   2.913  14.486  0.1307 -0.8146  0.1757
  882MPD2    H312939   3.187   2.771  14.302 -1.5449 -0.6128 -2.7606
  882MPD2     N12940   2.742   2.814  14.334  0.5255  0.0178 -0.0614
  882MPD2    H512941   2.727   2.733  14.276  0.6337  0.1054 -0.2101
  882MPD2    N112942   3.044   3.059  14.619  0.1311  0.0231 -0.8939
  882MPD2    H712943   3.136   3.055  14.662 -0.2161 -0.5850 -0.1818
  883MPD2     C12944   0.240   2.886  16.345  0.0785  0.3510 -0.1696
  883MPD2    C112945   0.306   2.862  16.223 -0.5140 -0.2125 -0.4011
  883MPD2    C212946   0.432   2.814  16.229 -0.0669 -0.3139  0.1809
  883MPD2    C312947   0.499   2.772  16.344  0.5595  0.7511  0.0205
  883MPD2    C412948   0.427   2.799  16.466  0.4166  0.3296 -0.1061
  883MPD2    C512949   0.300   2.844  16.459 -0.7519  0.2771  0.7504
  883MPD2     H12950   0.485   2.814  16.134 -1.1153  0.5443 -0.4129
  883MPD2    H112951   0.468   2.789  16.565  0.2148  0.0915 -0.0494
  883MPD2    H212952   0.135   2.915  16.351  0.1414  1.0291 -2.2216
  883MPD2    H312953   0.248   2.857  16.553  0.4791  0.0495  1.4732
  883MPD2     N12954   0.625   2.717  16.334 -0.8416 -0.0353 -0.1400
  883MPD2    H512955   0.665   2.686  16.246 -3.6959 -1.3729 -0.9559
  883MPD2    N112956   0.253   2.890  16.096 -0.4886  0.0678  0.2801
  883MPD2    H712957   0.310   2.870  16.015 -0.7698 -0.4068  0.1972
  884MPD2     C12958   1.527   3.177  15.406  0.3144 -0.0581  0.8137
  884MPD2    C112959   1.514   3.155  15.266  0.1801  0.1624 -0.4893
  884MPD2    C212960   1.392   3.139  15.212  0.1997  0.7876  0.5704
  884MPD2    C312961   1.277   3.164  15.282  0.2041 -0.3208  0.7418
  884MPD2    C412962   1.287   3.190  15.417  0.5281  0.2653  1.0953
  884MPD2    C512963   1.406   3.196  15.480 -0.5001  0.2684 -0.5362
  884MPD2     H12964   1.385   3.116  15.106 -0.1788  0.9738  0.5530
  884MPD2    H112965   1.196   3.184  15.475  0.6403  0.0434  1.2448
  884MPD2    H212966   1.624   3.196  15.451 -0.6793  1.6958  2.2269
  884MPD2    H312967   1.413   3.216  15.587 -1.4958 -0.9787 -0.2409
  884MPD2     N12968   1.154   3.144  15.219 -1.0951  0.4668 -0.3475
  884MPD2    H512969   1.157   3.124  15.120  1.6107 -1.3002  0.0970
  884MPD2    N112970   1.624   3.127  15.180 -0.5062  0.1146  0.4407
  884MPD2    H712971   1.600   3.141  15.082 -0.1181 -0.9933  0.1846
  885MPD2     C12972   4.601   3.963   0.276 -0.5811  0.2524  0.1984
  885MPD2    C112973   4.604   3.831   0.245 -0.2507 -0.1159  0.1356
  885MPD2    C212974   4.626   3.796   0.111 -0.5897  0.3887 -0.3660
  885MPD2    C312975   4.648   3.893   0.011 -0.1591  0.4713  0.0335
  885MPD2    C412976   4.640   4.029   0.053  0.4820 -1.0736  0.4133
  885MPD2    C512977   4.609   4.062   0.184 -0.1709 -0.5497 -0.8785
  885MPD2     H12978   4.651   3.697   0.077  0.6196  0.3236  0.7247
  885MPD2    H112979   4.638   4.113  17.696  1.1096 -3.1360 -2.1075
  885MPD2    H212980   4.590   3.992   0.380  2.0458  3.8861 -0.5400
  885MPD2    H312981   4.605   4.165   0.217 -0.2727 -1.2152  1.1893
  885MPD2     N12982   4.681   3.846  17.593 -0.3332  0.1927  0.1021
  885MPD2    H512983   4.687   3.746  17.578 -0.6462  0.4558 -1.8626
  885MPD2    N112984   4.600   3.741   0.357 -0.1480 -0.6374  0.2279
  885MPD2    H712985   4.599   3.780   0.451  0.1197 -0.3019  0.0941
  886MPD2     C12986   1.535   1.821  14.830 -0.2083  0.4070 -0.1933
  886MPD2    C112987   1.665   1.860  14.881 -0.2681 -0.5401  0.7694
  886MPD2    C212988   1.716   1.993  14.856 -0.0299 -0.1794  0.3270
  886MPD2    C312989   1.645   2.078  14.771  0.2998  0.8819  0.0165
  886MPD2    C412990   1.513   2.044  14.745  0.4554 -0.7919 -1.3178
  886MPD2    C512991   1.459   1.926  14.781 -0.4601  0.1496 -0.4164
  886MPD2     H12992   1.804   2.031  14.907 -0.5976 -0.4596  1.5025
  886MPD2    H112993   1.443   2.117  14.705  1.2415  0.9454  0.4423
  886MPD2    H212994   1.499   1.722  14.856  1.6507 -0.8097 -2.2002
  886MPD2    H312995   1.354   1.907  14.763 -0.4998 -0.5638  0.6415
  886MPD2     N12996   1.678   2.216  14.767  0.5272 -0.0433 -0.0899
  886MPD2    H512997   1.601   2.281  14.775  2.4714  2.2706  0.0833
  886MPD2    N112998   1.741   1.795  14.980 -0.2418  0.3628 -0.2374
  886MPD2    H712999   1.826   1.844  15.006 -1.3078  1.8139  0.5635
  887MPD2     C13000   2.364   1.933  15.254 -0.1872 -0.2638  0.8197
  887MPD2    C113001   2.224   1.937  15.272 -0.2916  0.1269 -0.5215
  887MPD2    C213002   2.167   2.051  15.327 -0.0226  0.2888 -0.1153
  887MPD2    C313003   2.249   2.152  15.383 -1.1768 -0.2563 -0.6561
  887MPD2    C413004   2.388   2.140  15.369  0.0845 -0.7466  0.5519
  887MPD2    C513005   2.437   2.035  15.298  0.2564  0.1688  0.8456
  887MPD2     H13006   2.060   2.062  15.328 -0.2618 -2.1950 -0.6056
  887MPD2    H113007   2.457   2.218  15.396 -2.0674  1.9629 -1.6746
  887MPD2    H213008   2.404   1.844  15.208 -0.3264  0.0023  0.1851
  887MPD2    H313009   2.544   2.036  15.281 -0.0934  4.3035 -1.3497
  887MPD2     N13010   2.192   2.261  15.454  0.3847  0.2921  0.2982
  887MPD2    H513011   2.090   2.267  15.451  0.4523  1.0566 -0.4415
  887MPD2    N113012   2.143   1.823  15.239  0.0378 -0.3792  0.5893
  887MPD2    H713013   2.044   1.846  15.237 -0.1118 -1.0515  0.3453
  888MPD2     C13014   4.340   2.265  15.392 -0.0293  0.3921 -0.9861
  888MPD2    C113015   4.216   2.291  15.345 -0.5154  0.1320  0.6292
  888MPD2    C213016   4.182   2.421  15.309  0.3078 -0.5108 -0.5269
  888MPD2    C313017   4.276   2.525  15.314 -0.5317  0.1589  0.4772
  888MPD2    C413018   4.408   2.502  15.353 -0.0346  0.3436  0.3557
  888MPD2    C513019   4.429   2.370  15.394 -0.5711 -0.1308 -0.5960
  888MPD2     H13020   4.082   2.431  15.269  0.2849 -0.9612 -0.5803
  888MPD2    H113021   4.484   2.578  15.359  0.3036 -0.0727  1.2507
  888MPD2    H213022   4.371   2.166  15.421  0.9523  1.0837  0.3501
  888MPD2    H313023   4.525   2.335  15.430  0.6059  2.9736 -0.7026
  888MPD2     N13024   4.220   2.651  15.275 -0.3994 -0.0831  0.1450
  888MPD2    H513025   4.120   2.658  15.256 -0.3570  2.2695  0.7632
  888MPD2    N113026   4.120   2.188  15.325  0.3151  0.2940 -0.1676
  888MPD2    H713027   4.033   2.216  15.281  0.6778  0.1098 -0.9947
  889MPD2     C13028   3.046   1.609  12.817 -0.6337 -0.2692 -0.4948
  889MPD2    C113029   3.126   1.569  12.922 -0.0017  0.8544 -0.8004
  889MPD2    C213030   3.195   1.662  12.994 -0.1570 -0.5670  0.2007
  889MPD2    C313031   3.194   1.796  12.948  0.0638  0.1911 -0.1542
  889MPD2    C413032   3.130   1.826  12.831  0.0863  0.4419 -0.0537
  889MPD2    C513033   3.053   1.736  12.770 -0.6150  0.6907  0.2751
  889MPD2     H13034   3.245   1.635  13.086 -1.5583 -0.8827  0.8703
  889MPD2    H113035   3.140   1.921  12.781 -0.1369  0.0218 -0.8980
  889MPD2    H213036   3.013   1.543  12.738 -0.5702 -0.2185 -0.5640
  889MPD2    H313037   2.995   1.756  12.681 -1.1458  3.2972  1.2060
  889MPD2     N13038   3.259   1.902  13.022  0.4756  0.6584  0.0267
  889MPD2    H513039   3.281   1.875  13.117 -0.8037  0.5672  0.3077
  889MPD2    N113040   3.117   1.435  12.966  0.0121 -0.1145  0.5108
  889MPD2    H713041   3.177   1.414  13.044 -0.0391 -0.4820  0.4520
  890MPD2     C13042   2.509   3.457  14.621  0.8924 -0.1859  0.1102
  890MPD2    C113043   2.575   3.560  14.690 -0.5803 -0.2021 -0.1487
  890MPD2    C213044   2.644   3.532  14.809  0.8334 -0.0922  0.6141
  890MPD2    C313045   2.635   3.409  14.866  0.4570 -0.0159 -0.1054
  890MPD2    C413046   2.570   3.310  14.802  0.4923 -0.3056  0.3833
  890MPD2    C513047   2.504   3.339  14.680  0.0440  0.6525 -0.1107
  890MPD2     H13048   2.710   3.610  14.845  2.3632 -0.4246 -1.4886
  890MPD2    H113049   2.577   3.214  14.852  1.2722 -1.3317 -1.6847
  890MPD2    H213050   2.463   3.476  14.524  0.3891 -1.5252  0.0889
  890MPD2    H313051   2.457   3.250  14.641 -0.7776  0.1274  2.0824
  890MPD2     N13052   2.702   3.396  14.984  0.0765 -0.2828 -0.4366
  890MPD2    H513053   2.743   3.476  15.031  0.0121 -0.6157  0.1801
  890MPD2    N113054   2.580   3.694  14.640 -0.1194  0.0179  0.7853
  890MPD2    H713055   2.537   3.682  14.549  0.7017 -2.2851  0.7157
  891MPD2     C13056   0.874   1.487  16.649 -0.3920  0.0673  0.0951
  891MPD2    C113057   0.837   1.615  16.683 -0.2812 -0.7208 -0.4471
  891MPD2    C213058   0.923   1.685  16.771  0.0017 -0.3040 -0.2534
  891MPD2    C313059   1.044   1.632  16.811  0.3099  0.8257 -0.3016
  891MPD2    C413060   1.074   1.499  16.774 -0.3227 -0.1957  0.1523
  891MPD2    C513061   0.990   1.428  16.693  0.6119  0.2460  0.2314
  891MPD2     H13062   0.900   1.785  16.805 -1.6071 -0.1345 -1.8809
  891MPD2    H113063   1.161   1.451  16.816  1.1241  0.7998 -1.7279
  891MPD2    H213064   0.811   1.436  16.578 -0.1889 -1.1073  0.7531
  891MPD2    H313065   1.018   1.329  16.659  2.1582  0.3584  1.1487
  891MPD2     N13066   1.129   1.718  16.882  0.3834  0.4685  0.9109
  891MPD2    H513067   1.074   1.801  16.903 -3.4508 -1.8461 -0.0106
  891MPD2    N113068   0.716   1.673  16.623 -0.1410  0.1608 -0.2499
  891MPD2    H713069   0.666   1.617  16.555 -3.2959  3.0306 -0.3058
  892MPD2     C13070   1.891   3.268  14.394 -1.0004 -0.7021  0.0422
  892MPD2    C113071   1.855   3.146  14.443 -0.4600  0.0819 -1.0250
  892MPD2    C213072   1.935   3.036  14.421 -0.3571 -0.7179 -0.3816
  892MPD2    C313073   2.058   3.057  14.359 -0.2309  0.1558 -0.6769
  892MPD2    C413074   2.097   3.183  14.316 -0.3331 -0.0492  0.0757
  892MPD2    C513075   2.012   3.287  14.333 -0.3981 -0.8440 -0.7377
  892MPD2     H13076   1.926   2.934  14.459  0.3860 -0.7342 -0.2520
  892MPD2    H113077   2.192   3.200  14.268 -0.3418  0.4385  0.2332
  892MPD2    H213078   1.822   3.350  14.409  0.9573  1.0424 -0.4856
  892MPD2    H313079   2.041   3.386  14.299 -1.0069 -0.4350 -0.0639
  892MPD2     N13080   2.158   2.956  14.346 -0.0794 -0.0717  0.4994
  892MPD2    H513081   2.239   2.985  14.292 -0.3513  0.7687  0.5429
  892MPD2    N113082   1.735   3.144  14.511 -0.6081 -0.8073 -0.3996
  892MPD2    H713083   1.677   3.227  14.500 -0.6949 -0.8014  0.0941
  893MPD2     C13084   3.149   0.910   1.685  0.6455 -0.0467  0.0133
  893MPD2    C113085   3.115   1.043   1.676  0.4323 -0.1109  0.1625
  893MPD2    C213086   2.986   1.088   1.704  0.0143 -0.1164  0.0077
  893MPD2    C313087   2.893   0.995   1.754 -0.8207  0.6638  0.0161
  893MPD2    C413088   2.934   0.859   1.779  0.0285 -0.1866  0.0142
  893MPD2    C513089   3.055   0.817   1.729  0.2198  0.3515 -0.4790
  893MPD2     H13090   2.958   1.192   1.693 -2.5013 -0.7392  0.6013
  893MPD2    H113091   2.870   0.780   1.816  1.0777 -0.0330  2.1537
  893MPD2    H213092   3.245   0.870   1.655  0.1581  0.1869 -1.8582
  893MPD2    H313093   3.080   0.712   1.732  1.7639  0.6858 -1.8918
  893MPD2     N13094   2.763   1.039   1.794 -0.0509  0.2555 -0.0130
  893MPD2    H513095   2.695   0.970   1.823  0.9748 -0.3968  0.8240
  893MPD2    N113096   3.215   1.136   1.623 -0.2514  0.9969  0.6776
  893MPD2    H713097   3.314   1.113   1.628 -0.8568 -0.8451  3.9491
  894MPD2     C13098   1.299   4.135   0.767 -0.1476  0.5207  0.0246
  894MPD2    C113099   1.305   4.147   0.906 -0.3828  0.4059 -0.6218
  894MPD2    C213100   1.370   4.264   0.956  0.6527  0.3774  0.3896
  894MPD2    C313101   1.420   4.361   0.869  0.1181  0.1494  0.0541
  894MPD2    C413102   1.395   4.350   0.731  0.5716  0.2684  0.6493
  894MPD2    C513103   1.332   4.240   0.682 -0.1048  0.7632 -0.2209
  894MPD2     H13104   1.381   4.266   1.064  0.1690 -0.1791  0.4477
  894MPD2    H113105   1.432   4.424   0.661  2.2272 -1.6258 -0.4923
  894MPD2    H213106   1.241   4.055   0.724  0.1887  0.5946 -0.5625
  894MPD2    H313107   1.312   4.231   0.576  2.7434  1.2464 -0.8111
  894MPD2     N13108   1.496   4.463   0.927 -0.0407 -0.4639  0.0786
  894MPD2    H513109   1.517   4.450   1.026 -0.6597 -0.9195  0.1511
  894MPD2    N113110   1.255   4.049   1.000  0.6119  0.6102 -0.4714
  894MPD2    H713111   1.259   4.069   1.100  0.8908  0.4310 -0.4471
  895MPD2     C13112   1.496   1.326  13.866  0.6562 -0.0906  1.1438
  895MPD2    C113113   1.359   1.301  13.885 -0.4920  0.5967 -0.1318
  895MPD2    C213114   1.316   1.190  13.957 -0.1078 -0.0659 -0.1743
  895MPD2    C313115   1.412   1.105  14.011 -0.4276  0.3601 -0.4780
  895MPD2    C413116   1.551   1.131  13.997 -0.1626 -1.0124  0.4096
  895MPD2    C513117   1.586   1.243  13.931 -0.6798  0.4690  0.7418
  895MPD2     H13118   1.215   1.156  13.939 -0.6827  0.2297  2.5073
  895MPD2    H113119   1.617   1.058  14.043  1.4976  0.0710 -0.2694
  895MPD2    H213120   1.533   1.405  13.802  0.7504 -1.7707 -0.8720
  895MPD2    H313121   1.692   1.261  13.917 -0.2125 -1.3660  1.9231
  895MPD2     N13122   1.375   0.984  14.070 -0.0199  0.3124 -0.8109
  895MPD2    H513123   1.445   0.911  14.068  1.1381  1.3952  0.0150
  895MPD2    N113124   1.265   1.378  13.820  0.8712 -1.0453  0.3323
  895MPD2    H713125   1.168   1.348  13.812  0.4317 -0.1432  2.1874
  896MPD2     C13126   3.182   0.214   1.907 -0.2333  0.5766  0.1431
  896MPD2    C113127   3.185   0.159   1.782 -0.7332 -0.9500  0.4941
  896MPD2    C213128   3.066   0.117   1.723  0.8813  0.0589  0.4585
  896MPD2    C313129   2.947   0.128   1.790  1.0077  0.3500  0.4535
  896MPD2    C413130   2.949   0.175   1.921 -0.4808 -0.1083 -0.3808
  896MPD2    C513131   3.067   0.222   1.979 -0.5838 -0.4891 -0.6504
  896MPD2     H13132   3.057   0.072   1.625 -2.5762  0.1235  0.7192
  896MPD2    H113133   2.872   0.166   1.997 -0.6521  1.0891 -0.3987
  896MPD2    H213134   3.270   0.255   1.955  0.8439 -0.5446 -0.8811
  896MPD2    H313135   3.063   0.258   2.081 -2.4401 -3.0486  0.1690
  896MPD2     N13136   2.826   0.075   1.740  0.5104 -0.2485  0.5835
  896MPD2    H513137   2.828   0.030   1.649 -1.4217  0.9794 -0.0776
  896MPD2    N113138   3.306   0.144   1.715 -0.8124 -0.4613 -0.0031
  896MPD2    H713139   3.392   0.163   1.765 -0.5770 -1.4609 -0.0235
  897MPD2     C13140   4.034   1.203  10.186 -0.3326  0.5167 -0.5270
  897MPD2    C113141   3.982   1.309  10.259  0.5317 -0.2065  0.3742
  897MPD2    C213142   3.867   1.293  10.331 -0.3327 -1.1676  0.1968
  897MPD2    C313143   3.801   1.171  10.342  0.0917  0.2667 -0.1623
  897MPD2    C413144   3.848   1.064  10.263 -0.5417 -0.3636  0.9302
  897MPD2    C513145   3.964   1.088  10.184  0.0705 -0.0168  0.1505
  897MPD2     H13146   3.820   1.367  10.396  1.7302  1.3304 -1.1267
  897MPD2    H113147   3.806   0.964  10.267  0.1463 -0.7351 -1.0175
  897MPD2    H213148   4.119   1.227  10.122 -0.7171  0.9293 -0.8870
  897MPD2    H313149   4.020   1.012  10.130 -0.0093 -0.4909  0.7317
  897MPD2     N13150   3.692   1.163  10.431  0.0722 -0.5616 -0.8387
  897MPD2    H513151   3.671   1.245  10.486  1.8510 -1.4537  1.1387
  897MPD2    N113152   4.059   1.430  10.276 -0.0042  0.6541  0.0042
  897MPD2    H713153   4.124   1.461  10.205 -0.2169  1.1806  0.0342
  898MPD2     C13154   1.717   2.562   0.267  0.0645  0.3097  0.2042
  898MPD2    C113155   1.728   2.692   0.228 -0.1323 -0.5664 -0.1149
  898MPD2    C213156   1.659   2.743   0.118  0.0814 -0.0376 -0.0563
  898MPD2    C313157   1.582   2.656   0.045 -0.5983 -0.6614  0.1767
  898MPD2    C413158   1.577   2.526   0.075 -0.8666  0.1800  0.3425
  898MPD2    C513159   1.642   2.477   0.190 -0.0473  0.1853 -0.0475
  898MPD2     H13160   1.668   2.846   0.088  0.6615 -0.5726 -1.7030
  898MPD2    H113161   1.518   2.461   0.011 -0.7453  0.9635 -0.5720
  898MPD2    H213162   1.779   2.516   0.343 -0.6575 -0.5532  0.2613
  898MPD2    H313163   1.647   2.370   0.212  0.0471  0.2423  0.2201
  898MPD2     N13164   1.502   2.716  17.650  0.0318 -0.1803 -0.0192
  898MPD2    H513165   1.537   2.807  17.621 -1.1977 -0.1195 -1.3141
  898MPD2    N113166   1.814   2.788   0.283 -0.0396  0.0678  0.1936
  898MPD2    H713167   1.827   2.874   0.231  1.0194  0.4352  1.0628
  899MPD2     C13168   1.956   3.314   0.170  0.1876 -0.7166 -0.5022
  899MPD2    C113169   2.031   3.422   0.226 -0.8224  0.2514 -0.4085
  899MPD2    C213170   2.027   3.428   0.364 -0.2938  0.7191  0.1589
  899MPD2    C313171   1.952   3.345   0.437  0.2646  0.1424 -0.2641
  899MPD2    C413172   1.872   3.256   0.382  0.0820  0.6177  0.1809
  899MPD2    C513173   1.873   3.238   0.246  0.8612 -0.1249 -0.0612
  899MPD2     H13174   2.082   3.509   0.412 -0.5376  1.0343 -0.0953
  899MPD2    H113175   1.813   3.185   0.439  0.9394  0.1430  0.4651
  899MPD2    H213176   1.966   3.281   0.067 -2.6858 -0.9882 -0.7036
  899MPD2    H313177   1.810   3.170   0.190  2.4053  0.0461 -2.0072
  899MPD2     N13178   1.949   3.343   0.578  0.3290  0.1282  0.2698
  899MPD2    H513179   1.875   3.294   0.627 -0.0208 -1.5283 -1.8976
  899MPD2    N113180   2.115   3.505   0.143  0.0050 -0.6618  0.3992
  899MPD2    H713181   2.108   3.504   0.042  0.4790 -1.6106  0.3795
  900MPD2     C13182   2.167   0.107  12.816  0.6001  0.3940 -0.1510
  900MPD2    C113183   2.081   0.003  12.803 -0.4090 -0.4445 -0.0094
  900MPD2    C213184   1.947   0.037  12.787 -0.0516 -0.2687 -0.3039
  900MPD2    C313185   1.904   0.171  12.772 -0.5999 -0.2882  0.4100
  900MPD2    C413186   1.998   0.271  12.777 -0.8122  0.1689  1.0181
  900MPD2    C513187   2.129   0.240  12.798 -0.4343  0.4969 -0.0812
  900MPD2     H13188   1.866   4.693  12.785  0.0233 -0.4857  4.3431
  900MPD2    H113189   1.973   0.377  12.769  3.3915  1.0905  0.0701
  900MPD2    H213190   2.269   0.094  12.851  0.1735 -1.4535  0.4350
  900MPD2    H313191   2.206   0.315  12.813  0.2011 -0.3962  1.0970
  900MPD2     N13192   1.770   0.193  12.734  0.0843  0.3198  0.1393
  900MPD2    H513193   1.704   0.116  12.728  0.7295 -0.0705 -1.7587
  900MPD2    N113194   2.135   4.600  12.819 -0.4087  0.2256  0.3011
  900MPD2    H713195   2.229   4.596  12.856 -0.2805  1.1358  0.0722
  901MPD2     C13196   1.909   3.533  12.804 -0.2155 -0.3268  0.7775
  901MPD2    C113197   2.042   3.542  12.840 -0.0833 -0.4109 -0.4979
  901MPD2    C213198   2.101   3.662  12.858  0.2664  0.2264  0.2789
  901MPD2    C313199   2.038   3.778  12.851  0.2505  0.4210  0.0500
  901MPD2    C413200   1.906   3.771  12.812  0.2273  0.0753  0.2214
  901MPD2    C513201   1.841   3.653  12.789  0.0520 -0.1286  0.4692
  901MPD2     H13202   2.205   3.669  12.886  1.0303  0.1692 -2.6140
  901MPD2    H113203   1.841   3.857  12.806  1.1109  0.6729 -0.8570
  901MPD2    H213204   1.858   3.438  12.806  1.5794 -1.2863  1.6497
  901MPD2    H313205   1.735   3.648  12.768 -0.0325  0.1336  0.8292
  901MPD2     N13206   2.111   3.900  12.865 -0.2116 -0.1393 -0.0465
  901MPD2    H513207   2.210   3.888  12.880 -0.0957  1.7512  0.6930
  901MPD2    N113208   2.119   3.423  12.832 -0.1326  0.1075 -0.9012
  901MPD2    H713209   2.068   3.337  12.814  1.4596 -1.1169  0.4852
  902MPD2     C13210   1.053   2.693  13.124 -0.6782  0.5842  0.0330
  902MPD2    C113211   0.976   2.650  13.015  0.7076 -0.3397  0.4448
  902MPD2    C213212   1.016   2.536  12.936  0.0959  0.6497  0.0183
  902MPD2    C313213   1.131   2.473  12.969  0.2071  0.2893  0.9838
  902MPD2    C413214   1.209   2.519  13.072 -0.2865 -0.3864 -0.0944
  902MPD2    C513215   1.165   2.620  13.148  0.4281 -0.5760 -0.1967
  902MPD2     H13216   0.953   2.502  12.854  1.4984  2.6408 -1.8776
  902MPD2    H113217   1.297   2.465  13.106  0.3355  0.0125 -1.0712
  902MPD2    H213218   1.019   2.772  13.190 -2.1937 -0.2552  0.2492
  902MPD2    H313219   1.227   2.657  13.229  1.5967  0.9266 -1.7898
  902MPD2     N13220   1.187   2.373  12.885 -0.0046  0.3311 -0.1312
  902MPD2    H513221   1.282   2.348  12.911 -0.4890  0.7932  2.1484
  902MPD2    N113222   0.866   2.733  12.975  0.4792 -0.7263 -0.3258
  902MPD2    H713223   0.833   2.806  13.038  1.1007 -0.6299 -0.1067
  903MPD2     C13224   1.334   1.787  12.153  0.2341 -0.0354  0.3256
  903MPD2    C113225   1.227   1.860  12.215 -0.0911  0.1359 -0.6711
  903MPD2    C213226   1.096   1.823  12.191 -0.5803 -0.2347  0.1247
  903MPD2    C313227   1.070   1.724  12.098  0.6254  0.4286  0.5858
  903MPD2    C413228   1.169   1.649  12.046 -0.0993 -0.0099  0.6229
  903MPD2    C513229   1.302   1.685  12.071 -0.1335 -0.6804  0.0524
  903MPD2     H13230   1.013   1.873  12.240  0.9623  2.6975 -0.2702
  903MPD2    H113231   1.148   1.568  11.977 -0.5219  0.5404  0.0996
  903MPD2    H213232   1.437   1.819  12.166  0.4593 -1.3942  2.0433
  903MPD2    H313233   1.385   1.626  12.033 -0.0062 -0.9407  0.7297
  903MPD2     N13234   0.937   1.691  12.076 -0.2569 -0.7187 -0.3647
  903MPD2    H513235   0.881   1.748  12.138 -1.6147 -2.2090 -0.2395
  903MPD2    N113236   1.263   1.970  12.291  0.3426 -0.0763  0.2449
  903MPD2    H713237   1.360   2.000  12.280  0.6752 -0.3323  2.4767
  904MPD2     C13238   0.663   1.217  14.234 -0.3675  0.0572 -0.3430
  904MPD2    C113239   0.694   1.347  14.206  0.0930 -0.7286 -0.0086
  904MPD2    C213240   0.834   1.373  14.198  0.4156  0.5048 -0.1444
  904MPD2    C313241   0.926   1.273  14.201 -0.9817  0.3124  0.1562
  904MPD2    C413242   0.884   1.139  14.209  1.0963 -0.2819  0.6278
  904MPD2    C513243   0.756   1.117  14.230  0.5964 -0.1372  0.5698
  904MPD2     H13244   0.864   1.476  14.186 -3.9184  1.7819 -0.1407
  904MPD2    H113245   0.950   1.055  14.190  1.1398 -0.3043  0.8873
  904MPD2    H213246   0.558   1.192  14.250 -0.3966  0.4015  0.0322
  904MPD2    H313247   0.721   1.014  14.228  1.1503 -0.3251  0.4974
  904MPD2     N13248   1.066   1.288  14.205 -0.1981  0.3549  0.5580
  904MPD2    H513249   1.116   1.200  14.204  0.1011  0.5458 -1.9170
  904MPD2    N113250   0.585   1.432  14.182  0.2143 -0.4075 -0.3590
  904MPD2    H713251   0.492   1.396  14.199  0.4269  1.5614  4.8569
  905MPD2     C13252   0.667   1.083  13.657 -0.3812  0.0726 -0.0288
  905MPD2    C113253   0.772   1.123  13.731 -0.7547 -0.4026  0.0449
  905MPD2    C213254   0.873   1.031  13.767  0.4357  0.4424  0.3017
  905MPD2    C313255   0.862   0.904  13.729  0.0413 -0.6669  0.6798
  905MPD2    C413256   0.755   0.856  13.664 -0.0220  0.0246 -0.1440
  905MPD2    C513257   0.659   0.952  13.625  0.3770  0.4014 -0.3653
  905MPD2     H13258   0.949   1.074  13.831  1.5008 -0.2384 -0.5027
  905MPD2    H113259   0.747   0.752  13.632  0.3613  0.0673 -0.3833
  905MPD2    H213260   0.587   1.150  13.629 -0.8149  0.2435  1.5738
  905MPD2    H313261   0.576   0.918  13.564  0.0827 -0.2741  0.4058
  905MPD2     N13262   0.953   0.805  13.767 -0.1085 -0.0623 -0.1785
  905MPD2    H513263   0.926   0.709  13.750  0.1861 -0.1395 -0.2168
  905MPD2    N113264   0.773   1.256  13.772 -0.3378  0.0741  0.3334
  905MPD2    H713265   0.693   1.313  13.746  2.1056  3.3118 -0.1877
  906MPD2     C13266   2.881   1.539  11.478 -0.4372  0.0071 -0.0936
  906MPD2    C113267   2.866   1.434  11.388  0.3451  0.7219  0.1504
  906MPD2    C213268   2.845   1.299  11.435  0.0334  0.3766 -1.0865
  906MPD2    C313269   2.838   1.267  11.571  0.9089 -0.3041 -0.5211
  906MPD2    C413270   2.835   1.379  11.654  0.6032  0.2285  0.4783
  906MPD2    C513271   2.853   1.505  11.604 -0.6807  0.0391  0.0169
  906MPD2     H13272   2.860   1.215  11.369 -0.5551  1.9181 -3.2157
  906MPD2    H113273   2.824   1.379  11.761 -1.2964 -0.4429  0.2845
  906MPD2    H213274   2.877   1.645  11.454  2.4805 -0.0532 -0.8042
  906MPD2    H313275   2.858   1.586  11.676  1.1769 -0.0999  0.0623
  906MPD2     N13276   2.790   1.141  11.621 -0.2172 -0.0924 -0.5201
  906MPD2    H513277   2.748   1.144  11.713  1.5455 -1.3764  0.3389
  906MPD2    N113278   2.857   1.448  11.249 -0.0552 -0.0676  0.0374
  906MPD2    H713279   2.863   1.364  11.191 -0.8888 -0.1934  0.1342
  907MPD2     C13280   1.261   0.473  15.417 -0.1851  0.0182  0.7465
  907MPD2    C113281   1.354   0.371  15.411 -0.2538  0.4856 -0.2637
  907MPD2    C213282   1.467   0.394  15.492  0.3799  0.4386 -0.2399
  907MPD2    C313283   1.487   0.509  15.569  0.1627  0.0135 -0.3539
  907MPD2    C413284   1.377   0.590  15.596  0.3391 -0.3339  0.0247
  907MPD2    C513285   1.270   0.574  15.510 -0.1527  0.1324 -0.0305
  907MPD2     H13286   1.550   0.328  15.467 -2.7101 -2.8970 -1.8011
  907MPD2    H113287   1.378   0.671  15.667 -3.0412  0.3728 -0.7096
  907MPD2    H213288   1.160   0.460  15.379 -0.0858 -1.0036  0.8379
  907MPD2    H313289   1.186   0.643  15.509 -1.9856 -2.1563 -1.8389
  907MPD2     N13290   1.613   0.529  15.620  1.1462  0.4284  0.2386
  907MPD2    H513291   1.681   0.457  15.598  0.4034 -0.4961  0.9651
  907MPD2    N113292   1.345   0.256  15.335 -0.3762 -0.2718 -0.2430
  907MPD2    H713293   1.429   0.199  15.327  1.1191  1.8677  0.0547
  908MPD2     C13294   3.720   1.887   9.669  0.1982 -1.0487  0.0937
  908MPD2    C113295   3.809   1.782   9.668  0.0093  0.5917  0.0998
  908MPD2    C213296   3.898   1.768   9.779 -0.0746  0.2957  0.2421
  908MPD2    C313297   3.883   1.845   9.896  0.0466 -0.2474 -0.2960
  908MPD2    C413298   3.789   1.952   9.887 -0.2028 -0.1272 -0.1387
  908MPD2    C513299   3.703   1.962   9.785  0.3847 -0.1356  0.3718
  908MPD2     H13300   3.968   1.685   9.778  1.0572  1.2625  0.1333
  908MPD2    H113301   3.782   2.026   9.965  0.9476  0.5182 -0.6500
  908MPD2    H213302   3.640   1.906   9.599  0.4126  1.1144  0.4572
  908MPD2    H313303   3.620   2.032   9.788 -0.2931 -1.0599  3.3195
  908MPD2     N13304   3.969   1.834  10.004 -0.0923 -0.4383  0.3977
  908MPD2    H513305   4.036   1.758   9.994  0.7721  0.1468  1.8607
  908MPD2    N113306   3.820   1.695   9.559  0.2086  0.6141 -0.5898
  908MPD2    H713307   3.901   1.633   9.566 -0.4478 -0.2594 -0.7304
  909MPD2     C13308   4.390   4.116  12.269  0.2784 -0.4372  0.5269
  909MPD2    C113309   4.328   4.145  12.147  0.0650 -0.3754  0.6674
  909MPD2    C213310   4.202   4.194  12.172 -0.9304 -0.3413  0.0925
  909MPD2    C313311   4.138   4.206  12.292 -0.5720 -0.2513  0.1984
  909MPD2    C413312   4.207   4.190  12.406 -0.6107  0.2507 -0.2517
  909MPD2    C513313   4.340   4.149  12.388 -0.0241  1.3089 -0.4145
  909MPD2     H13314   4.146   4.223  12.084  1.1859 -0.7896 -1.4014
  909MPD2    H113315   4.173   4.207  12.507 -0.1074 -1.9277  0.2873
  909MPD2    H213316   4.491   4.077  12.258  0.3388  0.4290 -1.9366
  909MPD2    H313317   4.405   4.124  12.471 -0.9063  0.6259  0.0660
  909MPD2     N13318   3.998   4.247  12.301  0.1550 -0.0836 -0.2729
  909MPD2    H513319   3.958   4.279  12.214 -2.3581 -0.2527  0.8457
  909MPD2    N113320   4.379   4.127  12.016  0.4447  0.0558  0.3704
  909MPD2    H713321   4.312   4.153  11.944  0.4421 -0.7194  0.0876
  910MPD2     C13322   1.396   1.170  15.764 -0.6073 -0.5850 -0.3674
  910MPD2    C113323   1.452   1.045  15.748  0.2144 -0.1923 -0.7751
  910MPD2    C213324   1.467   0.992  15.622  0.5003 -0.5112 -0.1764
  910MPD2    C313325   1.442   1.077  15.513  0.4523  0.0023  0.3614
  910MPD2    C413326   1.393   1.202  15.529  1.2997 -0.2536  0.3596
  910MPD2    C513327   1.363   1.246  15.653  0.2788 -0.3587 -0.1947
  910MPD2     H13328   1.491   0.887  15.607  1.1589 -0.2786 -0.7664
  910MPD2    H113329   1.360   1.265  15.447 -2.2451 -0.9363  1.2719
  910MPD2    H213330   1.360   1.199  15.862  1.4228  2.5072 -0.5587
  910MPD2    H313331   1.313   1.340  15.672  0.8237 -0.8741  3.9769
  910MPD2     N13332   1.472   1.043  15.383  0.4479  0.2256 -0.8259
  910MPD2    H513333   1.449   1.103  15.304 -1.0475  0.0947 -0.4880
  910MPD2    N113334   1.487   0.961  15.859  0.1461  0.3368 -0.5239
  910MPD2    H713335   1.507   0.865  15.832 -1.9274  0.3443 -2.1186
  911MPD2     C13336   3.858   1.880  16.041 -0.6804  0.2117  0.6204
  911MPD2    C113337   3.877   1.930  16.170  0.1524 -0.2018  0.1223
  911MPD2    C213338   3.789   2.028  16.222 -0.0867 -0.2498 -0.4391
  911MPD2    C313339   3.692   2.077  16.142  0.0581  0.0452  0.0665
  911MPD2    C413340   3.680   2.028  16.010  0.9000 -0.1919 -0.1739
  911MPD2    C513341   3.764   1.933  15.954 -0.1817  0.9046 -0.0043
  911MPD2     H13342   3.801   2.065  16.323  0.5130  1.4969 -1.1350
  911MPD2    H113343   3.622   2.090  15.944  0.3718 -0.2930  0.1944
  911MPD2    H213344   3.917   1.793  16.013 -2.8014 -1.8082  2.4690
  911MPD2    H313345   3.747   1.899  15.852  0.5388  0.5413  0.0002
  911MPD2     N13346   3.602   2.182  16.176 -0.0542  0.0767  0.9300
  911MPD2    H513347   3.530   2.198  16.107  0.7356 -0.0950  0.0680
  911MPD2    N113348   3.978   1.866  16.248 -0.3498 -0.1109 -0.1801
  911MPD2    H713349   4.029   1.796  16.195 -2.1392 -1.8282  0.4028
  912MPD2     C13350   3.357   2.189  15.668  0.0969 -0.4166 -0.1814
  912MPD2    C113351   3.347   2.173  15.803 -0.2311  0.4993 -0.4117
  912MPD2    C213352   3.370   2.044  15.855 -0.6134  0.4429 -0.4298
  912MPD2    C313353   3.404   1.937  15.778  0.1736  0.2604 -0.1177
  912MPD2    C413354   3.399   1.955  15.646  0.0747 -0.2290 -0.6764
  912MPD2    C513355   3.378   2.078  15.590  0.5413  0.2231  0.1353
  912MPD2     H13356   3.375   2.035  15.963  0.9648 -1.0237 -0.6172
  912MPD2    H113357   3.423   1.872  15.580 -0.9851 -2.0761  1.3050
  912MPD2    H213358   3.324   2.283  15.625 -1.9533 -0.7146  0.7060
  912MPD2    H313359   3.372   2.080  15.482 -0.0750 -1.2504  0.1485
  912MPD2     N13360   3.426   1.817  15.847  0.1692 -0.1130  0.2436
  912MPD2    H513361   3.404   1.824  15.945  1.0199  1.8010  0.2985
  912MPD2    N113362   3.313   2.275  15.887 -0.2737  0.5469 -0.4463
  912MPD2    H713363   3.305   2.363  15.836 -1.6334 -0.8615 -2.6707
  913MPD2     C13364   4.138   2.217  11.428  0.1469 -0.8401  0.3179
  913MPD2    C113365   4.223   2.319  11.391 -0.3314  0.7091 -0.1397
  913MPD2    C213366   4.190   2.403  11.281 -0.1698 -0.5129 -0.1534
  913MPD2    C313367   4.089   2.370  11.193 -0.3077  0.0435  0.8509
  913MPD2    C413368   4.017   2.257  11.222 -0.2401  0.4058  0.2381
  913MPD2    C513369   4.040   2.182  11.336 -0.2727  1.1174 -0.3314
  913MPD2     H13370   4.255   2.490  11.278  0.4969 -1.0207 -0.5470
  913MPD2    H113371   3.946   2.220  11.148 -0.6625  1.9213 -0.1048
  913MPD2    H213372   4.148   2.175  11.527  0.3051  1.3615  1.2433
  913MPD2    H313373   3.965   2.107  11.362  1.2558  0.6760  2.8549
  913MPD2     N13374   4.055   2.447  11.080 -0.0182  0.2280  0.1292
  913MPD2    H513375   3.986   2.407  11.016  0.7707  0.0469 -0.6039
  913MPD2    N113376   4.340   2.337  11.468  0.3915  0.1924 -0.2829
  913MPD2    H713377   4.349   2.275  11.547  2.3026  2.5241  1.3232
  914MPD2     C13378   1.701   2.887  12.334  0.1142  0.0759 -0.4244
  914MPD2    C113379   1.714   3.026  12.358 -0.0779  0.0044  0.7355
  914MPD2    C213380   1.823   3.075  12.426  0.7476  0.4771 -0.2615
  914MPD2    C313381   1.929   2.989  12.471  0.1319  0.1020  1.4722
  914MPD2    C413382   1.928   2.858  12.432 -0.0436 -0.1416 -2.0744
  914MPD2    C513383   1.818   2.806  12.370  0.7176 -0.4874 -1.0026
  914MPD2     H13384   1.835   3.182  12.435 -2.7883  0.6604  2.1880
  914MPD2    H113385   2.006   2.790  12.464 -0.0321  1.9759  2.3353
  914MPD2    H213386   1.612   2.842  12.292 -1.0722  1.9815  0.0284
  914MPD2    H313387   1.801   2.699  12.355 -0.2535 -0.5331  0.3994
  914MPD2     N13388   2.030   3.055  12.549 -0.1768 -0.0373  0.2100
  914MPD2    H513389   2.035   3.155  12.532 -0.8556  0.1095  0.8977
  914MPD2    N113390   1.612   3.106  12.316 -0.6072 -0.5100 -0.5002
  914MPD2    H713391   1.542   3.068  12.252 -0.5139 -2.8637  0.7666
  915MPD2     C13392   0.319   3.147  15.817 -0.0262 -0.0639 -0.5981
  915MPD2    C113393   0.202   3.205  15.786  0.7595  0.0664 -0.2403
  915MPD2    C213394   0.133   3.278  15.878 -0.5288  0.3672  0.1400
  915MPD2    C313395   0.178   3.285  16.004  0.0924 -0.3309  1.0003
  915MPD2    C413396   0.298   3.226  16.042 -0.3235  0.3211 -0.1854
  915MPD2    C513397   0.364   3.150  15.947 -0.0684  0.1671  0.2808
  915MPD2     H13398   0.045   3.334  15.851 -0.4112  1.5562  2.1675
  915MPD2    H113399   0.344   3.234  16.139 -2.4217 -0.5955  0.8854
  915MPD2    H213400   0.379   3.095  15.743  1.3584 -0.2725  0.6817
  915MPD2    H313401   0.461   3.112  15.977  0.1121  1.4604  1.3008
  915MPD2     N13402   0.098   3.364  16.092  0.1024 -0.1685  0.1611
  915MPD2    H513403   0.031   3.427  16.049 -1.8781 -2.4468 -0.0489
  915MPD2    N113404   0.157   3.197  15.648 -0.0765 -0.8962  0.0341
  915MPD2    H713405   0.198   3.129  15.585 -1.2894  1.6615 -3.5267
  916MPD2     C13406   3.081   1.803  15.800  0.2978 -0.4227 -0.3705
  916MPD2    C113407   3.053   1.689  15.870 -0.5113 -0.4944  0.4291
  916MPD2    C213408   3.069   1.564  15.823 -0.5087  0.0572 -0.3058
  916MPD2    C313409   3.131   1.553  15.700 -0.9079 -0.5883 -0.9527
  916MPD2    C413410   3.171   1.668  15.632 -0.1699  0.9896  0.2644
  916MPD2    C513411   3.131   1.791  15.678 -0.0614 -0.3755  0.3712
  916MPD2     H13412   3.044   1.475  15.880 -2.7324  0.0355 -1.3055
  916MPD2    H113413   3.219   1.669  15.535 -1.6420  1.0269 -0.4578
  916MPD2    H213414   3.078   1.903  15.843  1.3520  0.0000 -1.2912
  916MPD2    H313415   3.153   1.885  15.629  0.3290  0.1361  1.5327
  916MPD2     N13416   3.161   1.423  15.657  0.3847  0.4186  0.2436
  916MPD2    H513417   3.126   1.352  15.719 -2.2121  0.1942 -1.4970
  916MPD2    N113418   3.013   1.718  16.000 -0.3603  0.3378  0.4517
  916MPD2    H713419   2.997   1.817  16.019  0.2490  0.4117  0.5640
  917MPD2     C13420   3.352   3.502  11.405 -0.4960  0.9212 -0.4664
  917MPD2    C113421   3.282   3.621  11.383 -0.3582  0.0504  0.1182
  917MPD2    C213422   3.323   3.719  11.301 -0.5510 -0.5014  0.0950
  917MPD2    C313423   3.437   3.695  11.234  0.0169  0.2323  0.3313
  917MPD2    C413424   3.510   3.576  11.248 -0.3579 -0.4349  0.8191
  917MPD2    C513425   3.460   3.482  11.335  0.7488  0.1241  0.3210
  917MPD2     H13426   3.263   3.804  11.270  1.4140  1.0935  0.7005
  917MPD2    H113427   3.598   3.549  11.191  0.4781  0.1495  1.8474
  917MPD2    H213428   3.317   3.434  11.482  0.7614 -0.4299 -1.1134
  917MPD2    H313429   3.510   3.386  11.345 -0.5921 -0.1776  4.0198
  917MPD2     N13430   3.514   3.793  11.174  0.2135  0.6246  0.7897
  917MPD2    H513431   3.603   3.752  11.148 -1.1964 -0.1618 -2.8189
  917MPD2    N113432   3.171   3.645  11.465  0.5757 -0.0174  0.2055
  917MPD2    H713433   3.162   3.585  11.547  0.3605 -1.0828 -0.5890
  918MPD2     C13434   3.344   3.649  12.282 -0.0783 -0.5308 -0.9371
  918MPD2    C113435   3.380   3.710  12.168  0.6971 -0.3994 -0.2022
  918MPD2    C213436   3.293   3.727  12.067 -0.1133  0.8142 -0.3565
  918MPD2    C313437   3.163   3.675  12.069 -0.1682  0.4235 -0.5849
  918MPD2    C413438   3.127   3.600  12.182 -0.5313 -0.0427  0.2990
  918MPD2    C513439   3.213   3.601  12.287  0.2150  0.2578 -0.5506
  918MPD2     H13440   3.327   3.777  11.977  0.6195  0.4413 -0.2855
  918MPD2    H113441   3.035   3.544  12.190 -0.1549 -0.7639 -0.3585
  918MPD2    H213442   3.394   3.654  12.378 -0.8487 -1.0692 -0.5019
  918MPD2    H313443   3.174   3.558  12.379  3.5294 -1.3286  0.0880
  918MPD2     N13444   3.097   3.691  11.949  0.0852 -0.1937 -0.0432
  918MPD2    H513445   3.133   3.760  11.884 -0.7558 -3.1042 -3.5821
  918MPD2    N113446   3.504   3.774  12.142  0.2180 -0.0534 -0.0676
  918MPD2    H713447   3.509   3.829  12.056  1.0887 -2.8085 -1.7779
  919MPD2     C13448   3.884   2.703  11.992 -0.4004 -0.0987 -0.2955
  919MPD2    C113449   3.831   2.580  11.960 -0.1855 -0.6279  0.4489
  919MPD2    C213450   3.834   2.545  11.825 -0.1706 -0.0293  0.2212
  919MPD2    C313451   3.882   2.634  11.729  0.3146  0.1962 -0.4335
  919MPD2    C413452   3.930   2.758  11.769 -0.1962 -0.3904 -0.0559
  919MPD2    C513453   3.944   2.781  11.904  0.1455 -0.7294 -0.0199
  919MPD2     H13454   3.800   2.447  11.794 -0.1521 -0.0659  0.3156
  919MPD2    H113455   3.967   2.831  11.698  0.8211  0.3486  1.2346
  919MPD2    H213456   3.888   2.737  12.095 -1.0981  1.5814 -0.8158
  919MPD2    H313457   3.978   2.876  11.944 -0.7857 -0.9786  1.3577
  919MPD2     N13458   3.885   2.607  11.591  0.1986 -0.2504 -0.3651
  919MPD2    H513459   3.931   2.677  11.533  2.0074 -0.4257  0.8823
  919MPD2    N113460   3.767   2.495  12.059 -0.1950 -0.2153  0.0202
  919MPD2    H713461   3.751   2.399  12.031  0.2546 -0.5383  0.8668
  920MPD2     C13462   3.756   3.096  10.734 -0.6353 -0.2465 -0.1588
  920MPD2    C113463   3.666   2.985  10.713 -0.3843 -0.4982  0.2740
  920MPD2    C213464   3.639   2.893  10.820  0.6451  0.0098  0.4725
  920MPD2    C313465   3.719   2.898  10.931 -0.2894 -0.0211 -0.3415
  920MPD2    C413466   3.815   3.000  10.943 -0.6099  0.6710  0.4214
  920MPD2    C513467   3.834   3.092  10.843 -0.0089  0.1396  0.4050
  920MPD2     H13468   3.577   2.804  10.812 -0.4768  1.3126 -5.1739
  920MPD2    H113469   3.885   3.004  11.026  1.7159  1.7971 -1.6189
  920MPD2    H213470   3.779   3.166  10.654  0.8084  2.1961  2.4051
  920MPD2    H313471   3.908   3.169  10.862  1.0492 -1.1229  1.4015
  920MPD2     N13472   3.703   2.793  11.024 -0.7931 -0.1185  0.5641
  920MPD2    H513473   3.632   2.724  11.002  1.1490 -1.4098 -1.7389
  920MPD2    N113474   3.607   2.970  10.586 -0.2095  0.0977 -0.4645
  920MPD2    H713475   3.637   3.034  10.513  1.3961  0.7877  0.7947
  921MPD2     C13476   0.053   2.202  16.714 -0.0142 -0.1719  0.9426
  921MPD2    C113477   0.060   2.122  16.609  1.0755  0.0895 -0.2729
  921MPD2    C213478   4.670   2.069  16.557 -0.4285 -0.3021  0.2514
  921MPD2    C313479   4.547   2.080  16.614 -0.6233 -0.0869 -0.8120
  921MPD2    C413480   4.531   2.178  16.706 -0.4142  0.2396 -0.0286
  921MPD2    C513481   4.649   2.233  16.754 -0.9487  0.2266  0.2946
  921MPD2     H13482   4.674   1.999  16.474  0.7673  0.7778 -0.6139
  921MPD2    H113483   4.432   2.209  16.739 -0.6754 -0.6933  0.0657
  921MPD2    H213484   0.136   2.255  16.760 -0.5521 -0.3604  2.1346
  921MPD2    H313485   4.631   2.311  16.828 -1.2608 -1.1352  1.6567
  921MPD2     N13486   4.430   2.006  16.578  0.4663 -0.0429 -0.4748
  921MPD2    H513487   4.341   2.051  16.599  0.8003 -0.0119  0.8473
  921MPD2    N113488   0.178   2.081  16.549 -0.0822 -0.9566  0.4493
  921MPD2    H713489   0.152   2.009  16.482 -0.6306  0.2923 -0.6818
  922MPD2     C13490   0.938   4.374  16.798 -0.5009  0.2220 -0.7436
  922MPD2    C113491   0.943   4.429  16.923  0.2392 -0.9127 -0.0253
  922MPD2    C213492   0.872   4.369  17.026  0.2349  0.6811 -0.0417
  922MPD2    C313493   0.795   4.257  17.006  0.2981 -0.1479 -0.7314
  922MPD2    C413494   0.821   4.188  16.890  0.3387 -0.1630  0.0597
  922MPD2    C513495   0.884   4.253  16.787  0.2732 -0.0052  0.2875
  922MPD2     H13496   0.874   4.408  17.127  2.5068  3.7388 -1.2632
  922MPD2    H113497   0.782   4.092  16.858 -0.2466 -0.3327  1.2737
  922MPD2    H213498   1.004   4.413  16.722 -0.8317  2.2373  0.0013
  922MPD2    H313499   0.895   4.200  16.693  0.4865  0.7365 -0.1034
  922MPD2     N13500   0.711   4.212  17.105 -0.1716  0.1173  0.3599
  922MPD2    H513501   0.682   4.281  17.173 -2.0055 -0.4983  0.1954
  922MPD2    N113502   1.020   4.546  16.944  0.3851 -0.0536 -0.5088
  922MPD2    H713503   1.038   4.586  17.036  1.5061 -2.2801  0.2485
  923MPD2     C13504   1.966   0.990   9.118 -0.1407  0.0683 -0.4492
  923MPD2    C113505   2.011   1.104   9.179 -0.0829  0.3005  0.0131
  923MPD2    C213506   2.092   1.097   9.290  0.5523  0.3139 -0.5160
  923MPD2    C313507   2.138   0.969   9.343  0.1356 -0.0026 -0.1498
  923MPD2    C413508   2.084   0.860   9.281 -0.0292  0.2037 -0.2510
  923MPD2    C513509   2.006   0.870   9.169 -0.2154 -0.2850 -0.5667
  923MPD2     H13510   2.116   1.182   9.353  1.9017 -0.1479 -0.3948
  923MPD2    H113511   2.106   0.756   9.304 -1.0208 -0.3210 -1.6849
  923MPD2    H213512   1.894   0.988   9.037 -4.0408 -1.0931  3.1027
  923MPD2    H313513   1.971   0.780   9.121 -2.6539  0.2649  0.1788
  923MPD2     N13514   2.230   0.950   9.442  0.0276 -0.0414  0.7856
  923MPD2    H513515   2.234   0.855   9.477 -1.0743 -0.2409  0.3507
  923MPD2    N113516   1.971   1.231   9.126 -1.3551 -0.1457 -0.4802
  923MPD2    H713517   1.932   1.221   9.033 -1.4487  0.4357 -0.5055
  924MPD2     C13518   2.623   0.409  15.732 -0.4742 -0.1602 -0.6396
  924MPD2    C113519   2.516   0.326  15.716  0.2087  0.5916 -0.4785
  924MPD2    C213520   2.389   0.383  15.700  0.2111 -0.4493  0.1205
  924MPD2    C313521   2.367   0.517  15.704  0.3501 -0.4257 -0.4174
  924MPD2    C413522   2.484   0.596  15.714  0.2987 -0.2734 -0.2020
  924MPD2    C513523   2.607   0.544  15.730  0.1479 -0.2340  0.1351
  924MPD2     H13524   2.306   0.317  15.674  1.1254 -1.9083  0.8902
  924MPD2    H113525   2.463   0.703  15.712  0.9669 -0.1464 -0.3549
  924MPD2    H213526   2.719   0.365  15.755  0.2081  1.1974 -0.8758
  924MPD2    H313527   2.692   0.611  15.737  0.9219 -0.9037 -2.6958
  924MPD2     N13528   2.248   0.586  15.702 -0.4573  0.1292  0.9426
  924MPD2    H513529   2.253   0.686  15.714  0.3732  0.1056  0.8261
  924MPD2    N113530   2.535   0.185  15.723  0.3667  0.0184 -0.4403
  924MPD2    H713531   2.629   0.149  15.726 -0.0026 -0.9422 -0.1907
  925MPD2     C13532   0.563   2.369  14.396 -0.3584  0.7709  0.6569
  925MPD2    C113533   0.691   2.365  14.448 -1.1310  0.5033 -0.0332
  925MPD2    C213534   0.712   2.376  14.586 -0.6530  0.2073  0.9129
  925MPD2    C313535   0.597   2.359  14.664  0.2834 -0.1184  0.6123
  925MPD2    C413536   0.472   2.374  14.612 -0.4480 -0.1478  0.2396
  925MPD2    C513537   0.460   2.378  14.479  0.4509 -0.3129  0.3250
  925MPD2     H13538   0.811   2.382  14.629  0.0181  1.2194 -0.7453
  925MPD2    H113539   0.385   2.383  14.675  0.6327 -0.2557  1.7509
  925MPD2    H213540   0.542   2.375  14.289  2.9285 -0.0490 -0.0433
  925MPD2    H313541   0.361   2.384  14.435 -0.4047 -0.2837  2.2475
  925MPD2     N13542   0.607   2.335  14.803 -0.1832  0.8209  0.0919
  925MPD2    H513543   0.516   2.320  14.844  0.1215  3.5650  1.7957
  925MPD2    N113544   0.791   2.359  14.350 -0.4744  0.4711 -0.3828
  925MPD2    H713545   0.759   2.364  14.253 -0.3974 -3.8189 -0.6228
  926MPD2     C13546   3.761   0.548  13.544  0.2531 -0.5461 -0.0430
  926MPD2    C113547   3.802   0.679  13.544 -0.0693 -0.2838  0.1637
  926MPD2    C213548   3.839   0.740  13.426  0.3264 -1.1740  0.2926
  926MPD2    C313549   3.853   0.669  13.307 -0.1841 -0.5497 -0.0178
  926MPD2    C413550   3.804   0.539  13.303 -1.0396 -0.6172  0.6144
  926MPD2    C513551   3.759   0.481  13.423  0.5396  0.1386 -0.4331
  926MPD2     H13552   3.869   0.844  13.433 -0.2447 -1.1330  2.0350
  926MPD2    H113553   3.822   0.475  13.217 -1.2365 -1.1158  0.9394
  926MPD2    H213554   3.734   0.496  13.635 -0.0726 -1.5136 -0.6944
  926MPD2    H313555   3.735   0.376  13.427  1.0249  0.0114 -0.7755
  926MPD2     N13556   3.908   0.720  13.190 -0.2701  0.2561 -0.2373
  926MPD2    H513557   3.901   0.659  13.110 -2.1343  2.5587 -1.7996
  926MPD2    N113558   3.814   0.751  13.666  0.3667  0.3135  0.1373
  926MPD2    H713559   3.856   0.843  13.658 -0.4458  0.5915 -0.8977
  927MPD2     C13560   3.762   3.957   0.292  0.6856  0.5375  0.5133
  927MPD2    C113561   3.900   3.976   0.325 -0.1052 -0.0693  0.8629
  927MPD2    C213562   3.988   3.899   0.256  0.0348 -0.5081 -0.0410
  927MPD2    C313563   3.951   3.798   0.163 -0.9162  0.1944  0.2872
  927MPD2    C413564   3.815   3.784   0.141  0.3336 -0.8214  0.1753
  927MPD2    C513565   3.724   3.877   0.192 -0.2606 -0.0234  0.3601
  927MPD2     H13566   4.095   3.917   0.262 -0.2617  2.0419 -2.2610
  927MPD2    H113567   3.784   3.714   0.064 -0.2986  1.0052 -1.2257
  927MPD2    H213568   3.682   4.014   0.341  1.3568  2.2237 -0.3445
  927MPD2    H313569   3.618   3.866   0.172 -0.7129  0.6206  2.3798
  927MPD2     N13570   4.049   3.720   0.095  0.3754  0.3609  0.1597
  927MPD2    H513571   4.146   3.747   0.093  0.7966 -1.0617  1.4509
  927MPD2    N113572   3.928   4.066   0.435  0.2260  0.1658 -0.1041
  927MPD2    H713573   3.853   4.119   0.478 -1.3666  2.7391 -6.0452
  928MPD2     C13574   2.484   1.900   1.103 -0.1428 -0.8054 -0.0913
  928MPD2    C113575   2.395   2.005   1.118 -0.0934  0.1172 -0.0462
  928MPD2    C213576   2.408   2.117   1.041 -0.1646 -0.4180 -0.1719
  928MPD2    C313577   2.506   2.127   0.943  0.1801 -0.4548  0.3137
  928MPD2    C413578   2.588   2.027   0.922  0.3326  0.1892  0.2184
  928MPD2    C513579   2.579   1.911   1.001  0.3647  0.3676  0.7884
  928MPD2     H13580   2.348   2.207   1.056 -1.2311 -1.0193 -0.8176
  928MPD2    H113581   2.665   2.022   0.846  1.0204 -0.5259  0.9500
  928MPD2    H213582   2.493   1.811   1.164  0.5221  0.1822  1.2463
  928MPD2    H313583   2.662   1.843   0.984  0.3029 -0.1995  2.7501
  928MPD2     N13584   2.521   2.231   0.850 -0.3669 -0.3834  0.0625
  928MPD2    H513585   2.591   2.226   0.776  1.2855 -1.3416  1.6710
  928MPD2    N113586   2.295   1.993   1.221 -0.3490  0.4369  0.1886
  928MPD2    H713587   2.307   1.914   1.284  0.1187  0.4142  0.0714
  929MPD2     C13588   2.191   1.215  10.736 -0.0916 -0.7615 -0.6558
  929MPD2    C113589   2.068   1.175  10.771  0.1696 -0.0730 -0.2834
  929MPD2    C213590   1.979   1.146  10.672  0.4655 -0.9316 -0.1823
  929MPD2    C313591   2.005   1.189  10.541 -0.7490 -0.5537 -0.3052
  929MPD2    C413592   2.129   1.228  10.501 -0.1366  0.0596 -0.4119
  929MPD2    C513593   2.223   1.234  10.605  0.5032  0.6587 -0.7676
  929MPD2     H13594   1.876   1.126  10.696  0.6414 -2.1679 -0.4263
  929MPD2    H113595   2.152   1.258  10.399 -1.4737 -1.7766 -1.2675
  929MPD2    H213596   2.274   1.234  10.802  0.7719 -1.9215 -1.3969
  929MPD2    H313597   2.319   1.262  10.563  0.2916  0.5852 -1.2972
  929MPD2     N13598   1.909   1.197  10.440 -0.6206  0.2120 -1.0493
  929MPD2    H513599   1.934   1.228  10.347  0.2552 -0.4057 -1.0110
  929MPD2    N113600   2.040   1.174  10.914 -0.4191 -0.5699  0.2140
  929MPD2    H713601   2.117   1.201  10.975 -0.1639 -1.1572  0.1503
  930MPD2     C13602   3.646   3.658  14.524 -0.1165  0.4880 -0.2918
  930MPD2    C113603   3.758   3.634  14.442  0.4629 -0.0647 -0.3073
  930MPD2    C213604   3.756   3.550  14.332  0.2008  0.2082 -0.1685
  930MPD2    C313605   3.637   3.495  14.291  0.9358  0.2097  0.1317
  930MPD2    C413606   3.530   3.522  14.371 -0.0580 -0.1257  0.2921
  930MPD2    C513607   3.531   3.605  14.480  0.3235 -0.0403 -0.9524
  930MPD2     H13608   3.850   3.533  14.280 -0.2586  0.3327 -1.0249
  930MPD2    H113609   3.433   3.479  14.347  0.2430 -0.5246 -0.1922
  930MPD2    H213610   3.647   3.727  14.607  0.8049 -0.3547  0.4003
  930MPD2    H313611   3.437   3.615  14.532  0.9957  2.4532 -0.2335
  930MPD2     N13612   3.625   3.403  14.182  0.3655  0.6308 -0.9106
  930MPD2    H513613   3.537   3.353  14.174  0.2706  0.7488 -0.5857
  930MPD2    N113614   3.877   3.705  14.466 -0.1022  0.5259 -0.3482
  930MPD2    H713615   3.958   3.682  14.410 -1.5998  1.8781 -3.0582
  931MPD2     C13616   4.299   4.270   1.265  0.4594 -0.6900 -0.1883
  931MPD2    C113617   4.270   4.182   1.162  0.0042 -0.5506 -0.0896
  931MPD2    C213618   4.265   4.047   1.206 -0.4058  0.2409  0.5869
  931MPD2    C313619   4.278   4.001   1.331  0.0650  0.3240  0.2685
  931MPD2    C413620   4.290   4.096   1.432  0.5830 -0.0317  0.1285
  931MPD2    C513621   4.307   4.226   1.396  0.1303  0.0483 -0.1521
  931MPD2     H13622   4.231   3.970   1.137 -3.1101  1.7931  0.1755
  931MPD2    H113623   4.278   4.068   1.536 -0.9195 -0.5602 -0.1862
  931MPD2    H213624   4.314   4.370   1.225  0.2709 -0.0383  1.3876
  931MPD2    H313625   4.323   4.297   1.476 -0.2015  0.2653 -0.2761
  931MPD2     N13626   4.250   3.872   1.365 -0.2135 -0.1573 -0.2361
  931MPD2    H513627   4.222   3.860   1.462 -1.1082 -0.8532 -0.5802
  931MPD2    N113628   4.233   4.231   1.035 -0.3028 -0.3777  0.0107
  931MPD2    H713629   4.232   4.330   1.017 -0.3400 -0.7021 -1.7843
  932MPD2     C13630   1.329   1.343  11.488 -0.1705  0.4196 -0.3227
  932MPD2    C113631   1.365   1.469  11.533 -0.6552  0.4000  0.2271
  932MPD2    C213632   1.454   1.472  11.638  0.2999 -1.3332  0.7838
  932MPD2    C313633   1.492   1.357  11.709 -0.4327  0.4731  0.0563
  932MPD2    C413634   1.452   1.232  11.662  0.2584  0.3498  0.4444
  932MPD2    C513635   1.374   1.227  11.547  0.4396 -0.3532  0.0189
  932MPD2     H13636   1.485   1.571  11.670  1.5039 -1.8518  1.1890
  932MPD2    H113637   1.477   1.140  11.713  1.0526  0.5648  0.4338
  932MPD2    H213638   1.283   1.336  11.390 -1.5458  2.4386  0.1874
  932MPD2    H313639   1.358   1.136  11.491 -0.1385 -1.0077  1.2500
  932MPD2     N13640   1.564   1.359  11.833 -0.3486  0.6170 -0.0732
  932MPD2    H513641   1.595   1.267  11.863 -1.8522 -0.2121 -1.0488
  932MPD2    N113642   1.323   1.603  11.491 -0.0254 -0.0021 -0.0736
  932MPD2    H713643   1.365   1.678  11.544  1.7787 -1.3666  0.4360
  933MPD2     C13644   1.433   1.884   1.540 -0.4302  0.2096  1.1127
  933MPD2    C113645   1.513   1.982   1.503  0.4155 -0.1745 -0.0890
  933MPD2    C213646   1.473   2.111   1.497 -0.5918 -0.1411  1.4507
  933MPD2    C313647   1.344   2.144   1.546 -0.0265 -0.6405  0.4334
  933MPD2    C413648   1.268   2.047   1.610  0.0897  0.2244  0.1051
  933MPD2    C513649   1.312   1.915   1.598 -0.1884  0.4778 -0.3335
  933MPD2     H13650   1.530   2.184   1.441 -2.0634  0.7837  1.1813
  933MPD2    H113651   1.168   2.075   1.642 -0.3807  0.5783 -1.7083
  933MPD2    H213652   1.471   1.782   1.540  0.8806  0.6925 -0.8734
  933MPD2    H313653   1.253   1.831   1.635 -0.7557  0.5221 -1.1288
  933MPD2     N13654   1.298   2.278   1.536 -0.2446 -0.3095 -0.0762
  933MPD2    H513655   1.366   2.333   1.484 -1.5196 -0.4125 -1.8703
  933MPD2    N113656   1.640   1.949   1.469  0.5967  0.1720  0.5457
  933MPD2    H713657   1.669   1.852   1.477  0.3446  0.1908  1.5950
  934MPD2     C13658   2.529   0.030   2.328  0.2567 -0.2866  0.5241
  934MPD2    C113659   2.642   4.727   2.259  0.2156 -0.3467 -0.8357
  934MPD2    C213660   2.626   4.641   2.149 -0.0952 -0.4735 -0.2639
  934MPD2    C313661   2.498   4.588   2.122 -0.4092  0.2361  0.6128
  934MPD2    C413662   2.398   4.618   2.201  0.1207  0.5498 -0.5524
  934MPD2    C513663   2.408   4.700   2.304 -0.0237 -0.5495  0.4348
  934MPD2     H13664   2.714   4.619   2.090  1.0084 -0.3505  1.3187
  934MPD2    H113665   2.300   4.580   2.178 -0.3950  1.0260  0.8412
  934MPD2    H213666   2.542   0.093   2.414 -0.4981  0.0655  0.3852
  934MPD2    H313667   2.318   0.009   2.352 -0.1140  0.6249 -0.6272
  934MPD2     N13668   2.457   4.519   2.010  0.0701 -0.7174  0.1956
  934MPD2    H513669   2.356   4.510   2.003  0.0514  0.4770 -1.0149
  934MPD2    N113670   2.765   0.058   2.284  0.5657  0.0088  0.3766
  934MPD2    H713671   2.843   0.036   2.223  0.2530 -0.1557  0.0389
  935MPD2     C13672   3.109   4.079   1.329 -0.3156  0.0249  0.2991
  935MPD2    C113673   2.982   4.038   1.300  0.2691 -1.1755  0.0242
  935MPD2    C213674   2.876   4.092   1.366  0.1218  0.1653  0.1681
  935MPD2    C313675   2.887   4.182   1.471 -0.8876 -0.0666 -0.2995
  935MPD2    C413676   3.019   4.223   1.495 -0.0907  0.4608  0.3332
  935MPD2    C513677   3.127   4.175   1.424  0.4380  0.2232  0.5337
  935MPD2     H13678   2.780   4.050   1.340  0.3093  0.1175 -0.4452
  935MPD2    H113679   3.038   4.295   1.575 -0.9651  0.7706  0.2623
  935MPD2    H213680   3.199   4.041   1.282 -1.3544 -0.3592 -1.3751
  935MPD2    H313681   3.226   4.213   1.448  0.5762  0.8921 -1.0958
  935MPD2     N13682   2.779   4.238   1.544 -0.2272 -0.1722  0.6041
  935MPD2    H513683   2.804   4.304   1.617 -1.4863 -0.8763  1.6769
  935MPD2    N113684   2.962   3.946   1.195 -0.2285 -0.3874  0.4531
  935MPD2    H713685   2.868   3.932   1.158 -0.5165  2.8641 -0.0842
  936MPD2     C13686   1.299   1.536  12.464 -0.6508 -0.0261  0.1520
  936MPD2    C113687   1.306   1.475  12.589  0.2457  0.2670  0.7168
  936MPD2    C213688   1.416   1.403  12.630 -0.5789 -0.1278  0.3965
  936MPD2    C313689   1.511   1.377  12.534  0.1748  0.2483 -0.3148
  936MPD2    C413690   1.502   1.429  12.410  0.2837  0.3033  0.3525
  936MPD2    C513691   1.397   1.510  12.377 -0.6196  0.5694 -0.6103
  936MPD2     H13692   1.420   1.360  12.729  2.2191 -1.0393 -0.1019
  936MPD2    H113693   1.562   1.400  12.325 -0.7518  0.3249 -0.3945
  936MPD2    H213694   1.214   1.595  12.435 -0.2885 -0.0995 -1.0501
  936MPD2    H313695   1.400   1.571  12.287  1.1242  0.9956 -0.2662
  936MPD2     N13696   1.613   1.284  12.559 -0.2808 -0.1764 -0.2920
  936MPD2    H513697   1.684   1.263  12.491 -1.7024  0.6633 -2.0271
  936MPD2    N113698   1.207   1.486  12.685  0.2210 -0.4347 -0.5168
  936MPD2    H713699   1.232   1.446  12.776  0.3424 -0.0252 -0.3726
  937MPD2     C13700   3.652   1.799  12.144 -0.6570  0.6147  0.4266
  937MPD2    C113701   3.741   1.906  12.118 -0.4709 -0.0046  0.0368
  937MPD2    C213702   3.816   1.904  12.004  0.2816 -0.3336  0.0458
  937MPD2    C313703   3.817   1.795  11.925 -0.3041  0.1280  0.3095
  937MPD2    C413704   3.740   1.688  11.963  0.2712  0.4227 -0.0559
  937MPD2    C513705   3.658   1.687  12.073  0.2192  0.0141 -0.3550
  937MPD2     H13706   3.869   1.994  11.976 -0.4777  0.7041  1.9646
  937MPD2    H113707   3.729   1.600  11.900  1.7750  2.0471 -2.5832
  937MPD2    H213708   3.574   1.805  12.219 -2.7992  0.0142 -1.7248
  937MPD2    H313709   3.585   1.609  12.085  1.3867 -0.8948  0.8714
  937MPD2     N13710   3.882   1.788  11.801 -0.2183 -0.4435 -0.2831
  937MPD2    H513711   3.859   1.715  11.734  1.8275 -0.0126 -1.4392
  937MPD2    N113712   3.707   2.031  12.164 -0.5218 -0.1948 -0.0511
  937MPD2    H713713   3.737   2.106  12.103  0.6189 -0.6958 -0.1055
  938MPD2     C13714   1.558   3.853   0.991 -0.3485 -0.5634 -0.2000
  938MPD2    C113715   1.644   3.936   1.061  0.2879 -0.5029  0.4185
  938MPD2    C213716   1.689   3.905   1.185 -0.7326  0.0004  0.1398
  938MPD2    C313717   1.653   3.785   1.245  0.3857  0.3765  0.4968
  938MPD2    C413718   1.556   3.712   1.187  0.0767  0.0981  0.2515
  938MPD2    C513719   1.511   3.743   1.057 -0.1291 -0.0162  0.0760
  938MPD2     H13720   1.767   3.961   1.235  1.7680 -2.1733 -1.2621
  938MPD2    H113721   1.524   3.615   1.221 -0.8682 -0.2395 -1.5903
  938MPD2    H213722   1.518   3.881   0.894  0.5945  1.8831  0.1028
  938MPD2    H313723   1.438   3.678   1.010 -1.2082 -1.1820  3.3528
  938MPD2     N13724   1.704   3.733   1.366  0.5027 -0.2992  0.2086
  938MPD2    H513725   1.632   3.679   1.414  0.8205  1.6577  2.8678
  938MPD2    N113726   1.701   4.054   1.002  0.4618  0.0004 -0.4076
  938MPD2    H713727   1.747   4.125   1.058 -1.4701  0.2963  0.8166
  939MPD2     C13728   3.020   0.279   0.962  0.1140  0.1643  0.8881
  939MPD2    C113729   2.976   0.386   0.891  0.3630  0.2857 -0.1383
  939MPD2    C213730   3.041   0.421   0.776  0.1975  0.1022 -0.1240
  939MPD2    C313731   3.151   0.346   0.728  0.1976  0.1314  0.4457
  939MPD2    C413732   3.191   0.241   0.801  0.4584  0.1334 -0.5137
  939MPD2    C513733   3.128   0.208   0.916 -0.5353  0.0227  0.0147
  939MPD2     H13734   3.007   0.507   0.719 -2.3718  0.0181  1.2994
  939MPD2    H113735   3.266   0.173   0.761  2.2304  1.2765  0.8985
  939MPD2    H213736   2.970   0.243   1.052 -3.3493  0.6025 -0.8469
  939MPD2    H313737   3.150   0.111   0.959  1.7569  0.7361  0.4249
  939MPD2     N13738   3.202   0.374   0.595  0.7316 -0.0045  0.2058
  939MPD2    H513739   3.156   0.445   0.540  0.6280 -0.8961 -0.8550
  939MPD2    N113740   2.868   0.461   0.958 -0.3281 -0.2595  0.3224
  939MPD2    H713741   2.845   0.436   1.053  1.0110  1.2867  1.0461
  940MPD2     C13742   1.356   0.813  12.727 -0.3001 -0.7471 -0.1558
  940MPD2    C113743   1.467   0.781  12.805  0.1476 -0.0482 -0.3352
  940MPD2    C213744   1.586   0.759  12.746 -0.4092  0.2191  0.6981
  940MPD2    C313745   1.600   0.771  12.610 -0.5604  0.5533 -0.0002
  940MPD2    C413746   1.488   0.801  12.530 -0.3138  0.1821  0.1917
  940MPD2    C513747   1.370   0.822  12.594 -0.2465  0.0333  0.0179
  940MPD2     H13748   1.659   0.741  12.824  0.6367 -0.0286 -0.3346
  940MPD2    H113749   1.488   0.807  12.422  0.2607  1.4117  0.2570
  940MPD2    H213750   1.256   0.840  12.761  0.3853 -0.0840  1.3370
  940MPD2    H313751   1.280   0.847  12.538  0.7516 -1.3302 -2.1740
  940MPD2     N13752   1.719   0.744  12.545  0.2105 -0.7457  0.7883
  940MPD2    H513753   1.724   0.753  12.444 -0.6010 -1.1535  0.7118
  940MPD2    N113754   1.459   0.747  12.945 -0.5840 -0.2550  0.4491
  940MPD2    H713755   1.540   0.703  12.988  0.0440  1.4635  1.0306
  941MPD2     C13756   1.274   4.451  10.624  0.2537  0.1590 -0.4398
  941MPD2    C113757   1.178   4.470  10.530 -0.1179  0.7561 -0.6667
  941MPD2    C213758   1.085   4.371  10.508  0.6468  0.4197 -0.8245
  941MPD2    C313759   1.089   4.245  10.564  0.1469 -0.5145  0.7484
  941MPD2    C413760   1.199   4.225  10.650 -0.5300  1.3790  0.2706
  941MPD2    C513761   1.284   4.328  10.680  0.2018 -0.5761 -0.1656
  941MPD2     H13762   1.010   4.398  10.435 -2.1084 -0.8006  1.5956
  941MPD2    H113763   1.213   4.134  10.707 -2.4627  3.0863  3.4082
  941MPD2    H213764   1.343   4.529  10.653  0.1133  0.4536 -0.9079
  941MPD2    H313765   1.362   4.330  10.756  2.0493 -2.2683 -2.0201
  941MPD2     N13766   1.005   4.138  10.533 -0.8805  0.0262  0.7394
  941MPD2    H513767   1.015   4.053  10.588 -1.0503 -0.7121 -0.3816
  941MPD2    N113768   1.157   4.592  10.450  0.6108 -0.7911  0.4820
  941MPD2    H713769   1.089   4.582  10.374  1.6612 -0.7373 -0.4666
  942MPD2     C13770   0.866   1.569   9.477 -0.6205 -0.2757 -0.2922
  942MPD2    C113771   0.891   1.561   9.343 -0.7363 -0.2856  0.0123
  942MPD2    C213772   1.014   1.505   9.311  0.1008 -0.1950  0.3828
  942MPD2    C313773   1.113   1.478   9.408 -0.6803  0.2291 -0.5685
  942MPD2    C413774   1.085   1.501   9.540  0.1408  0.1622  0.8916
  942MPD2    C513775   0.953   1.539   9.576 -0.3452  0.8285  0.0584
  942MPD2     H13776   1.034   1.474   9.209  0.3886  2.1462 -0.2613
  942MPD2    H113777   1.149   1.490   9.627 -2.1317 -1.0129  2.4201
  942MPD2    H213778   0.766   1.596   9.508  0.0235  1.6527  0.1157
  942MPD2    H313779   0.919   1.536   9.679  0.3739  1.7633  0.3234
  942MPD2     N13780   1.240   1.424   9.372 -0.0175 -0.0307  0.0474
  942MPD2    H513781   1.304   1.401   9.448  1.5741 -0.3963 -1.4037
  942MPD2    N113782   0.793   1.594   9.243  0.3062  0.2260 -0.1739
  942MPD2    H713783   0.811   1.565   9.147  1.4431  0.8748 -0.1613
  943MPD2     C13784   0.152   3.498   9.767  0.2510  0.2487  0.7011
  943MPD2    C113785   0.042   3.427   9.806  0.2768  0.3600 -0.0739
  943MPD2    C213786   4.679   3.371   9.719 -0.1410  0.3447  0.6090
  943MPD2    C313787   4.713   3.383   9.580 -0.7256 -0.7021 -0.6529
  943MPD2    C413788   0.092   3.454   9.536 -0.1839  0.5818 -0.1198
  943MPD2    C513789   0.169   3.511   9.632  0.0119 -1.0891  0.0779
  943MPD2     H13790   4.603   3.307   9.761 -2.2653  0.3103 -3.3196
  943MPD2    H113791   0.115   3.471   9.431  0.9097 -1.0763 -0.1509
  943MPD2    H213792   0.211   3.558   9.835  1.1479 -1.6420  1.5715
  943MPD2    H313793   0.259   3.566   9.606 -0.0792 -1.1290 -0.3325
  943MPD2     N13794   4.637   3.322   9.478  0.1676 -0.8078 -0.5739
  943MPD2    H513795   4.666   3.346   9.384 -1.8917 -0.3344 -1.0808
  943MPD2    N113796   0.031   3.419   9.949 -0.2564 -0.0256  0.0129
  943MPD2    H713797   0.095   3.479   9.999  0.7418  1.1644 -2.7062
  944MPD2     C13798   4.563   3.087  10.916  0.6861 -0.1655 -0.0403
  944MPD2    C113799   4.589   3.205  10.851 -0.3182  0.1191 -0.0631
  944MPD2    C213800   4.554   3.331  10.907 -0.1290  0.7808 -0.5094
  944MPD2    C313801   4.461   3.331  11.015 -0.5064 -0.1499  0.1793
  944MPD2    C413802   4.443   3.215  11.085 -0.0311 -0.0300 -0.1861
  944MPD2    C513803   4.483   3.091  11.030 -0.0857  0.1486 -0.2055
  944MPD2     H13804   4.565   3.422  10.849 -2.2753  1.2326 -0.2335
  944MPD2    H113805   4.381   3.205  11.174 -0.3548 -0.7541 -0.4980
  944MPD2    H213806   4.592   2.995  10.867 -1.1397  1.0107 -3.2955
  944MPD2    H313807   4.467   2.995  11.079  0.8382 -0.1765 -0.5319
  944MPD2     N13808   4.405   3.453  11.058  0.3426 -0.6963 -0.8321
  944MPD2    H513809   4.431   3.533  11.001  1.8601 -0.6340 -0.0551
  944MPD2    N113810   4.660   3.210  10.730  0.2662  0.3950 -0.1384
  944MPD2    H713811   4.700   3.301  10.712  0.6550  0.6204  1.8124
    1TCq1    O113812   2.958   4.468  14.421  0.0687  0.2714 -0.5828
    1TCq1    C113813   3.024   4.358  14.465 -0.0467 -0.6911  0.0640
    1TCq1    O213814   3.031   4.254  14.401 -0.0484 -0.1781  0.3689
    1TCq1    C213815   3.088   4.371  14.592 -0.4437  0.1383 -0.2565
    1TCq1    C313816   3.107   4.257  14.669  0.2600 -0.0689  0.1820
    1TCq1    C413817   3.167   4.268  14.792 -0.2346 -0.6551 -0.7570
    1TCq1    C513818   3.201   4.391  14.848  0.2293  0.6756 -0.4434
    1TCq1    C613819   3.175   4.500  14.770 -0.8034 -0.2176 -0.0921
    1TCq1    C713820   3.118   4.502  14.645  0.2729 -0.1562  0.0381
    1TCq1    C813821   3.188   4.628  14.834  0.0124  0.3801  0.4638
    1TCq1    O413822   3.289   4.636  14.905  0.2954  0.1313  0.7069
    1TCq1    C913823   3.178   4.148  14.869 -0.2657 -0.3276 -0.4164
    1TCq1    O513824   3.210   4.164  14.987 -0.6190 -0.3161 -0.5556
    1TCq1    O613825   3.135   4.045  14.810  0.2033  0.3872 -0.2021
    1TCq1    H113826   2.927   4.520  14.499 -1.7130 -0.2725 -0.9242
    1TCq1    H213827   3.080   4.167  14.615  1.7063 -0.6470  0.4449
    1TCq1    H313828   3.244   4.405  14.946  1.3745 -1.8775 -0.5812
    1TCq1    H413829   3.122   4.594  14.586 -0.7238  0.8973  1.6315
    2MPD2     C13830   3.016   0.374  14.939 -0.2925 -0.1913  0.8692
    2MPD2    C113831   2.942   0.324  14.839 -0.0737 -0.4103 -0.3890
    2MPD2    C213832   2.975   0.208  14.786 -0.5149  0.1811 -0.2506
    2MPD2    C313833   3.067   0.121  14.852 -0.1316 -0.2687 -0.3399
    2MPD2    C413834   3.144   0.173  14.956 -0.2039  0.0516  0.2622
    2MPD2    C513835   3.119   0.300  14.985  0.0489 -0.3119 -0.0748
    2MPD2     H13836   2.925   0.156  14.705 -1.1266  0.3615  0.0126
    2MPD2    H113837   3.230   0.119  14.996 -0.1163  1.6014  2.1347
    2MPD2    H213838   2.997   0.473  14.979 -2.2992  0.1325 -0.9066
    2MPD2    H313839   3.164   0.345  15.072 -1.3350  2.2937 -0.7030
    2MPD2     N13840   3.088   4.719  14.799  0.5058 -0.6261  0.5065
    2MPD2    H513841   3.010   4.687  14.742  1.5634 -1.2776 -0.5921
    2MPD2    N113842   2.849   0.415  14.786 -0.1297  0.4496 -0.7075
    2MPD2    H713843   2.825   0.505  14.825 -1.4947  0.3841 -1.4058
    3TMC2    C113844   2.697   0.512  14.636 -0.0839 -0.2781  0.0585
    3TMC2    C213845   2.568   0.484  14.599  0.4408 -0.2105  0.0844
    3TMC2    C313846   2.493   0.594  14.559 -0.1032  0.2261  0.2636
    3TMC2    C413847   2.753   0.633  14.646  0.0517 -0.6141 -0.1305
    3TMC2    C513848   2.673   0.737  14.613  0.4000 -0.0834  0.2837
    3TMC2    C613849   2.544   0.727  14.566 -0.6909 -0.0201  0.9506
    3TMC2     C13850   2.769   0.394  14.674  0.3847  0.4260  0.9338
    3TMC2     O13851   2.753   0.290  14.606  0.4738  0.1858  0.7129
    3TMC2     H13852   2.539   0.380  14.602  0.4683 -0.2750 -1.5886
    3TMC2    H113853   2.857   0.644  14.675  0.0674 -1.7809  0.2567
    3TMC2    H213854   2.472   0.808  14.564  0.4130  0.9458  0.7914
    3TMC2    C713855   2.750   0.855  14.573 -0.4793 -0.2283  0.0751
    3TMC2    C813856   2.361   0.550  14.523  0.1172  0.0592 -0.2524
    3TMC2    O113857   2.868   0.861  14.607  0.7218  0.5392 -0.5826
    3TMC2    O213858   2.329   0.432  14.542  0.0791  0.1708  0.7141
    3TMC2    O513859   2.306   0.633  14.428  0.0487  0.3838 -0.5119
    3TMC2    H513860   2.350   0.712  14.392 -0.7980  2.0737  2.1212
    4MPD2     C13861   1.737   1.554  13.582  0.0758 -0.1131  0.0458
    4MPD2    C113862   1.842   1.537  13.500 -0.3806 -0.1288 -0.6680
    4MPD2    C213863   1.978   1.534  13.542  0.2086 -0.1500  0.3775
    4MPD2    C313864   2.004   1.528  13.681 -0.1557 -1.2723 -0.1301
    4MPD2    C413865   1.897   1.547  13.771 -0.3936 -0.1072 -0.0252
    4MPD2    C513866   1.766   1.559  13.716 -0.1068 -0.2760 -1.0008
    4MPD2     H13867   2.055   1.539  13.466 -0.3589  2.7452 -0.0193
    4MPD2    H113868   1.905   1.562  13.878  2.9531  1.3373 -0.4601
    4MPD2    H213869   1.634   1.567  13.551 -0.3351 -1.5601  0.8155
    4MPD2    H313870   1.691   1.565  13.794  0.2808  1.3925 -0.7480
    4MPD2     N13871   2.135   1.516  13.733 -0.1066 -0.0128 -0.3769
    4MPD2    H513872   2.212   1.524  13.668 -0.3965  1.7923 -0.4922
    4MPD2    N113873   1.788   1.516  13.368  0.7316  0.7720  0.4610
    4MPD2    H713874   1.687   1.510  13.362  1.0048 -0.3652 -2.8736
    5TCq2    C113875   2.163   1.470  13.863  0.0160 -0.2199 -0.4430
    5TCq2    O213876   2.095   1.422  13.952 -0.6680  0.2753 -0.4521
    5TCq2    C213877   2.306   1.468  13.899  0.4237  0.4494 -0.7094
    5TCq2    C313878   2.391   1.573  13.854 -0.0960  0.2493  0.8739
    5TCq2    C413879   2.519   1.583  13.898  0.0883  0.4207  1.1014
    5TCq2    C513880   2.565   1.495  13.991 -0.0132  0.3596 -0.5413
    5TCq2    C613881   2.478   1.397  14.036 -0.0712  0.0053 -0.6942
    5TCq2    C713882   2.347   1.380  13.997  0.6059 -0.5594 -1.0794
    5TCq2    C813883   2.524   1.282  14.114  0.2057  0.2010 -0.6826
    5TCq2    O413884   2.437   1.224  14.177  0.6833  0.5501  0.4107
    5TCq2    C913885   2.599   1.697  13.858  0.3974 -0.3532  0.4458
    5TCq2    O513886   2.555   1.782  13.775  0.6155  0.0157 -0.2974
    5TCq2    O613887   2.703   1.712  13.931 -0.7396  0.4135  0.2936
    5TCq2    H213888   2.353   1.648  13.785 -1.9886 -2.7703 -1.3813
    5TCq2    H313889   2.664   1.507  14.034  0.2037 -0.9627 -0.6786
    5TCq2    H413890   2.287   1.302  14.042  1.5664  0.1700  1.4642
    6MPD1     C13891   1.639   3.017  13.232  0.6724  0.1586  0.0052
    6MPD1    C113892   1.534   2.968  13.306 -0.2591  0.3836  0.1249
    6MPD1    C213893   1.506   2.834  13.294 -0.4152 -0.6118 -0.2777
    6MPD1    C313894   1.595   2.740  13.243  0.3181  0.3855  0.2666
    6MPD1    C413895   1.708   2.785  13.182  0.2429  0.0388  0.4959
    6MPD1    C513896   1.726   2.926  13.173  0.3932  0.2346 -0.4612
    6MPD1     H13897   1.420   2.791  13.345 -0.9513 -0.3359 -0.9499
    6MPD1    H113898   1.776   2.728  13.120 -2.4368 -3.3386  0.6317
    6MPD1    H213899   1.662   3.123  13.221 -1.0121  0.3952 -1.3542
    6MPD1    H313900   1.813   2.963  13.120  1.2069  0.0937  0.7715
    6MPD1     N13901   1.567   2.599  13.240  0.0955  0.4933 -0.6570
    6MPD1    H513902   1.636   2.549  13.185 -1.9797  0.0936 -2.8891
    6MPD1    N113903   1.439   3.049  13.370  0.0904  0.1972 -0.6720
    6MPD1    H613904   1.476   3.138  13.403  0.2631  0.3054 -1.1478
    6MPD1    H713905   1.396   3.002  13.449  2.1674 -0.0621  0.2937
    7MPD2     C13906   1.244   1.981  13.263 -0.7275 -0.8434 -0.4605
    7MPD2    C113907   1.325   1.911  13.348 -0.1776 -0.2741 -0.1716
    7MPD2    C213908   1.365   1.778  13.315  0.9152 -0.5464 -0.5360
    7MPD2    C313909   1.319   1.718  13.201 -0.3936 -0.9524  0.0332
    7MPD2    C413910   1.262   1.804  13.105  0.4828  0.4744 -0.2459
    7MPD2    C513911   1.228   1.931  13.138  0.0309  0.5423  0.0252
    7MPD2     H13912   1.423   1.726  13.390 -1.6026 -3.5103 -0.6166
    7MPD2    H113913   1.235   1.778  13.003 -0.2550 -0.6441  0.2382
    7MPD2    H213914   1.185   2.065  13.297  0.1089 -0.1217 -0.7933
    7MPD2    H313915   1.174   2.001  13.076  0.9595 -0.5636 -2.0327
    7MPD2     N13916   1.368   1.591  13.158  0.2003 -0.8331 -0.4114
    7MPD2    H513917   1.369   1.567  13.060 -0.2724 -1.6696 -0.2116
    7MPD2    N113918   1.361   1.959  13.473  0.1021 -0.7101  0.5333
    7MPD2    H713919   1.383   1.893  13.546 -1.0042  0.7823  2.2284
    8TMC3    C113920   1.548   1.450  13.127 -0.0337  0.5203 -0.0940
    8TMC3    C213921   1.657   1.399  13.198  0.2136  0.9644  0.1966
    8TMC3    C313922   1.785   1.432  13.161 -0.0307 -0.2838 -0.3010
    8TMC3    C413923   1.564   1.514  13.011  0.2403  0.5251  0.2914
    8TMC3    C513924   1.698   1.540  12.969 -0.2086  0.1012  0.0783
    8TMC3    C613925   1.806   1.501  13.044  0.2413 -0.1996 -0.3589
    8TMC3     C13926   1.458   1.515  13.223 -0.2128  0.2743 -0.1731
    8TMC3     O13927   1.488   1.496  13.336 -0.2277 -0.6893  0.1788
    8TMC3     H13928   1.646   1.331  13.282 -1.2576  1.0081  0.0379
    8TMC3    H113929   1.479   1.541  12.949  0.7501  1.1251 -0.1595
    8TMC3    H213930   1.907   1.530  13.019  0.5456 -2.2801 -1.5473
    8TMC3    C713931   1.736   1.586  12.837 -0.2674 -0.5383  0.3622
    8TMC3    C813932   1.867   1.459  13.268 -0.7396  0.2915  0.8240
    8TMC3    O113933   1.840   1.538  12.795 -0.1554 -0.3315  0.7700
    8TMC3    O213934   1.987   1.443  13.246 -0.1847  0.4636 -0.1203
    9TMC3    C113935   1.470   2.385  13.290  0.3922 -0.0814  0.5291
    9TMC3    C213936   1.533   2.331  13.184 -0.1446 -1.1088  0.3356
    9TMC3    C313937   1.559   2.198  13.183 -0.2969 -0.0104  0.2510
    9TMC3    C413938   1.416   2.306  13.392  0.6564  0.0471 -0.2772
    9TMC3    C513939   1.440   2.169  13.385 -0.2569 -0.0901 -0.7379
    9TMC3    C613940   1.519   2.116  13.287  0.3329  0.1253  0.7120
    9TMC3     C13941   1.466   2.529  13.311 -0.0927 -0.3976  0.0636
    9TMC3     O13942   1.400   2.569  13.408  0.2252 -0.0658  0.0464
    9TMC3     H13943   1.552   2.399  13.102  1.7141 -0.6776  1.1344
    9TMC3    H113944   1.357   2.348  13.473  1.5260  0.4356  0.1505
    9TMC3    H213945   1.533   2.009  13.276 -0.2296  0.2232 -0.9978
    9TMC3    C713946   1.387   2.092  13.499  0.1410  0.1245  0.5107
    9TMC3    C813947   1.516   2.143  13.060  0.1126 -0.3561  0.6705
    9TMC3    O113948   1.401   2.153  13.603 -0.2614 -0.2084  0.3445
    9TMC3    O213949   1.438   2.210  12.996 -0.1983  0.6231 -0.4831
   10MPD2     C13950   1.450   1.763  12.712  0.2839 -0.0249  0.0541
   10MPD2    C113951   1.558   1.742  12.793 -0.1270  0.7538  0.0191
   10MPD2    C213952   1.590   1.826  12.896  0.2653 -0.0131 -0.5022
   10MPD2    C313953   1.511   1.938  12.926 -0.5963 -0.8120 -0.7069
   10MPD2    C413954   1.406   1.963  12.836 -0.5213  0.4587 -0.0061
   10MPD2    C513955   1.372   1.874  12.737  1.1439  0.4966 -0.1991
   10MPD2     H13956   1.678   1.803  12.955  0.7021  1.7884 -0.4433
   10MPD2    H113957   1.342   2.050  12.848  0.4648  1.0434  1.0472
   10MPD2    H213958   1.422   1.688  12.639 -1.3703  0.2719  0.3649
   10MPD2    H313959   1.290   1.906  12.673 -0.0058  0.6170  1.3331
   10MPD2     N13960   1.562   2.019  13.030  0.3460 -0.2502 -0.0343
   10MPD2    H513961   1.625   1.968  13.091  0.0589 -1.2387 -0.5658
   10MPD2    N113962   1.633   1.630  12.760  0.2134 -0.2241 -0.1476
   10MPD2    H713963   1.626   1.599  12.663 -1.6467  0.9991 -0.3988
   11MPD2     C13964   2.887   1.034  14.373  0.2045  0.1700 -0.0841
   11MPD2    C113965   2.748   1.003  14.368 -0.2995 -0.3324 -0.9574
   11MPD2    C213966   2.665   1.069  14.275 -0.4125 -0.1597 -0.4120
   11MPD2    C313967   2.725   1.172  14.205  0.1301 -0.0083  0.3062
   11MPD2    C413968   2.861   1.188  14.204 -0.1240  0.6581  0.8382
   11MPD2    C513969   2.945   1.127  14.292  0.1957 -0.4742  0.1859
   11MPD2     H13970   2.560   1.047  14.286 -0.5799  0.8473  0.0483
   11MPD2    H113971   2.903   1.266  14.142 -0.1670  0.3742  0.4528
   11MPD2    H213972   2.958   0.992  14.442 -1.3581 -1.0185  0.7909
   11MPD2    H313973   3.050   1.153  14.290  0.2587 -0.7770 -0.3109
   11MPD2     N13974   2.658   1.270  14.129  0.3838  0.3443 -0.1781
   11MPD2    H513975   2.720   1.324  14.069 -1.6732 -0.2957 -2.8772
   11MPD2    N113976   2.686   0.911  14.463 -0.8870 -0.5597 -0.0593
   11MPD2    H713977   2.594   0.875  14.438 -0.8727  0.2100 -1.1620
    1MPD1     C13978   0.845   2.162  16.381  0.3413  0.3164  0.0232
    1MPD1    C113979   0.768   2.131  16.270  0.0217  0.4747  0.0149
    1MPD1    C213980   0.653   2.208  16.265 -0.3534  0.7877 -0.3618
    1MPD1    C313981   0.596   2.274  16.370 -0.2732 -0.3614 -1.1287
    1MPD1    C413982   0.663   2.275  16.491  0.4362 -0.3611  0.3328
    1MPD1    C513983   0.789   2.220  16.496 -0.1057  0.4645 -0.0501
    1MPD1     H13984   0.602   2.187  16.171  0.5061 -0.2284 -0.6072
    1MPD1    H113985   0.626   2.324  16.580  1.1269  1.1384 -0.2018
    1MPD1    H213986   0.949   2.131  16.391  0.5468  1.1894  0.6191
    1MPD1    H313987   0.835   2.229  16.594  3.0917  1.9883 -1.6750
    1MPD1     N13988   0.478   2.346  16.369 -0.7801 -0.5181 -0.5667
    1MPD1    H513989   0.457   2.390  16.458  1.9560 -2.4390  1.0252
    1MPD1    N113990   0.822   2.082  16.147 -0.5294 -0.2698 -0.2571
    1MPD1    H613991   0.754   2.050  16.079  0.8054 -1.2533 -1.1255
    1MPD1    H713992   0.886   2.006  16.169 -0.9270 -0.3851  0.5003
    2MPD1     C13993   0.190   2.901  16.942  0.1484  0.4320 -0.5279
    2MPD1    C113994   0.304   2.822  16.919 -0.5831 -1.3013  0.4292
    2MPD1    C213995   0.295   2.719  16.827 -0.2783 -0.1169  0.1491
    2MPD1    C313996   0.177   2.683  16.762 -0.1908 -0.8653 -0.1902
    2MPD1    C413997   0.065   2.753  16.801  0.0350 -0.2036  0.4944
    2MPD1    C513998   0.072   2.855  16.888 -0.4600 -0.7254 -0.2958
    2MPD1     H13999   0.391   2.687  16.788  0.4038  3.2652 -0.9290
    2MPD1    H114000   4.697   2.738  16.752  0.6076  0.4674 -0.8455
    2MPD1    H214001   0.195   2.994  16.998 -0.1085 -0.2356  0.5910
    2MPD1    H314002   4.713   2.916  16.912 -0.3121 -0.3764 -0.6583
    2MPD1     N14003   0.185   2.594  16.654 -0.6492  0.2565 -0.5549
    2MPD1    H514004   0.259   2.525  16.662 -1.5749 -0.9759 -2.4421
    2MPD1    N114005   0.428   2.865  16.978  0.0212  0.4324  0.4162
    2MPD1    H614006   0.406   2.912  17.066 -1.6069  0.6397 -0.0944
    2MPD1    H714007   0.490   2.786  16.994  1.2115  1.7519  2.3994
    3TMC3    C114008   0.113   2.457  16.471  0.3454 -0.2013 -0.1973
    3TMC3    C214009   0.011   2.396  16.408 -0.7180 -0.1223 -0.6613
    3TMC3    C314010   0.040   2.315  16.295  0.7733  0.0207  0.0028
    3TMC3    C414011   0.241   2.460  16.423 -0.1507  0.1235  0.3660
    3TMC3    C514012   0.259   2.391  16.311 -0.1776  0.1266 -0.1214
    3TMC3    C614013   0.169   2.304  16.259  0.1386  0.6181 -0.3176
    3TMC3     C14014   0.081   2.563  16.570  0.7973 -0.5903  0.2908
    3TMC3     O14015   4.690   2.599  16.575  0.1975 -0.2359  0.6052
    3TMC3     H14016   4.637   2.410  16.442 -0.3449 -0.9356  0.8048
    3TMC3    H114017   0.312   2.534  16.460  1.1910 -0.2182 -1.5600
    3TMC3    H214018   0.187   2.241  16.173  0.4666 -1.6217  1.3995
    3TMC3    C714019   0.395   2.365  16.262 -0.5317  0.1621 -0.9886
    3TMC3    C814020   4.699   2.190  16.276 -0.0690  0.1858 -0.1984
    3TMC3    O114021   0.406   2.337  16.143  0.3934 -0.2567  0.5309
    3TMC3    O214022   0.041   2.096  16.247  0.5743 -0.4637  0.2741
    4MPD1     C14023   4.268   1.959  16.114  1.1744 -0.8391  0.8821
    4MPD1    C114024   4.237   2.090  16.142  0.2735  0.6165  0.9898
    4MPD1    C214025   4.339   2.176  16.183 -0.2315 -0.2868 -0.1503
    4MPD1    C314026   4.463   2.121  16.219 -0.9094  0.0937  0.1746
    4MPD1    C414027   4.486   1.991  16.193  0.3612 -0.3175  0.5583
    4MPD1    C514028   4.394   1.909  16.140  0.5351 -0.2935  0.0351
    4MPD1     H14029   4.313   2.276  16.216 -1.5076 -0.3425 -1.0060
    4MPD1    H114030   4.578   1.944  16.226  1.6689  0.8866 -1.3876
    4MPD1    H214031   4.205   1.889  16.061  0.7988 -1.6478  2.4079
    4MPD1    H314032   4.414   1.802  16.138 -1.3584 -0.6540 -0.4695
    4MPD1     N14033   4.564   2.214  16.251  0.0651 -1.1674  0.3898
    4MPD1    H514034   4.528   2.309  16.256  0.1011 -1.1240 -0.2095
    4MPD1    N114035   4.109   2.137  16.124  1.1510  0.5236  0.1680
    4MPD1    H614036   4.063   2.182  16.203 -2.2536  0.2991 -1.6985
    4MPD1    H714037   4.041   2.065  16.101  0.2137  0.9276  1.7222
    1TCq1    O114038   2.529   2.067  12.586 -0.7538 -0.6143  0.0580
    1TCq1    C114039   2.496   2.114  12.462 -0.2891 -0.0861  0.6066
    1TCq1    O214040   2.469   2.229  12.438 -0.1278  0.0894  0.5815
    1TCq1    C214041   2.419   2.006  12.397 -0.2171 -0.2390  0.0361
    1TCq1    C314042   2.458   1.880  12.424  0.0459  0.5613  0.1473
    1TCq1    C414043   2.377   1.777  12.391  0.4646 -0.3379 -0.4932
    1TCq1    C514044   2.250   1.801  12.357  0.2715  0.0155  0.5249
    1TCq1    C614045   2.217   1.930  12.329  0.7142  0.6105  0.2778
    1TCq1    C714046   2.300   2.040  12.349 -0.0639  0.4048 -0.4941
    1TCq1    C814047   2.095   1.960  12.263 -0.3951  0.7709  0.5018
    1TCq1    O414048   2.043   2.070  12.276  0.1338  0.8621  0.0703
    1TCq1    C914049   2.397   1.643  12.450 -0.5817 -0.0308 -0.0469
    1TCq1    O514050   2.473   1.642  12.549 -0.0709  0.3425  0.2333
    1TCq1    O614051   2.327   1.545  12.408  0.0282  0.2967  0.1898
    1TCq1    H114052   2.498   1.977  12.610  1.7666 -0.9160  2.0937
    1TCq1    H214053   2.559   1.859  12.457 -0.6824 -0.4423  1.7561
    1TCq1    H314054   2.180   1.719  12.342 -0.3789  0.8693 -1.1151
    1TCq1    H414055   2.268   2.142  12.328 -1.3004  0.0291 -0.4371
    2MPD1     C14056   1.757   1.909  11.877 -0.0174 -0.5409  0.4637
    2MPD1    C114057   1.836   1.803  11.881 -0.0467 -0.2965 -0.7204
    2MPD1    C214058   1.949   1.796  11.966 -0.5303  0.1750 -0.0490
    2MPD1    C314059   1.965   1.891  12.064  0.1059 -1.0036 -0.1493
    2MPD1    C414060   1.869   1.995  12.073  0.2741  1.0129 -0.2867
    2MPD1    C514061   1.775   2.002  11.976 -0.2894 -0.0494  0.3465
    2MPD1     H14062   2.015   1.709  11.960 -0.9728 -0.2422  1.0987
    2MPD1    H114063   1.881   2.078  12.141  0.2617  0.4362  0.4268
    2MPD1    H214064   1.679   1.927  11.805  1.4808  1.1425 -0.7614
    2MPD1    H314065   1.710   2.088  11.988  0.1134  0.1328  1.2492
    2MPD1     N14066   2.063   1.869  12.162  0.3947  0.6615  0.0934
    2MPD1    H514067   2.121   1.787  12.149 -1.1309 -0.5163  0.6928
    2MPD1    N114068   1.823   1.716  11.776  0.1753  0.5522  0.1018
    2MPD1    H614069   1.723   1.709  11.759  0.3950  0.8413 -1.3218
    2MPD1    H714070   1.861   1.624  11.794  0.0468  0.2623 -1.0944
    1TCq1    O114071   4.705   4.171   1.186 -0.1293 -0.4499 -0.2008
    1TCq1    C114072   4.707   4.060   1.102 -0.6522 -0.7196 -0.8365
    1TCq1    O214073   4.662   4.061   0.986 -0.5614  0.0559  0.6831
    1TCq1    C214074   0.010   3.941   1.175 -0.1261 -0.4104 -0.0447
    1TCq1    C314075   0.094   3.951   1.282  0.8220  0.1659  0.3398
    1TCq1    C414076   0.126   3.839   1.358  0.2717  0.4839  1.0109
    1TCq1    C514077   0.088   3.718   1.304 -0.0442 -0.5917 -0.2943
    1TCq1    C614078   4.728   3.713   1.200 -0.3776 -0.4283  0.2836
    1TCq1    C714079   4.684   3.820   1.132  0.7982 -1.0580 -0.0630
    1TCq1    C814080   4.686   3.588   1.154 -0.3077  0.0486 -0.2772
    1TCq1    O414081   0.039   3.496   1.161 -0.0544  0.6335  0.3775
    1TCq1    C914082   0.236   3.838   1.443 -0.4780  0.0670  0.1358
    1TCq1    O514083   0.324   3.927   1.427  0.1568 -0.0076  0.1249
    1TCq1    O614084   0.244   3.742   1.523 -0.1126  0.2573  0.0723
    1TCq1    H114085   4.726   4.151   1.280 -2.9456 -2.3012  0.0385
    1TCq1    H214086   0.149   4.041   1.304  2.0388 -0.7442  0.9890
    1TCq1    H314087   0.132   3.628   1.345  1.1765  0.4544  0.6637
    1TCq1    H414088   4.612   3.816   1.051  0.5771  0.3799  0.0542
    2MPD1     C14089   4.358   3.261   0.930 -0.0586 -0.3982 -0.5962
    2MPD1    C114090   4.311   3.392   0.906 -0.0659 -1.0318 -0.7613
    2MPD1    C214091   4.374   3.499   0.975  0.0165  0.1153 -0.3622
    2MPD1    C314092   4.498   3.477   1.036 -0.5760  0.0018  0.7441
    2MPD1    C414093   4.547   3.349   1.048 -0.1559  0.2816  0.0440
    2MPD1    C514094   4.478   3.240   1.000 -0.1560 -0.1149  0.3634
    2MPD1     H14095   4.352   3.604   0.968  1.6776  0.5564  0.7921
    2MPD1    H114096   4.633   3.308   1.100 -1.3950 -0.4071  1.5280
    2MPD1    H214097   4.297   3.176   0.901 -0.0825 -0.3141 -0.7897
    2MPD1    H314098   4.511   3.139   1.024 -0.6441 -0.5881 -0.9396
    2MPD1     N14099   4.559   3.584   1.100  0.5287 -0.0044 -0.5223
    2MPD1    H514100   4.499   3.666   1.106 -1.5080 -1.6635  1.5003
    2MPD1    N114101   4.182   3.414   0.850  0.3075 -0.0719  0.1439
    2MPD1    H614102   4.153   3.332   0.796  0.5275  0.6746 -1.1057
    2MPD1    H714103   4.181   3.495   0.788 -2.9748 -0.5060 -0.3486
    1MPD1     C14104   2.369   1.693  11.945 -0.1338  0.3760 -0.1249
    1MPD1    C114105   2.502   1.695  11.986 -0.3565 -0.3636  0.4994
    1MPD1    C214106   2.563   1.813  12.003  0.0019  0.4298  0.2970
    1MPD1    C314107   2.486   1.926  12.016 -0.0018  0.1048  0.5149
    1MPD1    C414108   2.345   1.921  11.993 -0.0162  0.1261 -0.0190
    1MPD1    C514109   2.290   1.803  11.956  0.6749  0.1254 -0.0383
    1MPD1     H14110   2.672   1.814  11.994  0.0893 -0.6472  1.2950
    1MPD1    H114111   2.265   1.992  12.008 -2.3833 -2.1622 -1.9764
    1MPD1    H214112   2.324   1.597  11.921 -1.5027  1.0916 -0.4379
    1MPD1    H314113   2.187   1.800  11.920  1.1660  0.8427 -1.5052
    1MPD1     N14114   2.552   2.041  12.056 -0.2276 -0.5295 -0.2415
    1MPD1    H514115   2.652   2.040  12.076 -0.0675 -1.6128 -1.1206
    1MPD1    N114116   2.577   1.575  11.977 -0.0553  0.2643 -0.0720
    1MPD1    H614117   2.653   1.577  12.044 -0.9677  1.1856  0.9247
    1MPD1    H714118   2.520   1.495  12.005  1.3150 -0.5689  0.3174
    2MPD1     C14119   2.231   2.496  11.644 -0.3019 -0.3748 -0.2550
    2MPD1    C114120   2.190   2.442  11.520  0.0433 -0.3582 -0.3034
    2MPD1    C214121   2.284   2.386  11.438  0.0024  0.2665 -0.0879
    2MPD1    C314122   2.410   2.365  11.482  0.3529 -0.1660 -0.2709
    2MPD1    C414123   2.451   2.411  11.606 -0.3740 -0.2827  0.1345
    2MPD1    C514124   2.362   2.478  11.684 -0.1389 -0.3470 -0.2300
    2MPD1     H14125   2.254   2.349  11.340  1.9415  0.2162 -0.6638
    2MPD1    H114126   2.552   2.393  11.643 -0.1616  0.3594 -0.1287
    2MPD1    H214127   2.167   2.557  11.707 -0.8374 -1.5180  0.2951
    2MPD1    H314128   2.392   2.529  11.775  1.2085 -2.6481  0.6048
    2MPD1     N14129   2.509   2.283  11.418  0.6010 -0.0921  0.0755
    2MPD1    H514130   2.600   2.279  11.464  1.1787 -1.5277 -1.1670
    2MPD1    N114131   2.059   2.469  11.474  0.6008  0.2933 -0.2285
    2MPD1    H614132   1.983   2.498  11.536 -2.7258 -0.4724 -3.9394
    2MPD1    H714133   2.030   2.416  11.392 -1.2235  1.8462 -0.5789
    3MPD1     C14134   2.920   2.328  10.513 -0.1357 -0.5964 -0.2916
    3MPD1    C114135   2.819   2.400  10.585  0.2617  0.2261  0.2930
    3MPD1    C214136   2.780   2.349  10.707 -0.5989  0.6676  0.7037
    3MPD1    C314137   2.812   2.226  10.752 -0.6424  0.1722  0.2293
    3MPD1    C414138   2.899   2.147  10.675  0.5957  0.0342 -0.4739
    3MPD1    C514139   2.961   2.207  10.566 -0.0197 -0.0512  0.8194
    3MPD1     H14140   2.695   2.392  10.760 -0.5637  0.9854  0.4997
    3MPD1    H114141   2.930   2.045  10.697 -1.9803 -0.4302  1.0115
    3MPD1    H214142   2.957   2.373  10.422 -0.5810  2.4614  1.0114
    3MPD1    H314143   3.039   2.163  10.506 -0.7398  0.5897 -0.6008
    3MPD1     N14144   2.754   2.187  10.870 -0.1839  0.4373  0.1547
    3MPD1    H514145   2.706   2.259  10.924  0.3786 -0.2753  1.6064
    3MPD1    N114146   2.784   2.527  10.536  0.3677 -0.2150  0.2702
    3MPD1    H614147   2.804   2.553  10.440 -0.5207  0.6423  0.3188
    3MPD1    H714148   2.698   2.562  10.579 -1.4941 -2.2795 -1.7283
    4MPD2     C14149   2.872   2.639  11.683  0.1407  0.2117 -0.2703
    4MPD2    C114150   2.924   2.591  11.797  0.4065  0.3928 -0.3033
    4MPD2    C214151   3.060   2.584  11.817  0.7357 -0.1736  0.6920
    4MPD2    C314152   3.148   2.610  11.711 -0.8336  0.0150  0.1201
    4MPD2    C414153   3.089   2.653  11.587 -0.0687 -0.0593 -0.3342
    4MPD2    C514154   2.960   2.675  11.577  0.0653  0.7892 -0.6649
    4MPD2     H14155   3.092   2.559  11.918  1.4060  0.7010  0.6915
    4MPD2    H114156   3.153   2.668  11.500 -1.0497  1.1054 -0.8505
    4MPD2    H214157   2.766   2.644  11.666  0.1170  1.4265  0.1891
    4MPD2    H314158   2.932   2.721  11.483  1.7078 -0.4806 -1.7853
    4MPD2     N14159   3.280   2.589  11.728  0.7713 -0.6521 -0.1141
    4MPD2    H514160   3.307   2.526  11.804  1.0222  0.7554  0.9718
    4MPD2    N114161   2.848   2.551  11.907  0.7166 -0.0799  0.1311
    4MPD2    H714162   2.896   2.518  11.990  1.7366  0.8754 -0.0869
    5TMC3    C114163   2.670   2.499  12.044  0.1943 -0.3999 -0.4080
    5TMC3    C214164   2.570   2.402  12.030  0.0998  0.6086 -0.5137
    5TMC3    C314165   2.588   2.281  12.085  0.3644  0.0487 -0.2579
    5TMC3    C414166   2.779   2.482  12.118  0.1630 -0.0436 -0.8331
    5TMC3    C514167   2.799   2.357  12.167  0.4367  0.0737  0.4214
    5TMC3    C614168   2.710   2.253  12.150  0.0489 -0.1451  0.4409
    5TMC3     C14169   2.709   2.554  11.913  0.4835 -0.7027 -0.7192
    5TMC3     O14170   2.619   2.586  11.840  0.4100 -0.3938 -0.0214
    5TMC3     H14171   2.495   2.427  11.955  0.1772  1.7824 -0.1911
    5TMC3    H114172   2.843   2.568  12.132  0.1561  0.0597 -1.4309
    5TMC3    H214173   2.720   2.150  12.184 -2.6091  0.4975  3.0978
    5TMC3    C714174   2.943   2.330  12.163 -0.5311  0.3159  1.0779
    5TMC3    C814175   2.501   2.170  12.044 -0.5552  0.1359 -0.2004
    5TMC3    O114176   3.007   2.423  12.115 -0.0942 -0.3763 -0.4597
    5TMC3    O214177   2.402   2.210  11.980  0.7118 -0.7654  0.2962
    6TMC3    C114178   2.617   2.167  11.236  0.3002 -0.4984  0.7161
    6TMC3    C214179   2.627   2.147  11.096  1.0491 -0.0586 -0.5823
    6TMC3    C314180   2.732   2.070  11.068  0.6367  0.0003 -0.2441
    6TMC3    C414181   2.686   2.098  11.327  0.5289 -0.2272  0.3512
    6TMC3    C514182   2.791   2.016  11.286  0.6374  0.2649 -0.0904
    6TMC3    C614183   2.813   2.004  11.150  0.4763  0.9588  0.5939
    6TMC3     C14184   2.499   2.232  11.285 -0.0630  0.2199  0.2028
    6TMC3     O14185   2.416   2.254  11.204  0.0351 -0.1748  0.2528
    6TMC3     H14186   2.568   2.199  11.022  1.8828  0.0637 -1.1581
    6TMC3    H114187   2.672   2.096  11.435  0.0456 -2.1409  0.2464
    6TMC3    H214188   2.897   1.947  11.112  1.1256  0.9566  2.0322
    6TMC3    C714189   2.908   2.000  11.370  0.0960 -0.1748 -0.8879
    6TMC3    C814190   2.780   2.066  10.930  0.0480 -0.2931 -0.3704
    6TMC3    O114191   2.937   2.093  11.442 -0.3205  0.8054 -0.4533
    6TMC3    O214192   2.857   1.974  10.896 -0.4250  0.0066 -0.2490
    7MPD2     C14193   3.311   2.001  12.071 -0.6214  0.2509  0.3185
    7MPD2    C114194   3.309   2.141  12.052 -0.3041  0.0935 -0.2953
    7MPD2    C214195   3.201   2.212  12.103 -0.1449  0.2010  0.3129
    7MPD2    C314196   3.096   2.141  12.159  0.1108 -0.0988  0.5205
    7MPD2    C414197   3.105   2.006  12.187  0.3127 -0.5277 -0.5252
    7MPD2    C514198   3.211   1.938  12.146  0.0945 -0.2809  0.2559
    7MPD2     H14199   3.193   2.320  12.093  1.9868  0.2045 -1.4229
    7MPD2    H114200   3.035   1.962  12.257  0.0015  2.3880  0.9838
    7MPD2    H214201   3.396   1.950  12.026 -1.4913 -2.5376  1.8372
    7MPD2    H314202   3.228   1.838  12.184  0.7551 -1.0156 -1.9495
    7MPD2     N14203   2.978   2.200  12.189 -0.7385  0.7176  0.4879
    7MPD2    H514204   2.912   2.138  12.236  0.0147  0.2594  0.9509
    7MPD2    N114205   3.410   2.203  11.972 -0.8669 -0.0075 -0.9267
    7MPD2    H714206   3.472   2.135  11.929  0.3694  0.1287  0.6249
    8TMC3    C114207   3.499   2.356  11.813  0.3282 -0.5564  0.5361
    8TMC3    C214208   3.491   2.258  11.718 -0.2226 -0.0485 -0.0148
    8TMC3    C314209   3.478   2.288  11.586  0.9457  0.2688 -0.5029
    8TMC3    C414210   3.500   2.490  11.781  0.2368  0.2448  0.8284
    8TMC3    C514211   3.483   2.513  11.651  0.3086 -0.9298  0.1475
    8TMC3    C614212   3.465   2.419  11.553  0.3253  0.8298  0.4263
    8TMC3     C14213   3.424   2.341  11.936  0.6699 -0.0909  0.2680
    8TMC3     O14214   3.365   2.443  11.969  0.7210  0.5801 -0.0688
    8TMC3     H14215   3.473   2.153  11.738 -0.7872  0.0814  0.1735
    8TMC3    H114216   3.506   2.572  11.851  0.8558 -0.9909  2.2267
    8TMC3    H214217   3.431   2.445  11.453  0.7534 -0.8316 -0.1542
    8TMC3    C714218   3.383   2.615  11.633 -0.6339  0.0184  0.0761
    8TMC3    C814219   3.379   2.204  11.511  0.0687  0.7973 -0.0283
    8TMC3    O114220   3.382   2.665  11.520 -0.6690 -0.2788  0.0602
    8TMC3    O214221   3.284   2.268  11.474 -0.5926 -1.0758 -0.5810
    9MPD2     C14222   3.412   1.856  11.389  0.5476 -0.7100 -0.4758
    9MPD2    C114223   3.341   1.971  11.426  0.1201 -0.2064 -0.0122
    9MPD2    C214224   3.204   1.989  11.406 -0.0361 -0.4294  0.4413
    9MPD2    C314225   3.129   1.883  11.354 -0.0536  0.6912  0.4007
    9MPD2    C414226   3.196   1.764  11.322  0.3834  0.2298  0.2852
    9MPD2    C514227   3.333   1.749  11.343  0.0439  0.2969 -0.0790
    9MPD2     H14228   3.156   2.081  11.435  3.8495  2.1307 -1.2178
    9MPD2    H114229   3.151   1.686  11.263  1.0551 -1.2020  1.6582
    9MPD2    H214230   3.519   1.852  11.408  0.9996  2.5112 -2.3288
    9MPD2    H314231   3.386   1.668  11.293 -0.9078 -1.4858  1.8169
    9MPD2     N14232   2.990   1.898  11.330 -0.1038 -0.3965 -0.4481
    9MPD2    H514233   2.950   1.816  11.286 -1.7224 -0.2167  0.7037
    9MPD2    N114234   3.414   2.071  11.495 -0.2542  0.2668 -0.2449
    9MPD2    H714235   3.513   2.048  11.498 -0.3486 -0.0898  0.1282
    1MPD1     C14236   2.830   2.106  16.599 -0.0409 -0.4483  0.1292
    1MPD1    C114237   2.903   1.991  16.622 -0.9076 -0.0532 -0.1065
    1MPD1    C214238   2.827   1.885  16.670  0.1835  1.0732  0.2151
    1MPD1    C314239   2.686   1.892  16.679  0.7734 -0.6626  0.0355
    1MPD1    C414240   2.625   2.010  16.655  0.0770  0.9622  0.1884
    1MPD1    C514241   2.695   2.118  16.624 -0.0470 -0.2247  0.3611
    1MPD1     H14242   2.879   1.790  16.677  0.3916  1.0980 -0.9896
    1MPD1    H114243   2.518   2.022  16.657 -0.3734 -3.0635  1.0354
    1MPD1    H214244   2.874   2.194  16.552  3.5272 -0.6768  3.0464
    1MPD1    H314245   2.647   2.208  16.589 -0.7736 -0.6534  0.2588
    1MPD1     N14246   2.601   1.781  16.704  0.1437  0.0958  0.1369
    1MPD1    H514247   2.501   1.799  16.709  0.4876  2.2763 -1.0504
    1MPD1    N114248   3.034   1.985  16.580  0.1025 -0.6620 -0.3319
    1MPD1    H614249   3.076   2.077  16.590 -4.1416  1.0770  1.2253
    1MPD1    H714250   3.083   1.920  16.641  1.6435  1.0414  0.2263
    2MPD1     C14251   2.585   0.740  16.679 -0.0501  0.7233  0.3396
    2MPD1    C114252   2.699   0.818  16.714 -0.4087  0.1531  0.6546
    2MPD1    C214253   2.674   0.952  16.729  0.2131  0.2362  0.3048
    2MPD1    C314254   2.549   1.009  16.730  0.4948 -1.0002 -0.2581
    2MPD1    C414255   2.440   0.927  16.715  0.2879  0.3720  0.7168
    2MPD1    C514256   2.468   0.794  16.691 -0.7293  0.1834 -0.4989
    2MPD1     H14257   2.758   1.019  16.741 -0.2611  0.8673  0.1077
    2MPD1    H114258   2.337   0.959  16.712  0.0524 -0.4924 -0.3001
    2MPD1    H214259   2.592   0.636  16.649 -0.8307  0.9263 -0.5320
    2MPD1    H314260   2.381   0.735  16.664 -0.9668  0.4039 -0.2145
    2MPD1     N14261   2.531   1.148  16.761 -0.2983 -0.3838 -0.3289
    2MPD1    H514262   2.616   1.192  16.794  0.0168 -1.0471 -0.2435
    2MPD1    N114263   2.826   0.776  16.686  0.1008  0.6819  0.1326
    2MPD1    H614264   2.896   0.823  16.744 -0.5348  0.7325  0.8635
    2MPD1    H714265   2.837   0.676  16.701  3.3215  1.5593  3.7239
    3TCq2    C114266   2.412   1.218  16.769  0.3328 -0.1906  0.5971
    3TCq2    O214267   2.300   1.168  16.759 -0.2234  0.1448  0.3006
    3TCq2    C214268   2.423   1.357  16.806 -0.2368  0.5214 -0.2738
    3TCq2    C314269   2.308   1.415  16.848  0.6437 -0.2043 -0.1095
    3TCq2    C414270   2.310   1.548  16.859 -0.2685  0.2044  0.4889
    3TCq2    C514271   2.414   1.627  16.818 -0.3074 -0.3960 -0.1955
    3TCq2    C614272   2.527   1.564  16.768 -0.8802  0.7400  0.3045
    3TCq2    C714273   2.534   1.428  16.763  0.7332 -0.0307 -0.2858
    3TCq2    C814274   2.636   1.651  16.735  0.3114 -0.3027 -0.3447
    3TCq2    O414275   2.743   1.596  16.725 -0.1823 -1.2051 -0.2948
    3TCq2    C914276   2.188   1.602  16.899 -0.2093  1.0292  0.2164
    3TCq2    O514277   2.127   1.535  16.984 -0.2007  0.0130 -0.4193
    3TCq2    O614278   2.154   1.709  16.840  0.2981 -0.8339  0.0938
    3TCq2    H214279   2.223   1.355  16.878  0.1532  0.1336 -0.8289
    3TCq2    H314280   2.412   1.732  16.844  0.8984 -0.5579  0.5420
    3TCq2    H414281   2.631   1.395  16.727  1.3489 -1.2735  2.5412
    1TCq1    O114282   4.527   0.448  12.964  0.5165  0.2724 -0.3753
    1TCq1    C114283   4.587   0.344  12.899  0.3338  0.5154  0.0167
    1TCq1    O214284   4.530   0.266  12.826 -0.2056 -0.8682 -0.2243
    1TCq1    C214285   0.002   0.360  12.897  0.7017 -0.2407  0.4344
    1TCq1    C314286   0.071   0.292  12.799  0.5638 -0.1078 -0.1826
    1TCq1    C414287   0.208   0.292  12.812 -0.6206 -0.6268  0.2817
    1TCq1    C514288   0.273   0.364  12.911  0.3059 -0.8312  0.4964
    1TCq1    C614289   0.195   0.437  12.999  0.8444 -0.6068  0.6343
    1TCq1    C714290   0.060   0.436  12.999  0.1961  0.3991 -0.0767
    1TCq1    C814291   0.272   0.496  13.107  0.4366  0.3441 -0.7627
    1TCq1    O414292   0.222   0.594  13.162 -0.3073  0.0592 -0.3301
    1TCq1    C914293   0.293   0.225  12.712 -0.2965  0.1600 -0.7080
    1TCq1    O514294   0.243   0.153  12.618  0.2686 -0.0366  0.1796
    1TCq1    O614295   0.415   0.219  12.746 -0.2597  0.7675 -0.1686
    1TCq1    H114296   4.592   0.513  13.000  0.3152  0.7350 -0.8408
    1TCq1    H214297   0.025   0.218  12.735 -1.6465 -1.5083  3.0051
    1TCq1    H314298   0.379   0.385  12.898  0.0990 -0.0836 -0.0042
    1TCq1    H414299   0.002   0.461  13.088 -0.9484  1.5465 -1.1449
    2MPD2     C14300   0.475   0.575  13.307  0.2582 -0.3847  0.6131
    2MPD2    C114301   0.473   0.452  13.236  0.7361  0.4675 -0.2492
    2MPD2    C214302   0.573   0.365  13.263  0.5463  0.6310  0.4629
    2MPD2    C314303   0.684   0.396  13.342 -0.3842 -0.4402 -0.0445
    2MPD2    C414304   0.681   0.521  13.408 -0.0051  0.1941  0.7030
    2MPD2    C514305   0.575   0.609  13.391  0.4601 -0.5250  0.4745
    2MPD2     H14306   0.562   0.266  13.222 -0.3005  0.4827  1.0518
    2MPD2    H114307   0.755   0.564  13.474 -0.7430  1.1611  0.8864
    2MPD2    H214308   0.399   0.650  13.288  2.1585  1.8988  2.1610
    2MPD2    H314309   0.568   0.699  13.450  1.1669  0.3462 -0.7665
    2MPD2     N14310   0.784   0.298  13.352  0.3908  1.0994 -0.1722
    2MPD2    H514311   0.773   0.216  13.294  1.7160  0.3661  0.6237
    2MPD2    N114312   0.369   0.412  13.151 -0.4609 -0.1793  0.6926
    2MPD2    H714313   0.383   0.326  13.098  1.8545  0.7146 -0.1828
    3TCq1    O114314   1.094   4.574  13.122 -0.3917  0.4650 -0.0787
    3TCq1    C114315   0.991   4.580  13.210 -0.6142  0.2579 -0.0018
    3TCq1    O214316   0.878   4.559  13.171  0.0378  0.0925  0.7913
    3TCq1    C214317   1.022   4.700  13.296  0.1896 -0.0434 -0.0601
    3TCq1    C314318   1.150   4.703  13.339 -0.3001 -0.2856  0.0124
    3TCq1    C414319   1.181   0.072  13.425  0.6661  0.2067 -0.5130
    3TCq1    C514320   1.095   0.164  13.464  0.4217 -0.3077  0.4345
    3TCq1    C614321   0.972   0.174  13.404  0.4626 -0.0462  0.1817
    3TCq1    C714322   0.932   0.070  13.321  0.7499  0.2064  0.1249
    3TCq1    C814323   0.897   0.297  13.429  0.3596 -0.2178 -0.1830
    3TCq1    O414324   0.921   0.377  13.517  0.1502  0.1564  0.4001
    3TCq1    C914325   1.319   0.075  13.463 -0.4770  0.4971 -0.1600
    3TCq1    O514326   1.400   4.720  13.409  0.1029 -0.0520  0.0624
    3TCq1    O614327   1.342   0.141  13.567 -0.0203 -0.4540  0.1370
    3TCq1    H114328   1.166   4.636  13.145  1.5034 -1.8339  0.2543
    3TCq1    H214329   1.213   4.614  13.338  1.8377  1.2245  0.1202
    3TCq1    H314330   1.134   0.256  13.505  0.7935 -1.8289  3.4401
    3TCq1    H414331   0.842   0.075  13.261 -0.3250  0.3051  1.7609
    1MPD2     C14332   0.477   1.059  15.314 -1.0939 -0.4691 -0.2137
    1MPD2    C114333   0.356   1.021  15.263  0.5729 -0.2883  0.1481
    1MPD2    C214334   0.302   0.893  15.289  1.0620  0.7321 -0.2580
    1MPD2    C314335   0.372   0.801  15.361  0.3635 -0.3608  0.5119
    1MPD2    C414336   0.490   0.843  15.424  0.0666 -0.3344 -0.1653
    1MPD2    C514337   0.538   0.976  15.407 -0.7597 -0.1473 -0.7439
    1MPD2     H14338   0.201   0.869  15.257  0.9710  1.2664 -0.3778
    1MPD2    H114339   0.544   0.771  15.484 -0.9405 -1.4389 -0.5897
    1MPD2    H214340   0.507   1.163  15.311 -1.3265 -0.4152 -0.7206
    1MPD2    H314341   0.625   1.010  15.461 -0.8288 -0.3516 -0.5038
    1MPD2     N14342   0.334   0.666  15.385 -0.4139  0.0750 -0.9718
    1MPD2    H514343   0.394   0.598  15.432 -0.7650  2.4150  2.8244
    1MPD2    N114344   0.282   1.116  15.195  0.4269  0.7860  0.3221
    1MPD2    H714345   0.328   1.205  15.182 -2.9809  2.1570 -2.4336
    2TMC3    C114346   0.087   1.207  15.080 -0.2041 -0.8588  0.5144
    2TMC3    C214347   4.683   1.182  15.082 -0.7789  0.1688  0.4039
    2TMC3    C314348   4.614   1.176  14.961  0.0401  0.1334  0.1381
    2TMC3    C414349   0.155   1.243  14.971  0.0685 -0.8701  0.1549
    2TMC3    C514350   0.079   1.268  14.866 -0.2241 -0.4103  0.9845
    2TMC3    C614351   4.676   1.241  14.854 -0.3282 -0.7559  0.1411
    2TMC3     C14352   0.150   1.101  15.153 -0.6206 -0.1301  0.5295
    2TMC3     O14353   0.073   1.009  15.174 -0.1808 -0.3503 -0.8831
    2TMC3     H14354   4.623   1.171  15.172  1.1687  0.1956  1.6980
    2TMC3    H114355   0.255   1.283  14.982 -0.0747 -0.2633 -0.7872
    2TMC3    H214356   4.634   1.236  14.754 -2.8286 -1.0503  1.1896
    2TMC3    C714357   0.129   1.361  14.771  0.0571 -0.0004  0.2356
    2TMC3    C814358   4.555   1.045  14.914 -0.0019 -0.5496  1.0092
    2TMC3    O114359   0.047   1.445  14.739 -0.7536 -0.1196  0.1522
    2TMC3    O214360   4.494   1.041  14.806 -0.0578 -0.5537  0.0861
    3TCq1    O114361   1.247   1.661  14.725 -0.4697  0.0674  0.1415
    3TCq1    C114362   1.218   1.702  14.601  1.0138  0.2589  0.3385
    3TCq1    O214363   1.205   1.820  14.572 -0.2101  0.9000 -0.4867
    3TCq1    C214364   1.125   1.601  14.558  0.0033  0.5048  0.3317
    3TCq1    C314365   1.156   1.474  14.571  0.3423  0.1605  0.1781
    3TCq1    C414366   1.060   1.383  14.570  0.3724 -0.6450 -0.1653
    3TCq1    C514367   0.932   1.412  14.534 -0.1382 -0.3734 -0.0994
    3TCq1    C614368   0.903   1.547  14.519 -0.5496  0.3431 -0.1715
    3TCq1    C714369   0.997   1.645  14.526  0.1964  0.1890  0.1786
    3TCq1    C814370   0.764   1.597  14.501  0.2796  0.8221 -0.2951
    3TCq1    O414371   0.741   1.682  14.418  0.7169  0.6657 -0.0726
    3TCq1    C914372   1.097   1.251  14.609 -0.9893 -0.5102  0.0635
    3TCq1    O514373   1.214   1.214  14.587  0.3528 -0.1449 -0.0593
    3TCq1    O614374   1.004   1.170  14.629  0.1510  0.0555 -0.2703
    3TCq1    H114375   1.215   1.571  14.749 -0.9450  0.6417  1.6834
    3TCq1    H214376   1.257   1.454  14.604  1.3369 -0.1972 -3.0671
    3TCq1    H314377   0.858   1.333  14.539 -0.5002 -0.1283 -1.4148
    3TCq1    H414378   0.979   1.748  14.501 -1.8249  0.1428  1.4270
    4MPD2     C14379   0.467   1.620  14.499  0.5991 -0.3109  0.4333
    4MPD2    C114380   0.544   1.528  14.574  0.0929 -0.2297  0.4662
    4MPD2    C214381   0.470   1.445  14.656 -0.1755 -0.2286  0.2278
    4MPD2    C314382   0.328   1.445  14.661  1.3836  0.0647 -0.5637
    4MPD2    C414383   0.260   1.544  14.593 -0.0092  0.0231  0.0437
    4MPD2    C514384   0.332   1.640  14.521 -0.5727 -0.1451 -0.4491
    4MPD2     H14385   0.523   1.370  14.713  0.6510  0.1785 -0.0139
    4MPD2    H114386   0.152   1.557  14.583  0.0368 -0.0218 -0.5080
    4MPD2    H214387   0.519   1.691  14.435 -0.2717 -0.1670 -0.1097
    4MPD2    H314388   0.288   1.717  14.459  0.6410  0.9670  0.0808
    4MPD2     N14389   0.265   1.357  14.751  0.0978 -0.7117 -0.3413
    4MPD2    H514390   0.327   1.294  14.800 -2.2029 -2.0280  0.8517
    4MPD2    N114391   0.679   1.517  14.572  0.2170 -0.2252  0.5795
    4MPD2    H714392   0.720   1.452  14.638 -3.9118 -1.0671  2.3396
    5TMC2    C114393   0.051   0.334  15.277 -0.3328  0.6602  0.1693
    5TMC2    C214394   0.154   0.257  15.227  0.0310 -0.1875 -0.0473
    5TMC2    C314395   0.282   0.299  15.263 -0.3225 -0.1250  0.0388
    5TMC2    C414396   0.073   0.436  15.361  0.3703  0.3147  0.4886
    5TMC2    C514397   0.202   0.472  15.398  0.2227 -0.3056  0.2483
    5TMC2    C614398   0.310   0.397  15.355 -0.6286  0.7887  0.0210
    5TMC2     C14399   4.684   0.366  15.169  0.1892 -0.1364  0.3980
    5TMC2     O14400   4.665   0.282  15.083  0.8681  0.0721  0.0383
    5TMC2     H14401   0.142   0.194  15.139 -2.4081 -0.6186  0.6087
    5TMC2    H114402   4.708   0.472  15.405  0.6494  0.0101  1.3265
    5TMC2    H214403   0.412   0.424  15.381 -0.3478 -0.2249 -0.0057
    5TMC2    C714404   0.205   0.620  15.371 -0.0217  0.4968  0.4510
    5TMC2    C814405   0.395   0.214  15.234  0.3561  0.1499 -0.4975
    5TMC2    O114406   0.100   0.673  15.332 -0.2432 -0.0337  0.1261
    5TMC2    O214407   0.512   0.250  15.222  0.4157 -0.4838 -0.2581
    5TMC2    O514408   0.376   0.106  15.314  0.4681 -0.0062 -0.0282
    5TMC2    H514409   0.281   0.081  15.325  0.6764 -0.8503 -0.1888
    6MPD2     C14410   4.448   0.752  14.906 -0.3455  0.7602 -0.0893
    6MPD2    C114411   4.533   0.812  14.994 -0.1556 -0.5553  0.0659
    6MPD2    C214412   4.592   0.723  15.079 -0.8324  0.9402 -1.3100
    6MPD2    C314413   4.580   0.587  15.076  0.2724 -0.3469 -0.1193
    6MPD2    C414414   4.487   0.531  14.986  0.0140  0.0791  0.2549
    6MPD2    C514415   4.422   0.618  14.901  0.5753 -0.0400 -0.9687
    6MPD2     H14416   4.662   0.772  15.146  0.8720 -0.7949 -1.8304
    6MPD2    H114417   4.468   0.425  14.984  1.5178 -0.1619 -1.1284
    6MPD2    H214418   4.389   0.812  14.839 -1.4000 -1.3204 -1.0135
    6MPD2    H314419   4.360   0.577  14.822 -1.4892  1.0721  0.1011
    6MPD2     N14420   4.659   0.506  15.171  0.6545 -0.3006  0.4605
    6MPD2    H514421   4.723   0.557  15.231 -0.3831 -0.0615  1.3738
    6MPD2    N114422   4.576   0.946  15.006  0.4938 -0.7088  0.1369
    6MPD2    H714423   4.641   0.973  15.079  2.7062  0.1787 -2.1771
  945NH3     N114424   0.114   1.369  10.741 -0.0759 -0.1951  0.3644
  945NH3     H214425   0.206   1.338  10.709 -0.3007 -1.5351  0.9851
  945NH3     H314426   0.076   1.432  10.672  1.5893  1.2329  0.7364
  945NH3     H414427   0.056   1.287  10.727 -0.7774  0.7190 -1.8965
  946SOD     NA14428   3.809   4.104  15.262  0.5323 -0.2733 -0.2421
  947SOD     NA14429   3.469   1.608  15.475  0.6505 -0.0489  0.2060
  948SOD     NA14430   0.187   4.178  15.809  0.2559  0.5030  0.2783
  949SOD     NA14431   1.025   0.090  12.052  0.2052 -0.4279 -0.3143
  950SOD     NA14432   4.294   2.991   9.984  0.4655  0.2530 -0.1480
  951SOD     NA14433   1.580   4.318   0.343  0.0058  0.0777 -0.2357
  952SOD     NA14434   3.855   0.184   9.981 -0.2288  0.0257  0.2901
  953SOD     NA14435   1.615   1.128   0.502  0.3739  0.0757 -0.1803
  954SOD     NA14436   3.676   2.558   8.333 -0.5823 -0.1494 -0.5523
  955SOD     NA14437   3.045   0.909  14.737  0.0993 -0.3704 -0.1003
  956SOD     NA14438   2.883   4.529   1.107  0.1706 -0.2421 -0.3799
  957SOD     NA14439   0.305   4.065  10.557  0.2920  0.1471 -0.0656
  958SOD     NA14440   1.781   0.695  14.625 -0.6073  0.3360  0.0784
  959SOD     NA14441   2.570   4.525  13.849  0.4525  0.2206 -0.4788
  960SOD     NA14442   4.562   4.149  12.964 -0.1086  0.0200 -0.2369
  961SOD     NA14443   0.986   0.433  12.564  0.1376  0.1308  0.0914
  962SOD     NA14444   0.143   0.636   2.224 -0.0164  0.0813  0.2753
  963SOD     NA14445   2.817   4.521   3.609 -0.1777 -0.3158  0.0475
  964SOD     NA14446   0.756   0.943   0.794  0.1842 -0.1718 -0.2452
  965SOD     NA14447   2.822   1.998   9.346 -0.0885 -0.6807 -0.6160
  966SOD     NA14448   1.491   0.700  14.713  0.3167 -0.1542  0.2536
  967SOD     NA14449   2.016   1.151   4.492  0.3890 -0.2638 -0.1703
  968SOD     NA14450   2.513   2.335  15.722 -0.1801 -0.0026  0.1686
  969SOD     NA14451   0.299   3.485  10.795 -0.6434 -0.3211 -0.2857
  970SOD     NA14452   0.294   1.574   7.877  0.2541  0.2952 -0.0181
  971SOD     NA14453   1.268   0.114  13.762  0.3345 -0.3156  0.2011
  972SOD     NA14454   1.145   0.446  12.313  0.1858  0.0107  0.2615
  973SOD     NA14455   0.227   2.233   1.938 -0.2634 -0.1037  0.0425
  974SOD     NA14456   0.632   2.406  12.726 -0.4506 -0.0576  0.0860
  975SOD     NA14457   1.955   2.887   7.669 -0.1203 -0.1646  0.2751
  976SOD     NA14458   3.381   0.791  11.531  0.0188 -0.2146  0.6344
  977SOD     NA14459   2.525   2.983   2.312  0.2039 -0.1562  0.3433
  978SOD     NA14460   0.389   3.728   1.695  0.1235  0.6018  0.4402
  979SOD     NA14461   2.452   3.617  12.995  0.6112  0.3198 -0.0904
  980SOD     NA14462   0.437   0.052  12.583  0.2768 -0.1672 -0.0537
  981SOD     NA14463   4.121   0.742  10.640 -0.4585  0.3494  0.0084
  982SOD     NA14464   1.302   3.193  16.988 -0.1742 -0.3991 -0.3488
  983SOD     NA14465   2.534   1.364  15.881  0.1374 -0.1516 -0.2063
  984SOD     NA14466   3.866   3.662  13.383  0.1483  0.1668  0.1694
  985SOD     NA14467   4.658   2.447   1.383 -0.1511  0.0020  0.3391
  986SOD     NA14468   3.618   0.858   0.241 -0.8068 -0.4090  0.4464
  987SOD     NA14469   2.810   0.062   1.259  0.1342 -0.0108  0.4498
  988SOD     NA14470   3.097   3.918   1.966  0.1655  0.0317  0.4053
  989SOD     NA14471   0.974   2.374   4.046 -0.6468 -0.3442  0.4619
  990SOD     NA14472   1.359   2.564   8.532 -0.1897 -0.1329  0.0057
  991SOD     NA14473   2.235   0.035  15.363 -0.7199 -0.4937 -0.3340
  992SOD     NA14474   0.117   0.892  14.524 -0.6136 -0.3840  0.0485
  993SOD     NA14475   4.338   3.438   6.874 -0.5810 -0.4502 -0.0534
  994SOD     NA14476   1.925   0.248  11.238 -0.2790  0.0220 -0.3356
  995SOD     NA14477   3.347   0.850  13.828  0.0734 -0.3744 -0.8345
  996SOD     NA14478   0.265   3.814  10.764 -0.2083  0.3828 -0.2315
  997SOD     NA14479   0.843   2.232   0.951 -0.2062  0.4733  0.5533
  998SOD     NA14480   2.944   0.014  17.393  0.2928 -0.3162 -0.1254
  999SOD     NA14481   0.793   2.509  11.384 -0.3702 -0.1989  0.2051
 1000SOD     NA14482   1.795   0.260  10.272  0.1530  0.0216  0.3458
 1001SOD     NA14483   0.927   3.818  11.583 -0.1043  0.1439  0.4341
 1002SOD     NA14484   2.765   1.856  13.694 -0.2964 -0.2650 -0.7118
 1003SOD     NA14485   1.015   1.276  11.816 -0.8004  0.0510 -0.1356
 1004SOD     NA14486   0.307   3.667  10.259 -0.2941  0.3099  0.2442
 1005SOD     NA14487   3.975   4.025  12.935  0.4265 -0.1755 -0.1213
 1006SOD     NA14488   0.691   4.422  10.496 -0.4516  0.3707  0.4004
 1007SOD     NA14489   1.558   4.112  11.603 -0.2151 -0.1232  0.4309
 1008SOD     NA14490   3.199   3.893  14.678 -0.5096 -0.1969 -0.1255
 1009SOD     NA14491   0.983   0.894  15.009  0.2372  0.5455  0.0186
 1010SOD     NA14492   0.484   3.587  10.520  0.2843  0.0444  0.1577
 1011SOD     NA14493   2.415   2.739  11.166  0.2514  0.2230 -0.0031
 1012SOL     OW14494   0.108   0.033   8.005  0.2139  0.0616 -0.4464
 1012SOL    HW114495   0.063   4.686   7.967 -2.3421  0.7816  1.0840
 1012SOL    HW214496   0.197   0.006   8.026  0.0738  1.2163  1.6586
 1013SOL     OW14497   3.955   1.214  11.396  0.0833 -0.1576 -0.1771
 1013SOL    HW114498   3.978   1.167  11.476  3.2699 -1.7150 -2.0603
 1013SOL    HW214499   4.006   1.173  11.326 -0.7992 -2.0355  0.2963
 1014SOL     OW14500   3.165   3.631  13.365  0.2230 -0.0123  0.0180
 1014SOL    HW114501   3.153   3.573  13.440 -4.9930 -0.4563 -1.1572
 1014SOL    HW214502   3.154   3.573  13.290  0.6004 -1.1807  0.8688
 1015SOL     OW14503   0.638   2.574  16.091 -0.5646 -0.1287  0.0480
 1015SOL    HW114504   0.586   2.601  16.014  1.8348  2.7798 -0.5369
 1015SOL    HW214505   0.653   2.482  16.068  1.6380 -0.0860  1.4021
 1016SOL     OW14506   4.686   2.717  10.669 -0.6359 -0.0352  0.5700
 1016SOL    HW114507   0.020   2.726  10.596 -3.5442 -1.0957 -1.9864
 1016SOL    HW214508   4.652   2.806  10.674  0.7295  0.5294 -0.0105
 1017SOL     OW14509   3.878   3.389   5.363  0.1891  0.0221 -0.3984
 1017SOL    HW114510   3.852   3.481   5.355 -0.1428 -0.2144 -1.9429
 1017SOL    HW214511   3.884   3.368   5.457 -0.1344  1.6641 -0.0064
 1018SOL     OW14512   1.554   0.534   8.806  0.0670  0.3854 -0.3070
 1018SOL    HW114513   1.553   0.500   8.896  2.9926  0.5162 -0.2289
 1018SOL    HW214514   1.626   0.496   8.756  0.3554 -0.6720  0.9045
 1019SOL     OW14515   3.922   0.118   5.230  0.2614  0.5242  0.4650
 1019SOL    HW114516   3.904   0.040   5.177  2.3009 -0.6263  1.4627
 1019SOL    HW214517   3.927   0.081   5.319 -0.0552  0.8740  0.6283
 1020SOL     OW14518   0.164   0.090   9.477 -0.3584  0.1120  0.0960
 1020SOL    HW114519   0.187   0.001   9.451 -0.7557  0.6592 -2.1207
 1020SOL    HW214520   0.178   0.079   9.571 -3.2572 -2.1568  0.2468
 1021SOL     OW14521   4.480   4.370   9.004  0.1522 -0.2222 -0.4696
 1021SOL    HW114522   4.551   4.316   9.040  1.1924 -0.4714 -2.8637
 1021SOL    HW214523   4.408   4.307   9.008 -1.1244  1.1678 -1.8399
 1022SOL     OW14524   1.092   0.622  16.423  0.3689  0.4858  0.2777
 1022SOL    HW114525   1.068   0.534  16.393 -2.2243  1.0630  0.6551
 1022SOL    HW214526   1.101   0.668  16.340 -0.5836 -1.6928 -1.0429
 1023SOL     OW14527   2.920   2.192  11.893 -0.2407 -0.1000  0.1838
 1023SOL    HW114528   2.960   2.211  11.808 -2.0988 -2.2831 -1.1826
 1023SOL    HW214529   2.988   2.156  11.951 -1.0876 -1.9350  0.0420
 1024SOL     OW14530   2.696   3.017   5.966  0.2289  0.6835 -0.1221
 1024SOL    HW114531   2.636   2.972   6.027  0.0037  2.9772  1.3467
 1024SOL    HW214532   2.632   3.040   5.899  0.8497  0.1022 -0.9184
 1025SOL     OW14533   1.280   3.236   8.195 -0.2670 -0.2004  0.4207
 1025SOL    HW114534   1.225   3.275   8.263  0.3961  1.2368  0.1214
 1025SOL    HW214535   1.355   3.199   8.241 -0.5257 -1.7223 -0.3727
 1026SOL     OW14536   4.718   0.543   6.746 -0.8453  0.0003  0.0333
 1026SOL    HW114537   4.673   0.521   6.827 -0.7650  0.9715  0.3424
 1026SOL    HW214538   4.645   0.543   6.685 -1.3823  0.2694  0.6843
 1027SOL     OW14539   4.615   1.870   3.733  0.1498 -0.1342  0.3058
 1027SOL    HW114540   4.618   1.804   3.665  0.7558  0.3961 -0.1829
 1027SOL    HW214541   4.594   1.824   3.814 -0.5148 -0.5793 -0.1216
 1028SOL     OW14542   2.276   2.381  13.655 -0.6030  0.1265  0.6599
 1028SOL    HW114543   2.281   2.290  13.629  1.9697  0.3494  0.4042
 1028SOL    HW214544   2.186   2.389  13.686 -0.2683 -0.6544  1.8203
 1029SOL     OW14545   2.166   0.381   3.039 -0.7259 -0.7670  0.8611
 1029SOL    HW114546   2.115   0.393   2.959  0.9499 -3.7262 -0.6187
 1029SOL    HW214547   2.157   0.290   3.067  0.5569 -0.7493  1.3488
 1030SOL     OW14548   0.426   0.605   7.596 -0.0177 -0.4110  0.3421
 1030SOL    HW114549   0.397   0.519   7.566 -2.9805 -0.5574  3.5873
 1030SOL    HW214550   0.355   0.664   7.570  1.6383  0.8706 -1.2338
 1031SOL     OW14551   3.271   0.304  16.361  0.1007  0.1105 -0.5537
 1031SOL    HW114552   3.259   0.359  16.283  0.3104  1.9544  0.7325
 1031SOL    HW214553   3.181   0.272  16.362 -0.3441  1.2931 -2.1603
 1032SOL     OW14554   2.005   3.183   7.420 -0.5161 -0.5866  0.3608
 1032SOL    HW114555   2.015   3.234   7.500  1.1272 -0.6942  0.2155
 1032SOL    HW214556   2.087   3.138   7.399 -0.2817  0.7428 -1.6175
 1033SOL     OW14557   3.696   2.485   2.155  0.1609  0.3400 -0.0769
 1033SOL    HW114558   3.645   2.507   2.078 -0.8911  2.3026  1.1724
 1033SOL    HW214559   3.629   2.508   2.220  0.0237  2.3265 -0.9175
 1034SOL     OW14560   0.265   2.932  11.542  0.3510 -0.7338 -0.3217
 1034SOL    HW114561   0.251   2.999  11.609  0.9699 -1.6104  0.6909
 1034SOL    HW214562   0.212   2.963  11.469  0.0859  0.2617  0.2869
 1035SOL     OW14563   4.583   2.047   4.298 -0.0599  0.1516  0.1743
 1035SOL    HW114564   4.658   2.098   4.269 -1.1658  1.3048 -0.6780
 1035SOL    HW214565   4.627   2.000   4.368 -2.7258 -1.1136  1.0363
 1036SOL     OW14566   2.473   3.811   2.557 -0.1168  0.4953 -0.2397
 1036SOL    HW114567   2.494   3.774   2.472  2.8847 -0.1301  0.7774
 1036SOL    HW214568   2.561   3.823   2.593 -0.0273 -1.1035  0.0432
 1037SOL     OW14569   2.728   3.542   4.455  0.2444 -0.0594  0.3236
 1037SOL    HW114570   2.785   3.476   4.493 -0.0428 -0.7946 -0.5203
 1037SOL    HW214571   2.687   3.574   4.535  0.4299 -0.9367  0.7625
 1038SOL     OW14572   4.112   4.046   6.317  0.1221  0.5130  0.5213
 1038SOL    HW114573   4.191   4.036   6.371  0.4892  0.2692 -0.0654
 1038SOL    HW214574   4.072   3.959   6.311  0.5451  0.3795 -0.3635
 1039SOL     OW14575   0.375   2.408   0.673 -0.5258  0.5887 -0.9602
 1039SOL    HW114576   0.310   2.410   0.743 -0.2315  1.2968 -0.7031
 1039SOL    HW214577   0.427   2.330   0.692 -1.5578  0.2417  0.4837
 1040SOL     OW14578   2.013   2.944  14.730 -0.1160  0.2173 -0.0176
 1040SOL    HW114579   1.927   2.938  14.687 -0.2236  0.0150  0.2247
 1040SOL    HW214580   2.040   3.031  14.704 -0.0032 -0.0078 -0.6633
 1041SOL     OW14581   3.444   0.136   5.057  0.5988 -0.2878 -0.0361
 1041SOL    HW114582   3.462   0.166   5.146 -3.6186 -0.0866  0.7781
 1041SOL    HW214583   3.458   0.042   5.048  1.4120 -0.1259 -0.4065
 1042SOL     OW14584   0.323   2.460   3.290  0.5826 -0.2343 -0.2771
 1042SOL    HW114585   0.397   2.399   3.293 -0.2113 -1.1646  0.9661
 1042SOL    HW214586   0.323   2.495   3.201 -0.3389  3.8225  1.3431
 1043SOL     OW14587   1.481   3.268   5.006  0.1223 -0.0353 -0.3585
 1043SOL    HW114588   1.410   3.237   4.950  0.1483  0.6599 -0.7669
 1043SOL    HW214589   1.530   3.333   4.957  0.0726 -0.0507 -0.4279
 1044SOL     OW14590   2.468   2.493   4.828 -0.2020 -0.5330  0.1508
 1044SOL    HW114591   2.405   2.522   4.762 -0.9634  0.6132  1.3784
 1044SOL    HW214592   2.468   2.577   4.874 -0.0042 -0.6500  0.3676
 1045SOL     OW14593   0.887   0.838   5.560 -0.5206 -0.0524  0.2739
 1045SOL    HW114594   0.889   0.743   5.565  0.4165 -0.0382  0.1482
 1045SOL    HW214595   0.809   0.855   5.613 -1.6614  0.2807 -1.4960
 1046SOL     OW14596   1.573   1.934   6.780  0.1834  0.2916 -0.4941
 1046SOL    HW114597   1.488   1.933   6.735 -1.1495 -0.6547  2.0034
 1046SOL    HW214598   1.552   1.868   6.847  4.4001  0.9984  1.5142
 1047SOL     OW14599   4.263   2.073   9.754  0.4308  0.3776 -0.0028
 1047SOL    HW114600   4.222   2.135   9.814  0.3994  0.8735 -0.5370
 1047SOL    HW214601   4.229   2.117   9.676 -1.4207 -0.4832  0.3211
 1048SOL     OW14602   0.728   0.923  15.736 -0.0420 -0.1482 -0.3435
 1048SOL    HW114603   0.739   0.874  15.818  1.0468  0.4476 -0.1446
 1048SOL    HW214604   0.658   0.872  15.694  0.6159 -1.7403  0.4721
 1049SOL     OW14605   4.658   0.850  11.176  0.2785  0.4486  0.0806
 1049SOL    HW114606   4.609   0.932  11.169 -0.8819 -0.1503  1.2555
 1049SOL    HW214607   4.669   0.827  11.084 -2.8990 -0.0556 -0.1493
 1050SOL     OW14608   2.156   0.676   9.546  0.0301 -0.2398  0.9109
 1050SOL    HW114609   2.170   0.650   9.637  0.9958 -0.7158  0.6186
 1050SOL    HW214610   2.115   0.600   9.505  0.4610 -0.3127  0.6230
 1051SOL     OW14611   3.258   1.636   2.390 -0.8080 -0.6834  0.2717
 1051SOL    HW114612   3.224   1.553   2.356 -1.4250  0.0328 -0.8673
 1051SOL    HW214613   3.290   1.662   2.304 -1.2573 -0.2379  0.2355
 1052SOL     OW14614   4.589   2.403   6.635  0.7258 -0.0180 -0.4345
 1052SOL    HW114615   4.661   2.398   6.698 -0.8581 -0.4750  1.3363
 1052SOL    HW214616   4.511   2.401   6.690  0.8927 -0.0952 -0.1982
 1053SOL     OW14617   0.832   2.061   6.379  0.0724  0.5150  0.0853
 1053SOL    HW114618   0.804   2.128   6.317 -1.4344 -1.4508 -1.3849
 1053SOL    HW214619   0.804   1.984   6.329  0.8504  0.5239 -0.3616
 1054SOL     OW14620   1.843   2.901   1.484  0.1221  0.2545 -0.8370
 1054SOL    HW114621   1.903   2.883   1.412  0.4344 -0.4731 -0.3915
 1054SOL    HW214622   1.895   2.924   1.561 -1.7810  2.4614 -0.2235
 1055SOL     OW14623   1.956   0.308  15.283  0.4656  0.5236 -0.0558
 1055SOL    HW114624   2.038   0.280  15.242 -1.0818 -0.4147 -2.4850
 1055SOL    HW214625   1.923   0.374  15.223  0.6369 -1.5076 -2.3587
 1056SOL     OW14626   2.914   2.923  10.550  0.0096 -0.3045  0.4236
 1056SOL    HW114627   2.975   2.898  10.480 -0.8736  0.4309 -0.6083
 1056SOL    HW214628   2.904   2.847  10.608  0.8130 -0.3160  0.5471
 1057SOL     OW14629   0.999   0.489   8.188  0.4443  0.1866 -0.1985
 1057SOL    HW114630   0.910   0.521   8.181  0.4994  0.4283  0.2404
 1057SOL    HW214631   1.020   0.478   8.095 -1.5032 -0.7513 -0.5254
 1058SOL     OW14632   4.582   4.345   8.683  0.0461  0.0697 -0.3017
 1058SOL    HW114633   4.602   4.251   8.681 -0.0978  0.0341 -0.1028
 1058SOL    HW214634   4.541   4.353   8.597 -0.2942 -1.7703 -0.3179
 1059SOL     OW14635   4.584   0.514   4.970  0.1656  0.2094  0.5517
 1059SOL    HW114636   4.598   0.432   5.019  1.6020 -1.0459 -1.9430
 1059SOL    HW214637   4.653   0.507   4.904  0.0957  0.1291  0.4864
 1060SOL     OW14638   0.412   4.429   4.870  0.3324  0.0787 -0.4720
 1060SOL    HW114639   0.460   4.401   4.947  2.2313 -2.0173 -2.4378
 1060SOL    HW214640   0.330   4.386   4.896 -1.4318  2.5164 -1.8949
 1061SOL     OW14641   0.968   1.673   8.842  0.8707  0.3154 -0.1496
 1061SOL    HW114642   0.958   1.746   8.903  1.1295 -0.4243  0.7657
 1061SOL    HW214643   0.948   1.593   8.891 -1.2455  0.8504 -0.1613
 1062SOL     OW14644   0.301   1.349   4.290  0.7490  0.2836 -0.0997
 1062SOL    HW114645   0.220   1.332   4.241  0.8230 -1.6635  0.4563
 1062SOL    HW214646   0.272   1.354   4.381  1.0703  1.5668 -0.0709
 1063SOL     OW14647   0.572   1.812   4.514  0.0224  0.2078 -0.4450
 1063SOL    HW114648   0.489   1.846   4.548 -0.7309 -1.2716 -0.8072
 1063SOL    HW214649   0.559   1.718   4.504  1.4941 -0.2511  1.9078
 1064SOL     OW14650   1.429   3.336   7.605 -0.1594  0.2542 -0.3369
 1064SOL    HW114651   1.390   3.367   7.686  0.0109 -0.4845  0.0239
 1064SOL    HW214652   1.385   3.391   7.540  0.6989 -0.7730 -1.8039
 1065SOL     OW14653   3.436   3.072  12.227  0.5082 -0.4896 -0.2768
 1065SOL    HW114654   3.503   3.004  12.218  3.1511  2.1454 -0.3599
 1065SOL    HW214655   3.485   3.152  12.206  0.0474  0.1020  0.9118
 1066SOL     OW14656   2.764   4.257   4.257 -0.2100 -0.4742  0.8441
 1066SOL    HW114657   2.723   4.179   4.221 -1.1736  1.3464 -1.9522
 1066SOL    HW214658   2.819   4.220   4.327  1.7066 -0.3431 -0.5879
 1067SOL     OW14659   0.662   0.670  10.804  0.4012  0.1674  0.5075
 1067SOL    HW114660   0.621   0.708  10.883 -1.2614  1.7521 -1.1008
 1067SOL    HW214661   0.683   0.581  10.831 -1.6553 -0.2205  0.8238
 1068SOL     OW14662   2.960   3.513   1.600 -0.2090  0.5224  0.2364
 1068SOL    HW114663   2.948   3.607   1.590 -1.8787  0.3464  0.5856
 1068SOL    HW214664   3.019   3.499   1.527 -3.3172  1.8994 -2.5533
 1069SOL     OW14665   1.184   2.400   8.955 -0.4078 -0.1756 -0.2429
 1069SOL    HW114666   1.198   2.411   9.049 -0.1539  1.0987 -0.4396
 1069SOL    HW214667   1.217   2.485   8.929  1.1886 -0.0111  2.3541
 1070SOL     OW14668   2.872   0.449   4.955 -0.3725  0.1951  0.6764
 1070SOL    HW114669   2.857   0.363   4.916  1.9510 -0.0388  0.2993
 1070SOL    HW214670   2.958   0.476   4.922 -1.3398  1.3676 -0.8185
 1071SOL     OW14671   3.089   3.574   4.495  0.3389  0.3782  0.1563
 1071SOL    HW114672   3.130   3.525   4.424 -1.1044 -0.8666  0.1796
 1071SOL    HW214673   3.050   3.499   4.540  0.8861 -0.7763 -1.3005
 1072SOL     OW14674   0.708   2.821   2.024  0.1484 -0.4014 -0.3378
 1072SOL    HW114675   0.767   2.755   1.986  0.3013 -0.2616 -0.3417
 1072SOL    HW214676   0.683   2.868   1.945  0.8153  3.1026  1.5641
 1073SOL     OW14677   1.642   1.173   3.523  0.6792 -0.2542 -0.3077
 1073SOL    HW114678   1.590   1.104   3.564  2.4216  0.4566  3.0418
 1073SOL    HW214679   1.611   1.253   3.566  1.0217  0.4863 -1.4240
 1074SOL     OW14680   0.876   2.145   8.907  0.8512  0.1358  0.4157
 1074SOL    HW114681   0.857   2.216   8.968 -0.2595  0.3570 -0.1825
 1074SOL    HW214682   0.838   2.069   8.951 -0.6859  1.0476  0.6259
 1075SOL     OW14683   2.955   0.721   5.350  0.0692  0.0428 -0.4367
 1075SOL    HW114684   2.912   0.765   5.277  2.9480  0.0055 -2.1723
 1075SOL    HW214685   2.962   0.798   5.407 -0.7108  0.6475 -1.1594
 1076SOL     OW14686   2.026   0.056  14.730  0.2456 -0.5621  0.7379
 1076SOL    HW114687   2.040   0.139  14.684 -1.7440 -0.8751 -0.4122
 1076SOL    HW214688   1.946   0.078  14.777  0.8175  3.6561 -0.2246
 1077SOL     OW14689   1.257   0.286   4.222 -0.4732 -0.0511  0.1244
 1077SOL    HW114690   1.346   0.267   4.192  0.1855  0.9898  1.4017
 1077SOL    HW214691   1.210   0.212   4.260 -0.5969  0.3371  0.7348
 1078SOL     OW14692   1.082   4.670   1.734 -0.5841 -0.1591  0.5785
 1078SOL    HW114693   1.046   0.015   1.785  0.0655  0.1082  0.6542
 1078SOL    HW214694   1.175   4.672   1.758 -0.5537  0.8481  0.3439
 1079SOL     OW14695   1.250   0.162   9.815 -0.4142  0.3592  0.1862
 1079SOL    HW114696   1.191   0.221   9.863  0.0223  0.4781  0.5919
 1079SOL    HW214697   1.184   0.105   9.777 -3.7808  1.6690  4.0362
 1080SOL     OW14698   3.594   1.314  13.041 -0.1462 -0.6217  0.4929
 1080SOL    HW114699   3.671   1.324  13.096  0.1084  0.4846 -0.0650
 1080SOL    HW214700   3.601   1.220  13.027 -2.4660 -1.0446  2.0837
 1081SOL     OW14701   0.223   3.193   2.555 -0.0658  0.2162  0.5104
 1081SOL    HW114702   0.227   3.288   2.551 -0.9374  0.1897 -0.8365
 1081SOL    HW214703   0.315   3.166   2.561  0.0673  0.8085  1.1144
 1082SOL     OW14704   3.559   0.655   5.978  0.1974  0.6232 -0.5280
 1082SOL    HW114705   3.561   0.636   5.884  0.3411 -0.9473 -0.2055
 1082SOL    HW214706   3.478   0.706   5.976  0.2129  0.6701  0.1081
 1083SOL     OW14707   1.072   1.153  17.504 -0.0721 -0.4964  0.3028
 1083SOL    HW114708   0.999   1.213  17.519 -1.5059 -1.7077 -1.7993
 1083SOL    HW214709   1.028   1.080  17.460 -0.6087  1.3189 -2.1939
 1084SOL     OW14710   4.611   4.602   6.029  0.6423  0.0485  0.1145
 1084SOL    HW114711   4.539   4.654   6.064 -0.3086 -1.4354  0.3772
 1084SOL    HW214712   4.573   4.551   5.957  2.5992  0.7078 -1.3955
 1085SOL     OW14713   2.541   1.014   4.342 -0.4474 -0.0876  0.1956
 1085SOL    HW114714   2.534   1.103   4.377  1.8337  0.6578 -1.2493
 1085SOL    HW214715   2.507   1.029   4.253  0.4856 -0.5907 -0.2462
 1086SOL     OW14716   3.642   0.859  16.116 -0.2742 -0.2091  0.7104
 1086SOL    HW114717   3.588   0.810  16.054 -0.4324 -0.4560  1.0463
 1086SOL    HW214718   3.641   0.802  16.193 -0.5460  2.2580  2.5525
 1087SOL     OW14719   1.663   4.554  16.331 -0.3787  0.1343  0.0951
 1087SOL    HW114720   1.570   4.533  16.322 -0.0983 -0.1843 -2.0020
 1087SOL    HW214721   1.658   4.645  16.303 -3.5235  0.0386  0.3120
 1088SOL     OW14722   1.401   2.993   6.909 -0.1075 -0.5751 -0.5565
 1088SOL    HW114723   1.399   3.011   6.816 -0.1472  1.7537 -0.0985
 1088SOL    HW214724   1.348   2.915   6.927 -2.5779  1.2417  0.0082
 1089SOL     OW14725   4.610   1.296   7.666  0.0014  0.3142 -0.2565
 1089SOL    HW114726   4.591   1.388   7.685 -1.1844  0.2079 -0.9204
 1089SOL    HW214727   4.574   1.297   7.577  0.6837 -1.5385 -0.5419
 1090SOL     OW14728   2.031   2.673   6.444  0.2119 -0.1540  0.1506
 1090SOL    HW114729   1.944   2.641   6.423  0.8538 -1.7116 -0.1446
 1090SOL    HW214730   2.096   2.642   6.381 -1.2111 -1.8995 -0.4514
 1091SOL     OW14731   1.025   4.146   7.044 -0.4386  0.6944  0.0748
 1091SOL    HW114732   1.109   4.166   7.002  0.1853 -0.2096  0.8899
 1091SOL    HW214733   0.967   4.187   6.980 -0.1767  0.8002 -0.0965
 1092SOL     OW14734   3.535   0.828   1.115  0.3421  0.1232  0.2532
 1092SOL    HW114735   3.600   0.893   1.091 -0.8062  0.6014 -1.5452
 1092SOL    HW214736   3.466   0.839   1.049 -0.5235 -2.0635  0.7669
 1093SOL     OW14737   3.215   2.535  13.481  0.3616 -0.0779  0.1457
 1093SOL    HW114738   3.178   2.601  13.540 -1.2352 -1.6476  0.8904
 1093SOL    HW214739   3.218   2.579  13.396 -0.9815  0.4878  0.3968
 1094SOL     OW14740   0.633   4.301   9.491 -0.3189  0.6119 -0.3398
 1094SOL    HW114741   0.541   4.306   9.466 -0.1329  3.6179 -0.4640
 1094SOL    HW214742   0.644   4.388   9.529  0.1974 -0.0456  1.0115
 1095SOL     OW14743   2.176   4.274  17.574  0.5270 -0.9867  0.7832
 1095SOL    HW114744   2.095   4.223  17.576  0.0834 -0.3761 -1.2859
 1095SOL    HW214745   2.187   4.273  17.479 -0.3267 -0.2581  0.6808
 1096SOL     OW14746   0.114   2.299  15.348 -0.1629  0.3114 -0.0976
 1096SOL    HW114747   0.129   2.347  15.429  0.0771 -1.8545  1.1364
 1096SOL    HW214748   0.066   2.220  15.374  2.1307 -0.7690  0.7978
 1097SOL     OW14749   1.575   2.796   2.508 -0.3315  0.1179  0.2290
 1097SOL    HW114750   1.527   2.719   2.478 -1.1344  0.5649  0.3671
 1097SOL    HW214751   1.656   2.799   2.457  1.7372 -1.0897  3.3652
 1098SOL     OW14752   0.592   1.246   9.894 -0.2184 -0.1618 -0.3338
 1098SOL    HW114753   0.566   1.337   9.881  2.0833  0.5433 -0.0864
 1098SOL    HW214754   0.659   1.240   9.825  0.8738 -2.8209  0.9629
 1099SOL     OW14755   0.059   0.233   7.589 -0.6032  0.3058 -0.4771
 1099SOL    HW114756   0.092   0.145   7.573  0.2386  0.3178  1.1377
 1099SOL    HW214757   0.070   0.240   7.684 -2.4190  0.2803 -0.2522
 1100SOL     OW14758   4.512   0.056   6.662 -0.2099 -0.4528  0.1105
 1100SOL    HW114759   4.496   0.133   6.608  1.2819  0.5877  1.1688
 1100SOL    HW214760   4.448   4.717   6.637  1.2945 -0.7849 -2.9198
 1101SOL     OW14761   1.125   0.396  12.760  0.6677  0.3839  0.5383
 1101SOL    HW114762   1.099   0.447  12.837  1.2234  0.1061  0.9130
 1101SOL    HW214763   1.214   0.377  12.790 -0.1696 -2.2863  1.3251
 1102SOL     OW14764   3.560   4.369   2.241  0.5631 -0.4113 -0.3450
 1102SOL    HW114765   3.465   4.363   2.235  0.4157  1.3298  0.3026
 1102SOL    HW214766   3.582   4.277   2.258  1.2859  0.1410  1.7886
 1103SOL     OW14767   1.934   4.218   1.458  0.4667 -0.4035  0.1704
 1103SOL    HW114768   1.924   4.125   1.476 -1.3254 -0.8433 -2.9343
 1103SOL    HW214769   2.023   4.233   1.491  1.3455  1.3555 -2.9631
 1104SOL     OW14770   0.328   2.205   3.173 -0.7703 -0.2028 -0.8003
 1104SOL    HW114771   0.386   2.198   3.250 -2.7948  2.6303  0.9894
 1104SOL    HW214772   0.380   2.158   3.109 -0.0792  0.2124 -0.5491
 1105SOL     OW14773   3.852   2.961   6.602 -0.1232 -0.8292  1.0303
 1105SOL    HW114774   3.942   2.939   6.577 -0.2104  0.6093 -0.5936
 1105SOL    HW214775   3.830   3.025   6.534  0.0383 -0.0144  1.7504
 1106SOL     OW14776   2.005   0.615   8.172  0.1186 -0.0359  0.7307
 1106SOL    HW114777   2.008   0.649   8.083 -0.7265  0.1103  0.7607
 1106SOL    HW214778   2.074   0.549   8.165  0.7161  0.3192  3.0839
 1107SOL     OW14779   4.610   2.642   8.510  0.3327  0.8150 -0.0196
 1107SOL    HW114780   4.538   2.618   8.451 -0.5453  4.1434 -0.2872
 1107SOL    HW214781   4.660   2.699   8.453 -0.7535 -0.8709 -2.6499
 1108SOL     OW14782   2.164   0.343   5.527 -0.0044 -0.4445 -0.2619
 1108SOL    HW114783   2.223   0.331   5.602 -0.6669  0.4209  0.3938
 1108SOL    HW214784   2.091   0.380   5.576  1.2651  1.4620  0.2070
 1109SOL     OW14785   1.388   4.559   2.904  0.3775 -0.2849 -0.3259
 1109SOL    HW114786   1.372   4.508   2.983  0.9988  0.9333  0.5859
 1109SOL    HW214787   1.301   4.598   2.892  0.6399  0.6224  0.7275
 1110SOL     OW14788   0.956   0.422   7.085  0.3099  0.0430  0.1018
 1110SOL    HW114789   0.984   0.331   7.073 -4.0171 -1.5874  2.0780
 1110SOL    HW214790   0.905   0.419   7.166 -0.5846  0.8410 -0.4302
 1111SOL     OW14791   1.408   2.655   7.792  0.1363 -0.2641  0.3102
 1111SOL    HW114792   1.401   2.740   7.748 -0.6098 -0.0780  0.8023
 1111SOL    HW214793   1.441   2.681   7.878 -0.9019  0.6861  0.4162
 1112SOL     OW14794   2.598   2.881   3.744 -0.4366 -0.5420  0.6649
 1112SOL    HW114795   2.523   2.869   3.685  0.8803 -1.2160 -0.8781
 1112SOL    HW214796   2.655   2.807   3.723  0.4025 -0.1494  1.5462
 1113SOL     OW14797   0.590   3.549   7.044  0.0697  0.0120 -0.5987
 1113SOL    HW114798   0.621   3.547   7.134 -0.9145  2.1645 -0.2357
 1113SOL    HW214799   0.657   3.592   6.990 -0.0747  1.5379  0.4658
 1114SOL     OW14800   3.864   2.656   9.437 -0.0397  0.3729 -0.6090
 1114SOL    HW114801   3.930   2.597   9.399 -0.3223  0.0444 -0.5785
 1114SOL    HW214802   3.779   2.640   9.397 -0.2356  1.6058 -0.6879
 1115SOL     OW14803   1.110   0.782   7.664  0.0493  0.1015 -0.3182
 1115SOL    HW114804   1.103   0.866   7.708  2.0244  1.5188 -2.7178
 1115SOL    HW214805   1.054   0.725   7.717 -0.0130  1.5113  1.1246
 1116SOL     OW14806   1.944   3.398  15.401 -0.2144 -0.2212  0.4481
 1116SOL    HW114807   1.868   3.427  15.351 -0.7360 -0.8445  0.8833
 1116SOL    HW214808   1.907   3.331  15.458 -0.6844 -2.1562 -2.1199
 1117SOL     OW14809   2.099   3.309   5.859  0.6319 -0.0101 -0.6594
 1117SOL    HW114810   2.191   3.282   5.862  0.3316 -0.9141  0.2968
 1117SOL    HW214811   2.095   3.370   5.932  1.1746 -0.2936 -0.3995
 1118SOL     OW14812   3.149   4.544  13.930  0.2121 -0.0289 -0.4339
 1118SOL    HW114813   3.064   4.587  13.928 -0.6829 -1.6819  1.7903
 1118SOL    HW214814   3.201   4.595  13.867  1.9968 -0.3200  0.7886
 1119SOL     OW14815   0.187   1.052   2.897 -0.3799 -0.1927  1.0625
 1119SOL    HW114816   0.132   1.124   2.868  2.8930  0.8053 -2.7415
 1119SOL    HW214817   0.244   1.085   2.967 -0.6207  0.5970  0.8890
 1120SOL     OW14818   1.417   4.724   0.509  0.2332 -0.4396 -0.2576
 1120SOL    HW114819   1.467   4.699   0.587  0.5614  0.4377 -0.1886
 1120SOL    HW214820   1.394   4.640   0.469  1.4003 -1.1563  0.5828
 1121SOL     OW14821   2.712   2.193  15.420 -0.6440  0.0785  0.4968
 1121SOL    HW114822   2.644   2.161  15.480 -1.9607 -1.1023 -1.6484
 1121SOL    HW214823   2.764   2.113  15.415  1.8123  1.6793  0.1763
 1122SOL     OW14824   3.975   1.608   6.505  0.3503 -0.2319  0.4164
 1122SOL    HW114825   3.942   1.683   6.553 -2.7466 -0.5907 -1.1013
 1122SOL    HW214826   3.974   1.545   6.577 -0.9695 -0.0446  0.5580
 1123SOL     OW14827   0.468   3.597   9.416  0.8472  0.0420 -0.0496
 1123SOL    HW114828   0.488   3.511   9.379 -1.5361 -0.7999  0.6087
 1123SOL    HW214829   0.378   3.607   9.384  0.5211 -1.9163  0.2177
 1124SOL     OW14830   1.452   2.404  12.288  0.0923 -0.1407 -0.0088
 1124SOL    HW114831   1.399   2.417  12.209 -3.2413 -0.8869  2.1191
 1124SOL    HW214832   1.528   2.352  12.262  0.4096  0.6828 -0.7348
 1125SOL     OW14833   2.643   4.645  10.775  0.3712 -0.0089 -0.2320
 1125SOL    HW114834   2.685   4.586  10.712  0.1969 -1.6908  1.2116
 1125SOL    HW214835   2.583   4.583  10.816  2.4148 -2.1018 -0.3781
 1126SOL     OW14836   1.988   1.476   7.467 -0.0116  0.2486  0.1035
 1126SOL    HW114837   1.913   1.430   7.505  0.4761 -0.7078 -0.0789
 1126SOL    HW214838   2.062   1.472   7.527  0.9367  0.6154 -1.0416
 1127SOL     OW14839   1.102   4.448   1.511  0.0312  0.0173  0.2101
 1127SOL    HW114840   1.152   4.368   1.522 -0.8805 -0.3477  1.6810
 1127SOL    HW214841   1.168   4.501   1.465  0.1678  1.2855  1.8785
 1128SOL     OW14842   2.339   2.005   7.911  0.5039 -0.2519 -0.2080
 1128SOL    HW114843   2.328   1.951   7.989 -1.3077  1.7953  0.9312
 1128SOL    HW214844   2.247   2.031   7.904  0.6059  0.6337  1.8115
 1129SOL     OW14845   2.164   1.337   2.215 -0.0765  0.2928  0.4548
 1129SOL    HW114846   2.227   1.403   2.245  0.2673  0.3075 -0.3009
 1129SOL    HW214847   2.166   1.355   2.121 -5.0565  0.0418  0.3089
 1130SOL     OW14848   0.272   1.514   3.424  0.0068  0.4519  0.0236
 1130SOL    HW114849   0.270   1.422   3.448 -0.1908  0.6433  0.7524
 1130SOL    HW214850   0.187   1.537   3.463 -0.3066  2.4020 -1.7987
 1131SOL     OW14851   1.693   0.919   5.627 -0.1510 -0.5508  0.2086
 1131SOL    HW114852   1.682   0.958   5.714 -2.5203 -1.7426  0.4498
 1131SOL    HW214853   1.628   0.976   5.587  0.6455  0.6094  0.5811
 1132SOL     OW14854   1.081   0.693  15.009  0.1369  1.0209 -0.0044
 1132SOL    HW114855   1.139   0.718  15.080  0.3994 -0.3428  0.2683
 1132SOL    HW214856   1.106   0.601  14.997 -1.0554  0.6131  0.6944
 1133SOL     OW14857   2.755   0.608   3.878 -0.3139 -0.1811  0.4082
 1133SOL    HW114858   2.722   0.520   3.863  1.2317 -0.7272  0.1933
 1133SOL    HW214859   2.826   0.607   3.814  0.5598  1.8914  1.3515
 1134SOL     OW14860   2.240   4.580  13.517 -1.1922 -0.1375 -0.0250
 1134SOL    HW114861   2.295   4.545  13.586 -0.7356  2.2562  0.8230
 1134SOL    HW214862   2.162   4.600  13.569 -1.7739 -1.6959 -0.2987
 1135SOL     OW14863   1.865   3.593  14.042 -0.6748  0.1946 -0.6333
 1135SOL    HW114864   1.789   3.565  14.092 -0.2211 -0.0931 -0.1001
 1135SOL    HW214865   1.924   3.622  14.112 -1.2924 -2.1511  0.8527
 1136SOL     OW14866   4.702   2.177   6.108 -0.0321 -0.1933  0.7304
 1136SOL    HW114867   4.639   2.234   6.063  0.2028 -0.1312  0.4796
 1136SOL    HW214868   4.703   2.091   6.065 -0.0560  0.8147 -1.2998
 1137SOL     OW14869   1.496   0.823   0.263 -0.5271  0.2633 -0.2007
 1137SOL    HW114870   1.590   0.828   0.242 -0.5696  2.1394  0.0790
 1137SOL    HW214871   1.501   0.732   0.290  0.4196  0.2634 -0.3581
 1138SOL     OW14872   0.150   1.079   3.281 -0.7875  0.4231  0.5614
 1138SOL    HW114873   0.069   1.051   3.323 -1.6592 -0.5439 -1.7969
 1138SOL    HW214874   0.113   1.159   3.244  0.5409  0.1421 -1.3365
 1139SOL     OW14875   4.432   3.298  11.392 -0.1922  0.6523  0.5672
 1139SOL    HW114876   4.355   3.320  11.338  0.3359  1.0496 -0.0264
 1139SOL    HW214877   4.396   3.299  11.481  0.3300  1.7928  0.7648
 1140SOL     OW14878   2.733   2.636   3.674 -0.0321  1.0759  0.0015
 1140SOL    HW114879   2.678   2.596   3.606  0.2495  0.5690  0.0703
 1140SOL    HW214880   2.804   2.571   3.675 -0.8802  0.1251 -1.5934
 1141SOL     OW14881   2.169   1.862   5.122 -0.3920 -1.4242  0.3756
 1141SOL    HW114882   2.171   1.789   5.183 -1.5135 -0.8236  1.1400
 1141SOL    HW214883   2.259   1.893   5.117 -1.6915  2.3911  0.3054
 1142SOL     OW14884   4.245   2.461   7.369  0.0539  0.0060 -0.0382
 1142SOL    HW114885   4.325   2.431   7.326 -0.0129 -2.1636  1.3128
 1142SOL    HW214886   4.183   2.439   7.299  1.5722  0.5437 -1.5337
 1143SOL     OW14887   0.952   1.068   7.329 -0.0244  0.3634  0.0387
 1143SOL    HW114888   1.044   1.050   7.347  0.3432  1.4458 -0.7622
 1143SOL    HW214889   0.899   0.988   7.331  1.5773 -0.6634  1.2092
 1144SOL     OW14890   0.006   3.409   3.569  0.4679  0.4930 -0.3443
 1144SOL    HW114891   0.059   3.381   3.495  0.3488  1.1948 -0.6943
 1144SOL    HW214892   0.061   3.481   3.601 -0.3907  0.2948  1.5723
 1145SOL     OW14893   1.706   4.257   3.878  0.2131 -0.2809 -0.9286
 1145SOL    HW114894   1.726   4.289   3.966  0.3490  1.0683 -1.4448
 1145SOL    HW214895   1.763   4.309   3.822 -1.1143  2.6764  0.4755
 1146SOL     OW14896   1.787   3.719   4.274  0.1900  0.2518  0.2240
 1146SOL    HW114897   1.717   3.722   4.209 -0.3227  0.4017  0.7813
 1146SOL    HW214898   1.827   3.633   4.269  1.6661  0.8060  2.4400
 1147SOL     OW14899   1.690   0.461  12.013 -0.1163  1.1199  0.0296
 1147SOL    HW114900   1.720   0.438  12.101  0.0109 -0.8703 -0.5216
 1147SOL    HW214901   1.652   0.546  12.036  0.1512  0.9565  1.0738
 1148SOL     OW14902   1.635   2.325   1.649 -0.3987 -0.2290  0.0347
 1148SOL    HW114903   1.620   2.340   1.556 -0.6996  0.3756  0.1822
 1148SOL    HW214904   1.724   2.290   1.655 -0.4682 -0.5818 -1.0383
 1149SOL     OW14905   4.368   4.724   5.046 -0.1571 -0.6867  0.0065
 1149SOL    HW114906   4.284   0.042   5.055 -0.0972  0.0226 -3.2269
 1149SOL    HW214907   4.419   0.047   4.984 -0.0896  0.4441  0.9763
 1150SOL     OW14908   1.812   4.188   9.661 -0.1367 -0.0113 -0.0672
 1150SOL    HW114909   1.838   4.096   9.656 -2.1011 -0.5199 -0.7261
 1150SOL    HW214910   1.717   4.185   9.659 -0.1784  1.3883 -0.1921
 1151SOL     OW14911   1.343   4.389   4.982  0.1087 -0.5233 -0.7723
 1151SOL    HW114912   1.348   4.301   5.019 -0.9712 -0.5597 -0.7340
 1151SOL    HW214913   1.407   4.386   4.910 -1.8984  1.0778 -2.6270
 1152SOL     OW14914   0.294   4.047   7.348 -0.0822 -0.7533 -0.6784
 1152SOL    HW114915   0.225   4.001   7.301 -1.9996  1.2670  0.1841
 1152SOL    HW214916   0.318   4.105   7.276  2.5966 -3.7134 -2.1859
 1153SOL     OW14917   0.206   1.513   3.037 -0.2632 -0.0624  0.1454
 1153SOL    HW114918   0.166   1.598   3.057 -1.3361 -0.8747  1.4385
 1153SOL    HW214919   0.238   1.526   2.948 -1.3623 -2.4217 -0.6007
 1154SOL     OW14920   1.725   0.465   7.018 -0.0288  0.6554 -0.0691
 1154SOL    HW114921   1.700   0.529   7.084  0.6613  1.2422 -0.3792
 1154SOL    HW214922   1.653   0.402   7.023 -0.9301  1.5289 -1.7038
 1155SOL     OW14923   1.681   4.120  12.873  0.1609  0.6572  0.4416
 1155SOL    HW114924   1.759   4.065  12.870 -1.4608 -1.6944  1.5834
 1155SOL    HW214925   1.699   4.197  12.818 -0.6997  0.5952  0.0767
 1156SOL     OW14926   1.417   3.321   2.627 -0.2712 -0.1805 -0.2796
 1156SOL    HW114927   1.465   3.263   2.567 -1.8842  1.6248 -3.3216
 1156SOL    HW214928   1.334   3.333   2.581 -1.1777 -0.4274  1.3004
 1157SOL     OW14929   3.979   0.368  10.838  0.0822  0.5522 -0.8162
 1157SOL    HW114930   3.918   0.409  10.899 -0.3542 -0.7138 -0.3984
 1157SOL    HW214931   4.047   0.334  10.896 -0.4095 -0.6162 -0.9091
 1158SOL     OW14932   3.265   2.787   7.291 -0.3395  0.2088 -0.1670
 1158SOL    HW114933   3.309   2.834   7.220  1.9424 -0.6810  0.6511
 1158SOL    HW214934   3.214   2.717   7.251 -0.0086  0.5603 -1.1982
 1159SOL     OW14935   0.553   1.963   3.190  0.0048  0.2832  0.4792
 1159SOL    HW114936   0.549   1.944   3.096  0.9237  0.6503  0.3621
 1159SOL    HW214937   0.472   1.924   3.222  0.6391 -0.5006  1.1363
 1160SOL     OW14938   2.748   0.629   7.856  0.1589  0.3690  0.4631
 1160SOL    HW114939   2.801   0.597   7.929  0.1504  0.1896  0.3911
 1160SOL    HW214940   2.804   0.703   7.835 -3.5333  2.9824 -0.1347
 1161SOL     OW14941   2.319   4.221   2.382 -0.0867 -0.1673 -0.8954
 1161SOL    HW114942   2.394   4.234   2.325 -0.9451  2.5484 -1.3907
 1161SOL    HW214943   2.334   4.292   2.444  0.1406 -1.1110  0.1270
 1162SOL     OW14944   3.002   0.933   0.364 -0.2186  0.1020  0.1458
 1162SOL    HW114945   3.095   0.927   0.340 -0.3544  0.1887 -0.4080
 1162SOL    HW214946   2.994   1.025   0.386 -0.7398 -0.0280  0.4951
 1163SOL     OW14947   2.101   3.956   8.978 -0.7539 -0.1468  0.6306
 1163SOL    HW114948   2.078   3.978   9.069  1.3740 -1.9639  1.6100
 1163SOL    HW214949   2.035   3.891   8.953 -1.2319  2.0700 -3.7917
 1164SOL     OW14950   3.088   2.335   4.886  0.7008 -0.1172 -0.6236
 1164SOL    HW114951   3.082   2.370   4.975 -1.1976 -0.8697 -0.4533
 1164SOL    HW214952   3.029   2.260   4.891  0.9372 -0.3111 -0.7799
 1165SOL     OW14953   1.315   1.156  14.817  0.2195 -0.1135 -0.4680
 1165SOL    HW114954   1.383   1.223  14.807  0.1810  0.3411  2.3428
 1165SOL    HW214955   1.279   1.146  14.729  3.1643 -1.7633 -1.5049
 1166SOL     OW14956   0.593   3.302   0.661 -0.2962 -0.4839  0.7906
 1166SOL    HW114957   0.660   3.348   0.610  0.1411 -1.3292  0.5930
 1166SOL    HW214958   0.576   3.237   0.593  1.4022 -1.7909  1.5924
 1167SOL     OW14959   1.951   4.623  10.204 -0.4765 -0.1909  0.4733
 1167SOL    HW114960   1.910   4.569  10.137 -0.7054  1.9401 -1.0779
 1167SOL    HW214961   1.961   4.709  10.163 -2.2809 -0.7907 -1.2305
 1168SOL     OW14962   2.616   0.093  14.468  0.6439 -0.3661 -0.2818
 1168SOL    HW114963   2.651   0.180  14.489  2.9280 -1.3078 -0.1801
 1168SOL    HW214964   2.521   0.105  14.470  0.7290  0.3072 -0.1594
 1169SOL     OW14965   3.935   1.059   7.519 -0.2080  0.6936  0.3630
 1169SOL    HW114966   3.912   1.150   7.502 -2.9570 -0.1053 -0.2230
 1169SOL    HW214967   3.950   1.019   7.433 -0.6504 -0.2100  0.7093
 1170SOL     OW14968   3.084   0.787   5.677 -0.4524  1.0045  0.2182
 1170SOL    HW114969   3.107   0.695   5.680  1.4079  1.4936  0.7655
 1170SOL    HW214970   3.074   0.799   5.771 -0.3648  2.2956  0.0639
 1171SOL     OW14971   0.015   1.469  12.165 -0.4935  0.2841 -0.5868
 1171SOL    HW114972   4.697   1.418  12.098 -0.6839 -0.5476  0.1751
 1171SOL    HW214973   0.022   1.404  12.235 -0.8228  1.7324  0.7926
 1172SOL     OW14974   3.018   3.282   0.712 -0.1890 -0.0936 -0.3837
 1172SOL    HW114975   3.050   3.224   0.643 -1.2533 -0.2342 -0.7667
 1172SOL    HW214976   3.019   3.370   0.676  1.8887  0.2007  0.4060
 1173SOL     OW14977   0.178   0.225   2.683  0.0921 -0.4904  0.1419
 1173SOL    HW114978   0.124   0.247   2.607 -0.5605  1.8073  1.2430
 1173SOL    HW214979   0.140   0.275   2.756 -0.2197  0.5129 -0.7080
 1174SOL     OW14980   3.535   2.356   2.926  0.3230 -0.1188  0.1638
 1174SOL    HW114981   3.493   2.274   2.899 -1.2393  1.1164 -1.1855
 1174SOL    HW214982   3.603   2.328   2.986  1.4391  1.1645 -0.4963
 1175SOL     OW14983   2.387   0.505   4.100  0.3486  0.5332  0.6423
 1175SOL    HW114984   2.412   0.585   4.053 -3.1520  0.5183 -1.2924
 1175SOL    HW214985   2.381   0.436   4.035 -0.3572 -1.2883  2.6531
 1176SOL     OW14986   0.215   0.504   4.246 -0.5529 -0.0144 -0.4217
 1176SOL    HW114987   0.307   0.527   4.238 -0.6906  1.5616  2.2897
 1176SOL    HW214988   0.182   0.589   4.277 -0.9877 -1.0199  1.9013
 1177SOL     OW14989   1.193   1.440   7.849  0.0572  0.0593  0.1588
 1177SOL    HW114990   1.121   1.445   7.786 -0.2185 -0.5420  0.4257
 1177SOL    HW214991   1.177   1.508   7.915 -2.0861  0.7556 -1.0630
 1178SOL     OW14992   3.833   2.735   0.787  0.6503 -0.1380  0.4458
 1178SOL    HW114993   3.758   2.694   0.744  0.3653 -0.0444  0.8585
 1178SOL    HW214994   3.904   2.677   0.760  0.4255 -0.2911  0.1775
 1179SOL     OW14995   4.070   4.496   1.741 -0.0660  0.4002 -0.0898
 1179SOL    HW114996   4.043   4.506   1.832  0.2027 -0.0673  0.0441
 1179SOL    HW214997   4.004   4.547   1.694 -0.4534  1.5371  1.6943
 1180SOL     OW14998   4.570   1.118   3.858 -0.0347 -0.8041 -0.3542
 1180SOL    HW114999   4.499   1.105   3.795  1.1590  0.6261 -1.9897
 1180SOL    HW215000   4.599   1.029   3.878 -1.4047 -0.9455  1.0397
 1181SOL     OW15001   2.805   2.165   4.226  0.2062  0.1193 -0.3117
 1181SOL    HW115002   2.820   2.123   4.311  0.9517  0.7711 -0.1089
 1181SOL    HW215003   2.894   2.175   4.192  0.2737  0.0675 -0.1492
 1182SOL     OW15004   3.904   0.409   5.319  0.2558 -0.7060  0.0836
 1182SOL    HW115005   3.971   0.405   5.388  0.2152 -0.5757  0.1309
 1182SOL    HW215006   3.895   0.322   5.279  2.2291 -0.8288 -0.1044
 1183SOL     OW15007   0.014   3.472   2.996 -0.0995  0.0294  0.0950
 1183SOL    HW115008   4.688   3.426   3.060  0.8603  1.8411  2.2033
 1183SOL    HW215009   0.006   3.413   2.921 -0.5692 -0.4746  0.5467
 1184SOL     OW15010   3.873   3.360   2.305 -0.6304 -0.0419  0.1104
 1184SOL    HW115011   3.844   3.277   2.267 -1.1876 -0.4934  1.5452
 1184SOL    HW215012   3.927   3.397   2.235  0.8730 -1.1912  0.6478
 1185SOL     OW15013   2.791   1.936  13.484  0.3203  0.3343  0.1868
 1185SOL    HW115014   2.857   1.891  13.431 -0.5419  2.3301 -2.5779
 1185SOL    HW215015   2.797   2.027  13.456  0.5854  0.0357 -0.7261
 1186SOL     OW15016   1.166   3.741   9.043  0.0792 -0.7534  0.1176
 1186SOL    HW115017   1.186   3.730   9.136  1.2766 -1.7531 -0.2570
 1186SOL    HW215018   1.225   3.813   9.020 -1.1919  0.2511  0.0299
 1187SOL     OW15019   3.599   0.078   5.953  0.5268  0.3388 -0.3280
 1187SOL    HW115020   3.635   0.101   5.867  1.7285 -0.7811 -0.1174
 1187SOL    HW215021   3.597   4.711   5.950  1.0912  0.3512 -1.2397
 1188SOL     OW15022   2.939   2.134   9.797  0.2115 -0.1037 -0.3978
 1188SOL    HW115023   2.910   2.225   9.801 -2.2779 -0.8618 -0.9884
 1188SOL    HW215024   3.026   2.149   9.833  0.5124 -2.6348 -0.0838
 1189SOL     OW15025   1.008   0.032   9.169  0.8376  0.4218  0.2339
 1189SOL    HW115026   0.996   0.121   9.138  2.3838  0.5538  0.0160
 1189SOL    HW215027   1.102   0.035   9.188  0.9841 -1.8345 -0.1299
 1190SOL     OW15028   1.209   1.433  14.872  0.2098  0.6260 -0.4889
 1190SOL    HW115029   1.200   1.462  14.963  0.6025 -0.7347 -0.0178
 1190SOL    HW215030   1.267   1.357  14.878 -1.6843 -0.6453  1.5180
 1191SOL     OW15031   2.311   4.228   3.242 -0.8889 -0.0462 -0.0112
 1191SOL    HW115032   2.315   4.143   3.286 -1.5000  0.6751  1.4418
 1191SOL    HW215033   2.261   4.208   3.163  1.8664  2.0915 -2.3074
 1192SOL     OW15034   4.442   3.766  10.272  0.7388 -0.1885 -0.6392
 1192SOL    HW115035   4.420   3.693  10.214  0.7624 -1.9351  1.5454
 1192SOL    HW215036   4.420   3.839  10.215  2.0855  1.0948  0.4729
 1193SOL     OW15037   3.973   2.765   2.141  0.6615 -0.6150  0.4670
 1193SOL    HW115038   3.945   2.837   2.084  0.4463 -1.5805 -0.6531
 1193SOL    HW215039   4.057   2.742   2.100 -0.2098 -1.0394 -1.0577
 1194SOL     OW15040   2.136   2.650   8.358 -0.5377 -0.1953  0.5438
 1194SOL    HW115041   2.230   2.664   8.358 -1.0663  3.5512 -0.0252
 1194SOL    HW215042   2.126   2.566   8.314  0.9666 -0.0432 -0.0906
 1195SOL     OW15043   3.643   1.979   6.836  0.1702  0.0274 -0.2392
 1195SOL    HW115044   3.650   1.894   6.880  0.3656 -0.4849 -1.2577
 1195SOL    HW215045   3.685   2.044   6.892  0.0319 -0.2290  0.1640
 1196SOL     OW15046   0.513   3.367   3.895  0.1906  0.1679 -0.6025
 1196SOL    HW115047   0.474   3.445   3.858  0.8086 -0.1324 -1.8771
 1196SOL    HW215048   0.606   3.391   3.898  0.0336  0.7926 -0.8115
 1197SOL     OW15049   2.950   1.174  12.566 -0.2600 -0.3391  0.3443
 1197SOL    HW115050   2.877   1.231  12.543  0.0609 -0.2423 -0.4284
 1197SOL    HW215051   2.994   1.239  12.621  2.1654 -1.8832  0.2382
 1198SOL     OW15052   1.230   0.534  12.535 -0.6874 -0.1343  0.3094
 1198SOL    HW115053   1.250   0.529  12.629 -1.1643 -4.1353  0.2016
 1198SOL    HW215054   1.314   0.544  12.492  0.3074 -1.2329  2.0068
 1199SOL     OW15055   2.726   0.205   9.817  0.4520  0.2078  0.3672
 1199SOL    HW115056   2.807   0.244   9.784 -0.2285  1.1243 -0.2153
 1199SOL    HW215057   2.682   0.287   9.840 -3.5248 -2.1365  1.0787
 1200SOL     OW15058   2.280   3.775   8.838  0.0046 -0.1885 -0.0347
 1200SOL    HW115059   2.318   3.796   8.923  0.3361  0.0184 -0.2358
 1200SOL    HW215060   2.217   3.847   8.842  1.7735  1.3071  0.5203
 1201SOL     OW15061   0.291   3.614   6.435  0.1038  0.9688 -0.0165
 1201SOL    HW115062   0.336   3.697   6.452 -1.9256  1.7516  1.5563
 1201SOL    HW215063   0.258   3.635   6.348 -1.9517 -2.5276 -0.0931
 1202SOL     OW15064   2.209   3.827   1.384 -0.9424 -0.6359 -0.6888
 1202SOL    HW115065   2.203   3.893   1.315 -1.0078  0.2117  0.1168
 1202SOL    HW215066   2.163   3.874   1.454 -1.0496 -0.2366 -1.0259
 1203SOL     OW15067   3.940   4.310   4.189 -0.0780 -0.5774 -0.1011
 1203SOL    HW115068   3.855   4.287   4.150 -0.4958  0.4309  0.2167
 1203SOL    HW215069   3.962   4.393   4.148 -0.3355 -0.6216 -0.3267
 1204SOL     OW15070   2.739   0.200  10.691 -0.3568  0.2836 -0.5529
 1204SOL    HW115071   2.680   0.220  10.618 -2.8090  0.8499  1.5871
 1204SOL    HW215072   2.717   0.108  10.705  1.1409  0.2075  1.2812
 1205SOL     OW15073   2.909   0.987   0.942 -0.0070 -0.2885 -0.1097
 1205SOL    HW115074   2.968   0.926   0.986  1.0087  1.2469  0.6843
 1205SOL    HW215075   2.936   0.973   0.851  0.6513 -0.4773  0.1144
 1206SOL     OW15076   1.074   2.678   6.031  0.4711  0.0076  0.4956
 1206SOL    HW115077   1.035   2.652   5.948 -0.6248 -0.4981  1.1741
 1206SOL    HW215078   1.164   2.701   6.009 -0.9392  2.8024 -2.2618
 1207SOL     OW15079   0.510   4.190   4.228 -0.2346 -0.2895  0.4650
 1207SOL    HW115080   0.564   4.128   4.276  0.3481  1.3917  1.9765
 1207SOL    HW215081   0.525   4.269   4.280  3.9704  0.2365 -1.5476
 1208SOL     OW15082   0.909   0.396   2.097 -0.0788 -1.0189 -0.3776
 1208SOL    HW115083   0.843   0.453   2.057  0.8341 -0.1408 -0.6474
 1208SOL    HW215084   0.861   0.366   2.174 -4.2289 -0.6398 -2.8060
 1209SOL     OW15085   2.134   0.736   7.500 -0.3277  0.3854 -0.3484
 1209SOL    HW115086   2.192   0.660   7.501 -0.6548  0.1531  0.7033
 1209SOL    HW215087   2.149   0.774   7.413 -0.0581  2.8875  0.8024
 1210SOL     OW15088   3.776   4.471   5.512  0.1569  0.1830  0.0343
 1210SOL    HW115089   3.801   4.380   5.522  0.5376  0.0699 -1.9475
 1210SOL    HW215090   3.687   4.462   5.479 -0.0368  1.6695  0.1168
 1211SOL     OW15091   3.671   4.286   5.830 -0.2042  0.5217  0.1828
 1211SOL    HW115092   3.756   4.273   5.872  0.2299  1.8598 -0.2612
 1211SOL    HW215093   3.676   4.227   5.754  2.3622  0.1060  0.6628
 1212SOL     OW15094   2.123   3.993   1.582 -0.0010  0.4251 -0.3689
 1212SOL    HW115095   2.194   4.016   1.642 -0.9913  1.5876  0.3473
 1212SOL    HW215096   2.047   3.986   1.639  0.9723 -0.8275  0.7609
 1213SOL     OW15097   4.455   1.888  15.461 -0.1339  0.0715 -0.8196
 1213SOL    HW115098   4.452   1.797  15.431  0.4542 -0.2415  0.0533
 1213SOL    HW215099   4.369   1.917  15.430  0.1721  0.9434 -0.8748
 1214SOL     OW15100   1.985   4.694   8.298  0.1493 -0.0889 -0.0353
 1214SOL    HW115101   2.011   0.011   8.217  0.6812 -0.9925 -0.3657
 1214SOL    HW215102   1.946   0.032   8.355 -0.6740  0.0286 -0.7317
 1215SOL     OW15103   0.569   0.955   3.816 -0.0217 -0.1112 -0.1769
 1215SOL    HW115104   0.601   0.898   3.886  0.0141  0.1502  0.0193
 1215SOL    HW215105   0.556   0.890   3.746 -1.0952  0.4054 -0.4539
 1216SOL     OW15106   3.009   2.202  15.551  0.5735 -0.2518  0.2945
 1216SOL    HW115107   3.000   2.181  15.644 -3.4856 -0.2844 -0.1020
 1216SOL    HW215108   2.956   2.135  15.507  1.4684 -1.3876  0.9375
 1217SOL     OW15109   3.287   4.560   5.894  0.1424  0.5571 -0.2003
 1217SOL    HW115110   3.360   4.612   5.861  1.0422  1.1802  2.8277
 1217SOL    HW215111   3.224   4.570   5.823 -0.3418  1.8270  0.4207
 1218SOL     OW15112   4.412   3.119   9.851  0.3095  0.1461  0.2025
 1218SOL    HW115113   4.433   3.139   9.760  2.1537 -2.3099  0.0905
 1218SOL    HW215114   4.461   3.188   9.897 -1.7962  0.2395  2.2684
 1219SOL     OW15115   1.561   3.574  11.532  0.1082  0.2925  0.2956
 1219SOL    HW115116   1.562   3.541  11.622  1.1524 -0.3277  0.0631
 1219SOL    HW215117   1.471   3.605  11.519  0.0883 -0.6328 -1.7671
 1220SOL     OW15118   2.726   4.398   3.817  0.0748 -0.3597 -0.2114
 1220SOL    HW115119   2.655   4.446   3.860  1.8317 -0.1826  2.4853
 1220SOL    HW215120   2.707   4.314   3.860  0.8072  0.0230  0.8764
 1221SOL     OW15121   3.210   3.494   4.881  0.2326  0.2362  0.1616
 1221SOL    HW115122   3.217   3.564   4.946 -0.2339 -0.1831  0.6726
 1221SOL    HW215123   3.300   3.482   4.851 -0.3973 -0.0259 -1.5909
 1222SOL     OW15124   4.139   2.624   5.182 -0.3162 -0.2704 -0.9006
 1222SOL    HW115125   4.157   2.647   5.091 -1.5248  1.5516 -0.6935
 1222SOL    HW215126   4.224   2.609   5.223  0.8658 -0.6058 -3.4651
 1223SOL     OW15127   0.743   2.486   6.096  0.0902 -0.5040 -0.5140
 1223SOL    HW115128   0.829   2.463   6.131 -0.4837 -0.4482  0.9453
 1223SOL    HW215129   0.713   2.398   6.120 -0.2583 -0.0510  0.7035
 1224SOL     OW15130   3.818   0.715   5.959 -0.7966  0.5602 -0.4522
 1224SOL    HW115131   3.732   0.707   5.999 -0.3010 -0.0789  0.4728
 1224SOL    HW215132   3.795   0.672   5.877  0.9007  0.2131 -0.7396
 1225SOL     OW15133   0.879   1.516  17.070  0.4550  0.4018  0.1968
 1225SOL    HW115134   0.916   1.595  17.031  2.3352  0.1410  1.4119
 1225SOL    HW215135   0.952   1.499  17.131  1.1931  1.1951 -0.4721
 1226SOL     OW15136   1.792   4.495   0.010  0.0798  0.0165  0.1296
 1226SOL    HW115137   1.815   4.403   0.021  3.0003  0.6282 -0.8405
 1226SOL    HW215138   1.743   4.511   0.090 -0.4545 -1.7621  0.1630
 1227SOL     OW15139   1.301   2.289   2.887  0.0722  0.2983  0.9611
 1227SOL    HW115140   1.381   2.261   2.931 -0.1957 -0.5154  0.9223
 1227SOL    HW215141   1.294   2.220   2.821  2.0297  0.0281  1.0350
 1228SOL     OW15142   3.300   2.724   6.618  0.1437  0.1727  0.4083
 1228SOL    HW115143   3.283   2.715   6.711  2.8340  2.3666  1.1153
 1228SOL    HW215144   3.321   2.632   6.605  3.4300  0.8396  0.9953
 1229SOL     OW15145   2.972   0.838   2.557  0.1194  0.0698 -0.1082
 1229SOL    HW115146   2.985   0.755   2.510 -0.6753 -0.6422  0.9261
 1229SOL    HW215147   3.005   0.811   2.643  1.5340  2.5523  0.1089
 1230SOL     OW15148   0.797   2.829   3.988  0.6481 -0.0102  0.4091
 1230SOL    HW115149   0.797   2.884   3.909  0.0336  1.3579  1.3674
 1230SOL    HW215150   0.705   2.804   3.992  0.6082  0.1016  0.2347
 1231SOL     OW15151   1.004   1.622   2.440 -0.1617  0.5489 -0.5542
 1231SOL    HW115152   0.989   1.717   2.448 -4.3859 -0.1983  0.0492
 1231SOL    HW215153   0.978   1.603   2.530 -2.0095  0.4640 -1.1201
 1232SOL     OW15154   1.369   2.288   6.304  0.2505 -0.6089 -0.0322
 1232SOL    HW115155   1.284   2.257   6.337  0.2153  1.3541  1.6794
 1232SOL    HW215156   1.388   2.222   6.237  0.7349  0.6679 -1.1383
 1233SOL     OW15157   0.806   4.005   7.581  0.0393 -0.1234  0.2593
 1233SOL    HW115158   0.793   3.991   7.674 -0.0342 -1.8856 -0.0152
 1233SOL    HW215159   0.724   4.047   7.557 -0.3224 -0.8871  0.1342
 1234SOL     OW15160   1.961   1.869  16.816  0.0180  0.7377 -0.5475
 1234SOL    HW115161   2.028   1.802  16.832  0.0609  0.5410 -1.5389
 1234SOL    HW215162   1.982   1.879  16.723 -0.5503 -0.8718 -0.8495
 1235SOL     OW15163   0.396   2.336   2.039  0.1872 -0.4951 -0.1838
 1235SOL    HW115164   0.414   2.413   1.985  2.3272  1.1632  2.9158
 1235SOL    HW215165   0.385   2.382   2.122 -1.0452  1.0298 -1.1781
 1236SOL     OW15166   2.049   0.804   5.521 -0.0155  0.0458 -0.4931
 1236SOL    HW115167   2.134   0.846   5.510  0.0037 -0.2401 -1.4642
 1236SOL    HW215168   2.054   0.729   5.461 -1.0502  2.0740 -3.1203
 1237SOL     OW15169   2.470   2.394   6.547 -0.1622  0.4118 -0.3276
 1237SOL    HW115170   2.467   2.299   6.536  0.6428  0.2828  0.4688
 1237SOL    HW215171   2.442   2.409   6.638  2.0374 -0.6165  0.5242
 1238SOL     OW15172   0.619   0.992   4.509  0.0661  0.7158  0.0924
 1238SOL    HW115173   0.679   1.008   4.582  0.7353  0.5099 -0.4220
 1238SOL    HW215174   0.660   1.045   4.441 -0.6614  2.5901  1.1038
 1239SOL     OW15175   0.369   2.406  12.064  0.3105  0.2074  0.1447
 1239SOL    HW115176   0.433   2.352  12.018  0.5488  0.4579  0.1811
 1239SOL    HW215177   0.386   2.386  12.156  1.5923 -1.8822 -0.5303
 1240SOL     OW15178   2.480   1.523  15.000  0.0666  0.4657  0.1818
 1240SOL    HW115179   2.419   1.451  14.987  1.0366 -0.0350 -1.6722
 1240SOL    HW215180   2.432   1.579  15.061  0.4686  1.3508 -0.3032
 1241SOL     OW15181   0.490   2.681   6.148  0.3748  0.2805  0.1931
 1241SOL    HW115182   0.404   2.691   6.108  1.8726  2.2955 -2.5116
 1241SOL    HW215183   0.548   2.635   6.087  1.2118  1.2169  0.2967
 1242SOL     OW15184   3.378   0.204   4.421  0.5200 -0.5801  0.6991
 1242SOL    HW115185   3.328   0.139   4.370 -0.9501  0.0562  1.3426
 1242SOL    HW215186   3.420   0.158   4.494  0.7322 -2.9026 -0.8767
 1243SOL     OW15187   3.893   2.486  13.071 -0.5014 -1.1232 -0.3330
 1243SOL    HW115188   3.964   2.519  13.127 -0.4246 -1.1090 -0.4371
 1243SOL    HW215189   3.944   2.417  13.028  1.8407  1.1419 -1.2249
 1244SOL     OW15190   0.745   1.467  11.293  0.4726 -0.0580  0.3023
 1244SOL    HW115191   0.772   1.548  11.249  0.7702 -0.0019  0.5947
 1244SOL    HW215192   0.834   1.433  11.302  0.0090 -1.5939 -0.8610
 1245SOL     OW15193   0.080   3.935   7.218 -0.6683  0.1811 -0.0018
 1245SOL    HW115194   0.072   3.870   7.148  0.1821 -0.1593  0.2101
 1245SOL    HW215195   0.070   4.016   7.168  1.4129 -0.7327 -1.9160
 1246SOL     OW15196   4.620   4.408   6.921  0.3883  0.2136  0.4441
 1246SOL    HW115197   4.622   4.389   6.828 -1.6201  0.0473  0.4309
 1246SOL    HW215198   4.526   4.392   6.930  0.8853 -2.2476  1.2994
 1247SOL     OW15199   0.396   0.051   5.774 -0.2839 -0.1014  0.2975
 1247SOL    HW115200   0.365   0.030   5.685 -0.8742 -2.4025  1.0374
 1247SOL    HW215201   0.331   0.120   5.784  0.0685 -0.2796  3.6083
 1248SOL     OW15202   2.593   2.965   3.218  0.0719 -0.1126  0.1392
 1248SOL    HW115203   2.510   2.922   3.198  0.7071 -0.8687 -0.8842
 1248SOL    HW215204   2.609   3.018   3.139  0.4680 -1.2486 -0.5519
 1249SOL     OW15205   2.373   0.267   3.930 -0.3205  0.3305 -0.9144
 1249SOL    HW115206   2.427   0.193   3.959  0.4526  0.9023 -0.9012
 1249SOL    HW215207   2.347   0.225   3.848 -0.8949 -0.1883 -0.4721
 1250SOL     OW15208   0.938   3.182  17.293 -0.3225 -0.3050 -0.0318
 1250SOL    HW115209   0.931   3.248  17.362  0.4921 -0.7141  0.4464
 1250SOL    HW215210   0.926   3.234  17.213 -3.4408 -0.2832  0.4502
 1251SOL     OW15211   4.611   1.168  10.728 -0.4073  0.2976 -0.2128
 1251SOL    HW115212   4.580   1.197  10.643  0.1179  0.1532 -0.4525
 1251SOL    HW215213   4.555   1.212  10.793 -3.0569 -0.0385 -2.2941
 1252SOL     OW15214   0.322   2.777   3.598  0.1106  0.3964 -0.4917
 1252SOL    HW115215   0.256   2.846   3.587 -0.3703  0.2865  1.7860
 1252SOL    HW215216   0.382   2.813   3.663  0.7066 -0.0945 -0.7726
 1253SOL     OW15217   0.190   3.004  10.978 -0.3535 -0.5369 -0.1580
 1253SOL    HW115218   0.267   3.034  10.931 -0.4899 -1.5738 -1.0269
 1253SOL    HW215219   0.126   2.984  10.910 -0.0404 -0.9706 -0.3243
 1254SOL     OW15220   0.865   3.220   3.606 -0.2871  0.0610 -0.0687
 1254SOL    HW115221   0.869   3.184   3.518  1.4308 -0.4916  0.2308
 1254SOL    HW215222   0.809   3.297   3.595 -1.6053 -1.1088 -1.4100
 1255SOL     OW15223   0.620   1.117   8.028  0.5058  0.3049  0.2030
 1255SOL    HW115224   0.639   1.179   7.957  0.0208 -1.5761 -1.5450
 1255SOL    HW215225   0.555   1.073   7.974  0.5024  2.5995 -1.6861
 1256SOL     OW15226   2.344   4.201   6.694  0.0513 -0.0929 -0.8441
 1256SOL    HW115227   2.349   4.296   6.699 -3.1858  0.0131  0.4558
 1256SOL    HW215228   2.324   4.184   6.602 -0.5198 -2.8546 -0.2205
 1257SOL     OW15229   3.238   2.062  17.425 -0.8158  0.3833 -0.1790
 1257SOL    HW115230   3.285   1.989  17.386 -0.4529  0.2878  0.4334
 1257SOL    HW215231   3.151   2.051  17.387 -1.7165 -1.7805  2.5251
 1258SOL     OW15232   3.873   3.994   2.204  0.3223 -0.0604  0.0056
 1258SOL    HW115233   3.920   4.016   2.123  2.5050 -0.7975  1.0444
 1258SOL    HW215234   3.954   3.997   2.256  0.5082  0.3414 -0.3064
 1259SOL     OW15235   1.800   3.762  15.621 -0.2338 -0.8755 -0.1672
 1259SOL    HW115236   1.818   3.668  15.625 -1.7833 -1.1906 -0.5084
 1259SOL    HW215237   1.794   3.782  15.527  0.1765  1.4322  0.3016
 1260SOL     OW15238   1.273   0.537   9.401 -0.8218 -0.0513 -0.6756
 1260SOL    HW115239   1.314   0.472   9.458 -1.2085  0.4201  0.1444
 1260SOL    HW215240   1.285   0.618   9.451 -0.2271 -0.1493 -0.6598
 1261SOL     OW15241   4.310   1.754   6.697  0.3060 -0.3068  0.2015
 1261SOL    HW115242   4.357   1.774   6.778 -1.4505  0.6280  0.9902
 1261SOL    HW215243   4.362   1.779   6.621  0.4782 -0.1564  0.3660
 1262SOL     OW15244   4.078   0.188   7.075  0.5657  0.1786 -0.0683
 1262SOL    HW115245   4.053   0.271   7.115  0.7986 -0.3032  1.0637
 1262SOL    HW215246   4.047   0.120   7.134  1.0538  0.9800  1.1048
 1263SOL     OW15247   4.705   3.822   6.603  0.6131 -0.2330  0.2323
 1263SOL    HW115248   0.040   3.852   6.536 -0.2348  1.2379  0.0957
 1263SOL    HW215249   0.026   3.748   6.639  2.4351  1.4530  1.1622
 1264SOL     OW15250   4.552   3.218   7.663 -0.5804  0.3463 -0.1413
 1264SOL    HW115251   4.461   3.239   7.643 -0.7359  0.0584  0.2652
 1264SOL    HW215252   4.581   3.295   7.711  2.8179 -2.1819  1.8775
 1265SOL     OW15253   4.270   4.689   9.490 -0.1809  0.3189 -0.1167
 1265SOL    HW115254   4.336   0.031   9.487 -0.6671  0.8498  1.2406
 1265SOL    HW215255   4.325   4.614   9.511  0.2896  0.2057 -1.8154
 1266SOL     OW15256   3.817   3.693   1.883  0.3986  0.0345  0.0421
 1266SOL    HW115257   3.753   3.653   1.942 -2.5119  3.0422 -1.0263
 1266SOL    HW215258   3.864   3.759   1.935  1.5856 -0.3068 -0.6080
 1267SOL     OW15259   4.207   2.469   2.977  0.4281  0.3803 -0.8953
 1267SOL    HW115260   4.268   2.413   2.930  0.7037  0.3810 -0.5389
 1267SOL    HW215261   4.249   2.553   2.965 -0.7912  1.0673 -0.3956
 1268SOL     OW15262   0.224   0.367   9.472 -0.0936 -0.5576  0.3292
 1268SOL    HW115263   0.240   0.277   9.443 -0.8239 -0.3188 -0.7963
 1268SOL    HW215264   0.310   0.409   9.473 -0.5041  0.2975 -0.4617
 1269SOL     OW15265   2.857   4.159   7.297 -0.1561  0.6079 -0.8246
 1269SOL    HW115266   2.884   4.201   7.215  1.5548  1.1994  0.0451
 1269SOL    HW215267   2.762   4.147   7.297 -0.2093  1.0242 -0.5844
 1270SOL     OW15268   3.820   0.976   6.447  0.4573  0.6214 -0.1126
 1270SOL    HW115269   3.793   0.991   6.356 -2.9778 -0.3096  0.7621
 1270SOL    HW215270   3.735   0.941   6.474 -1.6292  2.9670 -3.6134
 1271SOL     OW15271   1.566   0.524   0.582 -0.0420 -0.1421  0.3088
 1271SOL    HW115272   1.540   0.466   0.510 -1.3234 -0.0599  0.7009
 1271SOL    HW215273   1.593   0.467   0.653 -0.2620  0.3153  0.7587
 1272SOL     OW15274   4.397   1.898   8.517 -0.4883  0.5542 -0.0365
 1272SOL    HW115275   4.343   1.819   8.512 -1.3359  1.0608  1.1188
 1272SOL    HW215276   4.483   1.884   8.477 -1.4977  1.1158 -2.3830
 1273SOL     OW15277   4.400   1.393   9.950  0.2774  0.1601 -0.1149
 1273SOL    HW115278   4.392   1.365   9.859  1.0416  1.2640 -0.5222
 1273SOL    HW215279   4.488   1.430   9.943  0.2501  0.2296 -0.1007
 1274SOL     OW15280   4.036   3.195   5.925 -0.1607  0.3440 -0.1764
 1274SOL    HW115281   4.059   3.238   5.843 -3.1695 -0.4673 -1.4355
 1274SOL    HW215282   3.943   3.180   5.909  0.1415 -1.6767 -0.0988
 1275SOL     OW15283   0.573   0.419   4.202  0.2166 -0.2180 -0.3778
 1275SOL    HW115284   0.613   0.490   4.252 -1.7392  0.4304  0.2780
 1275SOL    HW215285   0.642   0.353   4.199  0.4441  0.0605 -1.3656
 1276SOL     OW15286   0.474   0.439   2.630 -0.3035  0.0937  0.0324
 1276SOL    HW115287   0.506   0.528   2.617 -1.7360  0.3264 -1.7363
 1276SOL    HW215288   0.435   0.458   2.715 -1.2837 -0.2092 -0.3583
 1277SOL     OW15289   1.610   4.483   6.023 -0.1556 -0.3466 -0.7345
 1277SOL    HW115290   1.631   4.451   6.110  2.3378  2.8482 -0.1597
 1277SOL    HW215291   1.519   4.454   6.024 -0.0168 -0.6936  2.0787
 1278SOL     OW15292   0.046   4.578   6.268 -0.2451 -0.1651 -0.1629
 1278SOL    HW115293   4.720   4.584   6.189  0.6945 -2.5403 -1.0115
 1278SOL    HW215294   0.035   4.668   6.298 -0.0546 -0.1512 -0.1373
 1279SOL     OW15295   1.524   3.885  12.835  0.2086  0.7274  0.7621
 1279SOL    HW115296   1.558   3.975  12.839 -0.9909  1.1572  1.3951
 1279SOL    HW215297   1.453   3.899  12.772  0.4042 -0.4264  0.2886
 1280SOL     OW15298   1.201   4.152   8.334  0.8465  0.0821 -0.2843
 1280SOL    HW115299   1.184   4.145   8.428  0.4197  2.3178 -0.1844
 1280SOL    HW215300   1.223   4.245   8.328  2.5384 -0.3002  0.0807
 1281SOL     OW15301   2.412   1.706   1.378 -0.2471  0.2976  0.1056
 1281SOL    HW115302   2.494   1.658   1.364 -1.0782 -0.7822 -1.0512
 1281SOL    HW215303   2.384   1.682   1.466  0.2561 -1.2083 -0.1519
 1282SOL     OW15304   0.780   0.757   7.010 -0.7315 -0.1150  0.2636
 1282SOL    HW115305   0.771   0.825   6.944  0.2587 -0.2216  0.0090
 1282SOL    HW215306   0.795   0.679   6.957  2.6852 -0.3773  1.6033
 1283SOL     OW15307   3.580   4.031   7.073 -0.5590 -0.1336 -0.5222
 1283SOL    HW115308   3.617   3.998   6.991  0.2745 -1.8635  0.5469
 1283SOL    HW215309   3.592   4.125   7.060  0.7836 -0.3347 -0.7574
 1284SOL     OW15310   1.797   1.718   7.538 -0.1454  0.1784 -0.4852
 1284SOL    HW115311   1.880   1.708   7.493 -0.0334 -0.9250 -0.0223
 1284SOL    HW215312   1.805   1.807   7.574  1.3257  0.0550 -0.5304
 1285SOL     OW15313   2.355   1.133   2.574 -0.0050 -0.1649  0.3409
 1285SOL    HW115314   2.342   1.224   2.602 -1.2123 -0.1036 -0.4304
 1285SOL    HW215315   2.369   1.146   2.480  0.9055 -3.0639  0.0685
 1286SOL     OW15316   4.417   0.902   5.352 -0.1909 -1.3119  0.2443
 1286SOL    HW115317   4.442   0.811   5.334  0.4197 -1.0661 -0.1627
 1286SOL    HW215318   4.350   0.913   5.285  0.0344  0.6776  0.3436
 1287SOL     OW15319   0.293   4.047  15.655  0.4378 -1.1729  0.5293
 1287SOL    HW115320   0.248   4.003  15.582  1.2035 -1.1777  0.0543
 1287SOL    HW215321   0.381   4.048  15.618  1.4750 -2.0943  3.0155
 1288SOL     OW15322   0.594   3.164   7.493 -0.5499 -0.1409 -0.0513
 1288SOL    HW115323   0.556   3.077   7.484 -1.9812  0.4050  0.7498
 1288SOL    HW215324   0.668   3.148   7.434 -0.3627  0.7788 -0.0692
 1289SOL     OW15325   3.434   0.750   1.888 -0.0936  0.0081  0.0617
 1289SOL    HW115326   3.495   0.699   1.835 -0.5163 -1.3807  0.9449
 1289SOL    HW215327   3.362   0.689   1.902  1.0846 -1.3868 -0.0352
 1290SOL     OW15328   1.877   3.359   6.513  0.5132  0.4780  0.1489
 1290SOL    HW115329   1.786   3.341   6.536  0.2871  1.3991 -0.0395
 1290SOL    HW215330   1.921   3.274   6.512  1.3050  0.8872  0.0398
 1291SOL     OW15331   1.012   2.388   2.371  0.2771 -0.1109 -0.1590
 1291SOL    HW115332   1.055   2.446   2.434 -0.4032  2.4320 -2.0310
 1291SOL    HW215333   0.920   2.414   2.365  1.3263  3.4486 -0.7869
 1292SOL     OW15334   1.609   0.765   4.610  0.2605 -0.2894 -0.1356
 1292SOL    HW115335   1.674   0.728   4.550  1.7184  0.6301  0.8579
 1292SOL    HW215336   1.629   0.859   4.603  1.8294 -0.3370  3.2928
 1293SOL     OW15337   1.649   4.644   4.773  0.0383  0.4615 -0.0165
 1293SOL    HW115338   1.590   4.568   4.763  0.1180  0.3567  0.3312
 1293SOL    HW215339   1.713   4.632   4.702  0.5220 -1.2804  0.7167
 1294SOL     OW15340   2.651   1.570   5.829  0.1061  0.1387  0.2109
 1294SOL    HW115341   2.580   1.626   5.860  0.8700  1.1811  0.1227
 1294SOL    HW215342   2.608   1.540   5.749 -0.9575  0.9172  0.4826
 1295SOL     OW15343   1.788   1.149   2.962 -0.2316 -0.2644  0.7104
 1295SOL    HW115344   1.702   1.189   2.949  0.2797  0.1235 -1.4983
 1295SOL    HW215345   1.799   1.092   2.886  0.5184  0.6059  0.1643
 1296SOL     OW15346   2.015   1.430   5.747  0.4638  0.1195  0.1370
 1296SOL    HW115347   2.074   1.354   5.747 -1.2947 -1.2494 -2.5339
 1296SOL    HW215348   1.932   1.390   5.772  1.9846 -2.5709  0.8734
 1297SOL     OW15349   3.926   1.517   3.584 -0.8793  0.1292 -0.4450
 1297SOL    HW115350   3.948   1.598   3.539 -0.5124 -1.0287 -2.3335
 1297SOL    HW215351   3.961   1.532   3.672  0.7651 -1.8113 -0.7700
 1298SOL     OW15352   2.213   1.428   9.469 -0.0674  0.1144  0.0065
 1298SOL    HW115353   2.266   1.349   9.463 -1.7399 -0.9899 -0.4246
 1298SOL    HW215354   2.135   1.399   9.422 -1.4274 -1.1545  3.0602
 1299SOL     OW15355   1.878   0.069  11.656 -0.3868 -0.0502 -0.3121
 1299SOL    HW115356   1.942   0.013  11.701 -0.0030 -0.5852 -1.5222
 1299SOL    HW215357   1.863   0.142  11.716 -0.4924 -0.1004 -0.2782
 1300SOL     OW15358   4.365   3.080   5.641 -0.0514  0.1565 -0.3558
 1300SOL    HW115359   4.322   3.016   5.584  0.4289 -2.5375  2.3417
 1300SOL    HW215360   4.292   3.123   5.685 -0.0039 -1.4329  1.2717
 1301SOL     OW15361   3.315   0.188  10.524 -0.0511 -0.1376  0.0154
 1301SOL    HW115362   3.359   0.151  10.447  1.4132  0.4453  0.5811
 1301SOL    HW215363   3.242   0.126  10.519  0.3175 -0.4414 -1.6175
 1302SOL     OW15364   1.977   3.500   5.534 -0.0592 -0.0765 -0.8776
 1302SOL    HW115365   1.908   3.444   5.569 -1.4339  1.4142 -1.2419
 1302SOL    HW215366   1.930   3.528   5.456 -0.8399  2.8153  0.6514
 1303SOL     OW15367   4.313   1.388  10.650 -0.1496 -0.3764 -0.3411
 1303SOL    HW115368   4.377   1.458  10.637 -0.6869  0.0266 -0.7888
 1303SOL    HW215369   4.278   1.390  10.739  0.9051 -0.5437  0.0754
 1304SOL     OW15370   4.639   3.104  14.803 -0.4925 -0.2873  0.0318
 1304SOL    HW115371   4.570   3.148  14.752 -1.3331 -1.0257  0.5427
 1304SOL    HW215372   4.605   3.018  14.827  1.0655 -0.4652  1.5808
 1305SOL     OW15373   0.585   4.699  13.288  0.5409 -0.0074  0.1293
 1305SOL    HW115374   0.494   4.673  13.301  0.7854 -0.3761  1.0565
 1305SOL    HW215375   0.619   4.627  13.234  2.3374  0.2373  0.9240
 1306SOL     OW15376   1.999   0.184   4.105  0.3195  0.2897 -0.3016
 1306SOL    HW115377   2.002   0.119   4.036  1.4178 -0.2784  0.2910
 1306SOL    HW215378   1.955   0.253   4.055  2.4437 -0.1212 -2.6941
 1307SOL     OW15379   4.486   4.211  17.379 -0.4410  0.1015 -0.1854
 1307SOL    HW115380   4.542   4.201  17.456 -1.7948  2.7061  1.1494
 1307SOL    HW215381   4.408   4.164  17.407 -1.7824  1.3348 -1.8501
 1308SOL     OW15382   3.867   4.328   1.977  0.1986  0.0785  0.4516
 1308SOL    HW115383   3.854   4.243   1.935  2.5334  0.0216 -0.1393
 1308SOL    HW215384   3.959   4.348   1.959  0.4928 -0.5005  1.3146
 1309SOL     OW15385   1.622   0.078  16.182  0.1112  0.2611 -0.4690
 1309SOL    HW115386   1.654   0.128  16.107 -1.8620  4.1716  1.2723
 1309SOL    HW215387   1.544   0.130  16.202  1.3397  1.7892  0.3560
 1310SOL     OW15388   1.435   2.270   2.456 -0.4572  0.0684 -0.0385
 1310SOL    HW115389   1.525   2.267   2.490  0.1072  0.5943 -1.4773
 1310SOL    HW215390   1.416   2.360   2.431 -0.5047  0.2306  0.5817
 1311SOL     OW15391   4.105   1.309   8.781 -0.3440 -0.1686 -0.5279
 1311SOL    HW115392   4.199   1.295   8.774 -0.5395 -1.3578 -0.6731
 1311SOL    HW215393   4.103   1.402   8.802  2.3850 -0.1321 -0.4922
 1312SOL     OW15394   2.489   0.866   2.215  0.5374  0.1540 -0.5493
 1312SOL    HW115395   2.460   0.957   2.214 -1.1693 -0.3732  0.8283
 1312SOL    HW215396   2.408   0.817   2.230  0.4172  0.0194 -1.6705
 1313SOL     OW15397   0.560   2.745   3.935  0.2914 -0.3566  0.3286
 1313SOL    HW115398   0.506   2.689   3.879  0.5188 -0.7372  0.4954
 1313SOL    HW215399   0.488   2.784   3.985  0.7937  2.5893 -1.1987
 1314SOL     OW15400   1.369   1.679   8.476 -0.0486  0.2020 -0.1533
 1314SOL    HW115401   1.344   1.697   8.567  1.9850  1.2041  0.1945
 1314SOL    HW215402   1.396   1.588   8.485 -0.6750  0.2241  2.0886
 1315SOL     OW15403   1.145   2.820   5.717  0.5735 -0.0550  0.0778
 1315SOL    HW115404   1.062   2.865   5.731 -0.8149 -2.8956  0.8335
 1315SOL    HW215405   1.115   2.740   5.676  2.1003 -0.3122 -0.5503
 1316SOL     OW15406   3.545   0.982   6.437 -0.0534 -0.1181  0.1997
 1316SOL    HW115407   3.506   1.045   6.498 -0.9498 -0.6218  0.1403
 1316SOL    HW215408   3.473   0.923   6.416  0.8914 -0.8220 -1.0631
 1317SOL     OW15409   4.491   1.399   3.647  0.5588  0.7192  0.3459
 1317SOL    HW115410   4.407   1.353   3.641  1.1690 -0.5109  1.2348
 1317SOL    HW215411   4.483   1.429   3.737  0.8344  3.4838 -0.5506
 1318SOL     OW15412   3.520   2.193   3.550 -0.1865 -0.1454  0.2215
 1318SOL    HW115413   3.460   2.207   3.623 -0.5437 -1.9050  0.2680
 1318SOL    HW215414   3.522   2.099   3.533  0.8177 -0.0980  0.0920
 1319SOL     OW15415   0.311   1.692   7.398  0.0238  0.4477 -0.4236
 1319SOL    HW115416   0.288   1.781   7.370  1.4840  1.0476  0.2436
 1319SOL    HW215417   0.403   1.702   7.425 -0.0074  0.3131 -0.2718
 1320SOL     OW15418   1.198   1.253   4.292  0.5904 -0.1194  0.5799
 1320SOL    HW115419   1.161   1.333   4.255  1.8390  0.6537  0.9925
 1320SOL    HW215420   1.286   1.260   4.255  0.6577 -0.5299  0.6565
 1321SOL     OW15421   1.259   1.039   8.123  0.4089 -0.0937 -0.0956
 1321SOL    HW115422   1.200   1.113   8.109 -1.0036 -0.6391  2.9891
 1321SOL    HW215423   1.323   1.068   8.188 -0.2568 -2.0212  1.4106
 1322SOL     OW15424   2.963   0.994   8.440  0.1606 -0.1960  0.3442
 1322SOL    HW115425   2.999   1.081   8.457  0.3575 -0.1293 -0.4194
 1322SOL    HW215426   3.016   0.958   8.369  0.3867 -1.1019  0.9669
 1323SOL     OW15427   4.624   2.322   9.657 -0.1891  0.9376 -0.3856
 1323SOL    HW115428   4.549   2.372   9.690 -0.9349 -1.7271  1.9945
 1323SOL    HW215429   4.588   2.234   9.665  0.1827  0.7535 -0.7360
 1324SOL     OW15430   3.890   3.456   7.863 -0.1729  0.1095  0.5554
 1324SOL    HW115431   3.977   3.494   7.849 -0.5362  0.4275 -0.8240
 1324SOL    HW215432   3.840   3.472   7.783  0.0756  0.6228  0.5018
 1325SOL     OW15433   0.802   1.702   7.181 -0.5121 -0.3865  0.0727
 1325SOL    HW115434   0.864   1.671   7.247 -0.1801  0.9068  0.3676
 1325SOL    HW215435   0.762   1.781   7.217 -0.5623 -0.0957 -0.6083
 1326SOL     OW15436   2.392   0.376  15.109  0.4355  0.1317  0.4437
 1326SOL    HW115437   2.481   0.343  15.095 -0.2459 -1.4993  0.0455
 1326SOL    HW215438   2.367   0.387  15.017 -0.6556 -0.3702  0.6889
 1327SOL     OW15439   2.633   0.528  14.968  0.3250 -0.6752  0.4297
 1327SOL    HW115440   2.673   0.451  15.008  3.7642  0.9151  0.0266
 1327SOL    HW215441   2.627   0.575  15.051 -0.4469  0.0419 -0.0366
 1328SOL     OW15442   3.597   0.913   3.078 -0.3583  0.2046  0.2953
 1328SOL    HW115443   3.538   0.842   3.105  0.3373 -0.2751  0.5769
 1328SOL    HW215444   3.546   0.969   3.021  2.5272  1.5241 -0.9606
 1329SOL     OW15445   1.116   4.280   3.382 -0.1939  0.2043 -0.6580
 1329SOL    HW115446   1.155   4.236   3.306  2.2405  1.5518 -0.1797
 1329SOL    HW215447   1.025   4.288   3.353 -1.1356 -1.7651  1.8368
 1330SOL     OW15448   0.084   4.265   0.822 -0.0416  0.2179 -0.5710
 1330SOL    HW115449   0.042   4.352   0.822  1.0005  0.7240 -0.4661
 1330SOL    HW215450   0.009   4.211   0.847 -1.4939  2.1522 -0.6694
 1331SOL     OW15451   4.665   2.303   9.382 -0.1338 -0.1950  0.8739
 1331SOL    HW115452   4.676   2.348   9.466  0.8966 -0.9061  1.1170
 1331SOL    HW215453   0.018   2.252   9.381 -0.0599 -0.0649  0.0068
 1332SOL     OW15454   1.797   2.838   7.830  0.0523 -0.3075  0.6435
 1332SOL    HW115455   1.836   2.864   7.913  0.5173 -2.2351  1.0266
 1332SOL    HW215456   1.717   2.796   7.862  0.0628 -1.2259 -0.5157
 1333SOL     OW15457   0.080   4.115   4.597  0.4437 -0.1409 -0.0763
 1333SOL    HW115458   0.070   4.190   4.656 -0.9457  0.1781 -0.7154
 1333SOL    HW215459   0.080   4.156   4.511  0.1077  0.5072  0.2321
 1334SOL     OW15460   2.067   1.025  15.131 -0.2560 -0.0109 -0.0883
 1334SOL    HW115461   2.099   0.960  15.195  2.8155 -0.0065 -1.5977
 1334SOL    HW215462   2.033   1.089  15.193 -0.1914 -0.4738  0.4304
 1335SOL     OW15463   0.465   3.552   2.083 -0.2159  0.1541  0.2221
 1335SOL    HW115464   0.528   3.481   2.076 -1.2770 -0.7944  0.3838
 1335SOL    HW215465   0.520   3.630   2.071 -0.9979  0.7519  0.5039
 1336SOL     OW15466   3.536   4.354   8.012  0.3710 -0.1788 -0.1106
 1336SOL    HW115467   3.627   4.324   8.019  1.0569  2.1398  0.8998
 1336SOL    HW215468   3.552   4.433   8.064  2.0821 -2.3705  2.6950
 1337SOL     OW15469   1.847   1.505   0.284  0.1024  0.3791  0.2302
 1337SOL    HW115470   1.918   1.513   0.220  1.1050  0.8598  1.4061
 1337SOL    HW215471   1.880   1.536   0.368 -0.7251  0.7068  0.4338
 1338SOL     OW15472   4.016   1.236  16.172 -0.3857  0.0593 -0.6236
 1338SOL    HW115473   4.081   1.306  16.159  0.4415 -0.7321 -0.7709
 1338SOL    HW215474   4.068   1.170  16.218  1.8580  1.5193 -1.0769
 1339SOL     OW15475   4.649   4.306   7.471 -0.7472  0.1634 -0.0407
 1339SOL    HW115476   4.592   4.285   7.397 -0.2696  3.5291 -1.3757
 1339SOL    HW215477   4.622   4.233   7.526 -0.8884 -0.8924 -1.5086
 1340SOL     OW15478   3.809   3.276   7.537  0.7232  0.4248  0.3451
 1340SOL    HW115479   3.752   3.321   7.599 -0.0340  0.0652 -0.0800
 1340SOL    HW215480   3.785   3.329   7.461 -1.5459 -0.5216  0.4022
 1341SOL     OW15481   3.189   4.330  15.648  0.4288 -0.1532 -0.1910
 1341SOL    HW115482   3.262   4.391  15.641  1.2138 -1.1965 -1.1672
 1341SOL    HW215483   3.117   4.379  15.608 -0.7933 -1.2145  0.6865
 1342SOL     OW15484   2.061   3.723   6.835  0.3005 -0.1724 -0.0980
 1342SOL    HW115485   2.097   3.649   6.884  2.6710  0.5646 -0.7768
 1342SOL    HW215486   2.131   3.763   6.785  0.2968  1.2318  1.0426
 1343SOL     OW15487   0.335   1.656  15.907 -0.2045  0.0194 -0.2840
 1343SOL    HW115488   0.244   1.640  15.933  0.0211 -0.2049  0.3715
 1343SOL    HW215489   0.315   1.739  15.863  2.6358  1.6453  1.4585
 1344SOL     OW15490   2.522   2.793  16.028 -0.4013 -0.5471 -0.0907
 1344SOL    HW115491   2.478   2.796  15.943 -1.5001 -0.4889  0.4895
 1344SOL    HW215492   2.474   2.850  16.087  1.0824  0.3819  0.2189
 1345SOL     OW15493   1.614   3.926  17.225  0.1376 -0.3076 -0.3027
 1345SOL    HW115494   1.654   3.839  17.224 -0.1937 -0.4635 -0.2320
 1345SOL    HW215495   1.621   3.937  17.319 -0.2440 -0.1363 -0.2938
 1346SOL     OW15496   0.662   4.125   3.163  0.5081  0.1285 -0.0068
 1346SOL    HW115497   0.592   4.107   3.101  0.1913  0.6704  0.1912
 1346SOL    HW215498   0.690   4.036   3.185 -0.6363 -0.0616  0.6749
 1347SOL     OW15499   0.719   2.286  13.659 -0.2304  0.3444 -0.3793
 1347SOL    HW115500   0.782   2.242  13.717  1.3828  1.7464 -1.0591
 1347SOL    HW215501   0.785   2.318  13.597  0.0868  0.1678 -0.1355
 1348SOL     OW15502   2.484   1.167  15.768 -0.2569  0.3410 -0.1045
 1348SOL    HW115503   2.489   1.071  15.768 -0.1970  0.3416 -0.5204
 1348SOL    HW215504   2.505   1.193  15.678 -0.7424 -0.9573 -0.5999
 1349SOL     OW15505   0.319   3.708   8.463  0.6342  0.4552  0.0820
 1349SOL    HW115506   0.293   3.733   8.375  0.2650 -1.5642 -0.3871
 1349SOL    HW215507   0.235   3.683   8.502  1.0783 -0.2754  0.5877
 1350SOL     OW15508   0.393   4.362   8.558  0.3925  0.2126 -0.1461
 1350SOL    HW115509   0.385   4.426   8.488 -3.9134 -1.5934 -1.3089
 1350SOL    HW215510   0.301   4.366   8.585 -0.0036 -2.2564 -1.1504
 1351SOL     OW15511   0.260   2.501   6.271  0.7100 -0.3933  0.3367
 1351SOL    HW115512   0.215   2.462   6.196  3.5003 -0.4631 -1.3285
 1351SOL    HW215513   0.199   2.567   6.303  0.5840  0.2822 -1.2882
 1352SOL     OW15514   2.046   3.926   3.881 -0.2244 -0.4392 -0.1207
 1352SOL    HW115515   1.998   4.007   3.864  2.3537  0.8637 -1.1306
 1352SOL    HW215516   2.122   3.954   3.932 -0.6402 -0.7299  0.6607
 1353SOL     OW15517   4.357   2.005   2.577  0.7438  0.4550  0.1555
 1353SOL    HW115518   4.401   1.937   2.527  0.1591 -0.7227  1.2381
 1353SOL    HW215519   4.283   2.022   2.519  1.3118  1.1587 -0.3609
 1354SOL     OW15520   3.903   3.584   9.154  1.1425 -0.1635  0.2788
 1354SOL    HW115521   3.961   3.610   9.226 -0.0971  1.1305  0.7988
 1354SOL    HW215522   3.814   3.615   9.173  0.8015 -0.5568 -0.6604
 1355SOL     OW15523   0.867   3.823   6.550  0.6057  0.2613 -0.0275
 1355SOL    HW115524   0.854   3.887   6.479 -2.0699  0.6755  0.8110
 1355SOL    HW215525   0.898   3.747   6.500  0.5154 -0.2952  0.7609
 1356SOL     OW15526   2.877   2.867   4.302  0.2578  0.0008  0.0990
 1356SOL    HW115527   2.961   2.821   4.298  0.2613 -0.2080  2.1953
 1356SOL    HW215528   2.899   2.958   4.281 -1.0596  0.4511  0.6464
 1357SOL     OW15529   0.026   4.446   9.017  0.1605  0.4462 -0.0636
 1357SOL    HW115530   0.003   4.503   9.090 -0.3655 -1.5766  1.3480
 1357SOL    HW215531   0.027   4.511   8.947  0.8963  1.6368  1.0368
 1358SOL     OW15532   0.622   1.912   7.247  0.6268 -0.1408 -0.2532
 1358SOL    HW115533   0.571   1.924   7.167  1.2885  0.7308 -0.5533
 1358SOL    HW215534   0.670   1.995   7.239  1.5087 -0.6621 -0.3457
 1359SOL     OW15535   4.168   1.001   3.603  0.0268  0.1744 -0.6243
 1359SOL    HW115536   4.150   0.970   3.514  1.1440 -3.5836  0.4463
 1359SOL    HW215537   4.116   0.934   3.647 -0.5742 -0.5450 -2.4121
 1360SOL     OW15538   4.565   1.689   6.582  0.1819 -0.1137  0.6500
 1360SOL    HW115539   4.538   1.633   6.655  0.1187 -0.4082  0.4002
 1360SOL    HW215540   4.653   1.654   6.567  0.3750  0.2025  1.0254
 1361SOL     OW15541   2.732   3.683  17.112  0.0380 -0.1390 -0.4313
 1361SOL    HW115542   2.673   3.670  17.037 -0.8159  1.6409 -0.0658
 1361SOL    HW215543   2.710   3.605  17.163 -3.6949 -1.5576 -4.1988
 1362SOL     OW15544   2.993   4.651   3.121 -0.2742 -1.0274 -0.1202
 1362SOL    HW115545   2.999   0.016   3.099 -1.1811 -0.3565  2.5274
 1362SOL    HW215546   2.904   4.624   3.096 -0.3445 -0.8186 -0.0893
 1363SOL     OW15547   3.643   0.370   6.086 -0.1207 -0.4116  0.4098
 1363SOL    HW115548   3.576   0.305   6.064 -1.1397  0.8118 -0.1277
 1363SOL    HW215549   3.593   0.452   6.083 -0.1189 -0.4624 -1.0014
 1364SOL     OW15550   1.478   2.288   4.062  0.1303 -0.2050  0.0120
 1364SOL    HW115551   1.537   2.355   4.097 -2.6054  2.4973 -0.5233
 1364SOL    HW215552   1.497   2.214   4.119  1.9798  0.3866  0.1755
 1365SOL     OW15553   2.308   3.931   8.232  0.1555  0.2434 -0.3261
 1365SOL    HW115554   2.339   3.987   8.303 -0.6258  0.4688 -0.1657
 1365SOL    HW215555   2.343   3.844   8.249 -2.0749 -0.7034 -0.7150
 1366SOL     OW15556   4.034   0.040  10.486 -0.5253  0.0098 -0.1650
 1366SOL    HW115557   4.063   0.012  10.399  1.7072  0.8522  0.3078
 1366SOL    HW215558   4.049   4.684  10.530 -1.7234  0.2283  0.6615
 1367SOL     OW15559   1.939   1.769   5.588  0.7344  0.0290  0.1786
 1367SOL    HW115560   1.977   1.853   5.613 -1.1357  1.2965 -1.2507
 1367SOL    HW215561   1.908   1.734   5.671 -0.7135  0.1119 -0.3220
 1368SOL     OW15562   4.527   2.033   2.263 -0.2068  0.0576  0.0362
 1368SOL    HW115563   4.617   2.006   2.282  1.0018  1.6296 -3.4051
 1368SOL    HW215564   4.483   1.959   2.305 -0.0758 -0.0745 -0.0612
 1369SOL     OW15565   0.448   1.053   5.470 -1.1783  0.0676  0.4045
 1369SOL    HW115566   0.403   1.129   5.434 -2.1263 -1.6799 -2.1199
 1369SOL    HW215567   0.474   1.088   5.555 -0.6202  0.5246  0.0491
 1370SOL     OW15568   2.725   2.829   8.183 -0.3332 -0.0300 -0.5996
 1370SOL    HW115569   2.677   2.751   8.209 -0.3236  0.1261 -0.1157
 1370SOL    HW215570   2.732   2.876   8.266  1.6427 -3.7441  1.3858
 1371SOL     OW15571   3.998   3.425   8.373  0.3083  0.2814 -0.4613
 1371SOL    HW115572   3.999   3.518   8.397  4.0470 -0.5714  2.6484
 1371SOL    HW215573   4.019   3.431   8.280  0.6812 -0.0726 -0.3955
 1372SOL     OW15574   0.644   3.071   5.363 -0.5148 -0.4626  0.4600
 1372SOL    HW115575   0.735   3.045   5.350 -0.2887  0.2588  0.6496
 1372SOL    HW215576   0.639   3.038   5.453 -0.5863 -1.4935  0.0873
 1373SOL     OW15577   3.379   3.187   7.615  0.1546 -0.8013 -0.1069
 1373SOL    HW115578   3.397   3.130   7.689 -0.8208 -0.1186  0.6608
 1373SOL    HW215579   3.365   3.120   7.547  1.3748 -0.9527 -0.2016
 1374SOL     OW15580   4.351   2.162  11.718  0.1361  0.1829  0.4418
 1374SOL    HW115581   4.404   2.144  11.796 -0.5956 -0.0969  0.8804
 1374SOL    HW215582   4.380   2.094  11.658  0.3548  0.9216 -0.2750
 1375SOL     OW15583   4.216   3.551  15.454 -0.5825  0.0021  0.2271
 1375SOL    HW115584   4.242   3.593  15.536 -0.3140  0.3324 -0.0299
 1375SOL    HW215585   4.299   3.560  15.407  1.1166 -2.6267  2.7071
 1376SOL     OW15586   2.426   1.457   4.746 -0.1423  0.2943 -0.3034
 1376SOL    HW115587   2.349   1.417   4.786  0.6943 -0.5799  0.4533
 1376SOL    HW215588   2.420   1.544   4.783  0.9972 -0.4459  1.5861
 1377SOL     OW15589   2.906   1.980  15.441 -0.4510 -0.1120  0.5749
 1377SOL    HW115590   2.851   1.932  15.379 -0.8332 -1.5660  2.0648
 1377SOL    HW215591   2.984   1.990  15.386  0.4248 -1.3799  1.5792
 1378SOL     OW15592   1.919   4.490   7.086  0.2671 -0.1514  0.5319
 1378SOL    HW115593   1.844   4.550   7.083  0.6303  0.3518  1.6177
 1378SOL    HW215594   1.884   4.407   7.055  1.3251 -0.2897 -0.2870
 1379SOL     OW15595   4.354   3.595   9.390  0.1329 -0.5561  0.2112
 1379SOL    HW115596   4.439   3.600   9.345  1.0553 -0.8979  1.9158
 1379SOL    HW215597   4.296   3.644   9.331 -0.4491 -1.8127 -0.2479
 1380SOL     OW15598   3.363   0.741   7.573 -0.4327  0.1231  0.4652
 1380SOL    HW115599   3.294   0.807   7.574  0.5642  1.1651 -0.5427
 1380SOL    HW215600   3.321   0.666   7.531 -1.3369  0.0867  1.4139
 1381SOL     OW15601   4.457   2.997  10.151 -0.3361  0.4494  0.0281
 1381SOL    HW115602   4.552   3.003  10.147 -0.2523 -0.2281  0.9285
 1381SOL    HW215603   4.438   3.004  10.244 -1.3771 -1.0634 -0.0644
 1382SOL     OW15604   1.301   0.778   8.571 -0.0408  0.0556 -0.0231
 1382SOL    HW115605   1.265   0.824   8.495  1.5133 -0.8959 -1.3500
 1382SOL    HW215606   1.219   0.735   8.593  1.4675 -1.7129  2.1189
 1383SOL     OW15607   2.974   3.060   2.458 -0.4311 -0.7384 -0.3046
 1383SOL    HW115608   3.036   3.118   2.502 -0.8538 -1.2958  1.0150
 1383SOL    HW215609   3.021   3.035   2.378  1.9909  1.7922  0.3220
 1384SOL     OW15610   2.081   1.500   7.064  0.1352  0.0798  0.1181
 1384SOL    HW115611   2.048   1.421   7.021  0.5319 -0.1106  0.1671
 1384SOL    HW215612   2.020   1.509   7.137 -1.7662  1.0269 -1.5511
 1385SOL     OW15613   1.631   1.906   4.517  0.7181 -0.2854  0.7311
 1385SOL    HW115614   1.637   1.873   4.606  1.6771 -0.4344  0.6156
 1385SOL    HW215615   1.704   1.860   4.475 -0.6332  0.5036 -2.4853
 1386SOL     OW15616   3.808   4.421   2.723 -0.9866 -0.2423  0.2711
 1386SOL    HW115617   3.867   4.471   2.667 -1.6124 -1.5740 -1.6127
 1386SOL    HW215618   3.766   4.365   2.657 -2.4306  1.8724 -0.5923
 1387SOL     OW15619   3.390   4.186   0.672  0.5491  0.1189 -0.7751
 1387SOL    HW115620   3.340   4.204   0.593 -1.3847 -2.9072 -0.2490
 1387SOL    HW215621   3.378   4.091   0.681 -1.5201  0.4300 -0.3936
 1388SOL     OW15622   0.511   2.672   3.434  0.1615 -0.2964 -0.5507
 1388SOL    HW115623   0.458   2.601   3.397  0.9889 -0.2839 -1.7762
 1388SOL    HW215624   0.453   2.697   3.506  0.0138  0.1082 -0.8035
 1389SOL     OW15625   4.531   4.592   3.156  0.3908 -0.1541 -0.0195
 1389SOL    HW115626   4.483   4.573   3.076 -0.9154 -1.8877  1.1755
 1389SOL    HW215627   4.590   4.662   3.129 -1.6410  0.7619 -2.0672
 1390SOL     OW15628   4.105   0.293   3.057  0.1862  0.3955 -0.5242
 1390SOL    HW115629   4.077   0.384   3.061 -0.7695  0.2115 -3.1705
 1390SOL    HW215630   4.046   0.265   3.127 -1.3947  0.6473 -1.7726
 1391SOL     OW15631   2.741   3.354  11.942  0.4549  0.0385 -0.2236
 1391SOL    HW115632   2.752   3.296  12.018  2.0170 -0.6710 -1.0019
 1391SOL    HW215633   2.790   3.430  11.974  0.0298 -0.2440  1.1245
 1392SOL     OW15634   2.328   3.959  11.116 -0.6423 -0.2455  0.0533
 1392SOL    HW115635   2.390   3.934  11.184 -0.2000  0.6845 -0.0177
 1392SOL    HW215636   2.358   4.049  11.108  1.0728 -0.8264  0.0004
 1393SOL     OW15637   1.249   3.130   6.021  0.4037  0.3277  0.4109
 1393SOL    HW115638   1.245   3.206   5.962  0.9912 -0.2731 -0.4043
 1393SOL    HW215639   1.160   3.122   6.054  0.7548 -2.6186  0.6156
 1394SOL     OW15640   2.655   1.210   3.275  0.2310  0.4259  0.2019
 1394SOL    HW115641   2.571   1.164   3.277 -0.9072  2.4228 -1.2699
 1394SOL    HW215642   2.700   1.166   3.202 -0.2791  0.2455 -0.0063
 1395SOL     OW15643   0.571   0.393  17.485  0.3279  0.7433 -0.3333
 1395SOL    HW115644   0.659   0.364  17.463 -0.2527 -2.0817  1.1731
 1395SOL    HW215645   0.545   0.455  17.417 -1.8155  1.0377  0.7399
 1396SOL     OW15646   1.650   0.741   9.325  0.1812 -0.3319 -0.0221
 1396SOL    HW115647   1.699   0.668   9.288 -1.1468 -1.3805  0.2864
 1396SOL    HW215648   1.628   0.796   9.250 -1.2931 -0.6839  0.1534
 1397SOL     OW15649   4.352   2.184   4.209 -0.4979 -0.1812 -0.1959
 1397SOL    HW115650   4.415   2.116   4.232 -1.0656 -1.2736 -1.8764
 1397SOL    HW215651   4.306   2.151   4.132 -1.0044  3.4299 -1.4851
 1398SOL     OW15652   2.426   3.412   3.796  0.2244 -0.8740  0.4097
 1398SOL    HW115653   2.343   3.446   3.762  0.5363  1.3623  1.8797
 1398SOL    HW215654   2.451   3.487   3.850  0.5266 -0.8543  0.2451
 1399SOL     OW15655   1.966   0.978   4.634  0.6470  0.4857  0.1722
 1399SOL    HW115656   1.872   0.964   4.645  0.7295 -1.7494 -2.1046
 1399SOL    HW215657   1.988   0.888   4.656 -0.1353 -0.1429 -1.5471
 1400SOL     OW15658   1.487   4.132   7.603  0.1082 -0.4160 -0.1410
 1400SOL    HW115659   1.431   4.111   7.529 -2.4420 -0.0769  1.6813
 1400SOL    HW215660   1.564   4.078   7.588  0.3648  0.2157 -1.0745
 1401SOL     OW15661   3.288   1.037   2.905  0.3609 -0.4223  0.5778
 1401SOL    HW115662   3.254   0.981   2.835  2.3713 -0.1928 -0.5867
 1401SOL    HW215663   3.267   1.121   2.865  1.1464 -1.8170 -2.8298
 1402SOL     OW15664   4.351   2.587   6.388 -0.4680  0.0223 -0.3338
 1402SOL    HW115665   4.377   2.609   6.477 -3.1317  0.8642  0.2400
 1402SOL    HW215666   4.297   2.657   6.351  1.0787  1.7685  0.7154
 1403SOL     OW15667   2.615   1.199   7.086 -0.5283  0.0878 -0.2024
 1403SOL    HW115668   2.572   1.282   7.107  0.0159 -0.1678  1.8617
 1403SOL    HW215669   2.633   1.213   6.993  0.3172 -0.7242 -0.1593
 1404SOL     OW15670   3.838   4.278   7.743 -0.0920  0.6150  0.2037
 1404SOL    HW115671   3.801   4.366   7.740 -1.7030 -0.1306 -1.5889
 1404SOL    HW215672   3.876   4.276   7.656 -2.5151  0.3113 -0.8544
 1405SOL     OW15673   2.113   4.644   7.479 -0.6880  0.3270  0.7632
 1405SOL    HW115674   2.139   0.009   7.475  1.5429 -0.2675  1.1551
 1405SOL    HW215675   2.102   4.611   7.390 -0.6821 -0.5649  1.0940
 1406SOL     OW15676   0.003   2.527   3.032 -0.1267 -0.2386 -0.5225
 1406SOL    HW115677   4.711   2.525   3.126 -0.5946 -0.3223 -0.6238
 1406SOL    HW215678   0.060   2.450   3.025  0.0887 -0.1597  0.3940
 1407SOL     OW15679   2.760   1.122   7.404  0.3360  0.3535 -0.4294
 1407SOL    HW115680   2.749   1.037   7.448  0.9597  0.6348  0.2844
 1407SOL    HW215681   2.765   1.084   7.316 -0.4336 -1.1833  0.1818
 1408SOL     OW15682   2.674   0.050   8.671 -0.2169 -0.1295  0.0393
 1408SOL    HW115683   2.678   4.684   8.687 -1.8769 -0.8183 -3.5819
 1408SOL    HW215684   2.579   0.061   8.675  0.1726  3.4368 -0.7604
 1409SOL     OW15685   2.080   1.178   0.418  0.0555 -0.6934  0.6145
 1409SOL    HW115686   2.148   1.216   0.362 -0.1743  0.5362  1.1759
 1409SOL    HW215687   2.127   1.140   0.492  0.7858  0.3303  0.6857
 1410SOL     OW15688   1.146   2.038   7.139  0.6016 -0.5728  0.4515
 1410SOL    HW115689   1.228   2.024   7.185  0.4154 -0.2016  0.8946
 1410SOL    HW215690   1.090   2.028   7.217  2.2391  0.0556  1.6972
 1411SOL     OW15691   2.395   1.982  13.782  0.1003 -0.2235  0.2106
 1411SOL    HW115692   2.326   1.931  13.740  0.0358 -0.5577  0.7167
 1411SOL    HW215693   2.471   1.924  13.777  1.8140  2.1536 -1.9403
 1412SOL     OW15694   0.184   1.177   6.347  0.3096  0.5230 -0.1742
 1412SOL    HW115695   0.152   1.242   6.285  0.1101 -0.3255 -0.9651
 1412SOL    HW215696   0.257   1.141   6.297 -2.5623 -0.7318 -3.4616
 1413SOL     OW15697   1.053   0.887   4.320 -0.4784  0.7270  0.2925
 1413SOL    HW115698   1.017   0.941   4.250 -1.4031 -0.1889  0.0549
 1413SOL    HW215699   1.088   0.958   4.374 -1.0985  1.0163  0.3138
 1414SOL     OW15700   0.436   3.429  11.001 -0.1290 -0.5788 -0.5955
 1414SOL    HW115701   0.498   3.394  10.937  0.8135 -0.0687  0.0312
 1414SOL    HW215702   0.425   3.347  11.049  1.8644 -0.9141 -0.6999
 1415SOL     OW15703   3.540   1.559   5.860  0.4794 -0.2972  0.6197
 1415SOL    HW115704   3.458   1.547   5.908 -0.1851  0.2801 -0.3811
 1415SOL    HW215705   3.531   1.653   5.848  0.4266 -0.3790 -0.0091
 1416SOL     OW15706   1.779   2.963  17.079  0.6166 -0.0065  0.2553
 1416SOL    HW115707   1.872   2.967  17.060  0.5895 -0.6568 -0.0071
 1416SOL    HW215708   1.775   2.868  17.093  0.1501 -0.0806 -0.3854
 1417SOL     OW15709   3.641   4.659   3.362  0.1671 -0.4575  0.3392
 1417SOL    HW115710   3.621   4.632   3.273 -3.0954  0.9764  0.6074
 1417SOL    HW215711   3.623   0.025   3.365 -2.5824 -1.0132  1.7274
 1418SOL     OW15712   2.849   1.749   5.753 -0.3724  1.0419 -0.3646
 1418SOL    HW115713   2.875   1.794   5.834 -1.0201 -0.8909  0.9334
 1418SOL    HW215714   2.816   1.671   5.798 -0.8560  0.7378 -1.2608
 1419SOL     OW15715   0.904   2.502   6.691 -0.3266  0.6061 -0.1550
 1419SOL    HW115716   0.811   2.509   6.669 -0.8099 -1.8870  1.1210
 1419SOL    HW215717   0.901   2.525   6.784  1.5839  0.8499 -0.1531
 1420SOL     OW15718   4.150   0.979   7.263 -0.4587 -0.0684 -0.0248
 1420SOL    HW115719   4.235   1.007   7.228 -0.3571 -1.7757 -1.1447
 1420SOL    HW215720   4.171   0.963   7.355  0.1739 -0.7045 -0.2777
 1421SOL     OW15721   1.409   0.883   4.397 -0.4398 -0.2611  0.6929
 1421SOL    HW115722   1.498   0.886   4.362 -1.0559  1.1596 -0.8078
 1421SOL    HW215723   1.375   0.808   4.347  0.7460 -0.2785 -0.0774
 1422SOL     OW15724   1.146   0.693   1.926 -0.2501  0.5584  0.4295
 1422SOL    HW115725   1.206   0.620   1.912 -0.2475  1.0760 -2.2510
 1422SOL    HW215726   1.073   0.668   1.869 -0.8826 -0.7692  1.8185
 1423SOL     OW15727   2.852   4.551  16.038  0.0977  0.2204 -0.5740
 1423SOL    HW115728   2.933   4.553  15.988  0.6619 -1.0367  0.3064
 1423SOL    HW215729   2.814   4.473  15.998  0.6556 -1.1768  1.5999
 1424SOL     OW15730   2.962   3.579  15.682 -0.0128  0.6087 -0.3088
 1424SOL    HW115731   2.976   3.648  15.747  1.7502  0.5228 -0.6128
 1424SOL    HW215732   2.872   3.596  15.652  0.9819  3.3953 -1.7388
 1425SOL     OW15733   2.606   2.270   3.402 -0.1597  0.0098  0.0308
 1425SOL    HW115734   2.633   2.278   3.311  2.6558  0.1846  0.8831
 1425SOL    HW215735   2.560   2.352   3.416  0.7052  0.1409  2.0536
 1426SOL     OW15736   0.889   1.157   4.511 -0.3387 -0.2094  0.2330
 1426SOL    HW115737   0.847   1.176   4.427 -1.1837 -0.4715  0.5953
 1426SOL    HW215738   0.957   1.224   4.512  1.1315 -1.6891 -0.1816
 1427SOL     OW15739   4.438   3.732   6.178  0.4045  0.3994  0.4912
 1427SOL    HW115740   4.532   3.739   6.196  0.7298  1.4473 -1.5054
 1427SOL    HW215741   4.414   3.823   6.199  2.0771  0.9665 -0.0419
 1428SOL     OW15742   2.747   3.911   6.148  0.0609 -0.2923  0.1961
 1428SOL    HW115743   2.734   3.877   6.236  0.8067  0.8298  0.7508
 1428SOL    HW215744   2.840   3.931   6.151 -0.2199  0.8308  1.5807
 1429SOL     OW15745   0.478   1.254   0.123 -0.1573  0.1363  0.1095
 1429SOL    HW115746   0.402   1.246   0.066 -0.6119  0.5140  0.6517
 1429SOL    HW215747   0.439   1.285   0.205  0.2758  0.0101  0.3616
 1430SOL     OW15748   0.306   4.525   7.096 -0.4261 -0.4793  0.6283
 1430SOL    HW115749   0.227   4.548   7.047  0.4303  0.3350 -0.3683
 1430SOL    HW215750   0.317   4.609   7.141 -0.8039 -0.2674  0.3261
 1431SOL     OW15751   3.378   2.943   3.014  0.2519 -0.1444  0.4633
 1431SOL    HW115752   3.340   2.900   2.937 -2.5483 -1.5162  2.5945
 1431SOL    HW215753   3.339   3.030   3.013 -1.5654 -0.9697 -0.7265
 1432SOL     OW15754   3.192   1.612   0.013 -0.5802  0.1065  0.2094
 1432SOL    HW115755   3.127   1.675  17.693 -0.3614 -0.3384 -1.1491
 1432SOL    HW215756   3.133   1.548   0.054  0.5130 -0.8595  0.2713
 1433SOL     OW15757   3.860   1.790   4.863 -0.1908 -0.3195 -0.3475
 1433SOL    HW115758   3.887   1.729   4.932 -1.8525 -0.8654 -0.1653
 1433SOL    HW215759   3.786   1.739   4.830  2.2143 -2.6466 -2.0715
 1434SOL     OW15760   1.291   0.111   6.788  0.2456 -0.0565  0.1129
 1434SOL    HW115761   1.240   0.084   6.711 -1.2808 -0.1552  1.1503
 1434SOL    HW215762   1.337   0.034   6.820  0.1944 -1.1793 -2.5019
 1435SOL     OW15763   1.903   1.011   1.882  0.2637  0.0279 -0.0358
 1435SOL    HW115764   1.913   1.101   1.914 -0.7750  0.1541 -0.0721
 1435SOL    HW215765   1.988   0.968   1.871  0.0623 -1.1411  2.9861
 1436SOL     OW15766   0.050   0.145   5.819 -0.5817  0.1803  0.1623
 1436SOL    HW115767   0.122   0.154   5.757 -1.5143  0.4137 -0.8931
 1436SOL    HW215768   0.046   0.233   5.857 -2.2139  0.0774  0.2352
 1437SOL     OW15769   4.432   1.303  11.900 -0.1902  0.0893 -0.3687
 1437SOL    HW115770   4.449   1.367  11.832 -0.1954  1.2074  0.6872
 1437SOL    HW215771   4.523   1.287  11.927  0.4902  2.7025 -1.1085
 1438SOL     OW15772   0.344   3.358  14.648  0.3166 -0.1109 -0.1763
 1438SOL    HW115773   0.380   3.278  14.688  1.9245  0.9029  0.3950
 1438SOL    HW215774   0.251   3.339  14.661  0.5014 -0.3769  0.7787
 1439SOL     OW15775   3.461   3.759   6.599 -0.6017 -0.1022 -0.0433
 1439SOL    HW115776   3.369   3.736   6.614  0.1628 -2.8107  0.3993
 1439SOL    HW215777   3.494   3.707   6.672  1.0063  0.7976 -0.1249
 1440SOL     OW15778   0.985   1.194   4.990 -0.2429 -0.6883 -0.3391
 1440SOL    HW115779   1.007   1.106   4.960 -1.5594 -0.4628 -1.9438
 1440SOL    HW215780   0.893   1.172   5.006 -0.2438 -0.0212  0.6401
 1441SOL     OW15781   4.624   3.875   9.500 -0.0704 -0.4605  0.5892
 1441SOL    HW115782   4.571   3.823   9.561 -1.6961 -0.5928 -0.9395
 1441SOL    HW215783   4.560   3.917   9.443  1.0205 -1.6725 -1.5138
 1442SOL     OW15784   1.382   1.623   2.186 -0.3082  0.0181 -0.4959
 1442SOL    HW115785   1.457   1.682   2.186  0.3074 -0.7777  1.8412
 1442SOL    HW215786   1.330   1.653   2.111  0.4417 -2.4571 -1.9764
 1443SOL     OW15787   4.649   3.279   8.359 -0.3688 -0.1612 -0.2352
 1443SOL    HW115788   4.692   3.259   8.276 -0.4973 -1.4642  0.0194
 1443SOL    HW215789   4.662   3.199   8.409  1.9359 -0.4835 -1.3527
 1444SOL     OW15790   3.867   0.823   3.093 -0.0766 -0.0491 -0.1673
 1444SOL    HW115791   3.801   0.871   3.043  1.4073  2.5601  0.3609
 1444SOL    HW215792   3.939   0.886   3.098 -0.0081 -0.1107 -0.4218
 1445SOL     OW15793   3.675   2.770  16.721 -0.1396  0.2576 -0.3093
 1445SOL    HW115794   3.644   2.811  16.640  1.8428  1.2775 -0.5385
 1445SOL    HW215795   3.675   2.848  16.776 -0.2340 -0.0885  0.1762
 1446SOL     OW15796   4.360   1.894   4.221  0.0676  0.4522  0.4210
 1446SOL    HW115797   4.424   1.901   4.291  2.5822  1.7323 -2.0316
 1446SOL    HW215798   4.280   1.927   4.261 -0.3657  0.2008 -0.2279
 1447SOL     OW15799   0.801   0.673   8.413  0.3564  0.3132  0.3092
 1447SOL    HW115800   0.723   0.637   8.454  0.4733 -0.6003 -0.2873
 1447SOL    HW215801   0.765   0.685   8.325  1.6866  1.9533 -0.0303
 1448SOL     OW15802   2.425   2.315  14.865  0.1062 -0.4884  0.1745
 1448SOL    HW115803   2.359   2.380  14.839  1.2648  0.7276  0.2929
 1448SOL    HW215804   2.477   2.298  14.786 -0.2988 -1.3142  0.0810
 1449SOL     OW15805   3.177   1.164   3.615  0.0938 -0.0206 -0.0386
 1449SOL    HW115806   3.215   1.252   3.618  2.5383 -1.1034  0.8915
 1449SOL    HW215807   3.095   1.186   3.658  1.8960  3.3146  1.7161
 1450SOL     OW15808   2.258   2.290  16.557  0.7704  0.1906  0.2139
 1450SOL    HW115809   2.278   2.251  16.472  1.1967 -0.5198  0.6348
 1450SOL    HW215810   2.262   2.385  16.549 -0.9483  0.1605 -0.8743
 1451SOL     OW15811   3.644   2.707   4.479 -0.1902  0.0015 -0.1620
 1451SOL    HW115812   3.556   2.741   4.496 -0.2096  1.0997 -2.4050
 1451SOL    HW215813   3.661   2.740   4.390  0.2086 -0.0619 -0.1110
 1452SOL     OW15814   0.843   4.681  17.488  0.0865  0.6791  0.3058
 1452SOL    HW115815   0.791   0.033  17.496 -1.7000 -0.3907 -0.7862
 1452SOL    HW215816   0.803   4.631  17.559  0.3041 -0.3857 -0.3225
 1453SOL     OW15817   0.720   0.174   9.342 -0.1725  0.2484 -0.4340
 1453SOL    HW115818   0.781   0.237   9.303  1.2877 -0.3575  0.8913
 1453SOL    HW215819   0.640   0.227   9.335  0.3986  1.0971 -0.5164
 1454SOL     OW15820   1.587   2.941  12.847 -0.0665 -0.1678 -0.2293
 1454SOL    HW115821   1.646   2.910  12.916 -1.5732  0.1492  1.2008
 1454SOL    HW215822   1.525   2.869  12.853  1.1052 -1.1459  0.0688
 1455SOL     OW15823   0.885   0.673   2.745 -0.1674 -0.1892 -0.2423
 1455SOL    HW115824   0.929   0.614   2.806 -1.6268 -1.4374 -0.4097
 1455SOL    HW215825   0.894   0.760   2.783  3.5746  0.1872 -2.0248
 1456SOL     OW15826   0.293   2.080   3.680  0.0580  0.1411 -0.6928
 1456SOL    HW115827   0.308   2.164   3.637  0.1137  0.9830  0.9903
 1456SOL    HW215828   0.381   2.043   3.670  0.5355  1.0425  0.2884
 1457SOL     OW15829   2.005   1.462  11.875 -0.5960 -0.4207 -0.0760
 1457SOL    HW115830   2.022   1.470  11.969  0.8361  2.8871 -0.6306
 1457SOL    HW215831   2.086   1.487  11.831  0.2342 -1.9686  0.5972
 1458SOL     OW15832   1.895   1.711  10.296 -0.6837 -0.0466 -0.3784
 1458SOL    HW115833   1.867   1.650  10.365 -1.5441 -2.4081 -2.8309
 1458SOL    HW215834   1.822   1.700  10.236 -1.8999  1.5024  0.8248
 1459SOL     OW15835   4.019   2.219   2.249  0.7272 -0.8124  0.3534
 1459SOL    HW115836   4.001   2.312   2.236  0.6049 -0.8754  0.0646
 1459SOL    HW215837   3.966   2.176   2.182 -1.0054  0.0261  1.1905
 1460SOL     OW15838   0.341   4.649  10.015  0.5123  0.3060 -0.6691
 1460SOL    HW115839   0.331   0.015  10.003 -0.0488  0.2143 -0.9209
 1460SOL    HW215840   0.365   4.635  10.107  0.5449 -2.3826 -1.0639
 1461SOL     OW15841   1.136   4.576  16.000  0.1846 -0.1356  0.0615
 1461SOL    HW115842   1.157   4.587  15.908  3.0023 -0.7040  0.6353
 1461SOL    HW215843   1.151   4.663  16.037  0.8274 -0.2118 -0.0294
 1462SOL     OW15844   3.656   1.029   9.535  0.6057  0.3279 -0.3709
 1462SOL    HW115845   3.675   1.090   9.606  1.5550 -0.2882 -0.1056
 1462SOL    HW215846   3.721   1.063   9.473 -0.3085  0.6057 -1.1790
 1463SOL     OW15847   1.963   2.850   1.248  0.2632  0.1314 -0.4377
 1463SOL    HW115848   1.994   2.936   1.219  2.6776  0.4671  3.1487
 1463SOL    HW215849   2.021   2.789   1.202 -1.6669  0.8407 -3.7797
 1464SOL     OW15850   3.729   1.046  17.129  0.8752  0.1256 -0.2219
 1464SOL    HW115851   3.811   1.084  17.160  2.7441 -1.2940 -3.4627
 1464SOL    HW215852   3.738   1.054  17.034 -0.2183  1.9813 -0.1792
 1465SOL     OW15853   1.027   1.964   7.933 -0.6073  0.2056 -0.0925
 1465SOL    HW115854   1.026   2.042   7.878 -2.0909 -0.3555 -0.8575
 1465SOL    HW215855   1.005   1.996   8.021  1.4505  0.8088  0.2232
 1466SOL     OW15856   1.881   1.533  16.920 -0.3856 -0.3089  0.2148
 1466SOL    HW115857   1.975   1.522  16.938 -0.2583 -0.0620 -0.2935
 1466SOL    HW215858   1.878   1.585  16.839  0.9577  1.4500  1.2971
 1467SOL     OW15859   4.696   3.923  10.312 -0.0355 -0.2422  0.4706
 1467SOL    HW115860   0.020   3.842  10.307 -0.2622 -0.3725  0.1984
 1467SOL    HW215861   4.617   3.874  10.288 -2.4641  3.4855  0.9117
 1468SOL     OW15862   2.184   3.771   4.679  0.1233  0.3382  0.7026
 1468SOL    HW115863   2.230   3.691   4.654 -0.3126  0.3832 -0.2539
 1468SOL    HW215864   2.091   3.750   4.669  0.9218 -2.7799 -0.2895
 1469SOL     OW15865   0.897   3.129  13.239  0.0926  0.5711 -0.3501
 1469SOL    HW115866   0.851   3.046  13.226 -1.8571  1.8482 -1.5175
 1469SOL    HW215867   0.986   3.104  13.262 -0.5631 -0.7795  0.7113
 1470SOL     OW15868   4.241   2.851  11.252 -0.2262  0.0145  0.0337
 1470SOL    HW115869   4.186   2.811  11.320  0.9918 -1.2154  0.2783
 1470SOL    HW215870   4.239   2.785  11.183 -2.3715  2.2390 -2.0726
 1471SOL     OW15871   0.061   4.118  10.462  0.7592 -0.0580  1.0071
 1471SOL    HW115872   0.049   4.201  10.415  0.5571  0.4114  1.8830
 1471SOL    HW215873   0.030   4.052  10.401  1.4260  0.6267 -0.0849
 1472SOL     OW15874   3.955   1.006   0.761  0.0392 -0.7576  0.5826
 1472SOL    HW115875   3.985   1.068   0.694 -0.9656 -1.2993 -0.3572
 1472SOL    HW215876   3.872   1.044   0.790  1.1712  1.7445  0.6089
 1473SOL     OW15877   2.093   2.371   4.802  0.5357  0.0507 -0.1745
 1473SOL    HW115878   2.187   2.372   4.784  0.4922 -1.6189 -0.5540
 1473SOL    HW215879   2.080   2.322   4.883 -1.4501 -0.7752 -0.9814
 1474SOL     OW15880   0.839   2.443  11.794  0.1476 -0.5640  0.0247
 1474SOL    HW115881   0.895   2.433  11.716 -0.8777 -0.1288 -0.7710
 1474SOL    HW215882   0.862   2.364  11.843  0.1826 -0.8409 -0.4342
 1475SOL     OW15883   3.124   1.749  14.518 -0.1508  0.0541  0.4090
 1475SOL    HW115884   3.076   1.777  14.440  0.9423 -0.7802 -0.5624
 1475SOL    HW215885   3.218   1.750  14.501 -0.2382 -0.9207 -0.1609
 1476SOL     OW15886   2.722   2.400   6.331  0.0102  0.2757 -0.3241
 1476SOL    HW115887   2.711   2.344   6.408 -0.5890  0.1970 -0.4713
 1476SOL    HW215888   2.795   2.451   6.365  0.1106  0.6070 -1.0370
 1477SOL     OW15889   1.678   4.588   3.984  0.2994  0.0184 -0.8161
 1477SOL    HW115890   1.699   4.635   3.903  0.6396 -0.7198 -1.1532
 1477SOL    HW215891   1.585   4.608   3.984 -0.1342 -1.9934  0.7776
 1478SOL     OW15892   0.313   4.259   7.156 -0.0397 -0.4827 -0.0032
 1478SOL    HW115893   0.317   4.354   7.146 -1.0983 -0.5158 -0.8165
 1478SOL    HW215894   0.339   4.237   7.066 -0.3178 -0.8257  0.0012
 1479SOL     OW15895   0.791   3.421  12.908 -0.0294 -0.4520 -0.2475
 1479SOL    HW115896   0.719   3.366  12.877  0.4856 -0.1916 -1.8825
 1479SOL    HW215897   0.859   3.371  12.864  1.2258  1.3510 -0.3464
 1480SOL     OW15898   0.487   1.612   6.816  0.2972 -0.5101  0.2931
 1480SOL    HW115899   0.527   1.598   6.901 -1.4404  0.2739  1.2506
 1480SOL    HW215900   0.413   1.551   6.814 -0.2204  0.1247  0.0628
 1481SOL     OW15901   0.639   0.185   5.983 -0.4305  0.1501 -0.8795
 1481SOL    HW115902   0.667   0.142   5.903  0.5576 -0.6669 -0.0857
 1481SOL    HW215903   0.633   0.279   5.966 -2.7694  0.5862  2.3733
 1482SOL     OW15904   3.051   4.078   2.925  0.0518  0.0744  0.7692
 1482SOL    HW115905   3.044   4.173   2.936  0.3590  0.3230 -1.2531
 1482SOL    HW215906   3.006   4.051   2.845  0.9249 -0.2504  0.3933
 1483SOL     OW15907   0.654   1.003   5.298 -0.6951  0.2365 -0.0049
 1483SOL    HW115908   0.590   1.024   5.365 -0.9205 -1.0135  0.1629
 1483SOL    HW215909   0.726   1.065   5.314 -1.4015  1.0286  0.0757
 1484SOL     OW15910   3.119   3.702  15.491  0.4761 -0.3140 -0.2178
 1484SOL    HW115911   3.177   3.627  15.508 -0.9804 -1.2719  0.5071
 1484SOL    HW215912   3.035   3.675  15.528 -0.5268  1.3462 -1.2972
 1485SOL     OW15913   4.346   4.243  13.762 -0.0430 -0.2901 -0.4652
 1485SOL    HW115914   4.400   4.242  13.841  2.0287  1.1012 -1.8683
 1485SOL    HW215915   4.355   4.336  13.745  0.1810 -0.7202 -2.6734
 1486SOL     OW15916   1.686   2.460   8.237 -0.5886 -0.1277 -0.0885
 1486SOL    HW115917   1.686   2.451   8.141  1.4343 -0.2885 -0.0803
 1486SOL    HW215918   1.702   2.372   8.270  0.8208  0.6429  1.2888
 1487SOL     OW15919   0.891   4.554   6.855 -0.3357  0.0384 -0.1743
 1487SOL    HW115920   0.811   4.568   6.906 -0.5356 -0.3119 -0.3941
 1487SOL    HW215921   0.954   4.611   6.899 -0.5051  0.4427 -0.4557
 1488SOL     OW15922   2.808   2.260   6.558  0.1837 -0.2480 -0.4485
 1488SOL    HW115923   2.879   2.218   6.509  1.0023  1.3222 -0.6066
 1488SOL    HW215924   2.847   2.303   6.634  0.0402 -0.0205 -0.5003
 1489SOL     OW15925   0.030   4.352   4.752 -0.1801 -0.0613 -0.0674
 1489SOL    HW115926   0.070   4.405   4.683 -3.2312  0.1216 -1.7071
 1489SOL    HW215927   4.663   4.365   4.753 -0.2788 -0.6390 -1.2016
 1490SOL     OW15928   1.001   0.533   4.860 -0.4573  0.4994 -0.1711
 1490SOL    HW115929   1.083   0.576   4.884  0.2358 -1.2864  0.6274
 1490SOL    HW215930   0.967   0.526   4.949 -2.0380 -0.0209 -0.8291
 1491SOL     OW15931   4.232   0.472   4.032 -0.2265  0.1497 -0.0183
 1491SOL    HW115932   4.328   0.468   4.029 -0.3590 -3.6677  0.9659
 1491SOL    HW215933   4.227   0.524   4.112  0.7570 -0.2014  0.2705
 1492SOL     OW15934   3.082   3.766   2.152  0.0201 -0.6709  0.1218
 1492SOL    HW115935   3.149   3.804   2.209 -0.6940  0.4380  0.2408
 1492SOL    HW215936   3.137   3.691   2.132  0.9329 -0.3693  1.4902
 1493SOL     OW15937   2.880   2.139  15.827 -0.4027 -0.2193 -0.3097
 1493SOL    HW115938   2.909   2.118  15.915 -0.0874 -0.4995 -0.4810
 1493SOL    HW215939   2.810   2.075  15.809 -1.3413  1.2117 -1.7942
 1494SOL     OW15940   3.550   2.925   7.794  0.2460  0.0215 -0.4058
 1494SOL    HW115941   3.458   2.910   7.772  0.0667  0.4170  0.0481
 1494SOL    HW215942   3.599   2.919   7.713  1.0208 -0.1568  0.0795
 1495SOL     OW15943   0.742   1.356   4.764 -0.3488  0.2726  0.4135
 1495SOL    HW115944   0.670   1.417   4.780 -0.3415  0.5072 -0.4395
 1495SOL    HW215945   0.801   1.413   4.713 -2.4411  0.6016 -1.6709
 1496SOL     OW15946   2.200   3.155   4.776 -0.1235 -1.0402  0.2424
 1496SOL    HW115947   2.146   3.225   4.812  2.0059 -0.2242  1.8728
 1496SOL    HW215948   2.271   3.207   4.738 -1.7341  1.9490  1.3853
 1497SOL     OW15949   4.374   1.996   9.383  0.0557 -0.1340  0.5650
 1497SOL    HW115950   4.299   1.944   9.412  0.9503 -2.5772 -1.5065
 1497SOL    HW215951   4.448   1.943   9.414 -0.3389 -2.2356 -2.1883
 1498SOL     OW15952   2.843   4.345   6.013  0.1053  0.3542 -0.0291
 1498SOL    HW115953   2.842   4.266   6.067  0.7387 -1.0863 -2.1379
 1498SOL    HW215954   2.934   4.372   6.028 -0.9555  3.2616  1.2416
 1499SOL     OW15955   1.380   0.151  16.283 -0.0819 -0.6722 -0.6247
 1499SOL    HW115956   1.333   0.086  16.334  0.3432 -1.9246 -1.8342
 1499SOL    HW215957   1.349   0.232  16.324 -2.6507 -1.8426 -0.2974
 1500SOL     OW15958   3.060   1.841  14.268 -0.0461 -0.0758  0.5229
 1500SOL    HW115959   3.017   1.925  14.254  0.7342  0.0767 -0.9318
 1500SOL    HW215960   3.095   1.824  14.180  0.9580  4.1047  0.1389
 1501SOL     OW15961   2.547   3.465  10.901 -0.2683 -0.1982  0.1520
 1501SOL    HW115962   2.571   3.382  10.859 -0.5306 -1.0968  1.7435
 1501SOL    HW215963   2.486   3.500  10.837  1.8240  1.6363 -0.8251
 1502SOL     OW15964   3.763   1.782   0.192  0.3020  0.4374 -0.6634
 1502SOL    HW115965   3.770   1.854   0.254  1.7802 -0.9088  0.7503
 1502SOL    HW215966   3.704   1.825   0.131 -1.0567  1.2754  1.2529
 1503SOL     OW15967   3.407   3.812   8.987  0.0185  0.3337  0.0077
 1503SOL    HW115968   3.480   3.782   8.934 -1.8420 -0.6821 -1.9969
 1503SOL    HW215969   3.454   3.878   9.039 -2.2700 -0.6276  3.3098
 1504SOL     OW15970   0.136   0.233   4.186 -0.1197 -0.5517  0.3216
 1504SOL    HW115971   0.097   0.205   4.269 -1.2880 -1.0361 -0.3992
 1504SOL    HW215972   0.134   0.329   4.190  1.7696 -0.4591 -0.8541
 1505SOL     OW15973   0.323   3.155   5.361  0.3067 -0.4507  0.7998
 1505SOL    HW115974   0.308   3.080   5.419  3.7693 -0.3885  1.8053
 1505SOL    HW215975   0.409   3.129   5.328 -0.2039  0.9576 -1.5804
 1506SOL     OW15976   0.268   1.002   9.270  0.2434 -0.3862 -0.6876
 1506SOL    HW115977   0.262   1.054   9.351  0.4763  2.5774 -2.5791
 1506SOL    HW215978   0.174   0.987   9.259  0.3574  0.2791 -2.5621
 1507SOL     OW15979   2.702   1.441   4.443 -0.5763 -0.3148 -0.2557
 1507SOL    HW115980   2.645   1.513   4.416 -2.3406 -2.1844 -1.5871
 1507SOL    HW215981   2.784   1.464   4.400  0.3552 -2.8508  0.1600
 1508SOL     OW15982   0.369   2.362  15.876  0.0692  0.0348  0.2675
 1508SOL    HW115983   0.377   2.360  15.971  1.5557  1.5949  0.1732
 1508SOL    HW215984   0.462   2.368  15.853  0.0205 -3.0055 -0.6400
 1509SOL     OW15985   1.809   1.816   2.535 -0.5312  0.3877  0.6818
 1509SOL    HW115986   1.839   1.823   2.445  2.6847  2.5771  1.9292
 1509SOL    HW215987   1.770   1.729   2.528 -0.4291  0.1783  2.7220
 1510SOL     OW15988   0.820   1.814  17.191  0.0876  0.0436 -0.0233
 1510SOL    HW115989   0.781   1.876  17.252 -0.5137  0.7913 -1.1539
 1510SOL    HW215990   0.873   1.762  17.251  0.1995  0.9460  0.6499
 1511SOL     OW15991   4.210   1.153  17.316 -0.2946  0.2979  0.0440
 1511SOL    HW115992   4.267   1.097  17.368  0.0037 -0.4733 -1.1205
 1511SOL    HW215993   4.209   1.231  17.372  0.0517 -0.0497  0.5235
 1512SOL     OW15994   1.005   1.381  11.333 -0.4051 -0.2647 -0.4029
 1512SOL    HW115995   1.086   1.433  11.328 -1.0996  1.0680  2.0633
 1512SOL    HW215996   1.026   1.309  11.274 -1.4504  0.6754 -1.9305
 1513SOL     OW15997   4.150   4.727   0.818 -0.5394 -0.5625 -0.2397
 1513SOL    HW115998   4.160   0.033   0.729  1.2098  1.4726  0.7217
 1513SOL    HW215999   4.158   0.086   0.857 -0.0772 -1.7237  2.2485
 1514SOL     OW16000   3.065   0.397   2.672 -0.0010  0.2666  0.2487
 1514SOL    HW116001   3.124   0.457   2.626 -0.6618 -1.0459 -2.3332
 1514SOL    HW216002   3.004   0.455   2.717 -0.6140 -1.9193  2.2384
 1515SOL     OW16003   1.268   4.601  11.361  0.4514 -0.0200  0.1040
 1515SOL    HW116004   1.278   4.507  11.346  2.1263  0.5490 -2.4049
 1515SOL    HW216005   1.356   4.635  11.346 -0.7242  3.2184  0.6187
 1516SOL     OW16006   3.416   2.520  17.420  0.2743 -0.3661  0.3572
 1516SOL    HW116007   3.421   2.425  17.408 -1.0899 -0.4734  0.6732
 1516SOL    HW216008   3.503   2.545  17.390  0.4290  0.1213  1.2222
 1517SOL     OW16009   2.121   1.476   2.986 -0.6637 -0.1434  0.2186
 1517SOL    HW116010   2.122   1.428   3.069  0.8537 -1.0941 -0.3535
 1517SOL    HW216011   2.063   1.417   2.938  0.9326 -1.0734 -0.5517
 1518SOL     OW16012   1.042   3.187   8.027  0.0275 -0.2373 -0.1514
 1518SOL    HW116013   1.103   3.199   8.099  0.4219  2.0467 -0.8678
 1518SOL    HW216014   0.970   3.148   8.077 -1.3593  0.7101 -1.4130
 1519SOL     OW16015   4.502   2.208  14.046  0.1205 -0.2696 -0.2390
 1519SOL    HW116016   4.444   2.203  14.122 -2.1336 -1.6594 -2.0514
 1519SOL    HW216017   4.444   2.262  13.991  0.8577 -1.1563 -1.8724
 1520SOL     OW16018   2.144   3.756   9.594 -0.1125 -0.7077 -0.7804
 1520SOL    HW116019   2.204   3.755   9.669 -0.4202 -1.3058 -0.5451
 1520SOL    HW216020   2.146   3.666   9.559  2.1920 -0.6474 -0.8019
 1521SOL     OW16021   2.644   0.940  17.319  0.3876 -0.0651  0.2854
 1521SOL    HW116022   2.624   0.847  17.306 -0.3454  0.3575 -1.6253
 1521SOL    HW216023   2.661   0.968  17.229 -1.5804  0.4247  0.0466
 1522SOL     OW16024   3.731   1.183   0.531  0.0349  0.6133 -0.2208
 1522SOL    HW116025   3.825   1.181   0.553 -0.2082  1.2653  0.8651
 1522SOL    HW216026   3.700   1.245   0.596 -1.0067 -0.8572  0.6812
 1523SOL     OW16027   4.643   1.207   7.998 -0.1529 -0.6472 -0.1902
 1523SOL    HW116028   4.596   1.207   7.915 -0.1229  0.6169 -0.2201
 1523SOL    HW216029   4.621   1.292   8.038  1.7472  0.0447 -0.6024
 1524SOL     OW16030   3.702   1.524  14.298 -0.0656 -0.3933  0.7719
 1524SOL    HW116031   3.678   1.444  14.251 -1.5233 -0.3896  1.5163
 1524SOL    HW216032   3.777   1.497  14.351  0.2656 -0.9313  0.0297
 1525SOL     OW16033   1.152   2.784   2.385 -0.0611  0.3100 -0.7347
 1525SOL    HW116034   1.152   2.876   2.412  0.5862  0.1973 -0.3360
 1525SOL    HW216035   1.084   2.745   2.440 -0.6414  1.4717 -0.6198
 1526SOL     OW16036   0.942   0.822   0.652 -0.1392  0.1762 -0.6309
 1526SOL    HW116037   1.003   0.776   0.595 -0.7301 -0.7390 -0.5198
 1526SOL    HW216038   0.978   0.911   0.645 -2.9867  1.1332 -3.0673
 1527SOL     OW16039   3.972   4.034   3.183 -0.6627 -0.3387  0.0170
 1527SOL    HW116040   4.061   4.014   3.153 -0.0512 -0.9107  2.1788
 1527SOL    HW216041   3.969   3.985   3.265  0.8130  0.3534  0.4873
 1528SOL     OW16042   4.416   1.430  15.848 -0.0695  0.2847 -0.0053
 1528SOL    HW116043   4.326   1.404  15.828  0.4551 -0.2167 -1.6577
 1528SOL    HW216044   4.422   1.525  15.839 -1.4266  0.4120  0.3957
 1529SOL     OW16045   1.060   3.411   6.083  0.6670 -0.2380 -0.1275
 1529SOL    HW116046   1.103   3.360   6.014  2.7696 -0.0463  1.0503
 1529SOL    HW216047   0.975   3.419   6.039  0.2097  0.3886  0.8891
 1530SOL     OW16048   2.960   3.790  11.086  0.1589  0.2418 -0.0614
 1530SOL    HW116049   2.999   3.760  11.168 -1.0091  2.7385  1.4170
 1530SOL    HW216050   2.960   3.713  11.029 -0.4459 -0.6712  1.1475
 1531SOL     OW16051   1.915   0.790   4.890 -0.3653  0.0004 -0.4999
 1531SOL    HW116052   1.903   0.882   4.914  2.9828  0.3678 -0.2819
 1531SOL    HW216053   1.887   0.739   4.966 -0.9357 -1.5197 -1.7205
 1532SOL     OW16054   2.423   3.366   5.656  0.0699  0.0205  0.5893
 1532SOL    HW116055   2.400   3.314   5.733  0.5855 -1.7044 -0.4103
 1532SOL    HW216056   2.449   3.452   5.689 -0.2107  0.9713 -1.6476
 1533SOL     OW16057   1.836   0.851   7.093 -0.5384  1.0351 -0.0500
 1533SOL    HW116058   1.878   0.864   7.008  0.4100  0.1321  0.2852
 1533SOL    HW216059   1.750   0.890   7.075 -1.7065 -1.5431  0.0578
 1534SOL     OW16060   2.627   3.246  13.040  0.2740  0.2518  0.1811
 1534SOL    HW116061   2.673   3.168  13.070  0.6726  0.4818  0.1637
 1534SOL    HW216062   2.541   3.204  13.045  0.4047 -0.1683 -0.8970
 1535SOL     OW16063   3.859   1.203  14.595 -0.6642 -0.6631 -0.3181
 1535SOL    HW116064   3.930   1.267  14.602 -1.2656 -0.3462  2.5716
 1535SOL    HW216065   3.908   1.125  14.623 -0.0711 -0.5518 -1.0207
 1536SOL     OW16066   0.622   0.777   1.984  0.3926  0.0133  0.2908
 1536SOL    HW116067   0.588   0.860   2.018  0.0344 -0.0702  0.1399
 1536SOL    HW216068   0.624   0.719   2.060  1.4436  0.2922  0.4784
 1537SOL     OW16069   2.410   1.669   2.148 -0.5648  0.0633  0.1940
 1537SOL    HW116070   2.422   1.602   2.215  0.6177  0.4859  0.4032
 1537SOL    HW216071   2.399   1.620   2.066 -1.7753  1.4455 -0.4654
 1538SOL     OW16072   4.029   4.463   3.362 -0.0400 -0.0184  0.3717
 1538SOL    HW116073   3.978   4.516   3.301 -0.5623  3.4557  3.7994
 1538SOL    HW216074   3.960   4.403   3.391  0.5644 -1.6381 -1.5862
 1539SOL     OW16075   2.074   1.366   3.505  0.3879 -0.0051  0.4211
 1539SOL    HW116076   2.021   1.423   3.561 -1.4050  0.3146 -1.6356
 1539SOL    HW216077   2.067   1.289   3.562  0.8098  0.8078  1.5732
 1540SOL     OW16078   2.699   0.580   3.002  0.3009  0.1780  0.4600
 1540SOL    HW116079   2.668   0.491   3.021  1.5774 -0.0330  1.6147
 1540SOL    HW216080   2.612   0.618   2.993  1.2999  2.3808  0.2634
 1541SOL     OW16081   3.264   4.408  17.289  0.1127 -0.3315  0.8096
 1541SOL    HW116082   3.360   4.411  17.294  0.0828  2.2957 -0.0683
 1541SOL    HW216083   3.247   4.315  17.274 -1.2108 -0.1837  1.4111
 1542SOL     OW16084   4.242   1.358   7.575  0.1771 -0.3368  0.1643
 1542SOL    HW116085   4.323   1.319   7.541  0.9465  2.8753 -1.6372
 1542SOL    HW216086   4.176   1.319   7.518 -1.1527 -0.7865  2.0095
 1543SOL     OW16087   3.076   2.682   4.055 -0.4936  0.2819  0.4590
 1543SOL    HW116088   3.037   2.626   3.988 -0.1917  1.7280 -0.9163
 1543SOL    HW216089   3.155   2.628   4.060 -0.4003  0.3203 -0.5766
 1544SOL     OW16090   1.164   3.836   4.771  0.6026  0.2666 -0.0012
 1544SOL    HW116091   1.077   3.797   4.777 -0.4083  2.2235 -1.8334
 1544SOL    HW216092   1.202   3.793   4.695 -0.2091  0.9432 -0.7973
 1545SOL     OW16093   4.318   1.197   6.900  0.0500 -0.2467 -0.1218
 1545SOL    HW116094   4.366   1.159   6.827  1.3313  0.1188  0.5236
 1545SOL    HW216095   4.337   1.290   6.888  1.9359 -0.7430 -0.8733
 1546SOL     OW16096   3.115   1.628   6.921 -0.4509 -0.4917  0.1100
 1546SOL    HW116097   3.123   1.608   7.014 -1.8197  1.5563  0.6714
 1546SOL    HW216098   3.205   1.640   6.892 -0.3874 -2.7277 -0.6388
 1547SOL     OW16099   0.058   1.319   2.862 -0.6810 -0.2213  0.1774
 1547SOL    HW116100   0.109   1.350   2.936 -0.8118 -0.7529  0.4899
 1547SOL    HW216101   0.099   1.367   2.790 -0.5542  1.5816  1.4401
 1548SOL     OW16102   0.183   2.823   1.217 -0.0150  0.0905  0.2571
 1548SOL    HW116103   0.263   2.805   1.266 -0.2362 -0.9569  0.2395
 1548SOL    HW216104   0.179   2.918   1.208  0.7898  0.2227  1.3462
 1549SOL     OW16105   1.474   2.628   6.649  0.0504 -0.8744 -0.1017
 1549SOL    HW116106   1.510   2.565   6.587  1.3671  0.3864 -0.6283
 1549SOL    HW216107   1.384   2.627   6.615  0.5720  1.8884 -1.6141
 1550SOL     OW16108   2.245   2.604   7.156  0.1824  0.2999  0.1840
 1550SOL    HW116109   2.166   2.653   7.180 -0.2902  1.0772 -2.8665
 1550SOL    HW216110   2.193   2.525   7.145  2.6284 -1.3529  0.5126
 1551SOL     OW16111   0.104   1.287   8.609  0.3861 -1.1027  0.5082
 1551SOL    HW116112   0.027   1.277   8.553 -1.1882  1.1862  2.2384
 1551SOL    HW216113   0.165   1.249   8.546 -2.0898 -1.3095 -1.8080
 1552SOL     OW16114   0.335   2.289  10.499  0.1523  0.1357 -0.2156
 1552SOL    HW116115   0.263   2.226  10.504 -0.3118  0.5503 -1.4808
 1552SOL    HW216116   0.313   2.345  10.573  0.3541  0.1187 -0.1450
 1553SOL     OW16117   3.013   4.598   9.921 -0.0458  0.4780 -0.4399
 1553SOL    HW116118   2.994   4.587   9.828 -2.1636  1.9642 -0.1912
 1553SOL    HW216119   3.105   4.627   9.917  0.0061  0.3717 -0.0141
 1554SOL     OW16120   2.276   3.405   8.333 -0.3067 -0.3122 -0.4159
 1554SOL    HW116121   2.269   3.323   8.283  0.6381 -0.1715 -0.7826
 1554SOL    HW216122   2.350   3.384   8.389  2.7847  1.1619 -3.9865
 1555SOL     OW16123   3.372   0.746   8.308 -0.0684  0.2809  0.2702
 1555SOL    HW116124   3.461   0.729   8.277  0.4416  0.3895  1.6703
 1555SOL    HW216125   3.363   0.677   8.373 -0.0117  2.0754  2.1817
 1556SOL     OW16126   1.261   1.376   8.295 -0.3081 -0.2134  0.3619
 1556SOL    HW116127   1.353   1.349   8.304 -0.0206  0.4685 -0.5760
 1556SOL    HW216128   1.239   1.344   8.207 -0.2870 -1.0042  0.6405
 1557SOL     OW16129   3.343   2.216   7.145  0.2894 -0.1455  0.3584
 1557SOL    HW116130   3.427   2.192   7.183  0.1386 -1.5010 -0.1607
 1557SOL    HW216131   3.345   2.177   7.058 -0.0769  0.3249  0.1382
 1558SOL     OW16132   0.668   1.903   6.832  0.6932 -0.1374  0.1939
 1558SOL    HW116133   0.626   1.874   6.751 -0.2692  0.5478  0.4561
 1558SOL    HW216134   0.589   1.952   6.854 -0.1862 -1.3853 -0.1623
 1559SOL     OW16135   3.252   0.811   7.253  0.1779 -0.1069  0.4525
 1559SOL    HW116136   3.207   0.783   7.173  1.4340  0.3330 -0.4103
 1559SOL    HW216137   3.307   0.734   7.266 -0.4614 -0.5540  0.4832
 1560SOL     OW16138   1.934   3.948  14.673  0.6802 -0.4091  0.4869
 1560SOL    HW116139   1.913   3.909  14.758 -0.8029 -0.6942 -0.0177
 1560SOL    HW216140   1.927   4.041  14.697 -0.7446  0.3262 -2.8234
 1561SOL     OW16141   0.564   1.381   3.662 -0.8047 -0.7611 -0.1231
 1561SOL    HW116142   0.474   1.390   3.632 -1.0852  2.2595  1.5689
 1561SOL    HW216143   0.604   1.439   3.597 -0.4233 -2.0784 -1.0615
 1562SOL     OW16144   0.446   1.725   1.440  0.5546  0.2742 -0.6402
 1562SOL    HW116145   0.508   1.782   1.486  0.3550  0.1021 -0.1506
 1562SOL    HW216146   0.499   1.646   1.449  2.3651  1.5417 -0.2502
 1563SOL     OW16147   3.181   4.011   1.786  0.0437  0.4688  0.4590
 1563SOL    HW116148   3.228   3.963   1.718  0.7605  0.2689  1.0885
 1563SOL    HW216149   3.259   4.048   1.827 -0.0165  0.5572  0.4936
 1564SOL     OW16150   0.202   2.449   7.975 -0.4293 -0.3900  0.2532
 1564SOL    HW116151   0.155   2.529   7.997 -0.0661  0.0369 -0.5348
 1564SOL    HW216152   0.265   2.487   7.914 -0.7222  0.4136  0.4522
 1565SOL     OW16153   3.596   0.258   7.667 -0.3933  0.3397 -0.2654
 1565SOL    HW116154   3.667   0.252   7.603  0.4335  2.3961  0.4414
 1565SOL    HW216155   3.604   0.344   7.710 -1.9225 -0.5148  1.7352
 1566SOL     OW16156   3.868   2.672  16.902  0.1504  0.4875 -0.6721
 1566SOL    HW116157   3.815   2.631  16.970  1.6633  0.1272  0.2828
 1566SOL    HW216158   3.800   2.696  16.839  0.7677  0.4252 -1.3690
 1567SOL     OW16159   3.812   1.402   8.498 -0.1373  0.4611  0.2050
 1567SOL    HW116160   3.839   1.491   8.522  1.5568 -0.7909  3.0046
 1567SOL    HW216161   3.837   1.391   8.406 -0.3099 -0.6970  0.3019
 1568SOL     OW16162   3.465   2.221   1.021 -0.1600 -0.0523  0.0013
 1568SOL    HW116163   3.532   2.178   1.074 -0.3536 -0.9429 -0.4893
 1568SOL    HW216164   3.489   2.313   1.035  0.1517 -0.3649  1.5125
 1569SOL     OW16165   0.829   2.603   5.281 -0.2793  0.0190  0.6386
 1569SOL    HW116166   0.885   2.529   5.305  1.6660  1.4087  0.4733
 1569SOL    HW216167   0.864   2.670   5.340  1.7688  0.1441 -0.7017
 1570SOL     OW16168   1.930   0.905   6.282  0.6453  0.1054  0.3356
 1570SOL    HW116169   1.846   0.861   6.268  0.4885  0.5139 -0.0205
 1570SOL    HW216170   1.933   0.956   6.201  0.7835  0.3447  0.4901
 1571SOL     OW16171   3.112   1.775   6.284  0.1945 -0.2116 -0.2615
 1571SOL    HW116172   3.174   1.712   6.247 -2.1224 -0.4559 -3.6664
 1571SOL    HW216173   3.070   1.719   6.349  2.0540 -3.4593 -1.8445
 1572SOL     OW16174   4.302   2.409   7.058 -0.1397  0.2050 -0.1402
 1572SOL    HW116175   4.237   2.393   7.126 -1.6681 -0.3972 -1.7553
 1572SOL    HW216176   4.260   2.465   6.993  2.4134  1.4018 -0.7803
 1573SOL     OW16177   0.351   2.289  15.612 -0.3924 -0.5425 -0.3796
 1573SOL    HW116178   0.329   2.343  15.688 -1.5454 -1.6088  0.0587
 1573SOL    HW216179   0.385   2.354  15.551 -0.4588 -1.1669 -1.0793
 1574SOL     OW16180   3.222   2.964  12.124 -0.0905  0.6498 -0.1690
 1574SOL    HW116181   3.188   3.048  12.093  0.9448  0.9832 -0.4031
 1574SOL    HW216182   3.309   2.991  12.152  0.5903  0.2093 -1.8122
 1575SOL     OW16183   3.180   0.941   0.727 -0.1005  0.0343  0.4286
 1575SOL    HW116184   3.109   0.879   0.710  0.4432 -0.2842 -0.7320
 1575SOL    HW216185   3.236   0.926   0.650 -1.5781  0.6994 -0.7777
 1576SOL     OW16186   2.569   2.835  11.041 -0.2566  0.0360  0.1979
 1576SOL    HW116187   2.552   2.893  10.967  1.5295  0.4157  0.0708
 1576SOL    HW216188   2.664   2.848  11.046 -0.1974  0.5556 -2.2775
 1577SOL     OW16189   1.451   0.708   5.912 -0.2272 -0.4199  0.2113
 1577SOL    HW116190   1.537   0.723   5.951 -0.1222 -0.5298  0.0239
 1577SOL    HW216191   1.480   0.683   5.824  0.2963  0.0518  0.2524
 1578SOL     OW16192   0.796   4.563   3.076 -0.5405 -0.7029  1.0165
 1578SOL    HW116193   0.822   4.592   2.989 -0.7136  0.9959  1.5315
 1578SOL    HW216194   0.812   4.647   3.120 -1.8433 -1.2117  2.4578
 1579SOL     OW16195   0.153   0.927  10.854  0.6291 -0.0278  0.3744
 1579SOL    HW116196   0.112   0.844  10.830  0.2357 -0.1019  1.3036
 1579SOL    HW216197   0.089   0.982  10.899  1.0684 -0.4936  1.5664
 1580SOL     OW16198   0.739   0.853  12.320 -0.1315  0.0670  0.0369
 1580SOL    HW116199   0.819   0.830  12.367  0.5659  0.1530 -1.1280
 1580SOL    HW216200   0.719   0.933  12.368 -1.1693 -1.0206  1.4629
 1581SOL     OW16201   3.118   3.501   2.389 -0.0336 -0.3580 -0.0297
 1581SOL    HW116202   3.195   3.554   2.407 -0.3151 -0.2021  0.7151
 1581SOL    HW216203   3.120   3.493   2.294 -0.8309  0.4194 -0.1168
 1582SOL     OW16204   0.653   1.901  12.466  0.2517 -0.0859 -0.2542
 1582SOL    HW116205   0.742   1.868  12.478  0.2579  0.0218 -0.0062
 1582SOL    HW216206   0.610   1.816  12.471  2.3327 -1.2991 -3.0063
 1583SOL     OW16207   0.184   1.369   6.583  0.2868 -0.4055 -0.0298
 1583SOL    HW116208   0.151   1.312   6.514 -0.7774 -0.9621  0.9609
 1583SOL    HW216209   0.131   1.448   6.569  0.2241 -0.2161  1.2842
 1584SOL     OW16210   0.100   0.303   7.946  0.2669  0.5671 -0.3237
 1584SOL    HW116211   0.173   0.345   7.991 -0.2762  0.9154  0.2252
 1584SOL    HW216212   0.111   0.212   7.974 -4.1816  0.1735  0.1914
 1585SOL     OW16213   1.166   2.898   1.877 -0.4010  0.0283  0.2826
 1585SOL    HW116214   1.212   2.915   1.960 -1.1416 -1.6171  1.0422
 1585SOL    HW216215   1.162   2.802   1.878  2.3659 -0.1134  0.5204
 1586SOL     OW16216   0.794   0.302   6.521  0.0626  0.2629  0.3326
 1586SOL    HW116217   0.855   0.376   6.515  2.7685 -1.7262  2.9643
 1586SOL    HW216218   0.852   0.226   6.521 -0.0725  0.1658  1.8703
 1587SOL     OW16219   4.020   2.187  11.916 -0.2693 -0.1109  0.3316
 1587SOL    HW116220   4.073   2.254  11.872 -0.3743 -0.2353  0.0145
 1587SOL    HW216221   4.058   2.107  11.881 -0.9190 -1.4519  2.7379
 1588SOL     OW16222   2.075   0.272   9.600 -0.3611 -0.1578 -0.2051
 1588SOL    HW116223   2.098   0.180   9.614  1.5708 -0.2789 -4.0764
 1588SOL    HW216224   2.130   0.293   9.524  0.1171  1.4980  0.6169
 1589SOL     OW16225   3.576   4.109  11.936  0.6573  0.1363  0.2126
 1589SOL    HW116226   3.602   4.201  11.930 -0.6073  0.4946  0.0137
 1589SOL    HW216227   3.480   4.119  11.935  0.4922 -1.2419  2.4609
 1590SOL     OW16228   2.096   4.515   2.761  0.4394 -0.3199  0.2690
 1590SOL    HW116229   2.130   4.427   2.749 -1.1270 -0.6766 -1.4759
 1590SOL    HW216230   2.014   4.508   2.712  0.2637 -0.2632  0.5569
 1591SOL     OW16231   4.184   3.843  10.717  0.0505  0.4235  0.0463
 1591SOL    HW116232   4.121   3.905  10.755 -0.9471 -1.5501  1.5644
 1591SOL    HW216233   4.209   3.887  10.636 -3.6865 -2.3485 -2.6131
 1592SOL     OW16234   1.019   4.422   0.124 -0.5344 -0.8316 -0.6342
 1592SOL    HW116235   0.933   4.465   0.123 -0.2813 -0.2324  1.6722
 1592SOL    HW216236   1.052   4.468   0.202 -0.9092 -1.6698  0.0278
 1593SOL     OW16237   0.213   3.731   5.738  0.8231  0.1988 -0.0428
 1593SOL    HW116238   0.159   3.803   5.768  0.6251  0.1432 -0.2716
 1593SOL    HW216239   0.147   3.662   5.735  0.0409  0.9266  0.4273
 1594SOL     OW16240   0.154   4.673   7.310 -0.1359  0.1873  0.3212
 1594SOL    HW116241   0.162   4.578   7.316 -0.2004  0.2262  0.9988
 1594SOL    HW216242   0.161   4.703   7.401 -1.1733  0.5561  0.2788
 1595SOL     OW16243   0.288   1.779   0.366 -0.1580  0.1383 -0.3888
 1595SOL    HW116244   0.341   1.859   0.362  0.7928 -0.4129  1.1780
 1595SOL    HW216245   0.260   1.771   0.275  0.6189 -0.2460 -0.5896
 1596SOL     OW16246   4.122   3.424   3.924  0.0211  0.3693  0.7588
 1596SOL    HW116247   4.121   3.513   3.960 -2.1323  1.6987 -2.6391
 1596SOL    HW216248   4.030   3.402   3.935 -0.4395  1.6865 -0.4688
 1597SOL     OW16249   0.558   3.845   6.785 -0.2672 -0.1963  0.1878
 1597SOL    HW116250   0.540   3.858   6.878 -1.6641  1.5081 -0.3145
 1597SOL    HW216251   0.616   3.769   6.782 -1.8425 -1.3978 -0.2226
 1598SOL     OW16252   4.491   4.639   0.264  0.1143 -0.0734 -0.2521
 1598SOL    HW116253   4.569   4.652   0.210  0.8378  1.0241  1.0394
 1598SOL    HW216254   4.435   4.710   0.231 -0.3193 -0.2931  0.0176
 1599SOL     OW16255   1.595   2.741   2.889 -0.1140 -0.3316  0.2781
 1599SOL    HW116256   1.613   2.675   2.955  1.8107  1.0814  1.1844
 1599SOL    HW216257   1.524   2.696   2.843  0.9243 -0.6004 -1.0782
 1600SOL     OW16258   2.490   4.094  13.459 -0.0074  0.0774 -0.5693
 1600SOL    HW116259   2.577   4.132  13.446  0.5090 -0.3795  1.6292
 1600SOL    HW216260   2.437   4.150  13.401 -0.5286  0.1446 -0.0260
 1601SOL     OW16261   2.830   1.016   7.134 -0.2762 -0.0227  0.6053
 1601SOL    HW116262   2.780   1.053   7.061  1.0232 -0.4958 -0.5014
 1601SOL    HW216263   2.900   0.973   7.086 -0.5757 -0.1345  0.2650
 1602SOL     OW16264   3.215   2.846  12.367 -0.3454 -0.5188 -0.3330
 1602SOL    HW116265   3.241   2.860  12.276  1.8808  1.6998  0.6437
 1602SOL    HW216266   3.153   2.775  12.350  0.1523 -1.3438  1.3311
 1603SOL     OW16267   2.055   3.488  11.465 -0.1293  0.2335 -0.2503
 1603SOL    HW116268   2.115   3.531  11.405  0.4480 -0.4976 -0.1946
 1603SOL    HW216269   2.088   3.507  11.552  0.9662 -1.3038 -0.3314
 1604SOL     OW16270   4.706   2.896   7.503  0.7084 -0.4209  0.4588
 1604SOL    HW116271   0.065   2.920   7.471 -1.0007  0.9832 -3.2201
 1604SOL    HW216272   4.712   2.925   7.594 -1.7390 -1.1342  0.8548
 1605SOL     OW16273   0.380   1.104   3.121  0.0156  0.6440  0.3103
 1605SOL    HW116274   0.393   1.199   3.129 -0.5705  0.7578 -0.1638
 1605SOL    HW216275   0.315   1.085   3.188 -0.9615  2.2387 -0.1889
 1606SOL     OW16276   1.366   3.823   8.355 -0.1992 -0.5082 -0.4410
 1606SOL    HW116277   1.426   3.749   8.338  0.4509 -0.8320  3.4499
 1606SOL    HW216278   1.378   3.835   8.449 -1.3925 -0.7837 -0.2545
 1607SOL     OW16279   2.373   0.206  14.430  0.3094 -0.5322 -0.1149
 1607SOL    HW116280   2.356   0.294  14.464 -2.2574 -0.6243 -1.1805
 1607SOL    HW216281   2.282   0.193  14.404  0.5454 -1.4821 -0.4728
 1608SOL     OW16282   3.825   1.188   6.625 -0.3918  0.1067  0.2148
 1608SOL    HW116283   3.797   1.126   6.558  0.2566  0.6134 -0.5217
 1608SOL    HW216284   3.756   1.254   6.613  1.8042  2.1174 -1.3535
 1609SOL     OW16285   1.926   2.104   8.468  0.5291 -0.3676 -0.5450
 1609SOL    HW116286   2.018   2.105   8.443  0.1211  1.2201 -1.9821
 1609SOL    HW216287   1.919   2.041   8.540  2.6271 -1.2661 -1.1356
 1610SOL     OW16288   2.549   3.361   7.842 -0.1234  0.3416 -0.1444
 1610SOL    HW116289   2.589   3.288   7.888 -2.8787  1.8667  4.6253
 1610SOL    HW216290   2.464   3.375   7.883 -1.2320 -0.4874 -2.1549
 1611SOL     OW16291   3.243   1.035   3.892  0.0692  0.2511  0.1786
 1611SOL    HW116292   3.288   1.082   3.961 -2.5970 -1.4499  3.0543
 1611SOL    HW216293   3.152   1.059   3.909  0.2898  1.7910 -0.8340
 1612SOL     OW16294   2.182   3.367   7.231  0.2097  0.3762 -0.2899
 1612SOL    HW116295   2.192   3.277   7.203  2.7726  0.1443  1.3623
 1612SOL    HW216296   2.098   3.357   7.276  0.3382 -1.5198 -0.4768
 1613SOL     OW16297   0.422   4.309  13.448 -0.2199 -0.4229 -0.1749
 1613SOL    HW116298   0.357   4.293  13.379 -2.2026  2.1868  1.0826
 1613SOL    HW216299   0.485   4.237  13.443  0.4744  0.3551 -2.6081
 1614SOL     OW16300   4.024   2.679   5.638  0.3679  0.2849  0.1857
 1614SOL    HW116301   4.039   2.753   5.579  0.4979 -2.0455 -2.7080
 1614SOL    HW216302   4.029   2.606   5.576  1.7777  0.9749 -0.5082
 1615SOL     OW16303   1.704   2.239   5.142  0.1293  0.1873  0.2439
 1615SOL    HW116304   1.782   2.247   5.197  0.1011 -0.1237  0.3299
 1615SOL    HW216305   1.680   2.330   5.125  1.5367  0.3365 -0.9307
 1616SOL     OW16306   4.584   1.331  10.183  0.2032  0.2948 -0.2219
 1616SOL    HW116307   4.630   1.355  10.103  1.8784  0.3936  0.7607
 1616SOL    HW216308   4.519   1.276  10.140  1.6247 -0.6325 -1.2044
 1617SOL     OW16309   4.623   0.332  11.091  0.5542 -0.2244  0.3139
 1617SOL    HW116310   4.606   0.243  11.060  1.0197 -0.3533  0.4242
 1617SOL    HW216311   4.717   0.325  11.074 -0.1552 -0.7037 -3.4743
 1618SOL     OW16312   0.038   0.201  10.484 -0.6378  0.3025  0.1200
 1618SOL    HW116313   0.095   0.137  10.442 -2.7796  0.0187 -2.3960
 1618SOL    HW216314   0.046   0.183  10.577  1.9600  0.8786 -0.0053
 1619SOL     OW16315   0.183   4.524  13.275  0.8039 -0.0825 -0.2786
 1619SOL    HW116316   0.126   4.455  13.241 -1.0892  0.7905  1.1456
 1619SOL    HW216317   0.201   4.585  13.204  3.5021 -2.2622 -1.4997
 1620SOL     OW16318   4.682   2.886   9.049 -0.2943  0.3416 -0.3215
 1620SOL    HW116319   4.588   2.883   9.069 -0.3213  0.4535 -0.4290
 1620SOL    HW216320   4.702   2.797   9.018  0.6853  0.8536 -1.1521
 1621SOL     OW16321   1.591   4.005   1.797  0.0038  0.1560  0.2155
 1621SOL    HW116322   1.632   4.061   1.863 -0.1747  1.3740 -0.7166
 1621SOL    HW216323   1.506   4.048   1.799 -0.9790 -1.7497 -0.5011
 1622SOL     OW16324   3.807   0.155   2.580  0.3650  0.1605 -0.1409
 1622SOL    HW116325   3.784   0.100   2.505 -0.8757 -0.2414  0.5456
 1622SOL    HW216326   3.858   0.092   2.631  0.5557 -1.0519 -1.8192
 1623SOL     OW16327   3.377   3.257  14.201 -0.3482 -0.9028 -0.1073
 1623SOL    HW116328   3.302   3.246  14.143  0.2850 -0.7987 -0.9464
 1623SOL    HW216329   3.379   3.167  14.233  0.4841 -1.0163 -0.4911
 1624SOL     OW16330   1.494   2.924   4.029  0.6515 -0.3307 -0.5898
 1624SOL    HW116331   1.511   2.969   4.112 -3.8789 -1.0976  0.7106
 1624SOL    HW216332   1.549   2.846   4.035  1.5538  0.1777 -2.0603
 1625SOL     OW16333   4.259   2.381  16.771  0.3248  0.1209  0.7853
 1625SOL    HW116334   4.197   2.454  16.774  0.0215 -0.0837 -0.6538
 1625SOL    HW216335   4.339   2.431  16.754 -0.5865  1.4561  0.3905
 1626SOL     OW16336   2.932   3.403   3.214 -1.3673 -0.0771  0.8652
 1626SOL    HW116337   2.905   3.350   3.139 -2.1934 -1.0050  1.8195
 1626SOL    HW216338   3.014   3.442   3.183 -0.9502 -0.3399  1.6375
 1627SOL     OW16339   1.892   2.772   3.812  0.1274 -0.4675 -0.1854
 1627SOL    HW116340   1.984   2.777   3.786 -0.2865  1.3641 -1.2868
 1627SOL    HW216341   1.861   2.700   3.757 -3.3720  1.0283 -0.1392
 1628SOL     OW16342   3.117   4.685   7.993  0.8143  0.9595  0.0706
 1628SOL    HW116343   3.109   4.590   7.996  2.2392  0.8351  0.2435
 1628SOL    HW216344   3.119   4.701   7.899 -1.8566  0.0152 -0.1209
 1629SOL     OW16345   3.416   2.055   2.618 -0.2211  0.5007  0.1260
 1629SOL    HW116346   3.415   2.043   2.713  0.7613  0.2120  0.1068
 1629SOL    HW216347   3.351   1.988   2.596  0.1993  1.2462 -3.4416
 1630SOL     OW16348   4.198   3.210   7.190  0.0194 -0.0171 -0.2075
 1630SOL    HW116349   4.182   3.278   7.255  0.4933 -0.6367  0.5578
 1630SOL    HW216350   4.187   3.131   7.243 -2.3739 -1.0607 -2.2319
 1631SOL     OW16351   4.079   2.829   1.451  0.3600  0.1726  0.0554
 1631SOL    HW116352   4.053   2.873   1.371 -1.8920 -1.4324 -0.0915
 1631SOL    HW216353   4.022   2.880   1.509 -0.7258  1.0052 -1.7430
 1632SOL     OW16354   4.202   3.195   2.560  0.0412  0.5309  0.2987
 1632SOL    HW116355   4.295   3.217   2.548  0.7606 -1.0379  2.9351
 1632SOL    HW216356   4.151   3.271   2.530 -2.9450 -0.0011  4.0472
 1633SOL     OW16357   4.630   0.646   0.356 -0.1104 -0.0934  0.2117
 1633SOL    HW116358   4.551   0.699   0.357  0.0066  0.0655  1.3201
 1633SOL    HW216359   4.656   0.667   0.446  2.9661  0.9886 -0.9242
 1634SOL     OW16360   2.764   4.203   3.357 -0.0141 -0.3394  0.0107
 1634SOL    HW116361   2.726   4.283   3.394  2.5095  1.7209 -1.8171
 1634SOL    HW216362   2.817   4.174   3.431 -0.3136  0.9804  0.7401
 1635SOL     OW16363   3.276   3.207   3.043 -0.5209 -0.4572 -0.2340
 1635SOL    HW116364   3.213   3.195   2.971 -0.6436 -2.1137  0.1480
 1635SOL    HW216365   3.316   3.287   3.009 -0.3525  0.2186  1.5564
 1636SOL     OW16366   1.973   2.209   5.292  0.5315 -0.2206  0.1003
 1636SOL    HW116367   2.043   2.264   5.326 -0.1622  0.2633  0.7624
 1636SOL    HW216368   1.930   2.195   5.376 -1.3108  0.0077 -0.7911
 1637SOL     OW16369   2.127   4.190  17.331  0.6634 -0.1593 -0.5191
 1637SOL    HW116370   2.071   4.268  17.325 -0.1376 -0.5930  1.1516
 1637SOL    HW216371   2.079   4.123  17.284  0.6521  0.2518 -1.0983
 1638SOL     OW16372   1.494   4.081   3.861  0.9838 -0.5205 -0.0786
 1638SOL    HW116373   1.556   4.146   3.894  0.3648  0.3655 -0.6717
 1638SOL    HW216374   1.501   4.015   3.930  2.5055  0.3161  0.5739
 1639SOL     OW16375   3.254   3.700   3.643 -0.0261  0.3892 -0.0237
 1639SOL    HW116376   3.191   3.686   3.714 -1.1726  0.3205 -1.0353
 1639SOL    HW216377   3.223   3.631   3.583 -1.2342  0.9101 -0.0087
 1640SOL     OW16378   2.795   1.607   3.287 -0.0743 -0.2157  0.7023
 1640SOL    HW116379   2.732   1.577   3.222  1.0137  1.2739 -1.0450
 1640SOL    HW216380   2.876   1.582   3.241 -0.8064  1.6209 -1.5945
 1641SOL     OW16381   2.605   2.496  16.921 -0.1068 -0.2956  0.2100
 1641SOL    HW116382   2.648   2.503  16.836 -1.0092 -0.5693 -0.2608
 1641SOL    HW216383   2.520   2.529  16.893 -0.7557 -2.0666  0.1159
 1642SOL     OW16384   1.478   1.068   6.391  0.0090 -0.7223  0.0202
 1642SOL    HW116385   1.385   1.085   6.408 -0.5768 -3.7332 -0.1267
 1642SOL    HW216386   1.514   1.140   6.443 -2.4813  0.8244 -0.3833
 1643SOL     OW16387   2.289   2.325   3.102 -0.0441  0.2676  0.4983
 1643SOL    HW116388   2.364   2.266   3.116 -2.0087 -1.9760  1.5394
 1643SOL    HW216389   2.217   2.262   3.112 -0.2508  0.5055  0.4987
 1644SOL     OW16390   0.085   3.978   9.823 -0.0342 -0.5446 -1.0442
 1644SOL    HW116391   0.091   4.054   9.764 -1.2138 -0.0513 -0.5181
 1644SOL    HW216392   0.062   4.020   9.906 -3.4217 -0.9289 -1.7837
 1645SOL     OW16393   0.548   3.810   6.185 -1.0010  0.3831 -0.5406
 1645SOL    HW116394   0.520   3.790   6.096 -0.1534  2.9712 -1.3975
 1645SOL    HW216395   0.509   3.897   6.189 -1.3934  0.1023  1.4671
 1646SOL     OW16396   0.593   4.392   4.382  0.4920 -0.2694 -0.4511
 1646SOL    HW116397   0.610   4.480   4.348  0.1988  0.5632  1.5579
 1646SOL    HW216398   0.600   4.404   4.477  2.7793  0.0376 -0.6587
 1647SOL     OW16399   2.421   3.206   8.770  0.4454  0.1973  0.6918
 1647SOL    HW116400   2.330   3.179   8.758 -0.0312  2.7536 -1.5588
 1647SOL    HW216401   2.459   3.168   8.691 -0.7557 -1.8432  1.1041
 1648SOL     OW16402   1.791   1.299   5.808  0.4469 -0.5571  0.0134
 1648SOL    HW116403   1.733   1.322   5.881 -1.1150 -1.1633 -1.0407
 1648SOL    HW216404   1.792   1.205   5.825  0.0621 -1.0125 -2.5124
 1649SOL     OW16405   3.837   1.665   1.991  0.4981 -0.6201  0.0339
 1649SOL    HW116406   3.764   1.707   1.946  0.7198 -0.7269 -0.4264
 1649SOL    HW216407   3.781   1.628   2.059 -0.5633 -2.1325 -1.6831
 1650SOL     OW16408   1.164   3.571   3.078 -0.1797 -0.3353 -0.1186
 1650SOL    HW116409   1.253   3.603   3.089 -0.5273 -0.4110  3.0291
 1650SOL    HW216410   1.167   3.551   2.984 -1.0382 -0.9210 -0.0205
 1651SOL     OW16411   2.602   1.170   6.127  0.8679  0.1625 -0.5104
 1651SOL    HW116412   2.575   1.078   6.129  0.1794  0.3866  0.3422
 1651SOL    HW216413   2.569   1.187   6.215 -0.4140  1.6031 -1.2712
 1652SOL     OW16414   2.571   2.081  15.674  0.3817  0.3160  0.1181
 1652SOL    HW116415   2.504   2.012  15.673  0.4989  0.1794  1.6913
 1652SOL    HW216416   2.644   2.026  15.703 -0.9270 -0.8869  1.1470
 1653SOL     OW16417   3.050   1.997   8.639  0.0160  0.1168 -0.3489
 1653SOL    HW116418   3.021   2.035   8.556 -0.1893 -1.1429 -0.8532
 1653SOL    HW216419   3.063   1.908   8.608 -2.2752  0.3370 -1.9122
 1654SOL     OW16420   0.278   1.515   8.706 -0.4255  0.0587 -0.1128
 1654SOL    HW116421   0.222   1.445   8.670  1.2334 -0.9362 -0.7619
 1654SOL    HW216422   0.360   1.492   8.661 -0.4714  0.0888 -0.2122
 1655SOL     OW16423   2.318   2.577  13.475 -0.7262  0.4912  0.0206
 1655SOL    HW116424   2.329   2.499  13.529 -2.6468  1.1280  1.3522
 1655SOL    HW216425   2.269   2.547  13.399  0.1297 -0.8324 -0.0078
 1656SOL     OW16426   1.899   0.443   7.427  0.2491 -0.5228  0.1759
 1656SOL    HW116427   1.807   0.446   7.399  0.3775  0.4006 -0.1223
 1656SOL    HW216428   1.936   0.507   7.367  1.8471 -0.4635  1.2326
 1657SOL     OW16429   1.356   3.035   9.204 -0.1462  0.6056 -0.3755
 1657SOL    HW116430   1.317   3.122   9.195 -0.8794  0.2104 -0.9830
 1657SOL    HW216431   1.320   2.987   9.130 -0.6326  1.2388 -0.5497
 1658SOL     OW16432   4.420   0.776  17.344  0.1853 -0.3815  0.0110
 1658SOL    HW116433   4.364   0.728  17.404 -1.6794 -0.5744 -1.8954
 1658SOL    HW216434   4.425   0.858  17.395  3.0808 -1.2934  1.1837
 1659SOL     OW16435   2.840   1.043   9.767 -0.4891 -0.0641  0.3904
 1659SOL    HW116436   2.835   1.136   9.789  2.3867 -0.1701  1.5445
 1659SOL    HW216437   2.892   1.019   9.844 -2.0945 -1.2828  1.0871
 1660SOL     OW16438   0.494   0.047   2.018 -0.5797 -0.5328  0.0658
 1660SOL    HW116439   0.415   4.721   2.010  0.2980 -1.5443 -1.8096
 1660SOL    HW216440   0.546   0.022   1.941  0.9702  0.2323  0.8771
 1661SOL     OW16441   2.518   3.787   7.322 -0.7826  0.6593 -0.6772
 1661SOL    HW116442   2.473   3.795   7.406 -2.7682  2.8885 -1.9533
 1661SOL    HW216443   2.457   3.723   7.285 -0.6510 -1.8505  3.4199
 1662SOL     OW16444   0.849   0.513   6.871 -0.4121 -0.4145 -0.0588
 1662SOL    HW116445   0.896   0.492   6.952 -0.3329  0.5643  0.1455
 1662SOL    HW216446   0.915   0.499   6.803  0.4958  0.4246  0.6519
 1663SOL     OW16447   1.101   0.128  15.613 -0.1846  0.2956 -0.0019
 1663SOL    HW116448   1.159   0.055  15.589 -1.5532  0.1344 -2.7971
 1663SOL    HW216449   1.147   0.198  15.566  0.9372  1.3590  2.6367
 1664SOL     OW16450   0.875   3.833  13.181 -0.1527 -0.0737  0.3536
 1664SOL    HW116451   0.958   3.841  13.228  0.6925  1.1473 -1.3431
 1664SOL    HW216452   0.875   3.742  13.154 -0.5320 -0.6006  2.1260
 1665SOL     OW16453   3.530   0.737   7.789 -0.1624  0.2700 -0.3535
 1665SOL    HW116454   3.541   0.829   7.816 -1.0727  0.7350 -1.5749
 1665SOL    HW216455   3.500   0.750   7.699 -1.3653 -0.3158 -0.0340
 1666SOL     OW16456   3.383   0.750   6.282 -0.0558 -0.2969 -0.1137
 1666SOL    HW116457   3.360   0.783   6.195  0.6563  2.2358  0.6585
 1666SOL    HW216458   3.320   0.678   6.288  1.3137 -1.5491 -0.6379
 1667SOL     OW16459   3.890   4.264   4.658 -0.5083  0.5199 -0.8077
 1667SOL    HW116460   3.820   4.299   4.603 -0.6285 -1.8167 -2.1225
 1667SOL    HW216461   3.956   4.232   4.596  0.0039  2.4087 -1.2663
 1668SOL     OW16462   2.141   3.473  14.596 -0.2806 -0.4375 -0.1069
 1668SOL    HW116463   2.142   3.569  14.590  1.8898 -0.4954 -0.5067
 1668SOL    HW216464   2.162   3.450  14.506 -1.1469 -0.8237 -0.2071
 1669SOL     OW16465   3.650   2.544   1.693 -0.0853  0.2248 -0.3304
 1669SOL    HW116466   3.668   2.454   1.719  0.9998  0.1562 -1.2855
 1669SOL    HW216467   3.586   2.526   1.624  0.5052 -2.9544 -0.0769
 1670SOL     OW16468   3.452   2.798  11.270 -0.3242 -0.3249  0.3751
 1670SOL    HW116469   3.377   2.821  11.214 -1.5670 -0.8229  1.8271
 1670SOL    HW216470   3.404   2.759  11.343  0.0538 -1.0008  0.2523
 1671SOL     OW16471   0.055   1.755   3.087 -0.4448 -0.1514 -0.0893
 1671SOL    HW116472   0.079   1.847   3.071  3.2675 -1.2110 -0.5220
 1671SOL    HW216473   0.027   1.768   3.177 -0.5789  0.4138 -0.2134
 1672SOL     OW16474   0.993   4.230  10.004  0.4944 -0.2155 -0.0680
 1672SOL    HW116475   0.913   4.183   9.982 -0.3823  1.0561  0.3889
 1672SOL    HW216476   1.050   4.231   9.928  0.5340  0.1078 -0.0359
 1673SOL     OW16477   1.944   3.678   4.710 -0.3264 -0.5140  0.1163
 1673SOL    HW116478   1.881   3.629   4.657  1.2205 -2.3227 -0.0568
 1673SOL    HW216479   1.879   3.731   4.757  0.6926  1.3343 -0.5843
 1674SOL     OW16480   1.262   0.186  12.089 -0.0445  0.1702  0.3217
 1674SOL    HW116481   1.304   0.250  12.147  1.0759 -0.0887 -0.2136
 1674SOL    HW216482   1.228   0.247  12.023  3.2212  1.5019 -0.1204
 1675SOL     OW16483   2.096   4.225   6.776  0.7700 -0.3413 -0.0009
 1675SOL    HW116484   2.189   4.216   6.752  0.9262  0.9192  0.1332
 1675SOL    HW216485   2.059   4.156   6.721 -1.7548  1.9124 -1.0996
 1676SOL     OW16486   1.980   1.016   6.024 -0.1036 -0.5241  0.4310
 1676SOL    HW116487   1.932   1.020   5.941 -3.4559 -0.1865  2.3604
 1676SOL    HW216488   2.037   0.942   6.005  1.0741  0.3400  0.6117
 1677SOL     OW16489   3.479   3.550   6.981 -0.2890  0.4562 -0.4520
 1677SOL    HW116490   3.421   3.476   7.001  0.3846 -0.0852 -0.4819
 1677SOL    HW216491   3.469   3.598   7.063  0.3164 -1.0260  0.4840
 1678SOL     OW16492   4.289   0.413   8.860  0.2943  0.1961 -0.2511
 1678SOL    HW116493   4.233   0.412   8.781 -0.8522  0.1957  0.5607
 1678SOL    HW216494   4.365   0.362   8.833  0.4165 -0.1489  0.7620
 1679SOL     OW16495   2.388   3.171   3.934  0.0147  0.0877  0.0813
 1679SOL    HW116496   2.410   3.264   3.926 -1.0153  0.2778 -0.5218
 1679SOL    HW216497   2.311   3.166   3.877 -1.1820  0.4587  1.6625
 1680SOL     OW16498   0.237   1.198   8.391  0.0991  0.3672  0.1659
 1680SOL    HW116499   0.310   1.240   8.347  1.3965 -0.1118  1.8359
 1680SOL    HW216500   0.194   1.154   8.317 -1.0926  0.1859  0.9586
 1681SOL     OW16501   1.652   2.235  15.577  0.3980  0.2854 -0.3638
 1681SOL    HW116502   1.585   2.246  15.510  1.5445  0.2326 -1.5320
 1681SOL    HW216503   1.652   2.310  15.637  0.0871  0.3381 -0.4337
 1682SOL     OW16504   1.591   3.809   9.845  0.5049 -0.3842  0.0209
 1682SOL    HW116505   1.609   3.880   9.783 -3.0469 -0.1188 -0.6938
 1682SOL    HW216506   1.600   3.738   9.781  1.2712  1.2979 -1.7122
 1683SOL     OW16507   2.938   3.539   7.818 -0.4879 -0.1136  0.3203
 1683SOL    HW116508   2.985   3.617   7.789  0.6809 -0.8771  0.1371
 1683SOL    HW216509   2.989   3.522   7.897  0.1280 -2.3887 -0.5625
 1684SOL     OW16510   0.457   1.043   7.797 -0.4378  0.0812 -0.3257
 1684SOL    HW116511   0.540   1.005   7.766  0.6726  2.4329 -0.2117
 1684SOL    HW216512   0.401   1.015   7.724  1.5372 -0.2263 -1.7394
 1685SOL     OW16513   0.363   4.260   8.194  0.0430 -0.2273  0.1874
 1685SOL    HW116514   0.341   4.265   8.101  0.0943  1.6823  0.2756
 1685SOL    HW216515   0.363   4.355   8.206  1.3279 -0.3347  1.1608
 1686SOL     OW16516   4.252   2.276   4.448  0.2123  0.2728 -0.0033
 1686SOL    HW116517   4.298   2.290   4.365 -1.2500 -0.7689 -0.9743
 1686SOL    HW216518   4.251   2.181   4.442 -1.0350  0.3010 -0.1186
 1687SOL     OW16519   4.325   4.228   3.483 -0.0034 -0.1899  0.4000
 1687SOL    HW116520   4.382   4.244   3.559  1.6080  2.2112 -1.3123
 1687SOL    HW216521   4.391   4.184   3.428  1.0693 -1.6496  2.8640
 1688SOL     OW16522   3.913   4.111  13.132 -0.2651 -0.0995  0.5736
 1688SOL    HW116523   3.843   4.176  13.127 -2.8584 -3.1617 -2.9232
 1688SOL    HW216524   3.940   4.139  13.220 -1.0083  1.8009  0.2084
 1689SOL     OW16525   3.763   0.047  10.433 -0.1287 -0.1977  0.1897
 1689SOL    HW116526   3.724   0.016  10.515 -0.2214 -0.6290 -0.0168
 1689SOL    HW216527   3.855   0.049  10.456 -0.5018  1.0079  1.5620
 1690SOL     OW16528   1.852   0.302  11.781 -0.2155  0.0394  0.1534
 1690SOL    HW116529   1.904   0.350  11.716 -2.0551  2.2933  0.3206
 1690SOL    HW216530   1.823   0.384  11.822 -2.1030 -0.9859  0.8637
 1691SOL     OW16531   2.490   1.330   3.708  0.0513  0.3099  0.3593
 1691SOL    HW116532   2.423   1.296   3.650  0.1747 -0.7194  0.8246
 1691SOL    HW216533   2.498   1.419   3.673 -1.8417  0.0537 -0.6919
 1692SOL     OW16534   0.102   0.986   3.649  0.0424 -0.3159  0.4325
 1692SOL    HW116535   0.096   0.938   3.732 -1.2637  1.1974  1.2167
 1692SOL    HW216536   0.153   0.920   3.602 -0.2871 -0.0799 -0.2421
 1693SOL     OW16537   3.424   1.325   4.334 -0.2411 -0.0279 -0.1354
 1693SOL    HW116538   3.487   1.284   4.394 -0.0392 -1.2378 -1.1601
 1693SOL    HW216539   3.459   1.409   4.306 -0.7282  0.6010  1.1260
 1694SOL     OW16540   3.772   3.317   6.466  0.3099  0.0281  0.0142
 1694SOL    HW116541   3.716   3.388   6.434  0.4322 -0.1077 -0.4901
 1694SOL    HW216542   3.756   3.257   6.393  0.7076 -0.4934  0.3587
 1695SOL     OW16543   4.462   4.473   7.883 -0.5635  0.0766  0.1900
 1695SOL    HW116544   4.536   4.468   7.943 -0.5612  2.4138  0.3744
 1695SOL    HW216545   4.457   4.380   7.860  0.4125  0.0677  0.0131
 1696SOL     OW16546   3.204   3.562   3.914 -0.9321 -0.5560 -0.2437
 1696SOL    HW116547   3.229   3.556   4.006  1.1254 -0.9929 -0.8380
 1696SOL    HW216548   3.121   3.514   3.920  0.2706 -2.6248 -0.2517
 1697SOL     OW16549   4.638   4.206   5.691  0.4813  0.3172  0.0848
 1697SOL    HW116550   4.550   4.171   5.676 -0.1005  1.2393  1.2957
 1697SOL    HW216551   4.676   4.181   5.607 -2.2408  1.3902 -1.4469
 1698SOL     OW16552   2.033   1.871   9.575 -0.1964  0.1279 -0.5265
 1698SOL    HW116553   2.039   1.920   9.493  1.3235 -1.3037 -1.2661
 1698SOL    HW216554   1.964   1.919   9.620 -0.5170 -0.9467  0.1120
 1699SOL     OW16555   1.766   1.795  15.424  0.5311 -0.0903  0.0616
 1699SOL    HW116556   1.705   1.855  15.466 -0.4210 -1.1269  0.1637
 1699SOL    HW216557   1.796   1.853  15.355  1.5437  1.2876  1.6726
 1700SOL     OW16558   3.135   1.203   8.431 -0.1521 -0.5462 -0.2114
 1700SOL    HW116559   3.213   1.186   8.378  1.2078 -1.0830  1.9626
 1700SOL    HW216560   3.166   1.214   8.521 -0.4725 -0.8051 -0.0684
 1701SOL     OW16561   0.234   3.709   3.554 -0.0416  0.5650  0.4912
 1701SOL    HW116562   0.238   3.793   3.600  0.1541  2.1978 -2.5519
 1701SOL    HW216563   0.304   3.666   3.603  1.0760  1.0536 -0.7191
 1702SOL     OW16564   4.085   2.435   7.603  0.1048  0.5864 -0.0837
 1702SOL    HW116565   4.116   2.354   7.644 -1.4822  1.2304  2.4042
 1702SOL    HW216566   4.131   2.440   7.520  1.7799 -1.6411  0.7016
 1703SOL     OW16567   3.220   3.873   7.475 -0.0195  0.1283  0.0956
 1703SOL    HW116568   3.255   3.911   7.394 -0.8355 -1.1528 -0.8732
 1703SOL    HW216569   3.145   3.932   7.476 -1.8141 -2.1271 -1.0750
 1704SOL     OW16570   4.629   2.555   7.948 -0.2003  0.5940  0.0415
 1704SOL    HW116571   4.682   2.598   7.881  0.4337 -0.6074 -0.2252
 1704SOL    HW216572   4.562   2.528   7.885  0.5765 -0.5061 -0.2935
 1705SOL     OW16573   2.491   1.371   9.591  0.7134  0.7046 -0.6097
 1705SOL    HW116574   2.460   1.441   9.533 -1.8894 -0.2837 -0.4221
 1705SOL    HW216575   2.479   1.291   9.540 -0.1298  0.1521  0.4514
 1706SOL     OW16576   0.853   1.119   0.690  0.0159 -0.2781 -0.2508
 1706SOL    HW116577   0.827   1.155   0.605  0.1299  1.6865  0.5257
 1706SOL    HW216578   0.917   1.188   0.711  1.7870 -1.6077 -1.3129
 1707SOL     OW16579   2.823   3.496  17.498  0.1699 -0.2493  0.3132
 1707SOL    HW116580   2.917   3.499  17.483  0.3228 -3.4597  0.6339
 1707SOL    HW216581   2.817   3.434  17.571 -0.8570  1.0119  1.3112
 1708SOL     OW16582   3.528   1.338   5.684  0.6661 -0.3469 -0.2461
 1708SOL    HW116583   3.564   1.418   5.721 -0.6078  1.0755 -2.1035
 1708SOL    HW216584   3.466   1.313   5.752  0.0997  0.9171 -0.3015
 1709SOL     OW16585   2.056   3.629   4.085 -0.0065  0.5258  0.0392
 1709SOL    HW116586   2.069   3.639   3.990 -0.5649 -0.6295 -0.1610
 1709SOL    HW216587   2.100   3.708   4.116  1.2100 -0.0169 -0.3028
 1710SOL     OW16588   3.125   3.797   5.398 -0.1517  0.0777 -0.0759
 1710SOL    HW116589   3.064   3.814   5.470 -0.3514 -1.0186 -0.0009
 1710SOL    HW216590   3.159   3.883   5.372 -0.3504  0.0606 -0.3765
 1711SOL     OW16591   0.014   3.518   6.917  0.3316  0.7955  0.3324
 1711SOL    HW116592   0.036   3.456   6.987 -0.8881 -3.4746 -3.0901
 1711SOL    HW216593   0.100   3.541   6.882 -0.6916  2.5069 -1.0524
 1712SOL     OW16594   4.435   2.306   7.294 -0.0295  0.2257 -0.1168
 1712SOL    HW116595   4.473   2.285   7.379 -1.7834  0.4442  0.7019
 1712SOL    HW216596   4.464   2.229   7.245  1.2324  0.6823 -0.1078
 1713SOL     OW16597   3.782   2.412   6.583  0.2283  0.7228  0.5999
 1713SOL    HW116598   3.797   2.507   6.582  2.4867  0.3269 -1.5463
 1713SOL    HW216599   3.816   2.385   6.669  0.6114 -2.6711 -0.6416
 1714SOL     OW16600   4.399   3.470  15.692 -0.2868  0.2813 -0.2504
 1714SOL    HW116601   4.400   3.388  15.742 -0.9229  1.5066  1.7795
 1714SOL    HW216602   4.347   3.519  15.756  0.5614  0.0391  0.6228
 1715SOL     OW16603   4.038   4.694   7.266 -0.1023 -0.0969 -0.2330
 1715SOL    HW116604   4.025   4.718   7.358 -1.1129 -0.1349 -0.3633
 1715SOL    HW216605   4.124   4.653   7.270 -0.1023 -0.0725  0.0704
 1716SOL     OW16606   0.300   3.493   8.029 -0.3394 -0.3367 -0.1090
 1716SOL    HW116607   0.210   3.519   8.049 -0.9131 -2.0981 -0.4000
 1716SOL    HW216608   0.344   3.578   8.025 -0.0548 -0.5349 -1.1922
 1717SOL     OW16609   2.188   1.213   5.779 -0.4516 -0.0664  0.1991
 1717SOL    HW116610   2.126   1.147   5.747  0.9094 -0.6641 -1.2415
 1717SOL    HW216611   2.264   1.204   5.722  1.6707  0.6869  2.9307
 1718SOL     OW16612   3.839   3.700  13.150 -0.0055  0.1050 -0.1695
 1718SOL    HW116613   3.816   3.773  13.093 -0.8621  0.3520  0.4833
 1718SOL    HW216614   3.852   3.641  13.075  1.7318 -1.0412  1.0414
 1719SOL     OW16615   1.211   0.130   7.721  0.6561  0.2047 -0.3758
 1719SOL    HW116616   1.253   0.069   7.661  0.3883 -1.9627  1.6236
 1719SOL    HW216617   1.220   0.086   7.806  1.3690  0.5059 -0.2951
 1720SOL     OW16618   4.025   0.526  11.786  0.4132 -0.6414 -0.1909
 1720SOL    HW116619   4.072   0.445  11.767 -0.7839 -1.4308  0.2283
 1720SOL    HW216620   4.089   0.592  11.757  1.0443 -1.2613 -0.2287
 1721SOL     OW16621   3.755   3.800  10.797  0.4717  0.3083 -0.1265
 1721SOL    HW116622   3.833   3.809  10.851 -0.7693  2.4500  1.2943
 1721SOL    HW216623   3.751   3.882  10.747  0.1759  0.7874  0.6844
 1722SOL     OW16624   2.272   1.268  15.297 -0.2614  0.2720 -0.6512
 1722SOL    HW116625   2.177   1.272  15.289 -0.4403 -0.8153  0.8543
 1722SOL    HW216626   2.300   1.351  15.334  2.8661 -0.5043 -1.2091
 1723SOL     OW16627   4.082   2.462   5.455  0.3932  0.1788 -0.1896
 1723SOL    HW116628   4.089   2.478   5.361  1.5849 -1.6124 -0.4200
 1723SOL    HW216629   4.145   2.391   5.468  0.1482  0.2462  1.2869
 1724SOL     OW16630   4.155   1.563   9.911 -0.2500 -0.7117  0.2161
 1724SOL    HW116631   4.227   1.500   9.907  0.8715  0.5625  0.2134
 1724SOL    HW216632   4.199   1.638   9.870 -0.1495  0.1561  1.9187
 1725SOL     OW16633   0.968   4.634  17.252  0.7438 -0.0423  0.4553
 1725SOL    HW116634   0.938   4.619  17.342 -0.2396  0.9529  0.2950
 1725SOL    HW216635   0.886   4.643  17.203 -0.0629 -0.2380  1.7800
 1726SOL     OW16636   2.130   1.983   6.137  0.0009  0.7002 -0.0147
 1726SOL    HW116637   2.127   1.896   6.178  3.5508  0.3776 -0.4352
 1726SOL    HW216638   2.220   1.998   6.167  0.4770  1.3412 -1.7358
 1727SOL     OW16639   0.429   1.962   6.446  0.6352  0.2965 -0.6389
 1727SOL    HW116640   0.468   2.044   6.476 -0.0433  0.4031 -0.0426
 1727SOL    HW216641   0.467   1.905   6.513  0.4171  1.9650  0.9031
 1728SOL     OW16642   3.444   4.262   9.892  0.5048  0.3733  0.4106
 1728SOL    HW116643   3.361   4.259   9.940 -0.2640  0.2303 -0.9192
 1728SOL    HW216644   3.485   4.178   9.913 -0.9123 -0.5687 -0.5742
 1729SOL     OW16645   2.865   0.610   7.306 -0.3967  0.1155  0.2286
 1729SOL    HW116646   2.929   0.540   7.292 -0.1494  0.4521 -0.2957
 1729SOL    HW216647   2.896   0.666   7.378 -0.0646  0.5754 -0.2757
 1730SOL     OW16648   0.126   1.566  16.734  0.1599  0.5620 -0.3950
 1730SOL    HW116649   0.163   1.653  16.750 -0.7718  0.5674  1.7771
 1730SOL    HW216650   0.040   1.570  16.777  0.1083  1.3313 -0.5785
 1731SOL     OW16651   1.919   1.932   5.013 -0.4707  0.3303 -0.1212
 1731SOL    HW116652   1.865   1.855   5.030  0.0156  0.0852  0.3004
 1731SOL    HW216653   1.977   1.918   5.088 -0.1787  2.4155  0.0474
 1732SOL     OW16654   4.599   0.627   1.391  0.8387  0.1511 -0.2045
 1732SOL    HW116655   4.546   0.645   1.313 -1.6184 -1.3721  1.1508
 1732SOL    HW216656   4.641   0.547   1.361  1.3336  0.8786 -1.4607
 1733SOL     OW16657   2.792   4.525   4.182  0.2033 -0.2788 -0.2433
 1733SOL    HW116658   2.726   4.568   4.237 -1.3336  1.6902 -3.6117
 1733SOL    HW216659   2.801   4.437   4.219  4.0827  1.0260  1.8222
 1734SOL     OW16660   2.337   2.984   5.044  0.2959 -0.0061 -0.1864
 1734SOL    HW116661   2.354   3.073   5.013  0.0603 -0.9330 -2.9985
 1734SOL    HW216662   2.384   3.008   5.123 -0.5993  1.2211 -0.0371
 1735SOL     OW16663   0.213   3.249   7.743  0.5716 -0.5368 -0.9182
 1735SOL    HW116664   0.294   3.273   7.698 -0.7328  0.7177 -2.5746
 1735SOL    HW216665   0.240   3.158   7.753 -0.5274 -0.7329  0.3242
 1736SOL     OW16666   1.208   0.325   3.600 -0.1301 -0.0857  0.0584
 1736SOL    HW116667   1.263   0.380   3.545 -0.5521 -1.0824 -1.3582
 1736SOL    HW216668   1.247   0.240   3.582  2.6322  0.5876  2.9107
 1737SOL     OW16669   3.870   0.030   3.463  0.4476 -0.6331  0.5398
 1737SOL    HW116670   3.786   4.720   3.440 -0.0855  0.0155  1.3877
 1737SOL    HW216671   3.919   4.706   3.399  0.0368 -0.4561  0.0829
 1738SOL     OW16672   4.347   1.840   7.900  0.3387 -0.4306  0.5436
 1738SOL    HW116673   4.252   1.842   7.911  0.1297  1.4185 -1.4688
 1738SOL    HW216674   4.363   1.757   7.856  1.0982  0.0919 -0.1653
 1739SOL     OW16675   0.209   1.191  10.256 -0.4587 -0.2666 -0.2164
 1739SOL    HW116676   0.228   1.255  10.325 -2.6009 -1.4111  1.4311
 1739SOL    HW216677   0.240   1.234  10.176 -4.3921  0.1071 -1.5451
 1740SOL     OW16678   0.001   0.991   9.284 -0.0955 -0.1702  0.1195
 1740SOL    HW116679   4.673   0.932   9.233  1.4049  1.7047 -3.7369
 1740SOL    HW216680   4.666   1.036   9.339 -0.1610  1.1174 -0.9998
 1741SOL     OW16681   0.281   0.963   1.243 -0.2108  0.0186  0.0446
 1741SOL    HW116682   0.278   0.904   1.319 -0.0088 -0.2187 -0.1319
 1741SOL    HW216683   0.244   0.902   1.179 -2.7408  1.9088 -0.2712
 1742SOL     OW16684   2.838   2.411   8.911  0.3375 -0.5972 -0.3506
 1742SOL    HW116685   2.891   2.349   8.862 -1.6654 -2.1494 -0.5712
 1742SOL    HW216686   2.905   2.468   8.948  0.6972 -1.5363  0.4491
 1743SOL     OW16687   3.583   2.778  13.514  0.0775 -0.7215 -0.3137
 1743SOL    HW116688   3.571   2.830  13.593  1.1211 -1.1485  0.1221
 1743SOL    HW216689   3.548   2.846  13.456 -1.4879  0.1967  1.7039
 1744SOL     OW16690   0.415   2.436  10.275  0.1806  0.3308  0.6563
 1744SOL    HW116691   0.356   2.392  10.213  2.3909 -1.4971 -0.1193
 1744SOL    HW216692   0.381   2.389  10.351  0.3483  1.6221  1.5299
 1745SOL     OW16693   3.323   0.816   5.289  0.3512  0.2193  0.3914
 1745SOL    HW116694   3.321   0.724   5.317  1.4919 -0.1954 -0.8994
 1745SOL    HW216695   3.347   0.794   5.199  0.7113 -0.3406  0.6202
 1746SOL     OW16696   4.488   2.581  10.819  0.0638  0.1916  0.1398
 1746SOL    HW116697   4.556   2.522  10.853 -0.5187 -0.3731  0.3353
 1746SOL    HW216698   4.538   2.639  10.763  1.5471 -0.8209  0.3996
 1747SOL     OW16699   4.688   0.429   6.202  0.0653  0.2018  0.3129
 1747SOL    HW116700   4.616   0.377   6.166  0.5549 -1.2683  1.4581
 1747SOL    HW216701   4.671   0.519   6.176  0.0175 -0.1754 -0.9654
 1748SOL     OW16702   3.484   2.547   7.366 -0.6662  0.0337 -0.0597
 1748SOL    HW116703   3.525   2.633   7.358 -2.6777  1.1675  1.9287
 1748SOL    HW216704   3.407   2.556   7.421  1.6017 -1.0625  3.2480
 1749SOL     OW16705   2.716   3.903   3.316 -0.2717 -0.5197 -0.0649
 1749SOL    HW116706   2.640   3.874   3.369 -0.1904  0.0258  0.3479
 1749SOL    HW216707   2.705   3.998   3.323  0.3872 -0.6573  3.0895
 1750SOL     OW16708   4.464   4.635   7.408 -0.3887  0.1508 -0.7369
 1750SOL    HW116709   4.550   4.634   7.366 -0.6650 -1.5787 -1.2790
 1750SOL    HW216710   4.490   4.614   7.498 -2.5586  1.6939  0.2384
 1751SOL     OW16711   0.715   1.085  17.706  0.8074 -0.2208  0.4799
 1751SOL    HW116712   0.724   1.151  17.636 -1.4090 -0.2126  0.2132
 1751SOL    HW216713   0.639   1.125   0.036  2.5030  0.6193  2.7364
 1752SOL     OW16714   3.110   1.952   9.563 -0.6140 -0.6466 -0.3391
 1752SOL    HW116715   3.073   1.886   9.622  2.4421 -0.4222  1.8055
 1752SOL    HW216716   3.092   1.909   9.479 -1.4170  1.2528 -1.1562
 1753SOL     OW16717   0.780   2.385  16.786  0.2937  0.1257 -0.1752
 1753SOL    HW116718   0.795   2.423  16.872 -3.2287  1.7162 -0.2675
 1753SOL    HW216719   0.748   2.297  16.805  0.5997 -0.6362 -3.1884
 1754SOL     OW16720   3.316   4.060  13.054  0.1542  0.1022 -0.4510
 1754SOL    HW116721   3.344   4.128  13.116  1.0052 -1.8113  1.2523
 1754SOL    HW216722   3.278   3.999  13.118  0.4224 -0.8935 -1.2590
 1755SOL     OW16723   4.121   1.883   9.439  0.3065  0.7297 -0.5096
 1755SOL    HW116724   4.098   1.887   9.346  0.5973 -3.4177 -0.7293
 1755SOL    HW216725   4.061   1.951   9.471  0.7656  1.3048 -0.8695
 1756SOL     OW16726   1.339   2.914   5.538 -0.0245  0.0960 -0.1993
 1756SOL    HW116727   1.432   2.906   5.558  0.0219 -1.4069 -0.9812
 1756SOL    HW216728   1.288   2.888   5.615 -0.6874  0.8267 -0.3824
 1757SOL     OW16729   0.582   0.807  11.024  0.2576  0.2213  0.4050
 1757SOL    HW116730   0.643   0.819  11.097 -1.2557  1.2297  1.5120
 1757SOL    HW216731   0.497   0.796  11.067  0.9520  0.1855  1.7783
 1758SOL     OW16732   2.790   4.576   5.304  0.7586  0.0782  0.2356
 1758SOL    HW116733   2.719   4.621   5.258  1.8601  0.8537 -0.7309
 1758SOL    HW216734   2.755   4.489   5.289  1.5030 -0.1020 -0.4804
 1759SOL     OW16735   3.664   1.312  10.807  0.7790 -0.2747  0.0147
 1759SOL    HW116736   3.735   1.249  10.797  0.6539 -0.5695  0.9496
 1759SOL    HW216737   3.671   1.363  10.726  0.8229 -0.0172  0.1805
 1760SOL     OW16738   0.029   4.673   2.187  0.2864  0.2753 -0.1035
 1760SOL    HW116739   0.067   4.704   2.269  1.0131 -0.6807 -0.0854
 1760SOL    HW216740   4.692   0.013   2.166  1.0654  1.3557  1.0126
 1761SOL     OW16741   1.944   4.267  15.000 -0.3477  0.3753  0.1582
 1761SOL    HW116742   1.997   4.189  15.018 -1.3773 -0.3874 -0.0843
 1761SOL    HW216743   1.944   4.265  14.904  3.5784  0.3330  0.1908
 1762SOL     OW16744   4.576   2.479   7.084  0.5025  0.1353  0.1750
 1762SOL    HW116745   4.501   2.444   7.132 -0.2887  1.1795 -0.2849
 1762SOL    HW216746   4.651   2.440   7.129  0.7852 -0.2654 -0.6437
 1763SOL     OW16747   2.510   2.279   9.294  0.2756  0.0352  0.1622
 1763SOL    HW116748   2.471   2.351   9.343 -2.0041 -0.7606 -0.4922
 1763SOL    HW216749   2.457   2.290   9.215 -0.4009 -1.1334  0.4507
 1764SOL     OW16750   0.119   4.035   8.573 -0.5084  0.9764 -0.3046
 1764SOL    HW116751   0.195   4.019   8.630  0.6538 -0.4071 -2.2392
 1764SOL    HW216752   0.152   4.018   8.485 -1.4008 -2.3510  0.0075
 1765SOL     OW16753   0.181   1.886   5.948 -0.3313 -0.8277 -0.0829
 1765SOL    HW116754   0.104   1.905   6.001  1.1021  0.3239  1.5839
 1765SOL    HW216755   0.248   1.916   6.009 -1.2735 -0.3319  0.7076
 1766SOL     OW16756   1.472   0.185   4.807  0.4033  0.2519 -0.4001
 1766SOL    HW116757   1.540   0.117   4.800  1.3627  1.3883 -2.3588
 1766SOL    HW216758   1.520   0.267   4.802  0.5486  0.2211  0.5518
 1767SOL     OW16759   4.060   4.134  10.730  0.4133 -0.2616  0.0650
 1767SOL    HW116760   4.055   4.105  10.821  1.2850 -0.0070  0.1935
 1767SOL    HW216761   4.125   4.203  10.735 -1.8727  1.7684  1.8056
 1768SOL     OW16762   0.186   1.648   9.941 -0.3437  0.6568  0.6590
 1768SOL    HW116763   0.178   1.710   9.869  1.0224  0.2535  0.1489
 1768SOL    HW216764   0.138   1.698  10.008 -1.7908  1.2828 -0.8620
 1769SOL     OW16765   0.749   2.348  13.166  0.1736 -0.1238  0.2325
 1769SOL    HW116766   0.769   2.267  13.214 -2.7797 -0.0297  1.5881
 1769SOL    HW216767   0.815   2.405  13.204 -0.9555  1.4598 -0.2053
 1770SOL     OW16768   3.884   2.772   1.073  0.0749  0.2690  0.2988
 1770SOL    HW116769   3.976   2.797   1.086  0.9355 -3.4710  1.4125
 1770SOL    HW216770   3.874   2.733   0.986  0.5395 -0.6568  0.6638
 1771SOL     OW16771   3.950   3.549   7.372 -0.1753  0.2910 -0.8557
 1771SOL    HW116772   3.983   3.629   7.332 -0.3636  1.0136  0.4177
 1771SOL    HW216773   3.907   3.585   7.450  0.7236  1.6764 -1.0205
 1772SOL     OW16774   2.194   0.002   2.879  0.4899 -0.1349  0.0888
 1772SOL    HW116775   2.156   4.652   2.840 -0.6644  0.9074 -0.8714
 1772SOL    HW216776   2.120   0.035   2.931  0.0308 -1.3718  0.2121
 1773SOL     OW16777   4.362   2.454   9.430  0.1468  0.6738  0.1653
 1773SOL    HW116778   4.395   2.492   9.512 -2.3223  0.3299  1.3472
 1773SOL    HW216779   4.439   2.467   9.375  2.0106 -3.2672  1.8379
 1774SOL     OW16780   2.073   4.707   6.164  0.0475 -0.2011  0.3703
 1774SOL    HW116781   2.027   4.625   6.183  0.3896 -0.4675  0.0309
 1774SOL    HW216782   2.095   4.695   6.071  1.5769 -0.1638  0.7383
 1775SOL     OW16783   4.088   0.599   6.073  0.0148 -0.6990  0.2872
 1775SOL    HW116784   4.001   0.610   6.035 -0.1791  2.0393  1.5492
 1775SOL    HW216785   4.129   0.681   6.048 -0.1317 -0.0733  2.1006
 1776SOL     OW16786   4.152   0.478  14.742  0.4249  0.4784  0.0935
 1776SOL    HW116787   4.160   0.534  14.665  0.7847  1.4443  0.8180
 1776SOL    HW216788   4.084   0.518  14.797  0.4673  0.1392  0.3951
 1777SOL     OW16789   2.648   3.461   6.189  0.1649 -0.6420 -0.2001
 1777SOL    HW116790   2.665   3.496   6.102 -0.3229 -1.6375 -0.6904
 1777SOL    HW216791   2.727   3.494   6.231  0.8947  0.4066 -2.4079
 1778SOL     OW16792   2.380   2.077   6.221 -0.2818  0.3863  0.2818
 1778SOL    HW116793   2.438   2.070   6.296 -0.5291  0.0181  0.4408
 1778SOL    HW216794   2.381   2.172   6.208  1.8932  0.3801  0.5305
 1779SOL     OW16795   1.231   3.956  12.299 -0.2396  0.4810 -0.0325
 1779SOL    HW116796   1.255   4.030  12.243  0.6725  0.7464  0.7139
 1779SOL    HW216797   1.287   3.891  12.256  1.7490  1.8752  0.4911
 1780SOL     OW16798   0.643   0.279   8.447 -0.3547  0.1857  0.3547
 1780SOL    HW116799   0.721   0.224   8.446 -1.1697 -0.9567 -0.8663
 1780SOL    HW216800   0.676   0.360   8.485  2.3793 -0.4503 -0.6361
 1781SOL     OW16801   4.175   3.646   0.692  0.3085  0.7411  0.4959
 1781SOL    HW116802   4.224   3.705   0.635  1.2995 -1.5765 -1.0960
 1781SOL    HW216803   4.092   3.635   0.645  0.4279 -0.5713  0.5888
 1782SOL     OW16804   0.165   2.258  13.097  0.4792  0.2314 -0.1746
 1782SOL    HW116805   0.197   2.228  13.011  0.6654  1.2532 -0.4594
 1782SOL    HW216806   0.087   2.302  13.062 -0.9177 -0.6615  1.8238
 1783SOL     OW16807   4.586   1.218   6.521  0.0116 -0.0860 -0.1589
 1783SOL    HW116808   4.658   1.220   6.459 -0.6971 -0.5019 -0.9953
 1783SOL    HW216809   4.521   1.267   6.469 -0.3121 -2.0412 -1.5807
 1784SOL     OW16810   4.190   0.607   5.464 -0.3260  0.5031 -0.4959
 1784SOL    HW116811   4.198   0.675   5.397 -0.4652  0.0666 -0.9564
 1784SOL    HW216812   4.184   0.654   5.548  3.4422  1.8327 -0.9487
 1785SOL     OW16813   0.373   2.299   2.594 -0.0052 -0.0254  0.4370
 1785SOL    HW116814   0.286   2.307   2.633 -0.8929  0.0374 -1.5597
 1785SOL    HW216815   0.352   2.239   2.521  0.0967  0.7429 -0.2206
 1786SOL     OW16816   4.395   1.110   2.669 -0.1528  0.1927  0.3928
 1786SOL    HW116817   4.456   1.181   2.686 -0.1149  0.7070 -1.8908
 1786SOL    HW216818   4.458   1.045   2.637  0.7406  1.5198 -0.5164
 1787SOL     OW16819   4.539   3.873   8.573  0.1506 -0.3401  0.1112
 1787SOL    HW116820   4.518   3.820   8.650 -0.7222 -1.6719 -1.0453
 1787SOL    HW216821   4.597   3.943   8.603  0.9392 -0.4434 -1.1841
 1788SOL     OW16822   1.420   3.037  16.818  0.0293  0.1678  0.6794
 1788SOL    HW116823   1.364   2.960  16.823 -1.7653  1.3178 -1.7540
 1788SOL    HW216824   1.490   3.019  16.882  0.3500  0.3499  0.3817
 1789SOL     OW16825   0.197   4.458   4.541  0.0111 -0.2480  0.0527
 1789SOL    HW116826   0.201   4.414   4.456  0.6945  1.0233 -0.5796
 1789SOL    HW216827   0.163   4.545   4.519  0.3958  0.0991  0.8008
 1790SOL     OW16828   3.485   1.945   4.423  0.7113  0.2406 -0.1899
 1790SOL    HW116829   3.537   1.869   4.449  0.9993 -0.0080 -1.4884
 1790SOL    HW216830   3.477   1.988   4.508  0.2473  0.0159 -0.1172
 1791SOL     OW16831   3.862   2.260   5.845  0.0783  0.1851  0.0731
 1791SOL    HW116832   3.853   2.165   5.852  1.6249  0.2004  2.3353
 1791SOL    HW216833   3.801   2.275   5.773 -0.8977 -0.9345  0.6671
 1792SOL     OW16834   3.340   4.165   8.067  0.8463 -0.0116  0.4034
 1792SOL    HW116835   3.418   4.185   8.016  2.1639  1.9993  3.2187
 1792SOL    HW216836   3.360   4.199   8.154  2.7981  4.2376 -1.7478
 1793SOL     OW16837   3.638   3.215  16.729 -0.2495  0.0963  0.6125
 1793SOL    HW116838   3.663   3.281  16.664  0.4829 -0.0185  0.7730
 1793SOL    HW216839   3.672   3.269  16.801  1.5112  0.2382 -0.3120
 1794SOL     OW16840   1.459   0.086   2.557 -0.0142 -0.4805 -0.2306
 1794SOL    HW116841   1.437   0.164   2.608 -1.8658 -0.3307 -1.2844
 1794SOL    HW216842   1.374   0.065   2.518  0.4894 -0.8309 -1.1437
 1795SOL     OW16843   1.257   4.328  10.255 -0.2396  0.6321  0.0659
 1795SOL    HW116844   1.341   4.310  10.298  0.6171  2.0023 -1.0353
 1795SOL    HW216845   1.224   4.239  10.257 -1.3663  1.0771  1.1998
 1796SOL     OW16846   0.001   0.211  16.302 -0.6366  0.5894 -0.1072
 1796SOL    HW116847   0.014   0.262  16.382  1.8959 -0.5671  0.1924
 1796SOL    HW216848   0.056   0.136  16.321 -0.8148  0.7079  0.8438
 1797SOL     OW16849   1.066   1.337  15.376  0.4965  0.1590  0.6576
 1797SOL    HW116850   1.043   1.334  15.469  0.2109 -2.2675  0.5015
 1797SOL    HW216851   0.986   1.369  15.335  1.0722  0.9573  0.1594
 1798SOL     OW16852   2.117   4.170   0.581  0.2949 -0.3653 -0.2787
 1798SOL    HW116853   2.183   4.112   0.542  1.5339  1.6387 -1.1876
 1798SOL    HW216854   2.180   4.225   0.626 -1.6605  0.3307  1.5696
 1799SOL     OW16855   2.325   4.622  15.184  0.0061 -0.0467  0.5239
 1799SOL    HW116856   2.251   4.616  15.123 -0.2431 -0.9851  0.9244
 1799SOL    HW216857   2.407   4.593  15.145  0.6243  0.1379  1.7072
 1800SOL     OW16858   4.412   3.639   8.729  0.4309  0.6233  0.1882
 1800SOL    HW116859   4.368   3.623   8.646  1.7359 -3.0171  0.1795
 1800SOL    HW216860   4.496   3.593   8.724 -0.4123 -0.9377  0.3040
 1801SOL     OW16861   2.250   2.399   1.178  0.1617 -0.1818 -0.0310
 1801SOL    HW116862   2.282   2.403   1.088  0.5155  1.9262  0.1942
 1801SOL    HW216863   2.216   2.309   1.186  0.2045 -0.2524 -0.6411
 1802SOL     OW16864   2.214   3.224   5.256  1.2712  0.7558 -0.6308
 1802SOL    HW116865   2.302   3.242   5.222  1.3081 -2.0679 -2.0380
 1802SOL    HW216866   2.199   3.297   5.316 -1.6775  0.1870 -0.6826
 1803SOL     OW16867   3.043   3.251   9.070 -0.0767  0.4288 -0.1392
 1803SOL    HW116868   3.125   3.299   9.081 -0.8751  1.7846 -0.0284
 1803SOL    HW216869   3.021   3.244   9.163  0.8671 -0.4454  0.0241
 1804SOL     OW16870   1.845   3.172   0.987 -0.1956  0.1486  0.5985
 1804SOL    HW116871   1.828   3.262   1.015 -0.6617  0.7067 -1.4846
 1804SOL    HW216872   1.930   3.156   1.027 -0.1462 -0.4312  0.2506
 1805SOL     OW16873   0.355   2.925   1.860 -0.3762 -0.0811 -0.4997
 1805SOL    HW116874   0.349   3.018   1.885 -0.5774 -0.1004 -0.4746
 1805SOL    HW216875   0.448   2.925   1.840 -0.3265 -4.6569 -0.2471
 1806SOL     OW16876   3.066   1.927  16.310  0.0079  0.2808  0.4118
 1806SOL    HW116877   3.058   1.905  16.402 -0.2044  0.5660  0.4620
 1806SOL    HW216878   3.159   1.909  16.296  0.0537  0.2927  0.7039
 1807SOL     OW16879   3.581   2.789   7.265  0.1871  0.0774 -0.5744
 1807SOL    HW116880   3.651   2.795   7.200 -0.8193  1.5299 -1.5257
 1807SOL    HW216881   3.497   2.786   7.218 -0.8135  0.1494  1.2010
 1808SOL     OW16882   1.696   3.872  15.835  0.0514  0.6493  0.2199
 1808SOL    HW116883   1.608   3.855  15.869 -0.0283 -0.5899 -0.6204
 1808SOL    HW216884   1.707   3.807  15.766  0.5972  0.4426  0.5029
 1809SOL     OW16885   3.220   2.911   5.000 -0.2467 -0.2013  0.4428
 1809SOL    HW116886   3.175   2.834   5.033  0.3721 -0.7669 -0.0399
 1809SOL    HW216887   3.305   2.870   4.986 -0.9131 -1.8561  1.2385
 1810SOL     OW16888   2.533   0.279   2.085 -0.1210 -1.1436  0.6643
 1810SOL    HW116889   2.449   0.240   2.062  0.9030 -3.3202  0.6254
 1810SOL    HW216890   2.602   0.227   2.042  0.8981  1.5926 -1.0206
 1811SOL     OW16891   0.322   1.715   4.196  0.0645  0.2115  0.2293
 1811SOL    HW116892   0.379   1.653   4.242 -1.1687 -1.0471  0.0445
 1811SOL    HW216893   0.387   1.767   4.149 -1.6722 -1.3114 -3.8572
 1812SOL     OW16894   2.514   0.378   2.514 -0.2539  0.1251 -0.1935
 1812SOL    HW116895   2.582   0.324   2.473 -0.6733  0.4803 -1.3575
 1812SOL    HW216896   2.552   0.414   2.594 -1.1992  4.8545 -1.8375
 1813SOL     OW16897   3.047   2.206  11.644 -0.2604  0.0196  0.5196
 1813SOL    HW116898   3.028   2.135  11.583 -1.6626  0.5607  0.3337
 1813SOL    HW216899   3.117   2.244  11.591  0.9681 -0.7135  1.6021
 1814SOL     OW16900   3.622   3.901   8.413  0.7943  0.0687 -0.4703
 1814SOL    HW116901   3.613   3.810   8.441 -1.8995 -0.0041 -1.6533
 1814SOL    HW216902   3.557   3.915   8.344  0.4228 -0.4114 -0.2168
 1815SOL     OW16903   1.607   2.537   1.127 -0.5904  0.7025 -0.0514
 1815SOL    HW116904   1.514   2.545   1.108 -0.6074  0.8719  0.0982
 1815SOL    HW216905   1.640   2.626   1.114 -1.1548  0.8110 -0.7008
 1816SOL     OW16906   2.733   1.432  13.666 -0.1525  0.0217 -1.1173
 1816SOL    HW116907   2.754   1.424  13.759  0.3792 -1.6695 -1.3779
 1816SOL    HW216908   2.760   1.521  13.644 -1.1585  1.2335  2.4888
 1817SOL     OW16909   1.932   4.211  13.828  0.1607  0.2822 -0.0160
 1817SOL    HW116910   1.963   4.302  13.831 -0.6242  0.4553  2.4568
 1817SOL    HW216911   1.937   4.207  13.732 -2.8269  2.2561 -0.2700
 1818SOL     OW16912   2.175   0.804  11.934 -0.2096 -0.4989  0.4432
 1818SOL    HW116913   2.271   0.798  11.938  0.0557  2.5380 -1.1533
 1818SOL    HW216914   2.149   0.874  11.993 -0.4443  0.3563 -0.6742
 1819SOL     OW16915   0.446   2.292  12.308  0.1143  0.4313 -0.3798
 1819SOL    HW116916   0.454   2.370  12.363 -1.1602  0.0638  0.3278
 1819SOL    HW216917   0.527   2.244  12.325 -0.5178 -0.2362  0.7880
 1820SOL     OW16918   1.011   4.229  11.821 -0.4955 -0.0988  0.1910
 1820SOL    HW116919   0.998   4.189  11.907 -0.9974  1.4585  0.8454
 1820SOL    HW216920   1.084   4.177  11.785 -1.3171 -1.5616  0.6487
 1821SOL     OW16921   0.129   3.463   1.890  0.5065 -0.5399 -0.3600
 1821SOL    HW116922   0.196   3.406   1.852 -0.9306 -2.7302  0.3747
 1821SOL    HW216923   0.083   3.506   1.818 -0.1453 -2.9137 -1.3541
 1822SOL     OW16924   3.186   2.413  11.256 -0.3636  0.8747  0.4778
 1822SOL    HW116925   3.211   2.369  11.338 -1.0480 -0.3469  0.0265
 1822SOL    HW216926   3.251   2.382  11.193 -0.7598  0.6593  0.1789
 1823SOL     OW16927   2.601   4.446  15.184 -0.2169 -0.0632  0.1009
 1823SOL    HW116928   2.562   4.382  15.244  1.7425  0.0265  1.4743
 1823SOL    HW216929   2.597   4.395  15.104 -2.1854 -0.1023  0.2258
 1824SOL     OW16930   0.789   2.447   2.699  0.4639 -0.3594 -0.2706
 1824SOL    HW116931   0.700   2.468   2.669  0.2863 -1.4536 -0.4907
 1824SOL    HW216932   0.804   2.488   2.784  2.7313 -1.1548 -0.3012
 1825SOL     OW16933   3.840   1.251   8.719  0.1081  0.2360 -0.2974
 1825SOL    HW116934   3.832   1.312   8.646  1.1182 -1.4550 -1.8360
 1825SOL    HW216935   3.926   1.266   8.758  0.1054  0.3706 -0.3427
 1826SOL     OW16936   2.365   3.466  17.192 -0.2285 -0.4800 -0.1881
 1826SOL    HW116937   2.440   3.470  17.251 -0.3686  0.0184 -0.0421
 1826SOL    HW216938   2.399   3.511  17.114  1.2110  1.1400  1.3841
 1827SOL     OW16939   0.325   2.736   8.227 -0.5150  0.4257 -0.3787
 1827SOL    HW116940   0.360   2.824   8.213 -0.0759 -0.1967 -3.1349
 1827SOL    HW216941   0.313   2.737   8.322  0.8512 -0.8635 -0.1970
 1828SOL     OW16942   1.067   3.759   3.328 -0.6233  1.3168 -0.2812
 1828SOL    HW116943   1.066   3.829   3.393  0.9001  0.4311  0.6929
 1828SOL    HW216944   1.114   3.794   3.252  0.7432 -0.5333 -0.3007
 1829SOL     OW16945   0.745   4.711   9.997 -0.0367 -0.2251 -0.5609
 1829SOL    HW116946   0.755   0.011  10.088 -0.8050 -0.7485 -0.3168
 1829SOL    HW216947   0.696   0.055   9.957  2.0029  0.8673 -1.0841
 1830SOL     OW16948   2.562   2.398   8.933  0.5029  0.0644  0.4741
 1830SOL    HW116949   2.658   2.400   8.935  0.5498 -2.3667 -0.2180
 1830SOL    HW216950   2.533   2.481   8.896  1.4204  0.4879  0.6982
 1831SOL     OW16951   3.869   4.366   3.633  0.0078  0.4564  0.1292
 1831SOL    HW116952   3.817   4.416   3.570  0.9352  1.1091 -0.1335
 1831SOL    HW216953   3.801   4.319   3.681  0.4767 -0.7467 -0.3881
 1832SOL     OW16954   2.246   4.526   8.895  0.3543  0.0553 -0.3957
 1832SOL    HW116955   2.182   4.534   8.825 -1.1287  3.2203  1.3510
 1832SOL    HW216956   2.204   4.567   8.970 -0.3526  0.4047 -0.9878
 1833SOL     OW16957   0.931   1.464   6.159  0.6173  0.2158  0.2055
 1833SOL    HW116958   0.917   1.526   6.088  0.0242 -0.1463  0.0070
 1833SOL    HW216959   0.847   1.417   6.160  0.8195 -0.1433  2.9509
 1834SOL     OW16960   3.614   1.789   1.897  0.2959 -0.4739  0.0492
 1834SOL    HW116961   3.564   1.837   1.831  1.0249 -0.7865 -0.7379
 1834SOL    HW216962   3.558   1.714   1.915 -0.7278 -0.0108 -1.1858
 1835SOL     OW16963   2.255   3.567   1.336 -0.3603  0.2474 -0.0857
 1835SOL    HW116964   2.345   3.539   1.352  0.0802  3.3331  2.9795
 1835SOL    HW216965   2.251   3.660   1.361  3.1879  0.3000  0.2913
 1836SOL     OW16966   4.108   1.128   2.477  0.1231  0.1483 -0.0453
 1836SOL    HW116967   4.183   1.185   2.494 -1.1333  1.8547 -0.1787
 1836SOL    HW216968   4.162   1.053   2.454 -0.5907 -0.6579  0.9042
 1837SOL     OW16969   4.702   0.115  12.254  0.3624 -0.1688 -0.2194
 1837SOL    HW116970   4.662   0.156  12.331 -2.1488 -2.5881 -0.2211
 1837SOL    HW216971   4.711   0.021  12.267  0.3540 -0.4027 -2.0202
 1838SOL     OW16972   2.875   4.039   7.701  0.2013  0.4154  0.0176
 1838SOL    HW116973   2.837   3.975   7.761 -1.0134  1.2160  0.1179
 1838SOL    HW216974   2.828   4.122   7.713 -2.0652 -0.7911 -0.4270
 1839SOL     OW16975   0.962   3.571   2.671  0.0875 -0.2844  0.3355
 1839SOL    HW116976   0.880   3.554   2.625  0.2857  2.1625 -0.9506
 1839SOL    HW216977   1.016   3.598   2.597  0.1231  0.3787  0.5993
 1840SOL     OW16978   1.268   2.040   7.722 -0.1611  0.3657  0.0511
 1840SOL    HW116979   1.189   2.085   7.753 -0.4617  0.4658 -0.8560
 1840SOL    HW216980   1.302   1.996   7.800 -1.6936 -1.6697 -0.4514
 1841SOL     OW16981   4.411   3.666  15.281  0.3475  0.4037  0.5982
 1841SOL    HW116982   4.339   3.721  15.250 -0.9698 -1.0804  1.0249
 1841SOL    HW216983   4.481   3.675  15.216  0.0701 -0.4564  0.1810
 1842SOL     OW16984   1.344   3.112   7.964 -0.4467  0.3336 -0.9320
 1842SOL    HW116985   1.306   3.025   7.974  1.3048 -0.4796 -1.3740
 1842SOL    HW216986   1.304   3.156   8.039 -1.4682 -2.7832  0.3301
 1843SOL     OW16987   3.086   2.623   7.201  0.2525 -0.0313  0.2635
 1843SOL    HW116988   2.998   2.595   7.225  0.5096 -0.1800  1.0138
 1843SOL    HW216989   3.131   2.539   7.211  1.4121  0.5340 -0.1602
 1844SOL     OW16990   0.944   4.154   7.846  0.4585 -0.0678  0.1371
 1844SOL    HW116991   0.970   4.064   7.862 -0.4094  0.0082  2.0660
 1844SOL    HW216992   0.992   4.200   7.915  0.5044  0.0577  0.0219
 1845SOL     OW16993   2.091   1.597   6.456  0.8108  0.6946 -0.1631
 1845SOL    HW116994   2.135   1.517   6.485 -0.9281 -0.9747 -2.1280
 1845SOL    HW216995   2.037   1.619   6.531 -1.1840 -0.3188 -1.3049
 1846SOL     OW16996   2.879   2.698   1.708 -0.8290  0.1623  0.2551
 1846SOL    HW116997   2.928   2.724   1.786 -1.1809  3.3583 -0.5856
 1846SOL    HW216998   2.895   2.604   1.704  0.7559  0.5413 -2.2325
 1847SOL     OW16999   0.564   0.432   6.594 -0.2733 -0.0969  0.3605
 1847SOL    HW117000   0.514   0.353   6.573 -0.2584 -0.6804  2.4535
 1847SOL    HW217001   0.648   0.401   6.559  0.4420  1.8647  0.3255
 1848SOL     OW17002   2.689   2.240   5.427 -0.7484  0.1070  0.5262
 1848SOL    HW117003   2.743   2.311   5.463  0.0794 -0.9295  1.3121
 1848SOL    HW217004   2.763   2.190   5.394 -2.6048 -2.9385  1.0474
 1849SOL     OW17005   1.465   2.067   0.279 -0.1389 -0.0198 -0.6274
 1849SOL    HW117006   1.532   2.059   0.211 -0.2092 -0.6419 -0.6239
 1849SOL    HW217007   1.477   1.990   0.334 -0.0345 -0.7484 -1.6631
 1850SOL     OW17008   1.184   4.686   6.568  0.4791 -0.3098 -0.0275
 1850SOL    HW117009   1.200   4.650   6.481 -1.1109  2.0327 -1.2781
 1850SOL    HW217010   1.235   4.623   6.618 -0.4173 -0.2605  0.9458
 1851SOL     OW17011   1.931   1.479   5.080 -0.4118 -0.2471 -0.2794
 1851SOL    HW117012   1.857   1.538   5.098  0.3268  0.3131  0.9336
 1851SOL    HW217013   1.998   1.539   5.047 -1.7443  1.2255 -0.3195
 1852SOL     OW17014   0.563   4.055  13.000  0.5354 -0.1350 -0.0530
 1852SOL    HW117015   0.475   4.030  12.972  1.4612 -1.9306 -1.3412
 1852SOL    HW217016   0.575   4.012  13.084  1.8334  0.7903  0.2329
 1853SOL     OW17017   3.337   1.243   5.457 -0.3038 -0.3469 -0.3305
 1853SOL    HW117018   3.320   1.246   5.551 -2.5877  3.6324 -0.8563
 1853SOL    HW217019   3.320   1.151   5.438  0.3873 -0.6309  0.4450
 1854SOL     OW17020   4.016   0.206   2.234  0.4079  0.0728  0.0408
 1854SOL    HW117021   3.942   0.158   2.272  0.2444  0.8026  0.6555
 1854SOL    HW217022   4.046   0.154   2.159 -1.8044  0.7619 -1.3097
 1855SOL     OW17023   0.572   2.530   8.568 -0.0455 -0.1542 -0.4100
 1855SOL    HW117024   0.486   2.562   8.594  1.8667  2.2583  2.9885
 1855SOL    HW217025   0.545   2.443   8.539 -1.0254  0.0472 -0.0828
 1856SOL     OW17026   0.936   1.661   1.867  0.2124 -0.1814 -0.0933
 1856SOL    HW117027   0.930   1.683   1.774 -0.6880  2.1410  0.5008
 1856SOL    HW217028   0.913   1.569   1.857 -0.2194 -0.0134 -0.6300
 1857SOL     OW17029   2.524   0.075  16.248 -0.1961 -0.1820  0.6929
 1857SOL    HW117030   2.534   4.728  16.306 -1.5187 -1.0152 -0.1640
 1857SOL    HW217031   2.493   0.138  16.313 -1.2846 -0.5672  0.5554
 1858SOL     OW17032   1.893   1.900   8.641 -0.6535 -0.3739  0.2307
 1858SOL    HW117033   1.969   1.856   8.678  0.6988 -0.2283 -2.3708
 1858SOL    HW217034   1.819   1.847   8.668  1.1070 -1.7460  2.3202
 1859SOL     OW17035   2.551   3.786   9.381  0.3112  0.2180 -0.8561
 1859SOL    HW117036   2.596   3.734   9.448  1.6054 -0.0612 -1.9546
 1859SOL    HW217037   2.485   3.724   9.349 -0.0435  0.5055 -0.6797
 1860SOL     OW17038   3.784   0.046   2.269 -0.5004 -0.2719 -0.1889
 1860SOL    HW117039   3.751   4.687   2.292 -3.0258  0.7162 -0.0006
 1860SOL    HW217040   3.703   0.097   2.282 -1.1697 -1.6675  1.1221
 1861SOL     OW17041   3.236   2.123  14.440  0.2974  0.2286 -0.4709
 1861SOL    HW117042   3.152   2.093  14.474  0.5743 -0.8479 -0.7211
 1861SOL    HW217043   3.208   2.162  14.358  0.4175  0.0460 -0.5981
 1862SOL     OW17044   0.683   3.723   1.928  0.5092 -0.0959 -0.0457
 1862SOL    HW117045   0.634   3.697   1.850 -0.7437  1.9389  0.0598
 1862SOL    HW217046   0.755   3.660   1.923  0.4327 -0.0623 -1.7795
 1863SOL     OW17047   3.824   3.523  11.078 -0.1364 -0.0656  0.1182
 1863SOL    HW117048   3.894   3.581  11.048 -0.9773  0.8299 -0.0957
 1863SOL    HW217049   3.875   3.460  11.129 -0.7472 -0.6529  0.0032
 1864SOL     OW17050   0.578   4.580   4.168 -0.1670 -0.0367  0.7985
 1864SOL    HW117051   0.539   4.515   4.109 -2.3038  2.5492 -0.5951
 1864SOL    HW217052   0.526   4.656   4.142  1.4180  1.1137  1.0043
 1865SOL     OW17053   0.332   3.447  14.404  0.0718  0.9972 -0.6962
 1865SOL    HW117054   0.344   3.362  14.361  0.1839  0.6045  0.0989
 1865SOL    HW217055   0.362   3.432  14.494 -1.1307 -0.5402 -0.5552
 1866SOL     OW17056   0.025   3.225   7.952 -0.4610 -0.3349  0.6316
 1866SOL    HW117057   0.067   3.255   8.033 -0.0141  0.8493 -0.0312
 1866SOL    HW217058   0.095   3.216   7.887  0.8203  0.4697  1.8838
 1867SOL     OW17059   0.725   3.930   9.095 -0.4924 -0.2823 -0.3234
 1867SOL    HW117060   0.725   3.853   9.152  2.4832 -0.3977 -0.5162
 1867SOL    HW217061   0.812   3.924   9.055 -0.5644  1.2280 -0.7126
 1868SOL     OW17062   1.144   2.869  16.434  0.2451 -0.4411  0.3885
 1868SOL    HW117063   1.133   2.847  16.527  0.8424 -0.8676  0.3622
 1868SOL    HW217064   1.136   2.964  16.439 -0.4790 -0.2631 -4.2494
 1869SOL     OW17065   3.306   3.406   8.174 -0.3797 -0.0883  0.2100
 1869SOL    HW117066   3.251   3.462   8.229 -0.1535  1.2862 -0.9542
 1869SOL    HW217067   3.259   3.323   8.173 -2.2545  0.9658 -1.2222
 1870SOL     OW17068   1.327   1.764   3.523  0.2632  0.2408  0.1979
 1870SOL    HW117069   1.345   1.797   3.612  1.5356  0.1135 -0.0088
 1870SOL    HW217070   1.342   1.839   3.465  0.6796  1.5565  1.9734
 1871SOL     OW17071   1.956   2.217  13.855 -0.3824  0.3461 -0.4901
 1871SOL    HW117072   1.958   2.195  13.948 -0.9434  3.6860  0.3144
 1871SOL    HW217073   2.048   2.205  13.831  0.2577  1.5847  1.3008
 1872SOL     OW17074   2.680   2.014   8.039  0.3258  0.4218 -0.3115
 1872SOL    HW117075   2.650   1.981   8.124  2.1094  0.7582  0.4467
 1872SOL    HW217076   2.766   1.972   8.037  0.3103  0.4388 -1.0735
 1873SOL     OW17077   3.370   1.588   8.860  0.1113 -0.1584  0.1360
 1873SOL    HW117078   3.442   1.528   8.838 -0.0142 -0.5122  0.6909
 1873SOL    HW217079   3.419   1.665   8.887 -1.1079  1.2486 -1.6701
 1874SOL     OW17080   1.549   3.133   9.021  0.4373  0.6503  0.0868
 1874SOL    HW117081   1.631   3.165   9.059 -0.2607  0.3610  1.8680
 1874SOL    HW217082   1.480   3.146   9.086  0.9745  0.7176  0.6432
 1875SOL     OW17083   4.034   1.977  17.544  0.3975  0.5135 -0.6521
 1875SOL    HW117084   3.952   1.930  17.530 -0.4843  1.5425  1.1388
 1875SOL    HW217085   4.004   2.051  17.596 -1.5836 -1.2146  0.6929
 1876SOL     OW17086   4.187   0.059   2.591  0.0657  0.8514  0.7831
 1876SOL    HW117087   4.193   0.086   2.499 -1.4915 -0.3652  0.3145
 1876SOL    HW217088   4.187   0.147   2.627  1.3694  0.5287  1.5702
 1877SOL     OW17089   1.694   1.852   4.765  0.3741  0.1644  0.0334
 1877SOL    HW117090   1.699   1.930   4.821 -0.6921  0.1026  0.2254
 1877SOL    HW217091   1.677   1.776   4.822  2.8125 -0.0927  0.4028
 1878SOL     OW17092   1.842   4.629   4.559 -0.9771 -0.1469 -0.4224
 1878SOL    HW117093   1.889   4.564   4.506  1.9304  0.5523  1.2714
 1878SOL    HW217094   1.913   4.672   4.606 -1.3184 -0.7286  0.6247
 1879SOL     OW17095   4.284   3.816   4.269 -0.1501 -0.4795 -0.5311
 1879SOL    HW117096   4.359   3.803   4.211 -0.0454  1.1324 -0.7407
 1879SOL    HW217097   4.286   3.726   4.301 -0.7103 -0.8959 -1.6547
 1880SOL     OW17098   3.816   3.580   5.980  0.1917 -0.1929  0.1145
 1880SOL    HW117099   3.733   3.624   5.997 -0.0263 -0.1569 -1.0413
 1880SOL    HW217100   3.781   3.503   5.936 -1.1986  0.6203 -0.2159
 1881SOL     OW17101   0.891   2.062   0.433  0.3248 -0.0679 -0.5366
 1881SOL    HW117102   0.906   2.151   0.401  0.3719  0.7086  1.6476
 1881SOL    HW217103   0.952   2.052   0.505  1.4330  0.6420 -1.3807
 1882SOL     OW17104   1.715   2.522  11.470 -0.1304  0.1906  0.7543
 1882SOL    HW117105   1.648   2.488  11.411  1.0987  0.3475 -0.7231
 1882SOL    HW217106   1.729   2.447  11.529 -1.1786 -0.9792 -0.4779
 1883SOL     OW17107   3.638   0.249   9.916 -0.3340 -0.6216  0.5287
 1883SOL    HW117108   3.596   0.313   9.973 -1.2138  0.0109 -0.8358
 1883SOL    HW217109   3.571   0.184   9.897  2.1959 -2.8236 -0.8670
 1884SOL     OW17110   2.955   2.079  14.038  0.2173  0.1966  0.4768
 1884SOL    HW117111   2.917   2.167  14.031 -0.4227 -0.0222  1.1974
 1884SOL    HW217112   2.877   2.024  14.027  0.5630 -0.1538 -0.1513
 1885SOL     OW17113   1.179   1.021  15.020  0.0345 -0.5560  0.3463
 1885SOL    HW117114   1.208   1.048  15.108 -0.2867 -0.7160  0.5015
 1885SOL    HW217115   1.233   1.089  14.979 -0.5974  1.0513  2.1613
 1886SOL     OW17116   3.316   1.799   7.718 -0.2532  0.4370 -0.2423
 1886SOL    HW117117   3.260   1.722   7.713  0.5257 -0.0204 -2.0471
 1886SOL    HW217118   3.357   1.792   7.804 -2.4483  0.1934  0.7534
 1887SOL     OW17119   3.055   4.585   5.411  0.2893  0.9085  0.0220
 1887SOL    HW117120   2.982   4.583   5.349  1.0204 -0.5178 -0.8018
 1887SOL    HW217121   3.110   4.514   5.376  0.6601 -0.4930  3.4691
 1888SOL     OW17122   0.451   1.643   9.568  0.1238 -0.8775  0.2672
 1888SOL    HW117123   0.524   1.670   9.511  0.0988 -0.0961  0.6072
 1888SOL    HW217124   0.392   1.588   9.516 -0.4453 -0.6570  0.6843
 1889SOL     OW17125   4.137   3.921   9.188  0.2176  0.2614 -0.5080
 1889SOL    HW117126   4.111   3.856   9.122 -2.8210  1.0391 -0.0765
 1889SOL    HW217127   4.102   3.882   9.268  0.7326 -0.2198 -0.5178
 1890SOL     OW17128   3.310   4.367  13.787 -0.5238  0.6616  1.0818
 1890SOL    HW117129   3.232   4.396  13.835  0.6801  3.1157  1.5768
 1890SOL    HW217130   3.379   4.427  13.817  0.7264 -1.1917  1.9049
 1891SOL     OW17131   4.017   1.622   2.682 -0.6488  0.1671 -0.7802
 1891SOL    HW117132   3.949   1.573   2.726 -1.1828  0.8468 -0.8452
 1891SOL    HW217133   4.088   1.563   2.706  2.3753  3.3192 -1.9771
 1892SOL     OW17134   1.376   3.040   2.344  0.1159  0.3187 -0.0401
 1892SOL    HW117135   1.355   3.133   2.350  0.5948  0.4392 -0.1437
 1892SOL    HW217136   1.464   3.047   2.305  0.4878  0.1744  0.7767
 1893SOL     OW17137   2.782   1.471   4.127  0.9147  0.2040  0.7279
 1893SOL    HW117138   2.707   1.411   4.131  1.1825 -0.0106  2.3150
 1893SOL    HW217139   2.747   1.546   4.079 -0.3244 -0.9639 -0.1950
 1894SOL     OW17140   3.086   0.810   1.052 -0.4082 -0.2500 -0.3597
 1894SOL    HW117141   3.174   0.809   1.015  0.6292  0.6602  2.0673
 1894SOL    HW217142   3.083   0.776   1.142  0.1070  0.3803 -0.0952
 1895SOL     OW17143   4.135   1.882   4.062 -0.1347  0.0639 -0.3350
 1895SOL    HW117144   4.201   1.857   4.127 -0.3190 -1.4126 -0.7209
 1895SOL    HW217145   4.090   1.802   4.036  0.1691 -0.8515  1.9574
 1896SOL     OW17146   3.810   1.321   5.536  0.1186 -0.3064 -0.7228
 1896SOL    HW117147   3.784   1.334   5.627 -0.8358 -1.2361 -0.8714
 1896SOL    HW217148   3.723   1.328   5.498 -1.0641 -3.0006  1.5155
 1897SOL     OW17149   0.561   2.022   4.756  0.1596  0.0808 -0.0553
 1897SOL    HW117150   0.527   2.104   4.791  0.4895 -0.2592  1.0609
 1897SOL    HW217151   0.477   1.980   4.740  0.1642  0.0590 -0.0237
 1898SOL     OW17152   1.243   4.173   6.887  0.2500  0.2786 -0.7614
 1898SOL    HW117153   1.320   4.171   6.830 -0.2094 -2.4515 -1.2891
 1898SOL    HW217154   1.183   4.137   6.822  0.7358 -1.7338 -0.0971
 1899SOL     OW17155   2.259   1.576  16.067  0.3028 -0.2845  0.6033
 1899SOL    HW117156   2.300   1.495  16.036 -0.4553  0.0792 -1.3574
 1899SOL    HW217157   2.306   1.632  16.005 -0.6203 -1.2184 -0.9647
 1900SOL     OW17158   1.346   4.238   2.733 -0.5569  0.6683  0.0110
 1900SOL    HW117159   1.440   4.228   2.719 -0.3089  0.1949  1.9158
 1900SOL    HW217160   1.337   4.324   2.694  0.3197 -0.2578 -2.2131
 1901SOL     OW17161   1.393   4.429  16.879 -0.3718 -0.5610 -0.0888
 1901SOL    HW117162   1.443   4.364  16.830  1.8815  2.0575 -1.2606
 1901SOL    HW217163   1.314   4.420  16.826 -0.2302  0.7713 -0.5345
 1902SOL     OW17164   0.467   3.337   8.415  0.0270 -0.2260  0.6832
 1902SOL    HW117165   0.451   3.377   8.500 -2.7909  1.0192 -0.4434
 1902SOL    HW217166   0.525   3.264   8.437 -2.1328 -1.8465  0.9977
 1903SOL     OW17167   3.419   4.309   6.760  0.2627 -0.7089  0.1872
 1903SOL    HW117168   3.470   4.248   6.707 -1.5604 -1.4141 -0.7420
 1903SOL    HW217169   3.380   4.245   6.820  0.2397  2.1364  3.2331
 1904SOL     OW17170   1.860   3.660   5.939  0.3845  0.1547  0.0538
 1904SOL    HW117171   1.809   3.579   5.944  2.2411 -0.9097  1.6942
 1904SOL    HW217172   1.947   3.630   5.964  0.0942 -0.9369 -0.2537
 1905SOL     OW17173   1.942   1.145  13.751  0.7409 -0.1530  0.0734
 1905SOL    HW117174   1.910   1.063  13.788  1.8256 -0.2427  0.8113
 1905SOL    HW217175   1.969   1.188  13.832 -0.9506  0.5144  0.2750
 1906SOL     OW17176   0.117   0.685   8.205  0.3342  0.4961  0.6729
 1906SOL    HW117177   0.074   0.607   8.240 -0.1493  1.3715  2.0651
 1906SOL    HW217178   0.152   0.721   8.287 -0.8040  0.7954  1.0196
 1907SOL     OW17179   3.394   2.411   5.287  0.5641 -0.0399 -0.1428
 1907SOL    HW117180   3.466   2.409   5.224 -1.2081  0.2049 -2.2046
 1907SOL    HW217181   3.403   2.504   5.309 -1.7756  0.4183 -1.0395
 1908SOL     OW17182   0.637   4.032  11.510 -0.1082 -0.0743  0.4712
 1908SOL    HW117183   0.573   4.085  11.558 -0.2975 -1.2961  1.5867
 1908SOL    HW217184   0.587   4.010  11.432 -0.9891  2.0832  0.4273
 1909SOL     OW17185   2.495   0.339  12.399 -0.0157 -0.0113  0.0599
 1909SOL    HW117186   2.535   0.425  12.413  1.4709 -0.8658  0.9754
 1909SOL    HW217187   2.412   0.349  12.446 -0.2714 -1.4967 -0.0710
 1910SOL     OW17188   4.627   1.205   8.422  0.1238 -0.3072 -0.3013
 1910SOL    HW117189   4.542   1.237   8.390 -0.4972 -1.1327  0.5378
 1910SOL    HW217190   4.670   1.164   8.347 -0.2455 -1.1061 -0.0711
 1911SOL     OW17191   2.135   2.489   0.298  0.4182  0.0829  0.6151
 1911SOL    HW117192   2.101   2.503   0.386 -0.8001  1.1731 -0.0279
 1911SOL    HW217193   2.092   2.408   0.273 -1.1775  1.5585 -1.4067
 1912SOL     OW17194   0.900   2.884   6.648  0.3496 -0.8329  0.1034
 1912SOL    HW117195   0.823   2.913   6.699  1.3525  0.2770  0.9879
 1912SOL    HW217196   0.964   2.896   6.718  0.1437  0.2368  0.1110
 1913SOL     OW17197   0.525   1.231   1.293  0.2625 -0.1342  0.0406
 1913SOL    HW117198   0.505   1.140   1.269 -0.1610  0.2187 -0.9593
 1913SOL    HW217199   0.485   1.269   1.215 -3.4587  0.1856  2.1264
 1914SOL     OW17200   1.399   0.239   5.961 -0.0080 -0.3423 -0.2587
 1914SOL    HW117201   1.344   0.308   5.998 -0.0427  0.2138 -1.3485
 1914SOL    HW217202   1.395   0.175   6.033  0.8022  1.2046  1.1756
 1915SOL     OW17203   3.603   4.072   1.434  0.0522  0.5606  0.8494
 1915SOL    HW117204   3.535   4.019   1.392 -1.6228  2.7033  0.8285
 1915SOL    HW217205   3.676   4.011   1.419 -0.0736  0.4493  0.6917
 1916SOL     OW17206   1.027   2.957   6.883  0.6863 -0.0848  0.1122
 1916SOL    HW117207   1.023   2.917   6.970  1.6937 -0.5185 -0.0316
 1916SOL    HW217208   1.086   3.027   6.912  0.7858 -0.7467  1.5119
 1917SOL     OW17209   3.452   2.424   3.209 -0.6344  0.5134 -0.7154
 1917SOL    HW117210   3.526   2.439   3.150 -0.0899 -1.2227 -0.4677
 1917SOL    HW217211   3.418   2.514   3.211  0.6112  0.9437  1.0068
 1918SOL     OW17212   0.573   0.193  12.478  0.0222  0.1044 -0.5051
 1918SOL    HW117213   0.657   0.216  12.517 -0.0544 -0.7463  0.1636
 1918SOL    HW217214   0.602   0.157  12.394  0.6367  0.2056 -0.3307
 1919SOL     OW17215   0.071   3.102  11.929 -0.1663  0.0249 -0.2054
 1919SOL    HW117216   0.049   3.120  11.838  2.3660  0.4507 -0.7456
 1919SOL    HW217217   0.087   3.008  11.931 -2.4816 -0.3651 -0.1196
 1920SOL     OW17218   0.874   4.244   2.629  0.3994 -0.4414 -0.0992
 1920SOL    HW117219   0.840   4.258   2.717 -0.8040 -2.6407 -0.2045
 1920SOL    HW217220   0.926   4.164   2.633  2.8633  1.1808 -0.2126
 1921SOL     OW17221   0.823   1.218   7.578 -0.0086 -0.4971  0.1084
 1921SOL    HW117222   0.860   1.165   7.649 -1.7766  0.1142  1.4984
 1921SOL    HW217223   0.865   1.185   7.499 -0.4966  0.6921 -0.6473
 1922SOL     OW17224   4.327   2.473   9.923 -0.2179 -0.1830  0.6106
 1922SOL    HW117225   4.337   2.521  10.005  1.0739  2.2100 -0.9359
 1922SOL    HW217226   4.250   2.418   9.927 -2.2340  2.4717 -1.4677
 1923SOL     OW17227   2.427   3.891  12.258 -0.1633 -0.2791 -0.0275
 1923SOL    HW117228   2.340   3.893  12.299 -0.1125  1.1052  0.0394
 1923SOL    HW217229   2.482   3.869  12.332  1.9100  0.7530 -1.2688
 1924SOL     OW17230   0.069   2.144   2.526  0.1062 -0.2150 -0.8746
 1924SOL    HW117231   4.705   2.170   2.533  1.0510  3.5216 -2.2152
 1924SOL    HW217232   0.062   2.108   2.437  0.1799 -1.2159 -0.4764
 1925SOL     OW17233   3.617   2.906  11.523 -0.1921 -0.2131  0.1832
 1925SOL    HW117234   3.574   2.822  11.507 -2.1402  0.4970  1.6848
 1925SOL    HW217235   3.607   2.918  11.617  2.2765 -1.6959  0.6336
 1926SOL     OW17236   0.973   2.332   0.398 -0.0037  0.3941 -0.0233
 1926SOL    HW117237   0.961   2.420   0.434  0.6559  0.0230  1.1032
 1926SOL    HW217238   0.974   2.355   0.305  0.7764 -1.9468 -0.5922
 1927SOL     OW17239   1.896   2.543  10.411  0.4425  0.0642 -0.3183
 1927SOL    HW117240   1.885   2.543  10.316 -1.0598  0.3927 -0.1465
 1927SOL    HW217241   1.803   2.542  10.434  0.2776  0.5368 -0.9622
 1928SOL     OW17242   4.645   1.064   3.452  0.2310 -0.4858 -0.3244
 1928SOL    HW117243   4.721   1.050   3.509  0.0222 -0.8737 -0.1415
 1928SOL    HW217244   4.571   1.033   3.504 -0.1911  2.0057  0.5643
 1929SOL     OW17245   1.224   1.443  11.053 -0.0108 -0.0825 -0.0788
 1929SOL    HW117246   1.308   1.400  11.037 -0.4076 -1.0325  0.3796
 1929SOL    HW217247   1.228   1.493  11.134 -1.8576 -0.5937  0.3207
 1930SOL     OW17248   2.533   3.918   8.625 -0.0559 -0.4000  0.0288
 1930SOL    HW117249   2.520   3.979   8.698 -2.1488  1.4244 -1.8670
 1930SOL    HW217250   2.443   3.919   8.593 -0.5619  2.8318  1.5725
 1931SOL     OW17251   2.627   0.552   4.323 -0.4591 -0.0119  0.1534
 1931SOL    HW117252   2.691   0.501   4.273 -0.4181 -0.9966  1.2165
 1931SOL    HW217253   2.610   0.494   4.398 -0.4257 -0.7424 -0.3994
 1932SOL     OW17254   0.624   1.332   7.301  0.1781  0.8890  0.4178
 1932SOL    HW117255   0.638   1.386   7.379 -0.9079  0.3248  1.0186
 1932SOL    HW217256   0.584   1.256   7.345  0.2927  0.4457 -0.2491
 1933SOL     OW17257   4.355   3.633   2.669 -0.5643  0.1236  0.8275
 1933SOL    HW117258   4.435   3.686   2.662  0.0363 -0.8196  0.6193
 1933SOL    HW217259   4.389   3.568   2.729  0.0178 -0.5930 -0.2777
 1934SOL     OW17260   2.298   0.435  14.816  0.2802 -0.4270 -0.4326
 1934SOL    HW117261   2.289   0.404  14.726 -0.3095 -1.3186 -0.0596
 1934SOL    HW217262   2.214   0.416  14.859  0.8133 -1.2015  0.2596
 1935SOL     OW17263   0.214   1.383   1.640 -0.1012  0.1276 -0.4535
 1935SOL    HW117264   0.190   1.434   1.717  1.9659 -2.1091  1.6883
 1935SOL    HW217265   0.157   1.419   1.572 -0.4611  1.0002  0.3168
 1936SOL     OW17266   4.193   0.373   7.826  0.2126 -0.1716 -0.1758
 1936SOL    HW117267   4.254   0.373   7.753  0.9518 -0.2173  0.4419
 1936SOL    HW217268   4.240   0.437   7.880 -1.2248 -0.4346  1.4212
 1937SOL     OW17269   3.335   2.851   1.818 -0.1463 -0.2700  0.4156
 1937SOL    HW117270   3.250   2.882   1.849  0.2993  0.5862  0.7834
 1937SOL    HW217271   3.355   2.928   1.765 -0.7825  0.0894  0.7062
 1938SOL     OW17272   0.057   4.193   4.344 -0.1417  0.2339 -0.2507
 1938SOL    HW117273   0.004   4.171   4.268 -1.5054 -1.1990  1.1115
 1938SOL    HW217274   0.112   4.260   4.304  0.2064  0.5111  0.7047
 1939SOL     OW17275   4.371   2.944   8.928 -0.5241  0.7450 -0.9364
 1939SOL    HW117276   4.406   3.033   8.937 -0.8763  0.8532 -0.6203
 1939SOL    HW217277   4.390   2.904   9.013  0.7946  1.0604 -1.0893
 1940SOL     OW17278   1.098   3.875   9.883 -0.2910 -0.2452  0.2827
 1940SOL    HW117279   1.071   3.793   9.841  2.1277 -0.7868 -0.2047
 1940SOL    HW217280   1.046   3.943   9.841 -0.8681 -1.1091 -0.3993
 1941SOL     OW17281   3.357   3.872   1.616  0.0212 -0.2675 -0.2775
 1941SOL    HW117282   3.441   3.904   1.649 -0.4322  0.7936 -0.1369
 1941SOL    HW217283   3.375   3.886   1.523  1.0953 -0.3944 -0.0934
 1942SOL     OW17284   1.006   2.617   4.041 -0.2980 -0.1599 -0.4119
 1942SOL    HW117285   0.926   2.668   4.030 -0.4228 -0.1985  0.3715
 1942SOL    HW217286   1.076   2.682   4.030 -1.5026  1.0994 -0.5148
 1943SOL     OW17287   0.260   3.470   4.439 -0.0588  0.4595  0.2229
 1943SOL    HW117288   0.306   3.551   4.463  1.2081  1.0274 -4.0446
 1943SOL    HW217289   0.298   3.444   4.355  1.5879  0.6319  0.9124
 1944SOL     OW17290   3.559   1.267  17.481  0.3662  0.0982 -0.4577
 1944SOL    HW117291   3.633   1.319  17.451  1.3784 -1.6176 -0.9192
 1944SOL    HW217292   3.544   1.199  17.416 -0.3555  1.0001 -1.2473
 1945SOL     OW17293   0.529   2.290   8.915 -1.1906  0.4767  0.2624
 1945SOL    HW117294   0.458   2.256   8.860 -2.2757 -0.4266  2.2021
 1945SOL    HW217295   0.482   2.365   8.951  0.1779  2.0619 -1.2223
 1946SOL     OW17296   1.608   1.428   5.654  0.1636  0.0338 -0.0769
 1946SOL    HW117297   1.532   1.379   5.684 -0.1651  1.2263  1.0536
 1946SOL    HW217298   1.679   1.381   5.698 -1.5285 -0.5058  2.0806
 1947SOL     OW17299   0.488   2.849   2.306  0.1387  0.0210  0.8845
 1947SOL    HW117300   0.398   2.822   2.288 -0.1341  1.0080  0.7489
 1947SOL    HW217301   0.516   2.890   2.224  0.5935 -3.4430 -0.6829
 1948SOL     OW17302   4.569   2.395   1.974 -0.2303  0.0898  0.0102
 1948SOL    HW117303   4.566   2.490   1.966  0.8161  0.1431  0.2433
 1948SOL    HW217304   4.486   2.364   2.009 -0.7019 -0.6303 -1.7413
 1949SOL     OW17305   0.283   4.384  12.953  0.0270 -0.0252 -0.1769
 1949SOL    HW117306   0.258   4.471  12.983  1.3919  0.0173  0.8416
 1949SOL    HW217307   0.379   4.386  12.958  0.2033 -0.6116 -3.1116
 1950SOL     OW17308   0.561   1.209   2.237 -0.3308  0.2420  0.0395
 1950SOL    HW117309   0.578   1.180   2.327  0.2699 -0.4527 -0.2929
 1950SOL    HW217310   0.492   1.268   2.268 -0.3674 -0.5590  1.4722
 1951SOL     OW17311   4.105   2.973  16.483  0.2424  0.2741  0.5359
 1951SOL    HW117312   4.161   3.024  16.542 -0.8264 -0.1138  1.8862
 1951SOL    HW217313   4.020   2.999  16.518  0.3933  1.2832  0.1667
 1952SOL     OW17314   4.611   2.860   6.575  0.1195 -0.8068  0.2913
 1952SOL    HW117315   4.690   2.825   6.618  1.4918  1.3180 -0.5356
 1952SOL    HW217316   4.596   2.797   6.505  0.9694  0.2114 -0.7950
 1953SOL     OW17317   4.204   2.392  15.972 -0.1871 -0.3705  0.4448
 1953SOL    HW117318   4.144   2.351  16.034 -2.5454  0.7412 -1.1283
 1953SOL    HW217319   4.184   2.486  15.972  0.9981 -0.1167  1.3217
 1954SOL     OW17320   0.386   2.887   3.253  0.5366  0.4239 -0.3901
 1954SOL    HW117321   0.473   2.902   3.216  0.9271 -0.5013  0.1626
 1954SOL    HW217322   0.386   2.826   3.327 -1.1143  0.7338 -0.1180
 1955SOL     OW17323   1.681   1.807   7.870 -0.1096 -0.3037  0.0059
 1955SOL    HW117324   1.711   1.719   7.848 -0.1404  0.0786 -1.5117
 1955SOL    HW217325   1.707   1.863   7.798  1.1555 -0.7649  0.1032
 1956SOL     OW17326   1.339   4.337   3.594  0.2456  0.1838 -0.0325
 1956SOL    HW117327   1.306   4.308   3.678  0.1335  0.8601  0.1562
 1956SOL    HW217328   1.264   4.341   3.534  1.7491 -1.5254 -2.0227
 1957SOL     OW17329   1.961   1.822   0.377  0.6025  0.3735  0.6326
 1957SOL    HW117330   1.971   1.729   0.397  0.0857  0.0689 -0.5564
 1957SOL    HW217331   2.047   1.832   0.335  0.8514 -0.0308  1.0429
 1958SOL     OW17332   4.615   0.121   4.829  0.3599 -0.2486  0.0777
 1958SOL    HW117333   4.669   0.171   4.769  1.2157 -0.5284  0.6228
 1958SOL    HW217334   4.548   0.182   4.861  0.0539 -2.4396  3.5854
 1959SOL     OW17335   3.497   3.801   4.073 -0.2573  0.3212  0.1031
 1959SOL    HW117336   3.506   3.784   3.979 -0.2416 -2.8278  0.6715
 1959SOL    HW217337   3.562   3.870   4.082  0.0910  0.0246 -0.1537
 1960SOL     OW17338   4.105   0.642   7.659  0.1067  0.4389  0.2814
 1960SOL    HW117339   4.091   0.554   7.692 -1.0930  0.2098 -0.8016
 1960SOL    HW217340   4.017   0.678   7.672  0.1564 -0.2626  2.4747
 1961SOL     OW17341   0.771   1.076   6.036 -0.1883  0.3465  0.3817
 1961SOL    HW117342   0.793   1.102   5.946  0.1955  0.5681  0.5417
 1961SOL    HW217343   0.728   1.154   6.071  2.1749  1.8635 -0.1384
 1962SOL     OW17344   0.661   3.683  10.115  0.2093  0.6064  0.2147
 1962SOL    HW117345   0.746   3.727  10.110 -0.1726  1.2959 -0.1990
 1962SOL    HW217346   0.632   3.700  10.026 -0.7504 -1.7220  0.0709
 1963SOL     OW17347   4.510   3.554   7.520 -0.2049 -1.1472  0.5220
 1963SOL    HW117348   4.506   3.468   7.478 -0.6387 -1.0060  0.2726
 1963SOL    HW217349   4.540   3.611   7.448 -0.5931 -3.3433 -1.3938
 1964SOL     OW17350   1.300   0.063  16.013 -0.3670  0.0195  0.0530
 1964SOL    HW117351   1.345   0.051  16.097 -2.0818  1.9205  1.2495
 1964SOL    HW217352   1.242   0.139  16.022  0.3288  0.6129 -0.4860
 1965SOL     OW17353   0.053   4.720   6.719  0.4211 -0.0736 -0.2872
 1965SOL    HW117354   0.060   4.706   6.625  1.3161  0.7541 -0.3483
 1965SOL    HW217355   4.686   4.727   6.732  0.3008  1.1581 -1.8376
 1966SOL     OW17356   3.498   4.470   6.359  0.0313 -0.2504 -0.1552
 1966SOL    HW117357   3.551   4.413   6.303  0.6658  0.6966 -0.5096
 1966SOL    HW217358   3.461   4.535   6.300  1.4689  0.1714 -0.5852
 1967SOL     OW17359   3.875   0.905   6.807  0.0161 -0.4113 -0.1316
 1967SOL    HW117360   3.921   0.870   6.730 -1.8499  1.7682 -2.2256
 1967SOL    HW217361   3.926   0.986   6.811 -1.3451  0.4493 -0.4033
 1968SOL     OW17362   2.598   0.111   8.273  0.2175 -0.2701  0.3479
 1968SOL    HW117363   2.563   0.177   8.214 -0.8420 -0.9148  0.2593
 1968SOL    HW217364   2.688   0.141   8.289  0.3548 -0.6474  0.2699
 1969SOL     OW17365   1.098   3.192   7.600  0.2753 -0.2552  0.5189
 1969SOL    HW117366   1.160   3.222   7.534  0.3988 -0.1516  0.6833
 1969SOL    HW217367   1.101   3.267   7.660 -1.2765  0.0759  0.1811
 1970SOL     OW17368   2.788   1.008  17.639  0.1822  0.1121  0.2842
 1970SOL    HW117369   2.776   1.071  17.710  1.0108 -0.1248  0.6431
 1970SOL    HW217370   2.712   1.023  17.583  1.2539  2.2849 -0.6045
 1971SOL     OW17371   2.714   3.534   3.386 -0.1944  0.4262 -0.1602
 1971SOL    HW117372   2.750   3.602   3.442 -0.0506 -1.2562  1.7818
 1971SOL    HW217373   2.794   3.483   3.374 -1.1388 -1.3886  1.2028
 1972SOL     OW17374   0.442   3.150   2.178  0.3163 -0.9137  0.1460
 1972SOL    HW117375   0.380   3.118   2.113 -1.3518  1.7300  0.4311
 1972SOL    HW217376   0.410   3.116   2.262 -0.1911 -1.2973 -0.2050
 1973SOL     OW17377   0.611   3.166   4.522 -0.1235  0.2282  0.1213
 1973SOL    HW117378   0.648   3.234   4.579 -4.3356  3.1045 -0.5374
 1973SOL    HW217379   0.657   3.182   4.439  0.3646 -1.1123  0.1440
 1974SOL     OW17380   4.236   0.520   0.873 -0.5356  0.1055  0.2338
 1974SOL    HW117381   4.202   0.572   0.946 -1.3983  0.4022 -0.3788
 1974SOL    HW217382   4.178   0.556   0.806  0.5373 -0.4668 -1.0089
 1975SOL     OW17383   4.003   2.851   9.124  0.1274 -0.4741 -0.0714
 1975SOL    HW117384   4.038   2.939   9.112 -1.7774  0.2014 -0.6836
 1975SOL    HW217385   4.081   2.815   9.166 -0.1557 -0.7372  0.2306
 1976SOL     OW17386   2.052   4.169   8.524  0.6683  0.3235  0.1469
 1976SOL    HW117387   2.004   4.233   8.472 -0.2790 -0.1549  0.4390
 1976SOL    HW217388   2.107   4.228   8.576  0.7747  1.0077 -0.7412
 1977SOL     OW17389   1.324   1.261  17.483  0.0671  0.0476  0.4546
 1977SOL    HW117390   1.232   1.241  17.466 -0.1249  0.5125  0.9614
 1977SOL    HW217391   1.348   1.216  17.564  0.4938 -0.2443  0.1651
 1978SOL     OW17392   0.108   2.906   8.626  0.8743 -0.1326  0.1704
 1978SOL    HW117393   0.080   2.818   8.648  0.6094 -0.4872 -1.5510
 1978SOL    HW217394   0.076   2.947   8.706  0.0898 -0.2027 -0.1050
 1979SOL     OW17395   3.500   2.083   7.803 -0.5702 -0.7366 -0.0452
 1979SOL    HW117396   3.455   2.161   7.772  2.1622  1.7494  2.2291
 1979SOL    HW217397   3.579   2.124   7.839 -0.0212 -1.0399 -0.9181
 1980SOL     OW17398   4.346   3.614  13.662  0.2102 -0.3024  0.1600
 1980SOL    HW117399   4.355   3.540  13.722  0.7298 -0.6679 -0.3646
 1980SOL    HW217400   4.282   3.675  13.698  1.6963  1.1840  0.2923
 1981SOL     OW17401   0.964   3.012   1.722 -0.8873  0.1641  0.0742
 1981SOL    HW117402   1.035   2.978   1.777 -0.7034 -0.9367 -0.8290
 1981SOL    HW217403   0.932   2.931   1.681  1.1397 -0.6960  0.1781
 1982SOL     OW17404   0.490   3.805   4.696 -0.6002 -0.3659  0.9658
 1982SOL    HW117405   0.583   3.820   4.681 -0.8315  0.0147 -0.0567
 1982SOL    HW217406   0.469   3.884   4.746  2.9242 -0.0272  1.9231
 1983SOL     OW17407   2.541   1.602  15.957  0.5702 -0.1733  0.1633
 1983SOL    HW117408   2.525   1.692  15.984  1.0291  0.5681 -2.0938
 1983SOL    HW217409   2.616   1.628  15.904  0.6722 -1.8847 -0.5301
 1984SOL     OW17410   3.022   3.771   3.875  0.4261  0.4348  0.1108
 1984SOL    HW117411   3.110   3.736   3.859  1.0623  1.8897  0.3733
 1984SOL    HW217412   3.015   3.797   3.967  1.1042 -0.1905  0.3409
 1985SOL     OW17413   1.902   2.414   1.101  0.1885 -0.0871  0.4015
 1985SOL    HW117414   1.855   2.425   1.183  1.3382 -0.7931  1.1668
 1985SOL    HW217415   1.994   2.419   1.129  0.2926 -2.8768  0.6405
 1986SOL     OW17416   4.102   0.452  10.376 -0.0788 -0.5554  0.3095
 1986SOL    HW117417   4.067   0.403  10.450 -2.1901 -0.2334 -0.4869
 1986SOL    HW217418   4.188   0.485  10.402 -0.5967 -0.8620  2.3989
 1987SOL     OW17419   1.492   1.375   6.325  0.3035  0.1354  0.7131
 1987SOL    HW117420   1.582   1.356   6.353  0.4086  1.1208  1.0425
 1987SOL    HW217421   1.489   1.471   6.328 -2.0879  0.0586  0.3517
 1988SOL     OW17422   1.273   0.831  11.204  0.0059 -0.3225 -0.6301
 1988SOL    HW117423   1.320   0.876  11.134  0.2693  2.7725  1.5344
 1988SOL    HW217424   1.332   0.769  11.247 -0.4428 -0.8779 -0.8196
 1989SOL     OW17425   4.298   4.606   2.145 -0.5915  0.4670  0.0879
 1989SOL    HW117426   4.211   4.647   2.136 -1.0682 -0.7474 -0.8720
 1989SOL    HW217427   4.347   4.661   2.084 -1.4288 -0.2063 -1.1936
 1990SOL     OW17428   0.516   0.809  11.644  0.1214 -0.3935  0.1091
 1990SOL    HW117429   0.431   0.773  11.672  1.2598 -2.5220  0.8054
 1990SOL    HW217430   0.549   0.733  11.596 -0.8571 -0.5672 -0.3089
 1991SOL     OW17431   1.696   3.835  10.083  0.3258  0.1033 -0.3055
 1991SOL    HW117432   1.705   3.746  10.118  0.4843  0.6276  0.9660
 1991SOL    HW217433   1.640   3.819  10.007 -0.1600  2.5968 -0.4717
 1992SOL     OW17434   3.007   3.285   6.126  0.3579  0.5411 -0.2029
 1992SOL    HW117435   2.939   3.324   6.181  0.8548  0.0144  0.7812
 1992SOL    HW217436   2.951   3.274   6.049 -1.1614 -1.8200  1.2291
 1993SOL     OW17437   0.123   2.203   4.727  0.5681 -0.8627 -0.3070
 1993SOL    HW117438   0.156   2.293   4.725  0.9453 -0.9349  3.1248
 1993SOL    HW217439   0.043   2.226   4.680  2.3202  1.4170 -2.1978
 1994SOL     OW17440   3.523   3.366   4.175  0.7303  0.2039 -0.2760
 1994SOL    HW117441   3.518   3.290   4.117  1.1839 -0.6302  0.7534
 1994SOL    HW217442   3.617   3.384   4.170  0.5589  1.6239  1.5411
 1995SOL     OW17443   3.002   0.989   5.470 -0.1106  0.0901 -0.7013
 1995SOL    HW117444   2.914   1.025   5.483  0.0414  0.5194 -0.8796
 1995SOL    HW217445   3.025   0.943   5.551  0.1127  1.5433  0.0557
 1996SOL     OW17446   0.233   3.634   6.124  0.8159 -0.2213 -0.1139
 1996SOL    HW117447   0.254   3.542   6.139 -0.3795  0.2705  4.3916
 1996SOL    HW217448   0.283   3.647   6.043  2.6112  2.0438  1.3791
 1997SOL     OW17449   4.527   4.379   5.903 -0.0313 -0.4527  0.1101
 1997SOL    HW117450   4.516   4.319   5.828 -1.2289  0.8170 -0.7178
 1997SOL    HW217451   4.600   4.329   5.940  2.9525  1.7798 -2.6898
 1998SOL     OW17452   4.136   4.415   2.016 -0.0086 -0.1066  0.1450
 1998SOL    HW117453   4.190   4.488   2.046  0.0000  0.0723 -0.3217
 1998SOL    HW217454   4.203   4.369   1.965  1.9987  0.2274  2.4519
 1999SOL     OW17455   1.405   1.513   1.534 -0.5277 -0.1946 -0.3132
 1999SOL    HW117456   1.416   1.528   1.628 -0.4632  0.5455 -0.4392
 1999SOL    HW217457   1.366   1.425   1.534 -4.4395  1.5360 -2.6339
 2000SOL     OW17458   2.225   1.126  13.739 -0.0096 -0.0076  0.8737
 2000SOL    HW117459   2.210   1.124  13.834 -2.5016 -1.8987  0.4521
 2000SOL    HW217460   2.135   1.156  13.723 -0.7420 -1.6382  1.8994
 2001SOL     OW17461   2.816   2.673   1.205 -0.3032 -0.0210  0.3842
 2001SOL    HW117462   2.735   2.723   1.195 -0.6579 -0.7421 -0.4368
 2001SOL    HW217463   2.836   2.695   1.296 -1.4004  1.2792  0.3147
 2002SOL     OW17464   2.083   2.810   7.839 -0.4655  0.0606 -0.1607
 2002SOL    HW117465   2.149   2.759   7.886 -1.9125 -1.1957  0.4990
 2002SOL    HW217466   2.133   2.891   7.847  0.0547 -0.0499 -2.3568
 2003SOL     OW17467   1.604   2.794  15.533  0.1290  0.3695 -0.0705
 2003SOL    HW117468   1.562   2.854  15.596 -0.0643 -2.3286  2.3591
 2003SOL    HW217469   1.696   2.820  15.541 -0.2590  0.9692  2.6313
 2004SOL     OW17470   3.447   0.554   6.934 -0.4948  0.3495 -0.1806
 2004SOL    HW117471   3.386   0.481   6.939  0.0124 -0.1346 -1.0144
 2004SOL    HW217472   3.506   0.524   7.003 -1.5264 -0.1670  0.4810
 2005SOL     OW17473   1.848   3.413   1.093  0.0857 -0.1763  0.2369
 2005SOL    HW117474   1.782   3.454   1.149 -1.2292 -1.1137 -0.6239
 2005SOL    HW217475   1.923   3.466   1.121  1.0670 -0.9359 -0.9042
 2006SOL     OW17476   3.978   2.459  12.392 -1.1250 -0.6952  0.4837
 2006SOL    HW117477   4.004   2.530  12.334 -1.2000 -2.1247 -1.3003
 2006SOL    HW217478   3.949   2.503  12.472 -1.1334 -1.5358  0.9508
 2007SOL     OW17479   1.383   3.196   2.915 -0.6386 -0.1955  0.9569
 2007SOL    HW117480   1.352   3.255   2.846  1.5178  0.8831  0.9231
 2007SOL    HW217481   1.309   3.136   2.908  0.4926 -1.4675  0.0018
 2008SOL     OW17482   1.317   3.513  17.331  0.2056  0.2087 -0.0683
 2008SOL    HW117483   1.275   3.537  17.414  1.4000  1.2092  0.2560
 2008SOL    HW217484   1.406   3.495  17.363  1.9770 -0.2901 -5.2878
 2009SOL     OW17485   1.045   2.546  15.802  0.2583  0.0954 -0.2416
 2009SOL    HW117486   1.064   2.548  15.896 -2.1191  1.6921  0.1870
 2009SOL    HW217487   0.951   2.564  15.801 -0.2387 -2.4304 -0.2342
 2010SOL     OW17488   4.518   0.757   4.491 -0.1075  0.3857 -0.2134
 2010SOL    HW117489   4.455   0.725   4.556  0.7052 -0.1561  0.3033
 2010SOL    HW217490   4.453   0.779   4.423 -0.6557  0.6202  0.3895
 2011SOL     OW17491   0.314   3.512  10.080 -0.6458  0.2548  0.6101
 2011SOL    HW117492   0.375   3.460  10.131 -0.1549  1.6987  1.4910
 2011SOL    HW217493   0.363   3.507   9.998 -0.6872 -1.7046  0.7205
 2012SOL     OW17494   2.274   4.466  13.963  0.1466  0.0633  0.4263
 2012SOL    HW117495   2.266   4.554  14.001  0.4646 -0.5287  1.8736
 2012SOL    HW217496   2.250   4.420  14.043  1.6817  0.6214  1.2306
 2013SOL     OW17497   0.622   3.631   9.050 -0.5915  0.2403 -0.3273
 2013SOL    HW117498   0.590   3.655   8.964  0.7431 -1.6420 -1.3459
 2013SOL    HW217499   0.550   3.656   9.107 -0.1793 -0.7902  0.6808
 2014SOL     OW17500   4.012   3.638  11.765 -0.5842 -0.9375  0.4273
 2014SOL    HW117501   4.036   3.579  11.836 -0.1381 -0.6873  0.4830
 2014SOL    HW217502   4.062   3.718  11.780 -0.8341 -1.0329  1.7763
 2015SOL     OW17503   0.605   3.538   0.809 -0.2675 -0.3169  0.0309
 2015SOL    HW117504   0.619   3.451   0.772 -1.3573 -0.0827 -0.9118
 2015SOL    HW217505   0.614   3.521   0.903 -0.5670  0.7292  0.2425
 2016SOL     OW17506   4.574   0.263  14.762 -0.2970  0.0819  0.4283
 2016SOL    HW117507   4.533   0.232  14.681  1.5659 -1.1605 -0.0196
 2016SOL    HW217508   4.502   0.291  14.818 -0.6722  0.4614 -0.2467
 2017SOL     OW17509   1.731   3.204   0.722 -0.2407 -0.4656  0.2299
 2017SOL    HW117510   1.718   3.197   0.816  0.9920  0.5452  0.4667
 2017SOL    HW217511   1.692   3.125   0.685  1.2744 -1.1637  0.1183
 2018SOL     OW17512   1.460   0.394  15.033 -0.1752 -0.7234  0.2808
 2018SOL    HW117513   1.518   0.318  15.038 -0.0235 -0.8143 -2.7267
 2018SOL    HW217514   1.519   0.468  15.020  1.1631 -1.2422  3.4257
 2019SOL     OW17515   1.041   3.504   7.573 -0.2810 -0.2022 -0.4558
 2019SOL    HW117516   1.040   3.595   7.546 -2.7149 -0.3776 -0.9240
 2019SOL    HW217517   1.085   3.464   7.498 -1.0341  0.7418 -1.3980
 2020SOL     OW17518   2.648   2.610   6.550 -0.2979 -0.0506 -0.2820
 2020SOL    HW117519   2.569   2.556   6.549 -1.1411  1.1461  1.5621
 2020SOL    HW217520   2.695   2.589   6.631 -0.4210 -1.5498 -0.5888
 2021SOL     OW17521   0.665   1.521   8.191 -0.5323  0.1252  0.7582
 2021SOL    HW117522   0.697   1.603   8.155 -0.4990  0.3055  1.1942
 2021SOL    HW217523   0.707   1.518   8.277  0.6578  0.5196  0.1854
 2022SOL     OW17524   4.275   0.441   6.183  0.1204  0.2669 -0.0667
 2022SOL    HW117525   4.206   0.470   6.123  1.0552  1.5041 -0.5526
 2022SOL    HW217526   4.321   0.522   6.205  3.4220 -1.8354  0.8053
 2023SOL     OW17527   0.579   1.384   9.582 -0.3490  0.1007  0.0043
 2023SOL    HW117528   0.640   1.330   9.632 -0.6114  0.4519  0.7049
 2023SOL    HW217529   0.583   1.461   9.638  0.1863  0.5895 -0.6998
 2024SOL     OW17530   1.616   0.667  13.929  0.7761  0.2308 -0.2148
 2024SOL    HW117531   1.601   0.735  13.995 -2.3455 -0.3076 -0.3678
 2024SOL    HW217532   1.709   0.685  13.923  0.8479 -0.0828 -0.0321
 2025SOL     OW17533   4.042   0.272   3.548 -0.2467  0.3938  0.0523
 2025SOL    HW117534   3.971   0.207   3.541  0.1206  0.4406 -3.8978
 2025SOL    HW217535   4.105   0.229   3.605  1.6652 -0.2549 -2.5700
 2026SOL     OW17536   0.333   1.989  12.608  0.7568 -0.6351 -0.1795
 2026SOL    HW117537   0.428   1.995  12.619  0.5109  0.8594  1.0329
 2026SOL    HW217538   0.317   1.898  12.582  1.3938 -0.4560 -1.2130
 2027SOL     OW17539   4.395   1.200   5.127  0.5457 -0.5402 -0.5446
 2027SOL    HW117540   4.301   1.204   5.108  0.6602  0.8397 -0.8576
 2027SOL    HW217541   4.420   1.133   5.063  1.5862  0.5541 -1.2752
 2028SOL     OW17542   1.194   1.762   7.329  0.2509  0.0693  0.0088
 2028SOL    HW117543   1.232   1.848   7.307 -0.7911  0.2139 -1.2472
 2028SOL    HW217544   1.243   1.696   7.279 -2.0548 -1.3857 -0.3176
 2029SOL     OW17545   3.734   3.795   4.541  0.1650 -0.6014 -1.0036
 2029SOL    HW117546   3.716   3.852   4.616  1.4949  2.3166 -2.9533
 2029SOL    HW217547   3.742   3.710   4.586 -1.1283 -1.1822 -1.8544
 2030SOL     OW17548   2.370   2.815   8.401  0.2763  0.3764 -0.2516
 2030SOL    HW117549   2.438   2.748   8.391 -1.8455 -1.7419 -0.3839
 2030SOL    HW217550   2.346   2.828   8.310  0.1824 -0.5145 -0.3573
 2031SOL     OW17551   3.404   0.699  16.561  0.5739 -0.3925 -0.0830
 2031SOL    HW117552   3.448   0.628  16.515  0.1583  0.0369 -1.1260
 2031SOL    HW217553   3.325   0.713  16.509  0.9548 -3.1713 -1.4482
 2032SOL     OW17554   4.647   2.247   3.984  0.2563 -0.1112  0.7686
 2032SOL    HW117555   4.590   2.249   3.907  1.8928  0.7409 -0.4187
 2032SOL    HW217556   4.708   2.182   3.948 -0.6014 -1.7848  2.3764
 2033SOL     OW17557   3.486   1.917   1.058 -0.6490 -0.3159 -0.1836
 2033SOL    HW117558   3.509   1.961   1.139  0.9439  0.1312 -0.8799
 2033SOL    HW217559   3.394   1.941   1.049  0.1149  2.9000  0.6562
 2034SOL     OW17560   2.383   3.756  10.914  0.4830  0.3837  0.5897
 2034SOL    HW117561   2.376   3.821  10.984  1.5455 -0.3850  1.4153
 2034SOL    HW217562   2.302   3.710  10.934  0.6952 -1.2252 -2.3319
 2035SOL     OW17563   3.413   0.337   4.881 -0.2643  0.1761 -0.3163
 2035SOL    HW117564   3.464   0.316   4.804  2.4868  1.6244  1.0801
 2035SOL    HW217565   3.448   0.263   4.930  1.2647  1.6074  0.7876
 2036SOL     OW17566   4.715   2.965   6.955 -0.0135  0.1582  0.3008
 2036SOL    HW117567   4.718   2.990   6.862 -0.5903  0.0201  0.2416
 2036SOL    HW217568   4.681   3.044   6.997  0.2656  0.5492 -0.2115
 2037SOL     OW17569   3.993   4.641   3.688 -0.6663 -0.2049  0.2462
 2037SOL    HW117570   4.078   4.620   3.649 -1.1966 -1.1750 -0.3715
 2037SOL    HW217571   3.963   4.691   3.612 -0.7354  0.4074  0.6788
 2038SOL     OW17572   0.672   3.744   7.673 -0.6367  0.2794  0.6017
 2038SOL    HW117573   0.592   3.692   7.672 -1.6419  1.9165 -2.7154
 2038SOL    HW217574   0.741   3.683   7.645 -1.1165 -0.3958  0.9044
 2039SOL     OW17575   2.647   3.020   9.384 -0.5972  0.3994 -0.0614
 2039SOL    HW117576   2.606   2.973   9.311  2.0703 -0.8337 -0.7469
 2039SOL    HW217577   2.584   3.025   9.455 -1.0085 -2.7440 -0.1953
 2040SOL     OW17578   2.266   2.111  13.565  0.3821 -0.5986  0.0300
 2040SOL    HW117579   2.223   2.027  13.576 -2.0676  0.5916 -0.4354
 2040SOL    HW217580   2.346   2.082  13.523  0.4630 -0.2302 -0.0734
 2041SOL     OW17581   4.125   0.505  13.343  0.1684  0.3016  0.7902
 2041SOL    HW117582   4.068   0.560  13.290  0.2736  1.6583  2.0635
 2041SOL    HW217583   4.108   0.540  13.431  0.7790 -0.9529  1.4019
 2042SOL     OW17584   1.741   1.153   6.251 -0.1055  0.2951  0.6504
 2042SOL    HW117585   1.654   1.124   6.223  0.8966 -1.2905 -0.7686
 2042SOL    HW217586   1.759   1.128   6.342 -0.3344 -1.4272  0.2048
 2043SOL     OW17587   3.730   0.711   6.576  0.3784  0.4369 -0.1933
 2043SOL    HW117588   3.708   0.708   6.482 -0.5783  1.8714 -0.0177
 2043SOL    HW217589   3.649   0.727   6.625  1.8684  3.1827  1.3822
 2044SOL     OW17590   2.613   3.479   2.321  0.3537 -0.2217  0.0189
 2044SOL    HW117591   2.671   3.551   2.294  0.4181 -0.1947  0.2286
 2044SOL    HW217592   2.680   3.411   2.315 -0.2874 -0.9849  1.6818
 2045SOL     OW17593   4.707   4.246  10.684  0.1910 -0.3682  0.3063
 2045SOL    HW117594   0.007   4.197  10.607  0.8784  2.0770 -1.0098
 2045SOL    HW217595   4.692   4.170  10.739 -1.5297 -1.2460 -1.4187
 2046SOL     OW17596   1.560   4.102  13.123 -0.6145  0.1463  0.4027
 2046SOL    HW117597   1.575   4.196  13.136  1.2446 -0.2455  1.1354
 2046SOL    HW217598   1.598   4.093  13.036  2.1766 -2.1667  1.8510
 2047SOL     OW17599   2.580   3.312   9.234 -0.2024 -0.0493 -0.1188
 2047SOL    HW117600   2.617   3.261   9.306  1.1794  1.8880  0.5612
 2047SOL    HW217601   2.523   3.247   9.193 -1.4712  0.5296  0.7138
 2048SOL     OW17602   3.829   3.090   2.486 -0.6961 -0.2302  0.0552
 2048SOL    HW117603   3.813   3.094   2.392  0.8665 -1.5916 -0.2606
 2048SOL    HW217604   3.910   3.041   2.491 -0.6276 -0.1694 -0.4658
 2049SOL     OW17605   2.827   0.788   3.504 -0.1508 -0.0432 -0.0314
 2049SOL    HW117606   2.901   0.849   3.500 -0.4296  0.2760 -0.3453
 2049SOL    HW217607   2.825   0.765   3.411  0.6639 -2.6108  0.5969
 2050SOL     OW17608   3.232   4.453   3.381  0.0797 -0.4217  0.5313
 2050SOL    HW117609   3.231   4.532   3.326  0.5318 -1.0631 -0.3977
 2050SOL    HW217610   3.182   4.392   3.327  0.7379  1.2651 -1.9725
 2051SOL     OW17611   1.290   2.797   6.343 -0.2382  0.1481  0.2328
 2051SOL    HW117612   1.273   2.717   6.293 -1.9364  0.1264  0.8454
 2051SOL    HW217613   1.382   2.809   6.318 -0.0197  0.8094  1.3552
 2052SOL     OW17614   1.982   0.719   8.474  0.9501 -0.2940 -0.1969
 2052SOL    HW117615   1.892   0.726   8.441  0.6355 -1.3692  0.4195
 2052SOL    HW217616   1.999   0.804   8.514 -1.9240 -0.5751  1.6334
 2053SOL     OW17617   3.779   1.330  16.235  0.8310 -0.0783 -0.1798
 2053SOL    HW117618   3.860   1.281  16.219  1.3584 -0.1133  2.4854
 2053SOL    HW217619   3.718   1.256  16.229  1.4363 -0.6300  0.4191
 2054SOL     OW17620   0.805   1.891   5.813 -0.4227  0.1041  0.4702
 2054SOL    HW117621   0.747   1.870   5.886  0.6324 -0.8269  1.0459
 2054SOL    HW217622   0.890   1.888   5.857 -0.8475 -0.8738  1.2256
 2055SOL     OW17623   1.421   0.052  10.031 -0.0448  0.3589 -0.0524
 2055SOL    HW117624   1.355   4.723  10.070 -0.5578  1.7342  1.0833
 2055SOL    HW217625   1.379   0.099   9.959  0.2576  0.2926 -0.2700
 2056SOL     OW17626   0.145   1.208   7.709 -0.1234 -0.5307  0.4736
 2056SOL    HW117627   0.055   1.237   7.697 -0.8407 -1.6863  2.9835
 2056SOL    HW217628   0.197   1.283   7.738 -0.4824  0.0625 -0.4366
 2057SOL     OW17629   4.569   4.177  10.035  0.4719 -0.5337 -0.3886
 2057SOL    HW117630   4.534   4.254   9.990 -0.3208 -0.2577  0.7207
 2057SOL    HW217631   4.496   4.118  10.020  0.2598 -0.1602 -0.8243
 2058SOL     OW17632   2.217   2.692  11.296  0.2474 -0.6384  0.0609
 2058SOL    HW117633   2.142   2.748  11.317 -0.0256 -1.0194  0.1111
 2058SOL    HW217634   2.195   2.613  11.346  1.1757  1.1103  3.2005
 2059SOL     OW17635   2.196   4.073   6.484 -0.6427 -0.2620  0.1106
 2059SOL    HW117636   2.167   4.119   6.406  0.5628 -1.2958 -0.9444
 2059SOL    HW217637   2.187   3.980   6.465  1.2666 -0.0531 -1.8795
 2060SOL     OW17638   1.571   2.238  13.842 -0.0824 -0.0588 -0.3819
 2060SOL    HW117639   1.527   2.281  13.915 -1.0320  1.7854 -2.0648
 2060SOL    HW217640   1.500   2.206  13.787 -0.5154  0.8743 -0.3655
 2061SOL     OW17641   3.763   1.336  12.013  0.4251  0.3653 -0.0439
 2061SOL    HW117642   3.739   1.402  12.078 -0.7226  0.5089 -0.5976
 2061SOL    HW217643   3.821   1.386  11.955 -1.2946  2.7116  0.2578
 2062SOL     OW17644   1.746   3.698   9.390 -0.7155  0.3107  0.0250
 2062SOL    HW117645   1.708   3.711   9.303 -2.2884  0.7698  0.7744
 2062SOL    HW217646   1.836   3.728   9.377 -0.9117  0.6644 -0.5262
 2063SOL     OW17647   2.033   4.391   2.489  0.1841 -0.2701 -0.4325
 2063SOL    HW117648   1.965   4.407   2.554  0.3514 -2.3548  0.2374
 2063SOL    HW217649   2.004   4.443   2.414 -2.3583 -4.0941 -2.1064
 2064SOL     OW17650   2.786   2.860   3.355  0.7656  0.6498  0.0666
 2064SOL    HW117651   2.708   2.902   3.319  0.5144 -0.6206 -0.8529
 2064SOL    HW217652   2.849   2.925   3.325 -0.2269  0.8220 -1.5905
 2065SOL     OW17653   1.285   3.753   6.903 -0.1083 -0.2873  0.0946
 2065SOL    HW117654   1.213   3.765   6.841  0.4991 -1.6739 -0.8695
 2065SOL    HW217655   1.360   3.752   6.844 -0.9690  3.3839 -1.0892
 2066SOL     OW17656   1.782   3.192   6.878 -0.1848  0.4536 -0.2756
 2066SOL    HW117657   1.827   3.166   6.798  2.3877 -1.6193  1.8230
 2066SOL    HW217658   1.861   3.228   6.919  0.2982 -1.7686  0.7524
 2067SOL     OW17659   1.392   0.718   3.852 -0.2791  0.3135 -0.4340
 2067SOL    HW117660   1.461   0.784   3.865  0.2751 -0.0467 -1.5672
 2067SOL    HW217661   1.321   0.757   3.902 -0.9916  0.1250 -1.3030
 2068SOL     OW17662   3.089   4.097   6.708  0.9080  0.2468  0.0851
 2068SOL    HW117663   3.158   4.032   6.700 -0.1316 -0.5534 -2.5954
 2068SOL    HW217664   3.106   4.129   6.796  1.2914  0.3892 -0.0424
 2069SOL     OW17665   3.183   3.837   3.379 -0.0236 -0.1156 -0.7894
 2069SOL    HW117666   3.241   3.766   3.407 -0.4280  0.2708  0.9930
 2069SOL    HW217667   3.193   3.898   3.452 -2.1253  0.2763 -0.8306
 2070SOL     OW17668   3.418   0.726   3.091  0.0748  0.0398  0.6897
 2070SOL    HW117669   3.355   0.687   3.031  0.2371  1.4818 -0.4176
 2070SOL    HW217670   3.368   0.800   3.125 -1.0557 -1.1907  1.7336
 2071SOL     OW17671   2.719   4.426   1.196 -0.4169  0.1102  0.1651
 2071SOL    HW117672   2.643   4.369   1.189 -0.5649  0.0353  2.3639
 2071SOL    HW217673   2.716   4.462   1.285 -0.1731 -0.9574  0.6117
 2072SOL     OW17674   4.264   0.926   2.180 -0.3857 -0.2041  0.3448
 2072SOL    HW117675   4.292   1.011   2.214 -1.1935  0.7418 -1.3923
 2072SOL    HW217676   4.255   0.929   2.085 -1.5039 -1.2206  0.4294
 2073SOL     OW17677   4.649   2.089  12.907 -0.2147 -0.2345  0.2468
 2073SOL    HW117678   4.622   1.998  12.916  0.7269 -0.2049  3.4247
 2073SOL    HW217679   4.568   2.137  12.891 -1.1314 -2.4267 -1.5726
 2074SOL     OW17680   2.311   1.488   5.999  0.1254  0.2966  0.5447
 2074SOL    HW117681   2.312   1.399   5.964 -3.2095 -0.4830  2.4256
 2074SOL    HW217682   2.251   1.486   6.074 -1.5625 -3.7808 -0.8880
 2075SOL     OW17683   2.077   1.540  12.430 -0.5464 -0.0088  0.2963
 2075SOL    HW117684   2.167   1.564  12.409 -1.3736 -0.3142 -3.6384
 2075SOL    HW217685   2.083   1.489  12.510  1.5836  0.2847  0.3259
 2076SOL     OW17686   0.531   2.655  10.191  0.0341 -0.3862  0.6710
 2076SOL    HW117687   0.596   2.684  10.255 -1.5031  2.3764  0.9834
 2076SOL    HW217688   0.471   2.600  10.242  0.1343  1.1188  2.3771
 2077SOL     OW17689   4.671   1.590   6.192 -0.3420  0.5071  0.3498
 2077SOL    HW117690   4.659   1.615   6.100 -0.5971 -0.8933  0.0046
 2077SOL    HW217691   4.583   1.580   6.228  0.5637 -2.5160  1.7391
 2078SOL     OW17692   3.323   1.735   7.153  0.2981  0.2427  1.0353
 2078SOL    HW117693   3.367   1.773   7.229  0.0626 -0.0955  1.3431
 2078SOL    HW217694   3.284   1.656   7.192 -0.9619  0.6298  0.5674
 2079SOL     OW17695   2.047   2.167   5.025 -0.5588 -0.4535 -1.0072
 2079SOL    HW117696   2.008   2.081   5.014 -1.6203 -0.4094  2.3887
 2079SOL    HW217697   2.051   2.186   5.119  1.1011 -1.4795 -0.8588
 2080SOL     OW17698   4.441   3.683   5.687 -0.1521  0.2745 -0.0786
 2080SOL    HW117699   4.395   3.764   5.663  1.8572  2.3520  3.0251
 2080SOL    HW217700   4.398   3.617   5.633 -1.0460  2.3965 -1.9880
 2081SOL     OW17701   4.052   3.791   8.145  0.1929  0.3141 -0.3435
 2081SOL    HW117702   4.109   3.802   8.069  2.2973  0.2857  1.2269
 2081SOL    HW217703   4.068   3.868   8.200  0.0430 -0.2442  0.5001
 2082SOL     OW17704   0.287   1.523   4.648 -0.3859  0.0276  0.0487
 2082SOL    HW117705   0.253   1.440   4.615 -2.0207 -0.5116  3.0384
 2082SOL    HW217706   0.217   1.585   4.628 -1.6379 -1.1878  0.6835
 2083SOL     OW17707   4.058   2.979   1.215 -0.1368 -0.1797 -0.0527
 2083SOL    HW117708   4.113   3.046   1.256 -1.4514  0.6753  0.2956
 2083SOL    HW217709   4.104   2.977   1.131 -0.5478  1.9216 -0.3285
 2084SOL     OW17710   0.099   0.882   3.916 -0.5266 -0.1908  0.2714
 2084SOL    HW117711   0.184   0.837   3.910 -0.2123  0.3938  0.4119
 2084SOL    HW217712   0.050   0.812   3.959 -0.3433 -0.8883 -0.6434
 2085SOL     OW17713   1.237   1.006   7.389  0.1329  0.2336  0.8169
 2085SOL    HW117714   1.234   0.914   7.413 -1.7165  0.2275  0.5613
 2085SOL    HW217715   1.296   0.999   7.314  0.0342  1.5211  0.6114
 2086SOL     OW17716   1.478   4.316   5.259 -0.5769 -0.0073  0.0483
 2086SOL    HW117717   1.557   4.359   5.226 -0.5737  1.5113  1.9987
 2086SOL    HW217718   1.450   4.274   5.178 -1.3754 -0.1894  0.4184
 2087SOL     OW17719   1.659   3.819  14.705  0.2060 -0.0619  0.6363
 2087SOL    HW117720   1.660   3.907  14.742 -0.2423  0.0847  0.3020
 2087SOL    HW217721   1.693   3.837  14.617  0.9775  1.6435  1.2773
 2088SOL     OW17722   3.015   0.002  11.238 -1.0403  0.2736  0.4582
 2088SOL    HW117723   3.062   0.073  11.193  0.5520 -0.6720  0.6244
 2088SOL    HW217724   3.019   4.666  11.166  0.3257  2.1563 -1.1238
 2089SOL     OW17725   2.227   3.426   5.449 -0.4626 -0.2416 -0.4456
 2089SOL    HW117726   2.297   3.397   5.508 -0.6552 -2.0044 -1.0772
 2089SOL    HW217727   2.150   3.439   5.504 -1.5792 -2.3909 -1.4824
 2090SOL     OW17728   0.043   0.795  14.326 -0.1814  0.3678 -0.7887
 2090SOL    HW117729   0.045   0.702  14.349 -0.3748  0.0988 -1.8550
 2090SOL    HW217730   4.724   0.777  14.244  0.5157 -1.8993 -0.6806
 2091SOL     OW17731   3.510   1.042  14.964 -0.7953 -0.7377  0.1067
 2091SOL    HW117732   3.598   1.019  14.994 -0.0796  0.8717 -0.7898
 2091SOL    HW217733   3.471   1.075  15.045  1.6501  1.2443  0.4669
 2092SOL     OW17734   1.305   3.272  11.770  0.3152  0.3413 -0.4679
 2092SOL    HW117735   1.387   3.321  11.777 -1.7785  3.8276 -0.7520
 2092SOL    HW217736   1.310   3.216  11.848 -0.4373  1.6198  0.4851
 2093SOL     OW17737   0.801   4.144   3.520 -0.8123 -0.1137  0.0961
 2093SOL    HW117738   0.819   4.237   3.509  2.1312 -0.5570  1.2571
 2093SOL    HW217739   0.736   4.134   3.450  0.3119  1.0295 -1.1035
 2094SOL     OW17740   0.012   2.011   9.112 -0.3277 -0.1052  0.1413
 2094SOL    HW117741   0.053   1.941   9.162 -3.0546 -1.5406  0.3865
 2094SOL    HW217742   0.085   2.072   9.110 -2.9962  3.1761  2.6935
 2095SOL     OW17743   3.803   1.114   3.974  0.0540  0.1350  0.0285
 2095SOL    HW117744   3.865   1.102   4.047  3.3772  1.6776 -2.5251
 2095SOL    HW217745   3.854   1.169   3.914 -1.0346  1.5477  0.4007
 2096SOL     OW17746   4.078   2.562  12.763  0.6745  0.0936  0.0836
 2096SOL    HW117747   4.069   2.474  12.800  0.6791  0.3847  0.7742
 2096SOL    HW217748   4.004   2.560  12.702 -0.2674 -1.3044  1.2618
 2097SOL     OW17749   0.449   1.154  14.835 -0.0573 -0.4351  0.0787
 2097SOL    HW117750   0.439   1.122  14.746 -0.5647  2.4621 -0.9038
 2097SOL    HW217751   0.471   1.073  14.881 -0.4301 -0.2128  0.6585
 2098SOL     OW17752   4.681   4.717   5.062  0.2602  0.6559 -0.3635
 2098SOL    HW117753   0.033   0.033   5.090  0.5475  1.0715 -1.8353
 2098SOL    HW217754   4.672   0.032   4.977  3.2243 -0.5448 -1.2736
 2099SOL     OW17755   0.494   0.209  13.600 -0.3651 -0.0124  0.4901
 2099SOL    HW117756   0.442   0.148  13.651  1.1790 -0.1690  1.8725
 2099SOL    HW217757   0.562   0.152  13.564  0.1008  0.6467  0.3079
 2100SOL     OW17758   0.081   2.207   2.103  0.2676 -0.9108  0.2751
 2100SOL    HW117759   0.005   2.235   2.052  0.1552 -2.1076 -0.2122
 2100SOL    HW217760   0.056   2.117   2.123 -2.1965  0.0836  1.6374
 2101SOL     OW17761   1.468   1.130   1.684  0.5750 -0.6282  0.8135
 2101SOL    HW117762   1.555   1.089   1.686  0.8098 -0.1731 -0.4148
 2101SOL    HW217763   1.425   1.080   1.753 -0.1647 -0.8548  0.1895
 2102SOL     OW17764   3.803   2.622   2.504  0.0894 -0.1096  0.4106
 2102SOL    HW117765   3.809   2.568   2.426 -0.3525  2.3000 -1.3026
 2102SOL    HW217766   3.773   2.704   2.464 -0.9968  0.7564  2.9987
 2103SOL     OW17767   0.934   1.714   7.414 -0.2532 -0.3777 -0.3557
 2103SOL    HW117768   1.017   1.681   7.379 -0.0895 -0.9974  0.6348
 2103SOL    HW217769   0.945   1.713   7.509 -0.1962  2.7085 -0.3019
 2104SOL     OW17770   3.603   1.993   9.126 -0.3552  0.3537 -0.0297
 2104SOL    HW117771   3.698   1.993   9.114 -0.3054  0.7730  0.3319
 2104SOL    HW217772   3.582   2.085   9.144 -0.1714  0.1295  1.3224
 2105SOL     OW17773   0.520   1.532  11.411  0.0524 -0.1205  0.4864
 2105SOL    HW117774   0.602   1.503  11.370  0.1002 -0.2168  0.6525
 2105SOL    HW217775   0.559   1.585  11.480  1.4356  1.9834 -1.9153
 2106SOL     OW17776   1.746   1.629  17.307  0.1157 -0.0995 -0.0814
 2106SOL    HW117777   1.651   1.621  17.311 -0.1273  2.1002 -1.8021
 2106SOL    HW217778   1.758   1.670  17.392  0.7217  2.3388 -1.3471
 2107SOL     OW17779   2.287   0.874  15.617 -0.0074  0.2664 -0.5546
 2107SOL    HW117780   2.235   0.955  15.614 -0.0391  0.2937  0.6990
 2107SOL    HW217781   2.374   0.902  15.588  0.3534  0.6850  0.9157
 2108SOL     OW17782   0.003   1.288   9.640  0.0988  0.2045 -0.3323
 2108SOL    HW117783   4.676   1.231   9.692 -1.2027  2.3270  0.6205
 2108SOL    HW217784   0.078   1.316   9.693  0.7633 -0.7281 -0.7785
 2109SOL     OW17785   2.643   1.833   3.611  0.2378  0.2910 -0.3306
 2109SOL    HW117786   2.593   1.913   3.599 -0.6794 -0.1722  0.4554
 2109SOL    HW217787   2.701   1.845   3.535  0.5132  0.0039 -0.1666
 2110SOL     OW17788   1.507   0.073  17.671  0.5528  0.4205  0.4356
 2110SOL    HW117789   1.433   0.081  17.610  1.8256 -0.7624 -1.2654
 2110SOL    HW217790   1.475   0.044   0.044 -3.1849  1.3807 -0.6009
 2111SOL     OW17791   4.584   3.454  15.983  0.1093  0.0355  0.2168
 2111SOL    HW117792   4.517   3.519  16.006  0.5778  0.2900  0.8486
 2111SOL    HW217793   4.529   3.382  15.952 -2.0380  1.5016  0.6058
 2112SOL     OW17794   1.386   4.477   1.399 -0.2925  0.3126  0.1539
 2112SOL    HW117795   1.450   4.434   1.342  0.1514  1.0290  0.1137
 2112SOL    HW217796   1.380   4.565   1.362  2.3153  1.1940  1.8207
 2113SOL     OW17797   1.545   1.132   0.281 -0.7165 -0.5364 -0.3767
 2113SOL    HW117798   1.493   1.054   0.263  0.2391 -1.7924  2.3506
 2113SOL    HW217799   1.590   1.145   0.197  0.9059  1.7198  0.8499
 2114SOL     OW17800   1.177   4.667   0.232  0.4345 -0.1051 -0.4189
 2114SOL    HW117801   1.100   4.674   0.288 -0.2614 -0.7681 -1.2811
 2114SOL    HW217802   1.144   4.675   0.142  2.6508  1.7615 -1.0550
 2115SOL     OW17803   1.276   1.311   6.903 -0.0141 -0.0054  0.4953
 2115SOL    HW117804   1.184   1.287   6.916  0.1911  0.7288  3.2060
 2115SOL    HW217805   1.272   1.405   6.887 -2.4904 -0.1863 -0.0410
 2116SOL     OW17806   0.148   0.070   5.342 -0.6179  0.2337  0.1484
 2116SOL    HW117807   0.173   0.076   5.250 -0.5066 -0.1515  0.1557
 2116SOL    HW217808   0.195   4.721   5.375 -0.7195 -0.6177 -1.7182
 2117SOL     OW17809   3.008   2.962   6.522 -0.3750  0.1910 -0.0620
 2117SOL    HW117810   2.952   2.936   6.449 -0.4279  1.9196 -0.6383
 2117SOL    HW217811   3.084   2.913   6.491 -1.0208 -2.3841  2.3380
 2118SOL     OW17812   3.160   4.724   5.188 -0.0218 -0.3081  0.1718
 2118SOL    HW117813   3.074   0.035   5.171  0.9673  2.2460  0.8582
 2118SOL    HW217814   3.147   4.678   5.271  0.4051 -1.2508 -0.2842
 2119SOL     OW17815   0.018   0.440   3.894  0.0456 -0.6105 -0.4120
 2119SOL    HW117816   0.036   0.357   3.851  1.1127 -0.1670 -0.8093
 2119SOL    HW217817   0.095   0.493   3.875 -1.4355  2.0443  0.8595
 2120SOL     OW17818   1.833   1.983   0.564  0.1469 -0.1325 -0.3262
 2120SOL    HW117819   1.889   2.059   0.579  2.3918 -2.0182  0.7101
 2120SOL    HW217820   1.883   1.944   0.492  0.5012 -1.0343  0.4050
 2121SOL     OW17821   4.268   4.487   7.316  0.0304 -0.2486 -0.4988
 2121SOL    HW117822   4.331   4.425   7.278  0.9889  0.2735  0.2173
 2121SOL    HW217823   4.336   4.549   7.343 -1.0666  0.7791 -0.1227
 2122SOL     OW17824   3.678   3.312   4.493  0.1679 -0.2501  0.0420
 2122SOL    HW117825   3.723   3.346   4.416  0.5754 -0.1673  0.3203
 2122SOL    HW217826   3.614   3.382   4.509 -1.0699 -1.1139 -1.0824
 2123SOL     OW17827   1.375   1.994   7.275 -0.3039  0.3574 -0.0333
 2123SOL    HW117828   1.418   1.909   7.287  0.9052  0.9337 -0.2607
 2123SOL    HW217829   1.455   2.037   7.245  0.8215 -2.3409 -0.8112
 2124SOL     OW17830   0.615   0.607   0.568 -0.0542 -0.2455  0.7421
 2124SOL    HW117831   0.683   0.540   0.566  0.0397 -0.1233 -0.6427
 2124SOL    HW217832   0.583   0.583   0.481 -1.0083 -0.6748  1.2051
 2125SOL     OW17833   2.985   1.114   3.994 -0.2516  0.0058  0.8535
 2125SOL    HW117834   2.913   1.118   4.057  0.0050  0.8430  1.0909
 2125SOL    HW217835   2.951   1.095   3.906  0.9560  1.2117  0.1305
 2126SOL     OW17836   2.107   3.831   6.349 -0.5298  0.2180 -0.2431
 2126SOL    HW117837   2.077   3.761   6.407  0.0339 -0.3565 -0.6462
 2126SOL    HW217838   2.028   3.884   6.335 -0.2784  0.6617  0.0286
 2127SOL     OW17839   0.282   3.013  11.229 -0.3671 -0.4221  0.2522
 2127SOL    HW117840   0.245   3.015  11.142 -0.3330  0.5185  0.2588
 2127SOL    HW217841   0.206   3.050  11.273  0.0633  0.2232  0.4663
 2128SOL     OW17842   1.592   4.709   5.268  0.5153  0.1766 -0.2694
 2128SOL    HW117843   1.625   0.048   5.328  0.1795 -1.1169  1.3665
 2128SOL    HW217844   1.497   4.710   5.282  0.5000 -0.5210 -0.3002
 2129SOL     OW17845   2.498   1.724   3.051 -0.1543 -0.0229 -0.0650
 2129SOL    HW117846   2.504   1.650   3.111 -3.3331  1.1487  1.7429
 2129SOL    HW217847   2.449   1.786   3.105  1.4136 -0.1987  1.5414
 2130SOL     OW17848   0.428   3.685   2.740 -0.8317  0.7813  0.0433
 2130SOL    HW117849   0.385   3.768   2.762 -1.5825  0.1735  0.8371
 2130SOL    HW217850   0.362   3.625   2.775 -1.3685  0.7583 -1.0286
 2131SOL     OW17851   1.018   3.239  14.514  0.1432 -0.5743 -0.0414
 2131SOL    HW117852   1.059   3.160  14.477  0.7252  0.2319 -1.1191
 2131SOL    HW217853   1.008   3.205  14.603  1.2501  2.0345  1.0939
 2132SOL     OW17854   1.725   2.479   2.251 -0.1797 -0.5480 -0.5104
 2132SOL    HW117855   1.764   2.467   2.164  0.7089 -1.0030 -0.0494
 2132SOL    HW217856   1.691   2.390   2.265 -3.5912  0.9861  0.7960
 2133SOL     OW17857   1.530   0.218   4.145  0.0980 -0.2650 -0.0136
 2133SOL    HW117858   1.578   0.301   4.139  1.5507 -0.9777  1.9127
 2133SOL    HW217859   1.607   0.161   4.142  0.2338 -0.0856  0.0225
 2134SOL     OW17860   2.092   0.248   6.966  1.0834  0.3461  0.0801
 2134SOL    HW117861   2.047   0.329   6.943  2.4145  0.8401 -0.7898
 2134SOL    HW217862   2.052   0.188   6.904 -1.6540 -0.7430  2.9038
 2135SOL     OW17863   0.122   2.975   3.577 -0.4014 -0.0197  0.3316
 2135SOL    HW117864   0.096   3.058   3.617 -0.0329  1.5911 -2.7853
 2135SOL    HW217865   0.064   2.912   3.620  0.3223 -0.9335 -0.0331
 2136SOL     OW17866   0.538   0.924   3.006 -0.3089  0.6187  0.2121
 2136SOL    HW117867   0.616   0.977   2.990 -0.8451  1.1812 -0.5866
 2136SOL    HW217868   0.482   0.973   3.065  0.0971  1.7555 -0.3414
 2137SOL     OW17869   3.442   3.461  17.047 -0.2874  0.3893  0.1967
 2137SOL    HW117870   3.347   3.468  17.038 -0.2316 -1.1068 -1.6445
 2137SOL    HW217871   3.434   3.430  17.138  1.0044  0.9549  0.5111
 2138SOL     OW17872   1.222   1.837   4.933 -0.4784 -0.4161 -0.1093
 2138SOL    HW117873   1.261   1.799   4.854  1.7697  0.7288  0.4541
 2138SOL    HW217874   1.303   1.844   4.984 -0.0861  1.0480 -0.9403
 2139SOL     OW17875   0.210   3.356  13.580  0.2384  0.5112 -0.3696
 2139SOL    HW117876   0.207   3.415  13.505 -0.0101  1.6848  0.5801
 2139SOL    HW217877   0.119   3.343  13.606 -0.1841  1.1959 -1.5149
 2140SOL     OW17878   3.871   1.551  17.274  0.3549 -0.3804 -0.2498
 2140SOL    HW117879   3.794   1.600  17.245  2.0879  2.5403  0.0407
 2140SOL    HW217880   3.931   1.620  17.302 -0.4257  0.5978 -0.9662
 2141SOL     OW17881   2.164   4.187   6.221 -0.2189 -0.1664 -0.5915
 2141SOL    HW117882   2.183   4.278   6.195  0.7821  0.1226  1.1591
 2141SOL    HW217883   2.069   4.188   6.214 -0.1181 -0.0492 -1.8923
 2142SOL     OW17884   4.381   1.397   3.017  0.0496  0.0091  0.2457
 2142SOL    HW117885   4.443   1.339   2.972 -2.6033 -2.2979 -0.4686
 2142SOL    HW217886   4.428   1.480   3.010  0.6830 -0.4176 -0.5222
 2143SOL     OW17887   3.548   2.916   3.645  0.2504 -0.6568  0.1709
 2143SOL    HW117888   3.608   2.842   3.655  2.1269  1.1316  2.1474
 2143SOL    HW217889   3.475   2.861   3.673 -0.6621 -0.4809 -1.9006
 2144SOL     OW17890   2.847   0.716  13.713  0.1759 -0.2263 -0.3251
 2144SOL    HW117891   2.931   0.743  13.675 -0.7535  1.8914 -0.8495
 2144SOL    HW217892   2.794   0.791  13.685 -0.2485 -0.7423 -0.9036
 2145SOL     OW17893   0.495   0.811   9.185  0.1413 -0.3291 -0.0127
 2145SOL    HW117894   0.425   0.873   9.208  0.8472  0.8507 -1.0687
 2145SOL    HW217895   0.458   0.731   9.222 -1.2945  0.5940  0.5879
 2146SOL     OW17896   0.143   1.983   4.114 -0.2932 -0.5412  1.0623
 2146SOL    HW117897   0.239   1.980   4.108 -0.2937  1.8971  0.0829
 2146SOL    HW217898   0.124   2.005   4.023 -1.0057 -1.7137  0.9354
 2147SOL     OW17899   0.945   4.545   4.531 -0.2156  0.3406  0.9800
 2147SOL    HW117900   0.968   4.621   4.585  0.1509  1.3462 -0.6182
 2147SOL    HW217901   0.992   4.573   4.453 -1.5199 -0.9692 -0.2586
 2148SOL     OW17902   0.185   0.398   9.902 -0.6587  0.1884  0.1262
 2148SOL    HW117903   0.183   0.454   9.825  1.8859 -0.9026 -0.7382
 2148SOL    HW217904   0.156   0.468   9.960 -1.0451 -1.1320  1.5378
 2149SOL     OW17905   4.231   3.779   5.011  0.2947 -0.2721 -0.1046
 2149SOL    HW117906   4.302   3.752   5.070 -1.8404  0.9328  3.0286
 2149SOL    HW217907   4.159   3.722   5.039  1.1618 -1.4025 -0.1771
 2150SOL     OW17908   0.989   2.896   3.169  0.2280 -0.9678 -0.5609
 2150SOL    HW117909   0.974   2.969   3.109  1.5064  1.0440  1.5376
 2150SOL    HW217910   0.941   2.825   3.126 -1.1091 -0.1116 -0.4928
 2151SOL     OW17911   0.847   1.098  10.924  0.4340 -0.7163 -0.1910
 2151SOL    HW117912   0.814   1.009  10.908 -0.5725 -0.0764 -1.7327
 2151SOL    HW217913   0.783   1.145  10.871  1.4400 -1.3447 -1.9613
 2152SOL     OW17914   3.202   0.182  11.478  0.1608 -0.2882  0.4510
 2152SOL    HW117915   3.108   0.164  11.470  0.4914 -2.1149  0.6393
 2152SOL    HW217916   3.241   0.110  11.528  1.9150 -0.1984 -0.7878
 2153SOL     OW17917   0.324   3.192   9.196  0.9023 -0.1479  0.3387
 2153SOL    HW117918   0.261   3.127   9.227  0.3013  0.5298  0.5545
 2153SOL    HW217919   0.325   3.154   9.108 -1.0136  0.4285  0.0623
 2154SOL     OW17920   0.359   2.424   7.527  0.2952 -0.6952  0.2203
 2154SOL    HW117921   0.371   2.331   7.546  1.2515 -1.2374 -2.9144
 2154SOL    HW217922   0.451   2.450   7.538  0.7756 -2.2925 -0.0364
 2155SOL     OW17923   4.191   0.030  14.558  0.1550  0.5490 -0.4066
 2155SOL    HW117924   4.150   4.707  14.488  1.7241 -0.0488 -0.8969
 2155SOL    HW217925   4.192   4.693  14.629  1.3882  0.5192 -0.4388
 2156SOL     OW17926   0.054   1.264   3.724  0.4062  0.1740 -0.1942
 2156SOL    HW117927   0.089   1.176   3.740  1.5702  0.8840  1.1739
 2156SOL    HW217928   4.687   1.249   3.720  0.6533 -1.6778  0.6127
 2157SOL     OW17929   3.800   2.431   5.425  0.0487 -0.4433 -0.0370
 2157SOL    HW117930   3.888   2.425   5.462 -0.0135 -3.0584 -0.3097
 2157SOL    HW217931   3.806   2.476   5.340  2.4735 -0.3410  0.2001
 2158SOL     OW17932   0.522   2.021   9.019  0.6219  0.0167 -0.2682
 2158SOL    HW117933   0.610   1.985   9.028  0.0315 -1.3340  0.0893
 2158SOL    HW217934   0.540   2.111   8.990  0.8549  0.5913  1.6498
 2159SOL     OW17935   3.150   0.623   7.078  0.8574  0.7014 -0.2166
 2159SOL    HW117936   3.135   0.538   7.119  0.6481  0.3620 -1.0017
 2159SOL    HW217937   3.189   0.598   6.994  1.5391 -0.9165  0.5901
 2160SOL     OW17938   2.767   3.967  17.415 -0.1078 -0.0451 -0.2336
 2160SOL    HW117939   2.691   3.988  17.360  0.5776 -1.0214 -1.5478
 2160SOL    HW217940   2.743   3.876  17.432 -3.0310  0.7009 -0.3371
 2161SOL     OW17941   2.035   2.607   9.507  0.2684 -0.5743  0.0506
 2161SOL    HW117942   1.998   2.533   9.458  0.9575 -0.4482 -0.6712
 2161SOL    HW217943   2.077   2.567   9.583 -1.3856 -1.0235  0.7433
 2162SOL     OW17944   1.503   2.944  12.071 -0.0661  0.3719 -0.2876
 2162SOL    HW117945   1.412   2.943  12.039  0.3678 -0.2904 -1.5028
 2162SOL    HW217946   1.547   2.991  12.001  3.8879 -2.3480  0.3762
 2163SOL     OW17947   3.051   2.349  13.318  0.5012 -0.4527  0.2715
 2163SOL    HW117948   3.070   2.373  13.227  0.9504 -0.7018  0.3000
 2163SOL    HW217949   3.108   2.410  13.365  2.3589 -2.0020  0.0230
 2164SOL     OW17950   0.571   1.507  12.757 -0.0661  0.1837 -0.1065
 2164SOL    HW117951   0.600   1.435  12.700  0.6341 -0.0405  0.5276
 2164SOL    HW217952   0.630   1.489  12.830  0.2442  0.4559 -0.2919
 2165SOL     OW17953   0.950   1.482  17.506  0.0853  0.4585 -0.6270
 2165SOL    HW117954   0.947   1.570  17.467 -3.5234  0.8646  0.6099
 2165SOL    HW217955   1.027   1.455  17.455 -0.7488  0.0837 -1.6927
 2166SOL     OW17956   3.766   1.901  13.500  0.2025  0.6155  0.5911
 2166SOL    HW117957   3.676   1.895  13.468  0.0654 -0.2351  1.1528
 2166SOL    HW217958   3.794   1.991  13.483  0.7804  0.3703  0.2630
 2167SOL     OW17959   0.812   2.363  12.589  0.2593 -0.8185  0.3212
 2167SOL    HW117960   0.836   2.346  12.498  2.7784 -0.6393  0.9639
 2167SOL    HW217961   0.893   2.349  12.638 -0.0971 -0.1717  1.1065
 2168SOL     OW17962   0.311   1.419   6.851  0.5121  0.0253  0.3755
 2168SOL    HW117963   0.227   1.452   6.820  0.5976 -0.5969 -0.5056
 2168SOL    HW217964   0.282   1.376   6.932 -0.2346 -0.1719  0.0032
 2169SOL     OW17965   3.722   2.382  16.988 -0.4702  0.4240 -0.1954
 2169SOL    HW117966   3.641   2.386  17.038 -0.1014  2.1990  0.2664
 2169SOL    HW217967   3.701   2.305  16.935 -0.7753  0.7672 -0.5704
 2170SOL     OW17968   1.680   4.416   8.366 -0.0013  0.8768 -0.0176
 2170SOL    HW117969   1.621   4.364   8.311  0.3495 -0.4951  0.9142
 2170SOL    HW217970   1.764   4.391   8.327  0.7042  2.2566  0.6383
 2171SOL     OW17971   1.143   0.383   4.676  0.1568 -0.4909  0.2121
 2171SOL    HW117972   1.091   0.418   4.748 -2.4443 -0.5533 -1.6407
 2171SOL    HW217973   1.222   0.435   4.660 -1.5252  2.0850  0.2184
 2172SOL     OW17974   3.702   2.989   7.551 -0.4588  0.3755 -0.2812
 2172SOL    HW117975   3.682   3.005   7.459 -1.6105 -0.8506 -0.2506
 2172SOL    HW217976   3.734   3.075   7.577  1.7915 -0.4742 -0.2229
 2173SOL     OW17977   4.219   4.128   3.065  0.2411  0.3694 -0.2102
 2173SOL    HW117978   4.216   4.212   3.109  1.5774 -0.5338  1.5708
 2173SOL    HW217979   4.306   4.132   3.026  0.5945  1.0760  0.6705
 2174SOL     OW17980   3.540   1.215   6.041  0.2373  0.3605 -0.2215
 2174SOL    HW117981   3.506   1.266   5.966 -1.2584 -0.5974 -0.1947
 2174SOL    HW217982   3.495   1.132   6.026  1.4989  0.1279 -2.7186
 2175SOL     OW17983   4.294   4.176   9.076 -0.0232  0.1183 -0.6661
 2175SOL    HW117984   4.282   4.090   9.116  0.8150  0.6364  0.7029
 2175SOL    HW217985   4.247   4.241   9.127 -1.3995  0.1457 -1.9814
 2176SOL     OW17986   1.770   1.781   7.140 -1.1331 -0.3968 -1.1705
 2176SOL    HW117987   1.788   1.689   7.161 -0.2260  0.1048  0.2163
 2176SOL    HW217988   1.821   1.793   7.060 -0.8777 -0.2640 -0.9886
 2177SOL     OW17989   4.515   4.638   1.935 -0.4072  0.4485 -0.2753
 2177SOL    HW117990   4.464   4.586   1.873 -1.1851  1.5453 -0.5606
 2177SOL    HW217991   4.594   4.585   1.928 -1.2169 -0.9487  1.2261
 2178SOL     OW17992   2.428   0.170  15.434 -0.6535 -0.2970  0.1509
 2178SOL    HW117993   2.470   0.184  15.519 -0.8020  0.7971  0.0470
 2178SOL    HW217994   2.399   0.260  15.419  1.9203  0.3961 -0.7400
 2179SOL     OW17995   1.340   3.316  10.327  0.4960 -0.1789  0.1179
 2179SOL    HW117996   1.348   3.373  10.404 -0.0258 -2.1012  1.5814
 2179SOL    HW217997   1.418   3.350  10.283  1.8943 -0.6224  2.2829
 2180SOL     OW17998   0.923   2.869   4.507 -0.3526 -0.1543 -0.9173
 2180SOL    HW117999   0.908   2.861   4.601  2.3272 -1.1293 -0.5788
 2180SOL    HW218000   0.927   2.777   4.481 -0.4922 -0.5053  0.3275
 2181SOL     OW18001   1.355   4.166   1.298 -0.7317 -0.3274 -0.1558
 2181SOL    HW118002   1.318   4.210   1.375 -0.5289 -0.1407 -0.1672
 2181SOL    HW218003   1.379   4.083   1.339  2.4222  0.9950  0.6495
 2182SOL     OW18004   2.810   1.692   7.497  0.0170 -0.0890 -0.3003
 2182SOL    HW118005   2.866   1.769   7.505  1.3634 -1.0883  0.0572
 2182SOL    HW218006   2.721   1.721   7.479  0.0143  0.2494  0.2731
 2183SOL     OW18007   0.413   0.897   6.890 -0.1621  0.3903 -0.3475
 2183SOL    HW118008   0.364   0.817   6.908  0.5701 -0.0917 -0.5044
 2183SOL    HW218009   0.370   0.914   6.806  0.4061 -0.6870 -0.8470
 2184SOL     OW18010   0.746   0.221  16.960 -0.2825  0.2580  0.0254
 2184SOL    HW118011   0.724   0.153  16.895 -1.1386 -0.2984  0.8934
 2184SOL    HW218012   0.716   0.300  16.916  0.0208  0.2876 -0.1285
 2185SOL     OW18013   4.104   3.995   9.773 -0.0610  0.1437 -0.4703
 2185SOL    HW118014   4.026   4.050   9.783 -0.6286 -0.4014 -1.8700
 2185SOL    HW218015   4.113   4.011   9.679 -0.9623 -0.3036 -0.6256
 2186SOL     OW18016   0.666   2.557  11.944  0.0853 -0.1415 -0.0489
 2186SOL    HW118017   0.642   2.620  11.876 -0.2336 -1.2184 -0.9270
 2186SOL    HW218018   0.744   2.513  11.910  1.0736  1.2059  0.4593
 2187SOL     OW18019   4.189   0.780   6.388  0.9194 -0.5543 -0.2969
 2187SOL    HW118020   4.139   0.699   6.385 -1.2035  0.8183 -2.0987
 2187SOL    HW218021   4.278   0.745   6.381  1.4922  0.5815  1.1462
 2188SOL     OW18022   0.649   3.030  15.348  0.2585 -0.7171  0.1881
 2188SOL    HW118023   0.605   2.946  15.361  0.7331 -1.3416 -2.1320
 2188SOL    HW218024   0.739   3.020  15.378  1.3113  2.8035 -1.7996
 2189SOL     OW18025   4.097   2.748   4.631  0.4618 -0.3069 -0.2751
 2189SOL    HW118026   4.034   2.800   4.581 -1.5439  0.2674  2.8696
 2189SOL    HW218027   4.109   2.801   4.709 -1.0594  1.8777 -1.5179
 2190SOL     OW18028   3.457   4.483  11.831  0.1302 -0.1309  0.1336
 2190SOL    HW118029   3.505   4.496  11.749  1.0045  2.3517  1.0455
 2190SOL    HW218030   3.474   4.567  11.874 -0.3151 -0.5720  1.1684
 2191SOL     OW18031   1.106   2.293  13.282  0.0923 -0.3701  0.0163
 2191SOL    HW118032   1.107   2.335  13.196 -1.7175 -0.1062  0.1142
 2191SOL    HW218033   1.028   2.239  13.269  1.4380 -2.2336 -0.3304
 2192SOL     OW18034   2.213   4.677  14.150 -0.3880  0.7078 -0.1639
 2192SOL    HW118035   2.223   0.044  14.146 -0.5804  0.6492 -2.1039
 2192SOL    HW218036   2.144   4.652  14.211  0.5715  0.0479  0.6463
 2193SOL     OW18037   0.306   2.516  12.471 -0.0335 -0.0382 -0.0775
 2193SOL    HW118038   0.235   2.572  12.502  0.6996 -0.7551  2.8930
 2193SOL    HW218039   0.270   2.428  12.478  0.1101 -0.1970 -1.2439
 2194SOL     OW18040   3.629   1.665  17.194  0.2338  0.4424  0.0900
 2194SOL    HW118041   3.576   1.704  17.263 -1.9697 -0.4416 -1.0780
 2194SOL    HW218042   3.562   1.638  17.130  0.7494 -0.3632 -0.1147
 2195SOL     OW18043   2.697   1.645   2.846  0.3087 -0.1368 -0.1503
 2195SOL    HW118044   2.744   1.569   2.879  3.0213  2.2161  1.3274
 2195SOL    HW218045   2.640   1.674   2.918 -0.4830 -1.9344 -0.0629
 2196SOL     OW18046   4.525   4.377   6.628 -0.1252 -0.1614  0.7453
 2196SOL    HW118047   4.446   4.428   6.644 -0.0852  0.7263 -2.0152
 2196SOL    HW218048   4.512   4.337   6.542  0.1477  0.3849  0.4520
 2197SOL     OW18049   2.169   4.251   4.315 -0.3525 -0.1212 -0.6366
 2197SOL    HW118050   2.132   4.249   4.227  2.2988 -0.9403 -1.7546
 2197SOL    HW218051   2.184   4.161   4.343 -1.2517 -0.2599 -0.6145
 2198SOL     OW18052   2.408   2.545   2.129 -0.5602 -0.5751  0.5365
 2198SOL    HW118053   2.365   2.611   2.076  1.0577  1.1350  1.3439
 2198SOL    HW218054   2.387   2.463   2.084 -0.4052 -0.9010  1.0460
 2199SOL     OW18055   2.287   1.838  17.317 -0.0337 -0.4507 -0.7495
 2199SOL    HW118056   2.225   1.874  17.255  0.7795 -1.6244 -2.2441
 2199SOL    HW218057   2.333   1.779  17.258 -1.6064 -0.0191 -2.3855
 2200SOL     OW18058   2.403   1.839  16.038  0.0449 -0.3343  0.1204
 2200SOL    HW118059   2.439   1.837  16.126 -3.5078 -0.5899  1.5821
 2200SOL    HW218060   2.352   1.919  16.052  0.3422 -0.2736  0.8663
 2201SOL     OW18061   4.584   2.420   0.667 -0.0531  0.0388 -0.2221
 2201SOL    HW118062   4.551   2.504   0.700 -0.1033  0.3950 -1.1854
 2201SOL    HW218063   4.668   2.417   0.713 -1.1152  0.1280  1.7528
 2202SOL     OW18064   1.034   3.212  13.568 -0.2661 -0.5195 -1.0450
 2202SOL    HW118065   1.006   3.158  13.641  0.5699 -0.5179 -0.7267
 2202SOL    HW218066   1.114   3.168  13.541  1.1678  1.6240 -0.3432
 2203SOL     OW18067   1.560   0.414   8.385 -0.1192 -0.5670 -0.0328
 2203SOL    HW118068   1.496   0.451   8.324  0.7689 -0.7064 -1.0718
 2203SOL    HW218069   1.637   0.470   8.387 -0.1339 -0.6249  2.0571
 2204SOL     OW18070   0.572   3.596   6.338  0.5209  0.0141 -0.0514
 2204SOL    HW118071   0.570   3.659   6.266  3.4885 -1.9808 -1.8898
 2204SOL    HW218072   0.525   3.641   6.408 -1.6274 -1.9406 -0.2677
 2205SOL     OW18073   3.339   3.057   3.435  0.0401 -0.0710  0.6026
 2205SOL    HW118074   3.410   3.090   3.491  2.1434 -1.5788 -1.1619
 2205SOL    HW218075   3.277   3.028   3.503 -0.9043 -1.5185 -0.8842
 2206SOL     OW18076   3.788   2.744   8.425 -0.1579 -0.1495 -0.3811
 2206SOL    HW118077   3.873   2.786   8.412  0.4140 -1.2915 -0.3858
 2206SOL    HW218078   3.781   2.752   8.520 -1.6420  1.6401 -0.6446
 2207SOL     OW18079   1.201   0.801   1.335 -0.0895  0.8112 -0.2281
 2207SOL    HW118080   1.204   0.735   1.266  0.5138  1.7677 -1.1037
 2207SOL    HW218081   1.288   0.838   1.348  0.9393 -1.2852 -1.0801
 2208SOL     OW18082   0.001   0.696   3.689 -0.0295 -0.8968  0.6486
 2208SOL    HW118083   4.652   0.659   3.646  1.2950 -0.3965 -2.1691
 2208SOL    HW218084   4.689   0.743   3.762 -0.6972  0.3690 -0.5139
 2209SOL     OW18085   1.348   1.886   0.702  0.6024 -0.9195  0.2690
 2209SOL    HW118086   1.359   1.974   0.739 -1.3144 -0.4006 -0.4101
 2209SOL    HW218087   1.417   1.892   0.637  2.1338  1.9495  2.1854
 2210SOL     OW18088   1.510   0.685   1.772  0.4328 -0.4125 -1.2056
 2210SOL    HW118089   1.456   0.646   1.702 -1.2359 -1.4966  0.6914
 2210SOL    HW218090   1.508   0.607   1.828 -0.8856  0.2349 -0.3766
 2211SOL     OW18091   2.572   2.449   5.716 -0.1214  0.1275 -0.7205
 2211SOL    HW118092   2.646   2.404   5.757  0.4672  0.3319 -1.5562
 2211SOL    HW218093   2.573   2.416   5.626 -1.8885 -2.1061  0.0867
 2212SOL     OW18094   2.422   1.726   5.913  0.4548  0.1847  0.5164
 2212SOL    HW118095   2.418   1.642   5.959  1.2321 -0.5595 -0.7588
 2212SOL    HW218096   2.339   1.736   5.866  0.7639  2.5668  0.4959
 2213SOL     OW18097   2.726   0.620   2.485 -0.9056  0.3264  0.1689
 2213SOL    HW118098   2.693   0.616   2.395 -1.1644 -1.5147  0.3500
 2213SOL    HW218099   2.820   0.617   2.467 -1.8936 -1.7888 -4.7507
 2214SOL     OW18100   3.991   0.597   6.458  0.1899  0.1239  0.4303
 2214SOL    HW118101   3.987   0.502   6.465 -0.3362  0.0347 -1.1217
 2214SOL    HW218102   3.920   0.622   6.518  1.4696  2.9442  0.7550
 2215SOL     OW18103   2.729   3.349   9.502  0.5898  0.1608 -0.1368
 2215SOL    HW118104   2.802   3.313   9.552  0.3952  0.6386  0.4869
 2215SOL    HW218105   2.652   3.318   9.550  0.7087  0.6425  0.3550
 2216SOL     OW18106   3.378   2.479   6.663  0.1106  0.2896 -0.3526
 2216SOL    HW118107   3.323   2.416   6.617 -0.2355 -0.8624  1.5915
 2216SOL    HW218108   3.442   2.420   6.702  0.1192  0.1329 -0.6067
 2217SOL     OW18109   4.196   2.460   4.629  0.3306 -0.0153  0.0766
 2217SOL    HW118110   4.119   2.510   4.602 -0.4637 -1.3226 -0.0812
 2217SOL    HW218111   4.183   2.384   4.572 -1.3607  0.5300 -0.2647
 2218SOL     OW18112   3.435   2.293   2.503  0.2824 -0.2377  0.3201
 2218SOL    HW118113   3.464   2.217   2.553  1.4184 -0.5918 -0.8899
 2218SOL    HW218114   3.498   2.289   2.431 -0.5496 -0.0576 -0.4181
 2219SOL     OW18115   3.682   0.215   5.542 -0.0576  0.2707  0.3681
 2219SOL    HW118116   3.611   0.184   5.599  0.2693  0.3798  0.8391
 2219SOL    HW218117   3.737   0.136   5.538  1.0592  1.1257 -1.0240
 2220SOL     OW18118   4.001   1.595   5.023  0.1508 -0.2136 -0.2011
 2220SOL    HW118119   4.093   1.575   5.037  0.7326  1.8801 -0.9964
 2220SOL    HW218120   3.978   1.624   5.111 -0.6992 -0.4908 -0.3272
 2221SOL     OW18121   4.619   3.992  13.117  0.4040 -0.2134 -0.6022
 2221SOL    HW118122   4.640   4.035  13.200 -0.3383 -1.7857  0.3926
 2221SOL    HW218123   4.586   3.910  13.154  1.0639  0.5426  1.6631
 2222SOL     OW18124   4.555   1.536   5.669 -0.2711 -0.5776  0.1600
 2222SOL    HW118125   4.524   1.579   5.749 -2.3058 -0.6183 -0.5984
 2222SOL    HW218126   4.500   1.459   5.660 -1.1057 -0.0892  1.0114
 2223SOL     OW18127   3.017   1.580   5.995 -0.1162 -0.2836  0.1917
 2223SOL    HW118128   2.947   1.515   5.987 -0.1484 -0.1380 -0.7955
 2223SOL    HW218129   2.973   1.662   6.016  2.1532  0.7780  0.7448
 2224SOL     OW18130   4.116   0.350   5.491 -0.1684 -0.4352 -0.3700
 2224SOL    HW118131   4.166   0.431   5.479  2.8990 -2.0742  1.2545
 2224SOL    HW218132   4.182   0.281   5.485  1.2882  1.0254 -1.1606
 2225SOL     OW18133   0.295   1.691  14.008  0.2671  0.4950  0.5547
 2225SOL    HW118134   0.375   1.683  14.060  1.9124  1.7442 -1.7857
 2225SOL    HW218135   0.324   1.676  13.919  1.2763  1.9621  0.6352
 2226SOL     OW18136   2.422   1.086   8.481  0.0453  0.0355  0.0279
 2226SOL    HW118137   2.357   1.058   8.417 -0.2127  0.6227  0.0358
 2226SOL    HW218138   2.504   1.084   8.431  0.0669 -0.3730  0.0760
 2227SOL     OW18139   1.924   4.529  15.083 -0.3622 -0.3731  0.4380
 2227SOL    HW118140   1.947   4.440  15.056 -0.9986  0.0083 -1.3329
 2227SOL    HW218141   1.961   4.575  15.008 -0.3821 -1.4423 -0.2296
 2228SOL     OW18142   1.838   0.898  13.834 -0.4528 -0.4958  0.0271
 2228SOL    HW118143   1.881   0.923  13.916 -2.0430  1.2065  0.3485
 2228SOL    HW218144   1.859   0.806  13.823  5.9026  1.0353 -0.4222
 2229SOL     OW18145   4.296   3.777   0.468 -0.5928  0.0346  0.5322
 2229SOL    HW118146   4.373   3.791   0.523 -0.9114  0.8254  0.7650
 2229SOL    HW218147   4.265   3.867   0.458  1.5002  1.1734  4.3071
 2230SOL     OW18148   1.983   0.543   5.357 -0.1354  0.2418  0.6971
 2230SOL    HW118149   1.911   0.592   5.397 -0.9310  1.4099 -2.1282
 2230SOL    HW218150   1.940   0.462   5.332  1.0043 -0.1723  0.0824
 2231SOL     OW18151   2.970   1.333   5.193  0.2292  0.3841 -0.8098
 2231SOL    HW118152   2.922   1.379   5.262 -0.1554 -0.4180 -0.5459
 2231SOL    HW218153   2.903   1.325   5.125 -0.1845 -1.6086 -0.1545
 2232SOL     OW18154   2.857   0.008  12.172 -0.2152  0.4002 -0.4653
 2232SOL    HW118155   2.820   0.096  12.172  2.2305  1.4244 -2.5985
 2232SOL    HW218156   2.798   4.691  12.111  0.8200 -0.6904 -0.6604
 2233SOL     OW18157   2.852   1.729  17.329 -0.4066  0.1852 -0.3680
 2233SOL    HW118158   2.927   1.679  17.361  0.6182  0.2743 -2.6086
 2233SOL    HW218159   2.873   1.812  17.373  0.2027 -0.3866  0.4180
 2234SOL     OW18160   2.098   4.252   1.911 -0.7035 -0.1604  0.4064
 2234SOL    HW118161   2.049   4.218   1.986 -1.0854 -1.5344 -0.4570
 2234SOL    HW218162   2.172   4.192   1.909 -0.3764  0.2863 -1.0173
 2235SOL     OW18163   0.566   1.515   0.560  0.1821 -0.3473  0.2116
 2235SOL    HW118164   0.477   1.549   0.569 -0.1148 -0.9394 -0.5193
 2235SOL    HW218165   0.589   1.505   0.652 -0.2224 -0.1029  0.3384
 2236SOL     OW18166   1.337   3.965   2.521 -0.4846 -0.2288 -0.0036
 2236SOL    HW118167   1.342   4.060   2.508  1.4724 -0.4378 -0.7566
 2236SOL    HW218168   1.354   3.938   2.431 -0.7050  1.6678 -0.6222
 2237SOL     OW18169   0.123   2.961   9.239 -0.0872  0.6832 -0.0948
 2237SOL    HW118170   0.078   2.955   9.323 -0.1188 -0.7512 -0.2198
 2237SOL    HW218171   0.052   2.946   9.177  1.5734  0.1918 -1.8539
 2238SOL     OW18172   0.390   0.927   4.338  0.2342  0.3879  0.2124
 2238SOL    HW118173   0.415   1.002   4.284 -0.0778  1.6215  1.8069
 2238SOL    HW218174   0.431   0.958   4.419 -0.3795 -1.0480  1.0688
 2239SOL     OW18175   1.606   3.296  10.530 -0.3161  0.1971 -0.4867
 2239SOL    HW118176   1.679   3.297  10.592 -1.0213 -0.8469  0.3534
 2239SOL    HW218177   1.601   3.379  10.482 -1.4918  0.0290 -0.6701
 2240SOL     OW18178   3.448   3.414   7.487 -0.5403 -0.9073 -0.0589
 2240SOL    HW118179   3.407   3.341   7.534  0.0798 -0.9916  0.3607
 2240SOL    HW218180   3.379   3.478   7.466  0.7956  0.6596  0.2756
 2241SOL     OW18181   0.263   3.881   0.033  0.2734 -0.0493  0.0351
 2241SOL    HW118182   0.234   3.822   0.103 -1.9383  0.2243 -0.6359
 2241SOL    HW218183   0.178   3.915   0.004 -0.0722 -0.1415  0.9495
 2242SOL     OW18184   1.394   1.191   8.679 -0.5472  0.1150 -0.0575
 2242SOL    HW118185   1.355   1.113   8.718 -0.0210  0.7178  1.6709
 2242SOL    HW218186   1.315   1.226   8.640 -0.6119 -0.2676 -0.2761
 2243SOL     OW18187   4.262   4.132   6.573 -0.3473 -0.1538  0.0618
 2243SOL    HW118188   4.326   4.063   6.553 -0.3749 -0.2391  0.2624
 2243SOL    HW218189   4.242   4.106   6.663 -1.7823  1.1064  0.1085
 2244SOL     OW18190   3.537   1.069   2.229 -0.5880 -0.7827  0.7493
 2244SOL    HW118191   3.533   0.976   2.254  0.2482 -1.3090 -1.0297
 2244SOL    HW218192   3.560   1.064   2.136 -0.8772  0.1954  0.6293
 2245SOL     OW18193   2.640   2.307   3.812  0.1747  0.4257  0.6277
 2245SOL    HW118194   2.698   2.269   3.746 -0.0770  1.1751 -0.0170
 2245SOL    HW218195   2.688   2.375   3.859 -1.3425  2.0094 -0.1022
 2246SOL     OW18196   0.877   2.700   3.524  0.1631  0.2783 -0.0000
 2246SOL    HW118197   0.836   2.765   3.581 -1.4266 -0.5400 -0.1990
 2246SOL    HW218198   0.962   2.743   3.514  1.0982 -1.4857  0.2316
 2247SOL     OW18199   2.052   0.371  14.920 -0.0460 -0.2062  0.3486
 2247SOL    HW118200   2.005   0.427  14.858 -1.6298 -1.4368  0.4229
 2247SOL    HW218201   1.979   0.323  14.961 -1.2231  1.5478  0.3183
 2248SOL     OW18202   1.903   0.879   4.157  0.2600  0.0730 -0.3224
 2248SOL    HW118203   1.939   0.797   4.124 -1.4033 -0.3646 -1.0446
 2248SOL    HW218204   1.885   0.926   4.076 -1.5215  1.7294  1.0357
 2249SOL     OW18205   1.935   0.547   2.338 -0.2857  0.0451  0.3375
 2249SOL    HW118206   1.991   0.517   2.266  0.1854 -0.3297  0.8620
 2249SOL    HW218207   1.914   0.638   2.317 -0.0472 -0.1614 -0.7976
 2250SOL     OW18208   4.599   1.319   3.371  0.6610  0.6019  0.6751
 2250SOL    HW118209   4.556   1.368   3.442  1.7117  1.5083  0.6762
 2250SOL    HW218210   4.610   1.236   3.417  0.1680 -0.6088 -1.3940
 2251SOL     OW18211   4.410   0.025   6.179 -0.2496 -1.2590 -0.0037
 2251SOL    HW118212   4.347   4.708   6.236 -0.5137 -0.8053  0.0673
 2251SOL    HW218213   4.473   0.056   6.244  0.1542 -0.6138 -0.6923
 2252SOL     OW18214   2.618   2.412   8.558  0.3900  0.2735  0.0841
 2252SOL    HW118215   2.556   2.464   8.609 -0.3514  2.2014 -2.8052
 2252SOL    HW218216   2.573   2.408   8.474 -0.0620  0.8292  0.2989
 2253SOL     OW18217   1.377   3.300   4.441  0.3821  0.2129  0.4563
 2253SOL    HW118218   1.305   3.241   4.417  0.9045 -0.5874  0.8483
 2253SOL    HW218219   1.420   3.234   4.496 -0.4954  0.2646  1.2107
 2254SOL     OW18220   2.543   1.821  13.240  0.2919  0.1419 -0.1422
 2254SOL    HW118221   2.505   1.874  13.171  1.9432  1.0964 -0.3186
 2254SOL    HW218222   2.551   1.891  13.306  1.8050  0.5773 -0.7864
 2255SOL     OW18223   0.147   2.938   1.640 -0.1261  0.6085  0.1101
 2255SOL    HW118224   0.091   2.863   1.621  0.0543  0.2577  0.9630
 2255SOL    HW218225   0.207   2.905   1.707 -0.8199 -1.8132 -0.4608
 2256SOL     OW18226   0.591   2.540  14.008  0.0968  0.1746  0.4872
 2256SOL    HW118227   0.682   2.566  13.997  0.1873  1.4249  3.9638
 2256SOL    HW218228   0.598   2.445  14.010  2.3456  0.3480  0.6820
 2257SOL     OW18229   0.275   0.709   7.990 -0.0116  0.6531 -0.0141
 2257SOL    HW118230   0.207   0.689   8.055 -1.5473  0.1829 -1.7840
 2257SOL    HW218231   0.229   0.780   7.946  1.8699  0.2413 -2.6082
 2258SOL     OW18232   1.293   0.813   3.330  0.4126  0.0033  0.2720
 2258SOL    HW118233   1.304   0.764   3.411 -2.8576 -0.1208  0.6721
 2258SOL    HW218234   1.285   0.905   3.355  3.0197 -0.0011  1.1178
 2259SOL     OW18235   0.101   2.800   1.948  0.3196  0.3432  0.9832
 2259SOL    HW118236   0.179   2.854   1.932  1.3240 -1.1050  1.0193
 2259SOL    HW218237   0.134   2.715   1.975 -0.1796 -0.7693 -1.8550
 2260SOL     OW18238   1.262   3.742   0.643 -0.1528 -0.0725  0.0876
 2260SOL    HW118239   1.325   3.805   0.607  1.9526 -0.5921  2.8742
 2260SOL    HW218240   1.260   3.767   0.736  2.0814 -0.5592  0.2767
 2261SOL     OW18241   2.672   0.989  10.933 -0.7009  0.1680 -0.2188
 2261SOL    HW118242   2.616   1.063  10.911 -0.3860  0.4528 -0.0435
 2261SOL    HW218243   2.628   0.949  11.009  0.6748 -0.3601  0.3055
 2262SOL     OW18244   1.862   0.093  16.316  0.5529  0.3932 -0.9291
 2262SOL    HW118245   1.864   0.188  16.311 -0.2703  0.4197 -0.7479
 2262SOL    HW218246   1.794   0.085  16.249 -0.5032  2.4300 -0.0847
 2263SOL     OW18247   0.420   3.950   3.310 -0.1155 -0.2044  0.2602
 2263SOL    HW118248   0.503   3.970   3.266 -1.3424 -0.1257 -2.0102
 2263SOL    HW218249   0.457   3.920   3.394  0.0916 -3.9269 -1.1359
 2264SOL     OW18250   0.622   0.115  15.450 -0.0399 -0.2809 -0.1485
 2264SOL    HW118251   0.564   0.171  15.398  0.4640 -0.2938 -0.7245
 2264SOL    HW218252   0.556   0.061  15.493  0.1259  2.3782  3.3709
 2265SOL     OW18253   2.977   1.765   9.708 -0.1985 -0.1684  0.0862
 2265SOL    HW118254   2.945   1.718   9.785 -0.0299 -1.5000 -0.6408
 2265SOL    HW218255   2.907   1.740   9.646  0.5942 -3.0044  0.3535
 2266SOL     OW18256   2.017   1.249   4.020  0.0310  0.5672  0.1477
 2266SOL    HW118257   2.090   1.290   4.066 -1.1780  4.1489 -1.1815
 2266SOL    HW218258   1.958   1.322   4.003 -1.6165 -0.0430  3.0457
 2267SOL     OW18259   0.349   0.381   6.263  0.1852 -0.0660  0.2703
 2267SOL    HW118260   0.326   0.473   6.250 -1.8131 -1.0435 -3.3956
 2267SOL    HW218261   0.439   0.379   6.231  0.6330  2.0261  1.4240
 2268SOL     OW18262   4.169   1.362  13.110 -0.2624 -0.1351  0.2070
 2268SOL    HW118263   4.226   1.437  13.095  0.5740 -0.6621  0.7310
 2268SOL    HW218264   4.224   1.311  13.169  0.3306 -0.6761 -0.8055
 2269SOL     OW18265   0.799   1.900   8.593 -0.7963 -0.1555  0.0478
 2269SOL    HW118266   0.789   1.876   8.685 -0.5005 -0.1278  0.0887
 2269SOL    HW218267   0.717   1.946   8.577 -0.5175  0.5298  0.5652
 2270SOL     OW18268   1.940   3.880   2.389  0.0243  0.1635 -0.3118
 2270SOL    HW118269   1.964   3.973   2.382  0.4742  0.4318  4.8516
 2270SOL    HW218270   1.918   3.857   2.299  0.4379 -0.1879 -0.3242
 2271SOL     OW18271   3.492   3.065   9.786  0.6166 -0.1126 -0.4690
 2271SOL    HW118272   3.529   2.998   9.843 -0.1743 -0.3730 -0.2558
 2271SOL    HW218273   3.442   3.019   9.719 -2.4088  2.1969  0.1619
 2272SOL     OW18274   3.233   0.126  15.269  0.6327  0.3219  0.1382
 2272SOL    HW118275   3.313   0.094  15.228  1.0239 -0.8957  1.8354
 2272SOL    HW218276   3.176   0.052  15.253 -2.6962  2.2808  2.9838
 2273SOL     OW18277   0.471   3.654   3.193  0.1561  0.4785 -0.1177
 2273SOL    HW118278   0.430   3.740   3.202  0.3583  0.5089  0.5817
 2273SOL    HW218279   0.422   3.598   3.253 -1.8516  1.9821 -0.3527
 2274SOL     OW18280   1.946   2.347  17.432  0.0652 -0.4533 -0.5058
 2274SOL    HW118281   1.999   2.267  17.434  0.1246 -0.3761  1.6887
 2274SOL    HW218282   2.003   2.409  17.387  1.1915  0.2247  1.8356
 2275SOL     OW18283   0.575   1.777   6.613  0.1331  0.5066 -0.1215
 2275SOL    HW118284   0.655   1.726   6.600 -0.1757  0.4243 -1.6913
 2275SOL    HW218285   0.523   1.727   6.676  0.1027  1.4627  0.6288
 2276SOL     OW18286   2.249   0.636   3.020  0.5864 -0.3928 -0.5087
 2276SOL    HW118287   2.311   0.621   2.949  0.0356 -2.2797 -0.5883
 2276SOL    HW218288   2.244   0.545   3.047  0.1964 -0.3665 -0.4914
 2277SOL     OW18289   3.340   2.480   7.101 -0.4635 -0.1754 -0.0104
 2277SOL    HW118290   3.360   2.389   7.119  0.4239  0.1959  0.8601
 2277SOL    HW218291   3.359   2.524   7.184 -1.4546  0.2706 -0.0109
 2278SOL     OW18292   3.018   3.847   8.083 -0.7622 -0.2817 -0.1599
 2278SOL    HW118293   3.001   3.856   8.177 -0.8845  2.0409 -0.4209
 2278SOL    HW218294   3.110   3.875   8.086 -0.4554 -1.0651 -2.1754
 2279SOL     OW18295   4.254   2.606  14.478 -0.0088  0.1080 -0.5688
 2279SOL    HW118296   4.242   2.652  14.395 -0.3230  0.7231 -0.1812
 2279SOL    HW218297   4.210   2.524  14.458  1.5769 -0.7339 -0.6406
 2280SOL     OW18298   3.948   1.267   6.028  0.0967  0.3041 -0.3691
 2280SOL    HW118299   3.933   1.173   6.020 -1.7209  0.6218 -0.7871
 2280SOL    HW218300   4.043   1.274   6.024  0.2149 -0.8698  0.6294
 2281SOL     OW18301   4.091   1.512  16.666 -0.5453  0.3793 -0.3981
 2281SOL    HW118302   4.174   1.471  16.687 -0.9247 -0.7969 -1.1736
 2281SOL    HW218303   4.080   1.579  16.734 -1.5720 -0.4429  0.2332
 2282SOL     OW18304   0.210   0.297  11.193  0.4610 -0.2094 -0.5110
 2282SOL    HW118305   0.282   0.252  11.236  0.7780  1.8409  1.1172
 2282SOL    HW218306   0.201   0.372  11.252 -0.6932 -0.7325 -0.0143
 2283SOL     OW18307   3.620   2.127   3.093  0.0527 -0.1733  0.0875
 2283SOL    HW118308   3.589   2.038   3.078 -1.4719  0.7328 -2.0417
 2283SOL    HW218309   3.627   2.140   3.188 -1.2715  1.1150  0.0119
 2284SOL     OW18310   0.532   0.584   5.049 -0.7168 -0.1174 -0.3323
 2284SOL    HW118311   0.487   0.637   4.982  0.9819  1.4749 -0.2147
 2284SOL    HW218312   0.510   0.637   5.126 -2.6307 -0.1760 -0.8247
 2285SOL     OW18313   0.025   1.000   8.915  0.0449  0.3240 -0.1439
 2285SOL    HW118314   0.092   0.933   8.931 -0.5616 -0.6031 -1.4955
 2285SOL    HW218315   4.677   0.978   8.969 -1.9459 -1.0631 -3.5319
 2286SOL     OW18316   1.358   3.860   6.041 -0.4141  0.6968 -0.5023
 2286SOL    HW118317   1.280   3.889   6.088 -0.7954 -0.4386 -0.4462
 2286SOL    HW218318   1.394   3.792   6.098 -2.9400  0.4656  0.7860
 2287SOL     OW18319   3.650   2.828   5.734 -0.0759  0.3952  0.1363
 2287SOL    HW118320   3.628   2.762   5.669 -0.3879 -0.0281  0.6707
 2287SOL    HW218321   3.591   2.807   5.806 -1.5580  1.9549 -0.6157
 2288SOL     OW18322   1.446   2.380  10.604 -0.0939  0.2393  0.0244
 2288SOL    HW118323   1.457   2.292  10.641 -0.4969  0.5482  0.8945
 2288SOL    HW218324   1.350   2.380  10.600  0.0265 -2.7545 -2.1839
 2289SOL     OW18325   1.549   2.201  10.852  0.1462  0.5203  0.4685
 2289SOL    HW118326   1.523   2.152  10.774  0.1680  2.6297 -0.8693
 2289SOL    HW218327   1.640   2.220  10.827 -0.4345  0.0259 -2.0443
 2290SOL     OW18328   3.341   4.025   6.546 -0.5186  0.7378 -0.0747
 2290SOL    HW118329   3.429   4.051   6.574  0.4152 -1.9336 -0.5432
 2290SOL    HW218330   3.339   3.933   6.571 -1.4904  0.8230  0.1835
 2291SOL     OW18331   1.611   3.348  12.859  0.0832 -0.2566 -0.5154
 2291SOL    HW118332   1.621   3.338  12.954 -1.4297  0.0186 -0.3286
 2291SOL    HW218333   1.652   3.267  12.828 -1.0066 -1.0583  0.1096
 2292SOL     OW18334   1.143   0.294   5.697  0.1460 -0.0392 -0.0785
 2292SOL    HW118335   1.138   0.291   5.602 -1.1586 -2.2086  0.0574
 2292SOL    HW218336   1.217   0.236   5.718 -2.0307 -1.8273  2.6849
 2293SOL     OW18337   1.573   2.268   1.133  0.0246  0.0401 -0.2807
 2293SOL    HW118338   1.635   2.218   1.187  0.1456  0.5910  0.0835
 2293SOL    HW218339   1.612   2.354   1.145 -1.1268  0.7263 -1.5483
 2294SOL     OW18340   2.265   2.392  17.434  0.2941 -0.3174 -0.3057
 2294SOL    HW118341   2.214   2.473  17.437  0.8633  0.0516 -0.4767
 2294SOL    HW218342   2.354   2.428  17.444  0.0717 -0.0511  0.7613
 2295SOL     OW18343   1.690   1.341  16.889 -0.0844  0.4584 -0.1733
 2295SOL    HW118344   1.715   1.276  16.955  2.9231  2.2053  0.3981
 2295SOL    HW218345   1.768   1.396  16.888  2.0596 -2.5820 -1.3902
 2296SOL     OW18346   0.727   0.618   8.134 -0.4540 -0.1341 -0.6748
 2296SOL    HW118347   0.704   0.674   8.060 -2.4487  0.5332  0.4707
 2296SOL    HW218348   0.641   0.608   8.174 -0.1814 -0.3517 -0.1417
 2297SOL     OW18349   3.721   2.423   9.267 -0.8803  1.0562  0.2046
 2297SOL    HW118350   3.652   2.360   9.245 -1.6719  1.6405  1.0230
 2297SOL    HW218351   3.698   2.435   9.359 -1.2465 -2.2374  0.5578
 2298SOL     OW18352   1.863   1.866   3.215 -0.1645  0.4707 -0.4863
 2298SOL    HW118353   1.831   1.951   3.184 -2.1671 -0.0667  0.1114
 2298SOL    HW218354   1.871   1.819   3.132 -1.0537 -0.8847  0.1897
 2299SOL     OW18355   0.967   1.736   5.063  0.7479  0.1743 -0.4324
 2299SOL    HW118356   1.048   1.778   5.033  0.3630  0.9828 -0.3588
 2299SOL    HW218357   0.979   1.648   5.028 -0.7940  0.5653 -1.9340
 2300SOL     OW18358   1.488   3.934  10.666 -0.5495 -0.4033  0.3114
 2300SOL    HW118359   1.399   3.929  10.699 -1.1039  0.9659 -0.9407
 2300SOL    HW218360   1.538   3.924  10.747 -2.6027  0.4384  1.6850
 2301SOL     OW18361   0.256   0.175  10.052 -0.1470  0.2964 -0.1583
 2301SOL    HW118362   0.175   0.130  10.075 -0.3565 -0.0643 -1.5811
 2301SOL    HW218363   0.222   0.244   9.995 -0.8383  0.0743 -0.0119
 2302SOL     OW18364   0.368   1.806   3.364  0.2529 -0.5251 -0.2145
 2302SOL    HW118365   0.290   1.856   3.387  0.5322 -0.7061  1.1087
 2302SOL    HW218366   0.319   1.725   3.357 -0.0700 -0.0220 -4.0632
 2303SOL     OW18367   3.257   2.689   9.418  0.0557 -0.0414  0.4677
 2303SOL    HW118368   3.182   2.689   9.477  0.1462  3.1692  0.5664
 2303SOL    HW218369   3.224   2.723   9.335  2.4214  0.4966 -0.2587
 2304SOL     OW18370   4.198   1.985   4.428  0.1349  0.4284 -0.2657
 2304SOL    HW118371   4.103   1.998   4.431  0.0359 -0.1868 -0.5592
 2304SOL    HW218372   4.215   1.912   4.488  0.6570  1.7988  1.2279
 2305SOL     OW18373   4.336   0.593   7.950 -0.0481 -0.2706 -0.7199
 2305SOL    HW118374   4.272   0.637   8.007 -0.7135 -1.6831 -0.3771
 2305SOL    HW218375   4.397   0.558   8.015 -1.3156 -1.6917 -0.3016
 2306SOL     OW18376   2.546   1.051   7.951  0.3780 -0.2668 -0.1892
 2306SOL    HW118377   2.453   1.030   7.942  0.2595  0.0705  0.2736
 2306SOL    HW218378   2.583   1.040   7.863  0.0761  2.6657 -0.6951
 2307SOL     OW18379   0.064   4.502  10.798  0.2256  0.1538 -0.2141
 2307SOL    HW118380   0.029   4.419  10.766 -1.6866  0.9697 -0.1995
 2307SOL    HW218381   0.004   4.511  10.871  0.0270  1.1430 -0.5057
 2308SOL     OW18382   2.549   0.827   6.600  0.3237  0.4493  0.2006
 2308SOL    HW118383   2.592   0.878   6.530  1.5937  1.1153  1.4566
 2308SOL    HW218384   2.520   0.751   6.551 -0.0876  1.5245 -1.2354
 2309SOL     OW18385   3.706   4.695   2.811  0.5364  0.6523 -0.0217
 2309SOL    HW118386   3.745   4.616   2.776  0.2118  0.5608 -0.1791
 2309SOL    HW218387   3.621   4.696   2.768  0.2944 -0.4231  0.4287
 2310SOL     OW18388   2.678   0.048  16.958 -0.5307  0.3413 -0.1421
 2310SOL    HW118389   2.609   0.113  16.970 -0.4012  0.3440  0.5923
 2310SOL    HW218390   2.750   0.108  16.939 -1.6124  1.7063  0.1292
 2311SOL     OW18391   2.902   3.234   3.000  0.1765 -0.2267 -0.1056
 2311SOL    HW118392   2.982   3.250   2.950 -0.2404  0.4184 -0.5626
 2311SOL    HW218393   2.861   3.167   2.945  0.8811 -0.9022  0.2044
 2312SOL     OW18394   1.564   0.566   4.056  0.0708 -0.1761  0.1662
 2312SOL    HW118395   1.628   0.604   3.996 -0.3734  1.0093  0.4376
 2312SOL    HW218396   1.507   0.515   3.999 -0.3049  0.8166 -0.3600
 2313SOL     OW18397   1.350   1.946   3.301  0.4415 -0.0868  0.2927
 2313SOL    HW118398   1.340   1.869   3.245  3.5279 -1.8591  2.1522
 2313SOL    HW218399   1.276   2.002   3.278 -0.9314 -1.5939  1.1243
 2314SOL     OW18400   2.973   2.568   9.149 -0.0226  0.2231 -0.5137
 2314SOL    HW118401   3.042   2.517   9.191  1.3852  1.0834 -1.8094
 2314SOL    HW218402   2.899   2.507   9.151 -1.1041  1.4722 -3.9264
 2315SOL     OW18403   0.324   1.965   2.254 -0.3179 -0.1510 -0.3593
 2315SOL    HW118404   0.318   2.060   2.247  3.5213  0.0034 -2.0593
 2315SOL    HW218405   0.419   1.967   2.270 -0.4389  2.7437 -0.0936
 2316SOL     OW18406   1.248   4.079   4.778  0.0467 -0.2331 -0.1442
 2316SOL    HW118407   1.214   3.990   4.769  0.0541 -0.4078  1.4153
 2316SOL    HW218408   1.343   4.066   4.789  0.4598  1.2629 -1.8260
 2317SOL     OW18409   3.987   2.456   5.976 -0.0623 -0.3060  0.3057
 2317SOL    HW118410   3.949   2.381   5.931 -2.8253 -0.3725  2.7044
 2317SOL    HW218411   3.923   2.521   5.947  0.2325 -0.1949 -0.0868
 2318SOL     OW18412   1.602   2.881   5.595 -0.5900 -0.4571  0.3295
 2318SOL    HW118413   1.633   2.957   5.645  0.0972 -0.5433  0.0280
 2318SOL    HW218414   1.651   2.820   5.650  0.7888 -1.4062 -1.9556
 2319SOL     OW18415   3.119   0.038   3.939 -0.1685  0.2778 -0.5223
 2319SOL    HW118416   3.089   0.128   3.928  1.2822  1.0185  1.4793
 2319SOL    HW218417   3.080   0.024   4.026  2.0669 -0.0865  0.4385
 2320SOL     OW18418   0.461   2.182  13.185  0.3328 -0.3358 -0.1749
 2320SOL    HW118419   0.522   2.112  13.162 -0.8303 -0.7904 -1.8979
 2320SOL    HW218420   0.378   2.144  13.157  0.3670 -0.3590 -0.2437
 2321SOL     OW18421   3.097   4.037   3.197  0.0011 -0.5969  0.5727
 2321SOL    HW118422   3.109   3.971   3.265  4.2663 -2.4366 -2.0205
 2321SOL    HW218423   3.060   3.989   3.124 -1.5696 -0.6418  1.4056
 2322SOL     OW18424   0.748   2.455   4.020  0.5386  0.6832  0.3976
 2322SOL    HW118425   0.674   2.397   4.003  1.2365 -1.1346  3.5329
 2322SOL    HW218426   0.711   2.543   4.021  0.8926  0.8310  0.6993
 2323SOL     OW18427   1.122   2.620   1.923 -0.0087  0.2226 -0.0001
 2323SOL    HW118428   1.166   2.616   2.008  0.3505 -2.1980 -0.3020
 2323SOL    HW218429   1.154   2.541   1.878 -0.7657  0.1632 -0.4464
 2324SOL     OW18430   3.208   0.096   5.770 -0.5493 -0.1388  0.0725
 2324SOL    HW118431   3.160   0.083   5.688 -0.3325  0.3914 -0.1321
 2324SOL    HW218432   3.141   0.136   5.826 -1.9456 -1.6393 -0.5025
 2325SOL     OW18433   1.716   4.365  12.713 -0.4256 -0.4785 -0.5803
 2325SOL    HW118434   1.661   4.405  12.779  0.2846 -0.1100 -0.2194
 2325SOL    HW218435   1.796   4.415  12.728 -0.8001 -0.4596  1.2562
 2326SOL     OW18436   2.197   1.558   7.888 -0.0186 -0.3608 -0.0960
 2326SOL    HW118437   2.179   1.477   7.937  1.3192 -0.1040  0.8122
 2326SOL    HW218438   2.289   1.575   7.910 -0.6461  0.6645  1.6945
 2327SOL     OW18439   4.333   2.177  14.775 -0.1065  0.5148  0.0375
 2327SOL    HW118440   4.273   2.252  14.774 -0.5007  0.2233  1.6476
 2327SOL    HW218441   4.313   2.147  14.863 -1.8767  0.0759 -0.4977
 2328SOL     OW18442   0.504   1.852   9.767 -0.1323 -0.5682  0.4084
 2328SOL    HW118443   0.483   1.800   9.689 -1.3259  0.0395  0.3410
 2328SOL    HW218444   0.544   1.927   9.724  0.4104 -0.2332  1.4857
 2329SOL     OW18445   0.686   1.310   7.839  0.2450 -0.3512 -0.4853
 2329SOL    HW118446   0.751   1.249   7.804 -0.4074 -0.0260 -2.2316
 2329SOL    HW218447   0.733   1.393   7.837 -0.3077 -0.0981 -2.9028
 2330SOL     OW18448   0.580   4.712  12.770 -1.4721  0.4054  0.1258
 2330SOL    HW118449   0.630   4.645  12.816 -1.1950  1.0123  0.7214
 2330SOL    HW218450   0.558   0.047  12.840 -1.7893  0.5519 -0.1051
 2331SOL     OW18451   3.084   2.333   9.273 -0.4585 -0.1586 -0.5740
 2331SOL    HW118452   3.109   2.248   9.237 -1.3050 -0.3459 -0.7102
 2331SOL    HW218453   3.030   2.303   9.346  1.7587  1.9536  1.9552
 2332SOL     OW18454   3.590   4.302   7.043  0.1322 -0.4143  0.3740
 2332SOL    HW118455   3.514   4.361   7.046  0.4633 -0.0430  1.4117
 2332SOL    HW218456   3.609   4.297   6.949 -0.6311  0.0186  0.2000
 2333SOL     OW18457   3.162   3.877  14.020 -0.0447 -0.1545 -0.0773
 2333SOL    HW118458   3.119   3.938  13.960  0.5929  1.1945  0.8608
 2333SOL    HW218459   3.238   3.925  14.050 -0.3365  0.4900 -0.3751
 2334SOL     OW18460   2.000   1.043  12.003 -0.2013  0.0376  0.0482
 2334SOL    HW118461   1.914   1.063  12.039 -0.3514  0.2840 -0.4507
 2334SOL    HW218462   2.053   1.034  12.083  1.2173  0.8031 -0.8059
 2335SOL     OW18463   0.849   0.430   2.587 -0.1278 -0.3714 -0.0008
 2335SOL    HW118464   0.783   0.458   2.650  0.0896  1.6183 -0.6682
 2335SOL    HW218465   0.846   0.510   2.536  1.1645 -0.1990  0.1920
 2336SOL     OW18466   0.081   4.601   6.966 -0.4922 -0.4715  0.2969
 2336SOL    HW118467   0.017   4.539   6.932  0.6167 -1.4365 -0.0417
 2336SOL    HW218468   0.096   4.661   6.893 -2.2646 -0.9267 -0.4388
 2337SOL     OW18469   1.324   1.283   6.123 -0.2797  0.5033 -0.2506
 2337SOL    HW118470   1.366   1.212   6.074  1.1451  0.2215  1.4061
 2337SOL    HW218471   1.379   1.283   6.201 -0.4190 -1.1960 -0.1612
 2338SOL     OW18472   3.955   2.306   7.983 -0.2932 -0.0613 -0.2306
 2338SOL    HW118473   3.934   2.383   7.930 -0.2979  0.1760  0.1139
 2338SOL    HW218474   4.044   2.297   7.948 -0.2692  0.2402 -0.2459
 2339SOL     OW18475   3.578   0.712   2.168  0.4973 -0.2454 -0.4981
 2339SOL    HW118476   3.672   0.730   2.159  0.4333  0.0045 -0.6565
 2339SOL    HW218477   3.550   0.745   2.253  1.0282  0.3233 -0.5434
 2340SOL     OW18478   1.041   0.178   5.202  0.2922  0.2900  0.2786
 2340SOL    HW118479   1.112   0.143   5.147 -0.0094 -0.6736  0.5071
 2340SOL    HW218480   0.963   0.163   5.150  0.0634  0.3790  0.5982
 2341SOL     OW18481   0.778   1.210   3.950 -0.1313 -0.3486  0.8206
 2341SOL    HW118482   0.754   1.302   3.956 -0.8820 -0.5902  1.5825
 2341SOL    HW218483   0.689   1.178   3.961 -1.5560  3.1906 -0.5308
 2342SOL     OW18484   2.575   0.218  17.144 -0.1929  0.1278 -0.1373
 2342SOL    HW118485   2.517   0.264  17.083 -1.4684 -0.1284  0.8819
 2342SOL    HW218486   2.585   0.282  17.214 -1.5788  0.0906  0.0994
 2343SOL     OW18487   2.170   2.649   1.162  0.3593 -0.3478 -0.1291
 2343SOL    HW118488   2.201   2.564   1.192  0.7663  0.1386  0.8134
 2343SOL    HW218489   2.244   2.703   1.134 -1.6898  1.7953 -1.3547
 2344SOL     OW18490   3.061   0.006  17.596 -0.2562 -0.0678 -0.1609
 2344SOL    HW118491   3.137   4.701  17.644 -2.3418 -0.2592  3.0507
 2344SOL    HW218492   3.028   0.065  17.664 -0.2820 -1.0021  0.6416
 2345SOL     OW18493   1.810   1.153   2.267 -0.7876 -0.0657  0.2962
 2345SOL    HW118494   1.758   1.086   2.222 -0.3142 -0.1187 -0.1628
 2345SOL    HW218495   1.893   1.106   2.273  0.9873  2.8278 -1.5359
 2346SOL     OW18496   2.310   1.339  12.256  0.9654 -0.3061 -0.4475
 2346SOL    HW118497   2.242   1.286  12.298 -1.2188  2.0540 -1.0312
 2346SOL    HW218498   2.311   1.418  12.309 -1.3792  1.2519 -2.7318
 2347SOL     OW18499   1.954   0.832   7.687 -0.3395  0.2272 -0.7226
 2347SOL    HW118500   1.988   0.803   7.602 -1.1328 -1.1962 -0.5534
 2347SOL    HW218501   2.020   0.788   7.741 -1.3863  1.0144  1.2265
 2348SOL     OW18502   4.356   2.240   5.714 -0.0983 -0.8020 -0.3011
 2348SOL    HW118503   4.266   2.226   5.686 -0.1193  0.7125 -0.9373
 2348SOL    HW218504   4.351   2.236   5.810 -0.7783 -2.6345 -0.4159
 2349SOL     OW18505   2.091   3.940   7.388  0.1743  0.0362  0.7784
 2349SOL    HW118506   2.072   3.973   7.475 -0.9732  1.1943  0.0990
 2349SOL    HW218507   2.168   3.988   7.359 -1.1127  1.0920 -0.9072
 2350SOL     OW18508   1.146   3.566  11.847  0.2555  0.4041 -0.1091
 2350SOL    HW118509   1.219   3.558  11.786  1.4822 -3.2416  1.7775
 2350SOL    HW218510   1.111   3.649  11.817 -0.4935  0.6901  1.5950
 2351SOL     OW18511   3.171   1.181   0.426  0.2539 -0.5980  0.5536
 2351SOL    HW118512   3.136   1.222   0.347  0.3467  1.5955  1.6422
 2351SOL    HW218513   3.222   1.114   0.380 -1.4212 -0.6317 -1.2217
 2352SOL     OW18514   2.436   1.997   5.537 -0.2624 -0.5249 -0.3789
 2352SOL    HW118515   2.525   1.962   5.536  0.4212  1.2436 -1.1972
 2352SOL    HW218516   2.416   2.021   5.447 -1.6669 -0.0992  0.0446
 2353SOL     OW18517   2.630   0.841   4.052 -0.3251 -0.2102  0.3088
 2353SOL    HW118518   2.536   0.840   4.070 -0.6833  2.2128 -1.4541
 2353SOL    HW218519   2.639   0.769   3.990 -0.3147 -1.4343  1.7050
 2354SOL     OW18520   1.394   1.709   5.347  0.4784  0.1279  0.0304
 2354SOL    HW118521   1.323   1.702   5.411  0.1153  0.3404 -0.3433
 2354SOL    HW218522   1.448   1.633   5.365  1.0722  0.9275  1.5905
 2355SOL     OW18523   1.790   0.815   2.316 -0.0445 -1.0037 -0.4241
 2355SOL    HW118524   1.740   0.860   2.248 -1.1242 -0.9875  0.3898
 2355SOL    HW218525   1.876   0.858   2.308 -0.0444 -0.6702  1.4830
 2356SOL     OW18526   4.168   0.822   0.858 -0.2443  0.3343  0.5321
 2356SOL    HW118527   4.149   0.840   0.950  0.3502 -1.8351  1.0860
 2356SOL    HW218528   4.091   0.867   0.826  0.4938  0.1571 -1.4717
 2357SOL     OW18529   2.007   2.515   2.678  0.2364  0.5675 -0.3965
 2357SOL    HW118530   1.918   2.551   2.675 -0.2318 -0.3614  2.7530
 2357SOL    HW218531   2.010   2.459   2.600 -1.4253  0.2715 -0.2481
 2358SOL     OW18532   1.205   0.829   4.014 -0.0482  0.2440 -0.4823
 2358SOL    HW118533   1.122   0.865   4.044 -1.5860 -1.8903 -2.1278
 2358SOL    HW218534   1.231   0.783   4.094 -2.2270 -1.6071 -0.8432
 2359SOL     OW18535   2.037   0.083   2.127 -0.3167  0.8506  0.1625
 2359SOL    HW118536   2.015   0.102   2.218  1.3983 -0.6394  0.8875
 2359SOL    HW218537   1.988   0.153   2.084  0.9410  1.1587 -0.7919
 2360SOL     OW18538   4.127   3.785   3.805  0.0618 -0.1989 -0.3576
 2360SOL    HW118539   4.196   3.733   3.846  0.9587  1.7459  0.6569
 2360SOL    HW218540   4.063   3.724   3.770 -1.2936  0.1784  1.4195
 2361SOL     OW18541   4.205   4.630   5.753  0.1560 -0.1308 -0.0413
 2361SOL    HW118542   4.154   4.709   5.770 -1.2433 -1.0372 -0.0573
 2361SOL    HW218543   4.288   4.663   5.718 -0.7062  0.3311 -1.6190
 2362SOL     OW18544   4.203   3.929   5.315 -0.1725  0.5669  0.1555
 2362SOL    HW118545   4.214   4.024   5.306  0.6290  0.6911  2.5279
 2362SOL    HW218546   4.280   3.885   5.279 -1.2960 -0.6910 -0.6844
 2363SOL     OW18547   1.047   4.443   3.806  0.9965  0.7255  0.2307
 2363SOL    HW118548   0.987   4.441   3.880  2.4641 -2.4673  1.3404
 2363SOL    HW218549   0.986   4.438   3.733 -0.2965  1.5111  1.2679
 2364SOL     OW18550   2.735   2.354  15.710  0.5570 -0.0594  0.1652
 2364SOL    HW118551   2.779   2.396  15.636  0.3566  0.4972  0.3653
 2364SOL    HW218552   2.790   2.277  15.724 -0.3660 -0.7277  0.1062
 2365SOL     OW18553   1.973   4.205  12.543  0.3676 -0.2627  0.2980
 2365SOL    HW118554   1.899   4.230  12.599 -0.7781 -1.0726 -0.8569
 2365SOL    HW218555   1.951   4.223  12.451  0.2547  0.9745  0.5673
 2366SOL     OW18556   3.654   3.881   5.897  0.2294 -0.1175  0.1384
 2366SOL    HW118557   3.650   3.842   5.985 -1.0154  1.1522  0.6590
 2366SOL    HW218558   3.578   3.939   5.911  0.5144  0.1471  0.5844
 2367SOL     OW18559   4.173   0.881  11.331  0.0166 -0.0542  0.0232
 2367SOL    HW118560   4.257   0.837  11.345  0.7314  1.5025  0.5844
 2367SOL    HW218561   4.196   0.971  11.310 -0.7363 -0.4805 -2.5959
 2368SOL     OW18562   0.217   0.513   5.413 -0.1482  0.6557  0.1605
 2368SOL    HW118563   0.225   0.482   5.503 -1.0631  0.1921  0.0824
 2368SOL    HW218564   0.307   0.510   5.379 -0.2806  1.2182 -0.2228
 2369SOL     OW18565   4.139   1.554  14.254 -0.1223 -0.4396  0.5207
 2369SOL    HW118566   4.231   1.531  14.243 -0.6274 -1.6129 -1.1554
 2369SOL    HW218567   4.127   1.608  14.175  0.9072  2.0104  2.0320
 2370SOL     OW18568   1.774   4.140   8.684 -0.2297 -0.1885 -0.3599
 2370SOL    HW118569   1.799   4.229   8.710  1.4092 -0.5729 -0.5928
 2370SOL    HW218570   1.763   4.138   8.589  1.0385 -1.4564 -0.4795
 2371SOL     OW18571   2.218   0.280  10.075  0.0371  0.0083 -0.1220
 2371SOL    HW118572   2.247   0.193  10.048 -0.6432  0.0565 -0.9920
 2371SOL    HW218573   2.156   0.305  10.006  1.8836  0.6058 -1.5613
 2372SOL     OW18574   3.494   3.302   3.560  0.0464  0.5337 -0.3227
 2372SOL    HW118575   3.511   3.260   3.476  0.6502 -0.8221  0.4750
 2372SOL    HW218576   3.524   3.392   3.547  1.9221 -0.2921 -1.6997
 2373SOL     OW18577   4.492   3.037   5.872  0.1698 -0.4687  0.1774
 2373SOL    HW118578   4.436   3.094   5.924  0.3762  1.7697 -2.1014
 2373SOL    HW218579   4.451   3.038   5.786 -0.6560 -1.2116  0.5573
 2374SOL     OW18580   0.967   3.598  11.516  0.5449  0.3725  0.4415
 2374SOL    HW118581   1.014   3.524  11.555 -1.9791 -0.8804  1.0628
 2374SOL    HW218582   0.978   3.561  11.429 -1.1753 -0.8161  0.7344
 2375SOL     OW18583   0.878   0.515   5.576  0.5992 -0.5081  0.0943
 2375SOL    HW118584   0.953   0.457   5.579 -0.6870 -2.2676 -1.7314
 2375SOL    HW218585   0.885   0.556   5.662 -0.5807  2.6887 -1.3096
 2376SOL     OW18586   3.359   1.394  13.144 -0.1274  0.2300  0.2357
 2376SOL    HW118587   3.429   1.378  13.082 -0.5401  1.2934 -0.5001
 2376SOL    HW218588   3.417   1.429  13.212 -1.4319  0.4009  1.2672
 2377SOL     OW18589   2.366   3.427  16.771  0.0069  1.2181  0.1285
 2377SOL    HW118590   2.329   3.435  16.683  2.1301 -0.0758 -0.8707
 2377SOL    HW218591   2.405   3.340  16.771  0.4305  1.4023 -1.0975
 2378SOL     OW18592   1.227   0.076   5.015 -0.3806  0.3802  0.1552
 2378SOL    HW118593   1.303   0.132   5.030  0.2590 -0.4352 -0.0531
 2378SOL    HW218594   1.249   0.032   4.933 -0.3908  1.4612 -0.4285
 2379SOL     OW18595   3.352   1.321  17.240 -0.0883  0.3124  0.3959
 2379SOL    HW118596   3.276   1.379  17.226  0.1240  0.4614 -0.1576
 2379SOL    HW218597   3.390   1.368  17.314 -0.9442  0.0125  1.0363
 2380SOL     OW18598   1.971   0.772   2.628 -0.8653  0.3875 -0.0511
 2380SOL    HW118599   2.050   0.718   2.624 -0.5593  0.7578  1.0153
 2380SOL    HW218600   1.895   0.713   2.634  0.1383 -0.8160  0.7170
 2381SOL     OW18601   2.120   1.564  12.903 -0.0953  0.4041 -0.1695
 2381SOL    HW118602   2.064   1.553  12.826  0.2310  1.1727 -0.5144
 2381SOL    HW218603   2.205   1.563  12.860 -0.4181 -0.6070 -0.7808
 2382SOL     OW18604   4.588   1.802   3.292  0.1274  0.1232  0.2425
 2382SOL    HW118605   4.506   1.850   3.307 -0.4440 -0.3621 -1.3845
 2382SOL    HW218606   4.575   1.721   3.342  0.4850  0.9807  1.7145
 2383SOL     OW18607   1.061   2.460   7.306 -0.1376  0.2240  0.4019
 2383SOL    HW118608   1.006   2.445   7.229  2.1341  0.6685 -1.2956
 2383SOL    HW218609   1.115   2.381   7.308 -2.0294 -1.0714  0.4420
 2384SOL     OW18610   1.731   0.912   8.449  1.0454  0.3137  0.1249
 2384SOL    HW118611   1.713   0.835   8.504  0.9220  0.3428  0.1251
 2384SOL    HW218612   1.796   0.958   8.502  0.9721  0.0355  0.4592
 2385SOL     OW18613   3.395   0.267  12.754  0.3894 -0.0926  0.1760
 2385SOL    HW118614   3.460   0.241  12.689 -0.2868  0.8702 -0.8958
 2385SOL    HW218615   3.323   0.214  12.719  0.5106  0.0938 -0.3645
 2386SOL     OW18616   3.192   0.009  15.696 -0.1516 -0.0610  0.2182
 2386SOL    HW118617   3.208   0.084  15.639  2.0082 -0.4418  0.3193
 2386SOL    HW218618   3.265   4.686  15.660  0.6783  0.8296  0.6497
 2387SOL     OW18619   1.478   0.258   7.697  0.1337  0.3876 -0.3851
 2387SOL    HW118620   1.401   0.214   7.660 -0.6925  0.4460  1.2653
 2387SOL    HW218621   1.472   0.329   7.633  2.1220  0.4098 -0.5264
 2388SOL     OW18622   2.932   1.138  15.854  0.1738 -0.0355 -0.0697
 2388SOL    HW118623   2.912   1.141  15.947  0.4167 -0.0200 -0.0185
 2388SOL    HW218624   3.012   1.085  15.860 -0.8029 -1.4271  0.6295
 2389SOL     OW18625   3.335   0.735   4.718 -0.1261 -0.0514 -0.2155
 2389SOL    HW118626   3.245   0.755   4.692 -0.1897 -0.2829 -0.1682
 2389SOL    HW218627   3.355   0.659   4.665 -0.8297 -0.8596  0.6727
 2390SOL     OW18628   3.009   2.510   3.843 -0.0238  0.0984 -0.0672
 2390SOL    HW118629   3.017   2.522   3.748 -1.5186  0.6586 -0.1168
 2390SOL    HW218630   3.065   2.433   3.858 -0.5922 -0.9988 -3.4306
 2391SOL     OW18631   2.295   1.301   8.858  0.0450 -0.1343  0.0251
 2391SOL    HW118632   2.265   1.388   8.886 -0.4365 -0.0837 -0.6328
 2391SOL    HW218633   2.315   1.271   8.946 -1.7515  0.5983  0.6734
 2392SOL     OW18634   0.820   3.273   2.772  0.3980  0.3766  0.1233
 2392SOL    HW118635   0.829   3.342   2.837  1.4598  1.7993 -1.5462
 2392SOL    HW218636   0.786   3.326   2.700  0.0172 -0.9974 -0.7144
 2393SOL     OW18637   2.142   0.916  13.012 -0.0742  0.2144 -0.0059
 2393SOL    HW118638   2.097   0.833  12.997 -0.9655  0.7551 -0.3479
 2393SOL    HW218639   2.200   0.909  12.936  0.8444  2.0430  0.5118
 2394SOL     OW18640   2.316   2.595   4.645  0.2545  0.5039 -0.0988
 2394SOL    HW118641   2.232   2.622   4.608  0.1195  0.9124  0.5185
 2394SOL    HW218642   2.365   2.608   4.564 -0.9662 -1.6733 -1.1884
 2395SOL     OW18643   2.133   3.991   5.138 -0.0458 -0.4061 -0.3674
 2395SOL    HW118644   2.213   3.958   5.098  1.8619 -0.6279  3.7158
 2395SOL    HW218645   2.085   3.920   5.180  0.5095  0.4879  1.7670
 2396SOL     OW18646   0.735   3.462   0.249  0.3130 -0.0089  0.5228
 2396SOL    HW118647   0.769   3.402   0.183  0.9809  1.2161 -0.2617
 2396SOL    HW218648   0.663   3.412   0.287  0.5404 -1.3815 -0.8756
 2397SOL     OW18649   3.401   4.615  14.432 -0.5358  0.2704 -0.1577
 2397SOL    HW118650   3.380   4.642  14.343 -1.8906 -0.3454 -0.0301
 2397SOL    HW218651   3.347   4.676  14.481  0.2857  0.2344  0.7840
 2398SOL     OW18652   1.830   0.539   4.773  0.7181 -0.6045  0.0652
 2398SOL    HW118653   1.878   0.621   4.789  0.2559 -0.6122  1.4652
 2398SOL    HW218654   1.907   0.482   4.769  1.4251  0.5987 -3.9585
 2399SOL     OW18655   4.586   3.464   2.014 -0.8952 -0.3098 -0.0346
 2399SOL    HW118656   4.670   3.500   1.986 -2.1699  1.3549 -1.7868
 2399SOL    HW218657   4.588   3.377   1.975 -1.1172  0.5963 -2.0428
 2400SOL     OW18658   0.460   0.890   2.757 -0.1640 -0.7007 -0.7128
 2400SOL    HW118659   0.436   0.980   2.736 -0.7459 -0.3735  1.3680
 2400SOL    HW218660   0.486   0.901   2.848  2.5848  0.5336 -1.6435
 2401SOL     OW18661   1.359   2.481  17.191 -0.1398  0.1610 -0.2354
 2401SOL    HW118662   1.266   2.482  17.215 -0.1718  1.1016 -0.4035
 2401SOL    HW218663   1.348   2.397  17.147 -1.4095  0.4870 -0.5514
 2402SOL     OW18664   2.636   3.532   6.833  0.1281 -0.3572 -0.0208
 2402SOL    HW118665   2.612   3.543   6.741  0.6124  1.6979  0.1085
 2402SOL    HW218666   2.550   3.539   6.876 -0.4510  0.6924 -1.3535
 2403SOL     OW18667   2.536   2.162   5.206 -0.5058  0.0196 -0.3693
 2403SOL    HW118668   2.544   2.238   5.148 -1.2215  1.6104  1.6474
 2403SOL    HW218669   2.590   2.186   5.281 -1.1551 -0.6233  0.2995
 2404SOL     OW18670   1.545   0.602   5.077 -0.7335  0.4274 -0.6726
 2404SOL    HW118671   1.524   0.667   5.010  0.5787  1.5762  0.0215
 2404SOL    HW218672   1.630   0.639   5.103 -1.3286  0.2578  1.4499
 2405SOL     OW18673   4.662   0.234   5.392  0.2849 -0.5084  0.1566
 2405SOL    HW118674   4.592   0.179   5.428 -2.4177  3.3631  0.8229
 2405SOL    HW218675   0.002   0.167   5.387 -1.1451 -2.0131  0.9077
 2406SOL     OW18676   3.106   0.009   7.272  0.1256 -0.1202  0.1432
 2406SOL    HW118677   3.020   0.016   7.313  0.7823 -0.5350  1.5869
 2406SOL    HW218678   3.101   0.063   7.193 -2.0107  0.2730  0.5528
 2407SOL     OW18679   3.460   3.810  17.410 -0.1441 -0.1593  0.4827
 2407SOL    HW118680   3.383   3.861  17.437  0.5743 -0.6403  3.4633
 2407SOL    HW218681   3.446   3.724  17.448  2.6145 -1.0775 -0.5646
 2408SOL     OW18682   1.127   3.331   7.356  0.1675 -0.1352  0.0176
 2408SOL    HW118683   1.216   3.365   7.347 -0.4485  0.4910 -3.5803
 2408SOL    HW218684   1.086   3.356   7.273  2.4428 -0.3346 -1.1523
 2409SOL     OW18685   2.520   0.781  17.706  0.2618  0.1095  0.3793
 2409SOL    HW118686   2.515   0.871  17.673  0.1066  0.0225  0.1684
 2409SOL    HW218687   2.467   0.799   0.072  1.8871  0.1306  1.4932
 2410SOL     OW18688   1.251   2.493   8.329  0.1371  0.1639  0.2112
 2410SOL    HW118689   1.176   2.545   8.302  0.1849  0.9807  1.6332
 2410SOL    HW218690   1.245   2.409   8.284  1.3676 -0.7896  1.8119
 2411SOL     OW18691   2.591   2.043   6.708 -0.0383  0.1995  0.3105
 2411SOL    HW118692   2.676   2.088   6.715  0.5036 -1.0033  1.4133
 2411SOL    HW218693   2.557   2.051   6.797 -1.1042  0.0438 -0.0811
 2412SOL     OW18694   1.256   3.625   3.620 -0.1968 -0.3805 -0.2988
 2412SOL    HW118695   1.289   3.691   3.559  2.1285  1.6484  3.1587
 2412SOL    HW218696   1.170   3.607   3.582 -1.1469  0.4042  1.4867
 2413SOL     OW18697   0.306   0.942   8.576 -0.0649  0.2659  0.0197
 2413SOL    HW118698   0.280   0.986   8.494  0.6929 -0.8922 -0.8377
 2413SOL    HW218699   0.392   0.983   8.586 -0.0169  0.1463  0.0876
 2414SOL     OW18700   0.611   2.732   4.313  0.3048  0.2319  0.5186
 2414SOL    HW118701   0.704   2.713   4.317  0.1125 -0.5400  1.5266
 2414SOL    HW218702   0.590   2.672   4.241  1.0946 -1.0047  1.3243
 2415SOL     OW18703   3.985   2.995   8.715  0.2207  0.0358 -0.1825
 2415SOL    HW118704   3.990   3.068   8.653 -1.6006  0.1186 -0.2365
 2415SOL    HW218705   4.066   2.946   8.698 -2.9061 -4.5658 -1.7980
 2416SOL     OW18706   2.246   3.881   7.763  0.2455  0.5956  0.1062
 2416SOL    HW118707   2.160   3.852   7.793  0.6734 -0.8017 -0.0241
 2416SOL    HW218708   2.257   3.947   7.831 -1.9565  0.4602  0.6182
 2417SOL     OW18709   2.212   1.829  13.626  0.3606  0.4824  0.3968
 2417SOL    HW118710   2.148   1.761  13.647  1.2735 -0.6348 -0.4515
 2417SOL    HW218711   2.265   1.785  13.560  1.2157  0.2254  1.2544
 2418SOL     OW18712   4.021   0.025  15.272  0.2786 -0.5347 -0.2807
 2418SOL    HW118713   4.078   4.694  15.223 -1.8087 -1.0907 -2.0398
 2418SOL    HW218714   4.069   0.107  15.259  0.1013 -0.3176  0.3918
 2419SOL     OW18715   2.873   3.548   2.556 -0.2958 -0.4198 -0.3446
 2419SOL    HW118716   2.951   3.540   2.610 -0.1378 -0.2559 -0.5444
 2419SOL    HW218717   2.912   3.539   2.469  1.8589 -2.2937  0.8149
 2420SOL     OW18718   2.402   0.342   3.207 -0.5367  0.0938 -0.0898
 2420SOL    HW118719   2.374   0.382   3.290 -0.6127  0.0455 -0.0923
 2420SOL    HW218720   2.345   0.390   3.147 -0.4801  1.6161  1.0591
 2421SOL     OW18721   2.034   3.873   3.551 -0.3540 -0.3479  0.1033
 2421SOL    HW118722   2.109   3.884   3.609 -0.3460 -0.2225  0.0713
 2421SOL    HW218723   1.962   3.845   3.607  0.6950 -0.1638  1.5431
 2422SOL     OW18724   0.275   4.260  15.418 -0.3442  0.1299  0.2708
 2422SOL    HW118725   0.343   4.196  15.439  0.1792  0.6596  0.1845
 2422SOL    HW218726   0.245   4.226  15.334 -1.0930  1.2442  0.0875
 2423SOL     OW18727   1.278   2.314   9.772  0.2063 -0.4796  0.2376
 2423SOL    HW118728   1.372   2.300   9.782  0.2162 -0.5775  0.0235
 2423SOL    HW218729   1.239   2.245   9.825  1.1315 -1.2863 -0.1351
 2424SOL     OW18730   2.992   0.076  13.883 -0.6300 -0.4826  0.6510
 2424SOL    HW118731   3.071   0.091  13.832 -1.6012 -1.8791 -1.2489
 2424SOL    HW218732   2.959   0.162  13.910  0.0926 -0.7049  2.2120
 2425SOL     OW18733   3.413   2.890   7.083  0.2494 -0.1764 -0.1127
 2425SOL    HW118734   3.362   2.918   7.007 -0.8885  2.6317  1.7002
 2425SOL    HW218735   3.491   2.944   7.076 -0.1683 -0.0118 -3.5465
 2426SOL     OW18736   4.704   3.597  13.784 -0.2723  0.1295 -0.3552
 2426SOL    HW118737   4.637   3.539  13.746  0.3362  1.1641 -3.0499
 2426SOL    HW218738   4.660   3.629  13.862 -0.2364 -2.2077  0.6334
 2427SOL     OW18739   1.352   3.242   8.556  0.1619 -0.3239  0.5196
 2427SOL    HW118740   1.332   3.300   8.630  0.0919 -0.1704  0.3802
 2427SOL    HW218741   1.411   3.176   8.593  0.0495 -2.2150 -2.6897
 2428SOL     OW18742   3.904   2.032   1.188  0.5386  0.1193  0.0314
 2428SOL    HW118743   3.984   1.989   1.158  0.0563  0.3847 -1.6202
 2428SOL    HW218744   3.848   2.017   1.112  2.6571 -2.7623 -0.9752
 2429SOL     OW18745   1.248   4.387  16.658 -0.0227 -0.0033  0.4445
 2429SOL    HW118746   1.193   4.347  16.591 -0.3263 -1.0007  1.2809
 2429SOL    HW218747   1.327   4.396  16.604  0.1029  0.4023  0.6952
 2430SOL     OW18748   0.167   4.009   3.594 -0.4854  0.3764  0.1585
 2430SOL    HW118749   0.247   4.041   3.635 -1.5292  1.2662  1.5028
 2430SOL    HW218750   0.105   4.065   3.641 -0.5105  0.1569  0.3879
 2431SOL     OW18751   0.350   4.388   8.870  0.1538  0.1179 -0.0520
 2431SOL    HW118752   0.380   4.447   8.940  1.6100  0.0704 -0.6446
 2431SOL    HW218753   0.327   4.310   8.921 -0.7776  0.9674  0.8251
 2432SOL     OW18754   0.580   2.934   6.931 -0.1925 -0.6188  0.5325
 2432SOL    HW118755   0.572   2.872   6.859  0.7663 -0.4789  0.3057
 2432SOL    HW218756   0.607   3.012   6.883  0.5443 -2.4347 -1.9477
 2433SOL     OW18757   3.595   1.024   4.953 -0.0229 -0.3458 -0.2998
 2433SOL    HW118758   3.646   0.991   4.878  0.5781 -0.0311 -0.0257
 2433SOL    HW218759   3.601   1.116   4.930 -2.0639  0.2557  1.6090
 2434SOL     OW18760   0.403   1.284   6.033 -0.7437  0.0085  0.0613
 2434SOL    HW118761   0.371   1.210   6.083  2.2304 -1.9762 -0.9752
 2434SOL    HW218762   0.409   1.243   5.947 -1.2013 -0.5895  0.3151
 2435SOL     OW18763   1.297   2.871   2.160  0.3501 -0.0531 -0.4206
 2435SOL    HW118764   1.336   2.914   2.235  0.9053 -0.1317 -0.6591
 2435SOL    HW218765   1.221   2.835   2.206 -0.8713  1.7244 -1.0669
 2436SOL     OW18766   4.106   0.843   9.571 -0.8885  0.3619 -0.4637
 2436SOL    HW118767   4.110   0.937   9.589 -0.1452 -0.1077  1.9608
 2436SOL    HW218768   4.081   0.810   9.658 -1.9610  0.3621 -0.7785
 2437SOL     OW18769   1.309   1.279   6.521  0.4932 -0.3278  0.0550
 2437SOL    HW118770   1.217   1.287   6.493  0.3773 -0.2010  0.4712
 2437SOL    HW218771   1.349   1.304   6.438  0.0340  0.9740  0.2314
 2438SOL     OW18772   2.640   0.991   9.319 -0.4692  0.2002  0.0800
 2438SOL    HW118773   2.660   1.040   9.399 -0.7555 -2.5370  1.8384
 2438SOL    HW218774   2.732   0.978   9.295 -0.3543 -1.1771  1.2762
 2439SOL     OW18775   1.028   0.325   5.428  0.2095  0.2527  0.2029
 2439SOL    HW118776   1.028   0.274   5.347  0.9632  0.4378  0.0899
 2439SOL    HW218777   1.065   0.402   5.385 -0.5379  1.4745  1.7317
 2440SOL     OW18778   1.817   0.400   6.677 -0.3427  0.2275 -0.2171
 2440SOL    HW118779   1.753   0.453   6.724 -1.1456  0.8217 -1.9391
 2440SOL    HW218780   1.839   0.469   6.613  2.3262  0.6822  1.1940
 2441SOL     OW18781   4.226   1.793   0.800  0.3997 -0.2613 -0.0331
 2441SOL    HW118782   4.206   1.699   0.797 -1.4410  0.1600 -0.4900
 2441SOL    HW218783   4.149   1.825   0.846  0.4206  0.1516 -0.2854
 2442SOL     OW18784   0.054   3.393   7.143 -0.6855 -0.4267 -0.1097
 2442SOL    HW118785   0.138   3.352   7.166 -1.3984 -0.9359  1.6094
 2442SOL    HW218786   0.037   3.462   7.207  0.8589  0.7174 -0.9496
 2443SOL     OW18787   1.307   4.686   5.271  0.3458  0.1157 -0.3299
 2443SOL    HW118788   1.258   4.707   5.192  1.2235 -0.4368 -1.0256
 2443SOL    HW218789   1.283   4.594   5.274  2.2582 -0.3011  1.9860
 2444SOL     OW18790   0.122   4.315   5.054  0.0419 -0.4041 -0.3128
 2444SOL    HW118791   0.111   4.226   5.088  0.4572  0.0158  0.9333
 2444SOL    HW218792   0.086   4.318   4.966  0.2066 -0.3271 -0.3786
 2445SOL     OW18793   0.006   1.171   1.791 -0.4051  0.5295  0.7619
 2445SOL    HW118794   0.078   1.171   1.854 -1.1097 -3.6081  1.5778
 2445SOL    HW218795   0.058   1.156   1.713 -0.0410 -0.5376  1.2097
 2446SOL     OW18796   3.362   0.420   3.889 -0.1688  0.4816  0.8416
 2446SOL    HW118797   3.407   0.351   3.938  1.7056  0.8336 -0.3996
 2446SOL    HW218798   3.277   0.429   3.932 -0.2593  0.5510  0.6473
 2447SOL     OW18799   1.070   0.315   3.954  0.6287  0.4514 -0.3072
 2447SOL    HW118800   1.089   0.347   4.042 -2.1805  2.5993 -0.4708
 2447SOL    HW218801   0.985   0.277   3.976  0.4538  1.0768  0.0838
 2448SOL     OW18802   2.045   1.361   3.242 -0.9237  1.1053 -0.2420
 2448SOL    HW118803   2.050   1.364   3.338 -1.4130  1.0766 -0.2149
 2448SOL    HW218804   1.974   1.300   3.224 -0.6878  0.9158 -0.5319
 2449SOL     OW18805   1.052   3.886  10.709 -0.1796 -0.9661  0.6447
 2449SOL    HW118806   1.128   3.922  10.754 -1.2800  1.0146  0.9545
 2449SOL    HW218807   1.055   3.798  10.747 -0.0265 -0.8136  0.9801
 2450SOL     OW18808   2.347   3.576   7.239  0.1541 -0.0878  0.0368
 2450SOL    HW118809   2.296   3.645   7.196  0.2999  0.7163  1.1507
 2450SOL    HW218810   2.280   3.508   7.247 -1.5806  1.6674  0.4308
 2451SOL     OW18811   0.171   0.334   8.481  0.1313 -0.0318  0.1921
 2451SOL    HW118812   0.168   0.381   8.564 -0.8605 -0.3536  0.3235
 2451SOL    HW218813   0.255   0.356   8.440 -0.4182  2.2034  0.2510
 2452SOL     OW18814   3.264   1.192   7.079  0.0417  0.1437 -0.7060
 2452SOL    HW118815   3.306   1.131   7.139 -1.3424 -0.6631 -0.5450
 2452SOL    HW218816   3.225   1.250   7.144  0.2643 -0.8004  0.2609
 2453SOL     OW18817   1.323   4.646  16.438 -0.0389 -0.7745 -0.1288
 2453SOL    HW118818   1.230   4.625  16.447  0.2679 -0.8229  2.7572
 2453SOL    HW218819   1.348   4.579  16.374  2.2891 -0.0484  0.0384
 2454SOL     OW18820   4.343   0.588   2.441 -0.4460 -0.0558 -0.0725
 2454SOL    HW118821   4.274   0.522   2.435 -0.4245  0.1022 -1.9631
 2454SOL    HW218822   4.352   0.580   2.536 -0.2318 -1.0832 -0.1834
 2455SOL     OW18823   2.507   0.720   5.838  0.1697 -0.4153 -0.6931
 2455SOL    HW118824   2.461   0.673   5.768 -0.2180 -0.6506 -0.2758
 2455SOL    HW218825   2.523   0.809   5.806  0.1697  0.9188  3.0454
 2456SOL     OW18826   3.087   0.186  11.065  0.9695  0.1687 -0.4232
 2456SOL    HW118827   3.012   0.172  11.008 -0.4893  0.5601  1.3751
 2456SOL    HW218828   3.115   0.270  11.030  0.4130  0.1755 -0.8551
 2457SOL     OW18829   0.484   1.660  10.627 -0.0817  0.5603  0.0651
 2457SOL    HW118830   0.406   1.710  10.603 -0.6740 -0.6156 -0.4747
 2457SOL    HW218831   0.538   1.651  10.549  1.4285  2.2083  0.9251
 2458SOL     OW18832   0.261   3.829  10.092 -0.3250  0.6804  0.1136
 2458SOL    HW118833   0.303   3.912  10.069  1.5118  0.2142  1.8415
 2458SOL    HW218834   0.215   3.809  10.010  1.1456  1.6287 -0.9445
 2459SOL     OW18835   1.108   4.634   6.198  0.5774 -0.3309  0.4835
 2459SOL    HW118836   1.070   4.600   6.118 -2.8204 -1.4514  2.5719
 2459SOL    HW218837   1.159   4.555   6.211 -1.6725 -1.6579  1.2983
 2460SOL     OW18838   2.319   4.040   7.976  0.2054  0.4904  0.0401
 2460SOL    HW118839   2.313   4.019   8.069 -0.6680 -0.3245 -0.2094
 2460SOL    HW218840   2.414   4.033   7.967  0.0930 -0.1071 -0.6800
 2461SOL     OW18841   0.532   2.241   4.232 -0.3093 -0.0185  0.0553
 2461SOL    HW118842   0.455   2.198   4.270  0.3652 -1.0997  0.2164
 2461SOL    HW218843   0.592   2.236   4.307 -0.1571 -0.9187 -0.1191
 2462SOL     OW18844   0.197   0.774   7.615  0.2412 -0.1607 -0.0043
 2462SOL    HW118845   0.110   0.766   7.578  0.3868  1.4375 -0.7118
 2462SOL    HW218846   0.196   0.700   7.676  0.9055  1.5516  2.0998
 2463SOL     OW18847   2.160   0.851  15.343 -0.3310  0.0109 -0.4149
 2463SOL    HW118848   2.097   0.783  15.365  0.0087  0.2504  1.2539
 2463SOL    HW218849   2.202   0.857  15.429 -0.4769 -0.0939 -0.3365
 2464SOL     OW18850   2.141   1.104  15.581  0.3953 -0.0497  0.3286
 2464SOL    HW118851   2.093   1.150  15.512 -1.2045 -1.1508  0.7165
 2464SOL    HW218852   2.147   1.178  15.642 -0.1694  1.1737 -1.0817
 2465SOL     OW18853   4.094   2.274   8.552  0.2322  0.4574 -0.2178
 2465SOL    HW118854   4.136   2.264   8.638 -0.2286  1.4173  0.1141
 2465SOL    HW218855   4.112   2.186   8.518 -0.5075  0.5347 -0.8214
 2466SOL     OW18856   4.428   2.168   5.983  0.1487 -0.0069  0.1567
 2466SOL    HW118857   4.490   2.116   5.931 -0.2391 -0.8980  0.5919
 2466SOL    HW218858   4.473   2.250   6.004 -2.1712  1.8311 -2.0215
 2467SOL     OW18859   0.328   4.701   4.841 -0.2640 -0.2691 -0.7954
 2467SOL    HW118860   0.242   4.686   4.801 -0.4108 -2.5953  0.3802
 2467SOL    HW218861   0.361   4.612   4.846 -0.2104 -0.2296 -0.4655
 2468SOL     OW18862   2.988   4.528  17.308  0.0183  0.2856 -0.5696
 2468SOL    HW118863   2.942   4.456  17.351 -1.1789  0.6951 -1.1802
 2468SOL    HW218864   3.051   4.474  17.260  1.4544  2.0307 -0.6815
 2469SOL     OW18865   0.919   1.131   6.278  0.3372  0.3265  0.1980
 2469SOL    HW118866   0.831   1.098   6.263  0.7864 -1.8206  2.3652
 2469SOL    HW218867   0.953   1.148   6.190  1.0443 -2.3533 -0.0569
 2470SOL     OW18868   4.467   3.602   4.562  0.0262  0.1421 -0.1971
 2470SOL    HW118869   4.487   3.693   4.540  1.4293 -0.5745 -1.8562
 2470SOL    HW218870   4.372   3.598   4.552 -0.1993  0.2227  1.9865
 2471SOL     OW18871   4.625   1.556   9.939 -0.5128 -0.4476 -0.2001
 2471SOL    HW118872   4.649   1.631   9.994  2.1383 -0.8783 -0.7681
 2471SOL    HW218873   4.595   1.612   9.867 -1.3710  1.5199  1.6613
 2472SOL     OW18874   0.820   4.604   9.074  0.2235  0.0618  0.1054
 2472SOL    HW118875   0.798   4.666   9.004  0.5247 -0.2347 -0.2524
 2472SOL    HW218876   0.898   4.650   9.107  0.4732 -1.7102  1.9915
 2473SOL     OW18877   3.833   3.827   9.885  0.1199  0.4373  0.2290
 2473SOL    HW118878   3.906   3.764   9.886  0.7486  1.1512 -0.3111
 2473SOL    HW218879   3.861   3.886   9.954  0.7695  0.2454  0.1308
 2474SOL     OW18880   0.273   1.392   0.620 -0.5966 -0.1163 -0.0358
 2474SOL    HW118881   0.178   1.389   0.634 -0.4230  1.7194  1.4336
 2474SOL    HW218882   0.297   1.484   0.619  2.2085 -0.8382  1.4413
 2475SOL     OW18883   3.877   2.592   1.357 -0.1393 -0.6855 -0.5091
 2475SOL    HW118884   3.927   2.670   1.331 -0.5206 -0.0331  0.7039
 2475SOL    HW218885   3.791   2.629   1.337 -0.3256 -0.9963 -0.2871
 2476SOL     OW18886   1.855   0.194   4.676 -0.2317  0.1642 -0.1566
 2476SOL    HW118887   1.943   0.230   4.674 -0.2715  0.2291 -0.9915
 2476SOL    HW218888   1.821   0.197   4.586  0.8538 -2.0303 -0.6452
 2477SOL     OW18889   4.023   2.529   3.528 -0.3043 -0.2612  0.3209
 2477SOL    HW118890   4.003   2.622   3.542 -0.5819 -0.4045  0.8785
 2477SOL    HW218891   3.999   2.490   3.612 -1.5699  0.5561  0.3488
 2478SOL     OW18892   2.771   3.319   4.147  0.2707  0.0119  0.8966
 2478SOL    HW118893   2.690   3.279   4.178 -1.1618  2.0352 -0.2347
 2478SOL    HW218894   2.770   3.316   4.052  1.5527 -0.7947  0.9041
 2479SOL     OW18895   3.436   1.384   3.176  0.2537  0.0935 -0.0891
 2479SOL    HW118896   3.497   1.312   3.188 -1.8058 -1.8295 -1.3070
 2479SOL    HW218897   3.432   1.385   3.081 -2.4355 -1.8766  0.0317
 2480SOL     OW18898   0.741   1.008   5.036  0.5877  0.1396 -0.6306
 2480SOL    HW118899   0.686   1.002   5.114  1.4667  0.0914 -0.0193
 2480SOL    HW218900   0.770   0.918   5.022  0.8030 -0.0888  1.3103
 2481SOL     OW18901   2.013   3.358   7.654 -0.3621 -0.2977 -0.1553
 2481SOL    HW118902   1.986   3.434   7.706  1.0056 -0.6307  1.0519
 2481SOL    HW218903   2.093   3.381   7.607 -0.5722 -0.4917 -0.6063
 2482SOL     OW18904   2.343   1.219   0.078 -0.1250  0.6437  0.5562
 2482SOL    HW118905   2.313   1.271   0.003  0.7168 -0.4339 -0.5367
 2482SOL    HW218906   2.316   1.134   0.044  0.5566  0.8761 -0.5983
 2483SOL     OW18907   0.013   1.136   5.598 -0.0166  0.0236 -0.6175
 2483SOL    HW118908   4.670   1.154   5.537 -0.6819 -0.4320  0.0300
 2483SOL    HW218909   0.047   1.055   5.561 -0.2352 -0.7729  0.9231
 2484SOL     OW18910   1.830   0.175   7.540 -0.2711 -0.6545 -0.7536
 2484SOL    HW118911   1.852   0.268   7.542 -1.6311 -0.3609  0.3517
 2484SOL    HW218912   1.896   0.133   7.596  1.4081 -0.6419 -2.7254
 2485SOL     OW18913   1.699   2.995   3.781 -0.2665  0.1644  0.5624
 2485SOL    HW118914   1.752   3.065   3.820 -1.4312  1.7766 -0.7498
 2485SOL    HW218915   1.611   3.032   3.794 -1.0008 -1.1515 -0.6326
 2486SOL     OW18916   2.237   2.735   4.261  0.3677 -0.4757 -0.0423
 2486SOL    HW118917   2.268   2.806   4.204 -2.8511  2.7168  2.2486
 2486SOL    HW218918   2.143   2.750   4.263  0.3841 -0.0109 -1.9928
 2487SOL     OW18919   1.102   3.128   3.726  0.4717  0.1247 -0.0444
 2487SOL    HW118920   1.153   3.207   3.709 -1.2196  1.4411  0.9402
 2487SOL    HW218921   1.016   3.161   3.754  0.3344  0.4928 -0.8893
 2488SOL     OW18922   3.905   3.631  13.622 -0.0773 -0.1628  0.4364
 2488SOL    HW118923   3.836   3.697  13.617  0.6113  0.4219 -1.1838
 2488SOL    HW218924   3.927   3.621  13.715 -1.5586 -0.6799  0.7304
 2489SOL     OW18925   3.297   0.580  11.585  0.5511  0.8072 -0.1614
 2489SOL    HW118926   3.321   0.536  11.667 -0.7605  0.4505  0.0234
 2489SOL    HW218927   3.283   0.511  11.521  2.9268  1.0328 -0.9471
 2490SOL     OW18928   4.524   2.085   9.723  0.5689 -0.2084  0.1570
 2490SOL    HW118929   4.522   2.011   9.661  3.0376 -0.1640  0.0465
 2490SOL    HW218930   4.428   2.082   9.733  0.5298  0.5631  0.0310
 2491SOL     OW18931   1.154   2.310   0.615  0.5264  0.5127  0.1016
 2491SOL    HW118932   1.231   2.281   0.567 -0.4757 -0.7100 -0.7742
 2491SOL    HW218933   1.088   2.309   0.546  3.9780  2.2432 -3.1994
 2492SOL     OW18934   3.759   4.598  11.403 -0.4730  0.9342 -0.0965
 2492SOL    HW118935   3.750   4.666  11.336  1.2360 -0.2745 -1.5392
 2492SOL    HW218936   3.832   4.552  11.363 -0.9991 -0.4556  0.5250
 2493SOL     OW18937   1.135   4.125   2.862 -0.2409  0.2155 -0.3360
 2493SOL    HW118938   1.204   4.183   2.832 -1.7786  1.3841 -1.5925
 2493SOL    HW218939   1.093   4.103   2.779  1.0637  2.5215 -1.6005
 2494SOL     OW18940   0.829   3.568   5.955 -0.0591  0.1482 -0.4844
 2494SOL    HW118941   0.798   3.656   5.936 -1.0389  0.4466  2.5460
 2494SOL    HW218942   0.864   3.545   5.869 -0.0476 -0.4181 -0.3323
 2495SOL     OW18943   2.065   4.083  10.352 -0.2068 -0.2127  0.2157
 2495SOL    HW118944   2.003   4.053  10.285 -1.6437  1.5072  0.7816
 2495SOL    HW218945   2.055   4.178  10.345 -0.1600 -0.3222 -1.3151
 2496SOL     OW18946   0.807   0.446   5.919  0.6026 -0.0644 -0.2992
 2496SOL    HW118947   0.852   0.529   5.904 -1.7409  1.1395 -0.6364
 2496SOL    HW218948   0.884   0.389   5.914  1.2782  1.0304 -2.3242
 2497SOL     OW18949   4.657   0.286   2.179 -0.0994  0.1065  0.1258
 2497SOL    HW118950   4.693   0.352   2.120 -2.4984  0.9393 -0.4214
 2497SOL    HW218951   4.566   0.285   2.149  0.8519 -0.1231 -2.7402
 2498SOL     OW18952   2.254   4.026  16.219 -0.2087 -0.8123 -0.0631
 2498SOL    HW118953   2.206   4.070  16.149 -2.4193 -0.9671  1.3479
 2498SOL    HW218954   2.242   4.093  16.287  0.7870 -2.5746  1.8610
 2499SOL     OW18955   4.123   3.029   5.174 -0.3395 -0.0604 -0.0351
 2499SOL    HW118956   4.153   3.120   5.170  2.3988 -0.9626  0.3489
 2499SOL    HW218957   4.196   2.989   5.127  0.4800  2.3928 -0.8649
 2500SOL     OW18958   1.801   0.234   2.671  0.8028 -0.5024 -0.3420
 2500SOL    HW118959   1.711   0.234   2.702  1.2083  0.1716  0.8038
 2500SOL    HW218960   1.807   0.287   2.592 -1.4271  0.0512 -0.1400
 2501SOL     OW18961   0.265   3.176   1.975  0.0929 -0.4164 -0.0835
 2501SOL    HW118962   0.204   3.196   1.904 -1.1595 -0.9296  0.8430
 2501SOL    HW218963   0.306   3.261   1.987  1.5393 -0.7317 -2.6789
 2502SOL     OW18964   2.853   3.253   5.874 -1.1149  0.1308  0.0101
 2502SOL    HW118965   2.845   3.158   5.865 -0.1137  0.1714 -1.4211
 2502SOL    HW218966   2.895   3.273   5.790  0.9786  0.4097  1.1210
 2503SOL     OW18967   1.444   0.192  11.368  0.2706 -0.0153 -0.2663
 2503SOL    HW118968   1.442   0.118  11.307  0.6225 -0.6582  0.5056
 2503SOL    HW218969   1.431   0.150  11.454  2.1784  0.2484  0.1414
 2504SOL     OW18970   0.231   1.929  10.217  0.0331 -0.0120 -0.0521
 2504SOL    HW118971   0.170   1.876  10.165  0.5322 -0.3310 -0.3062
 2504SOL    HW218972   0.179   2.010  10.225 -0.5335 -0.5816  1.8642
 2505SOL     OW18973   4.229   1.643   3.799 -1.0618 -0.0974 -0.3778
 2505SOL    HW118974   4.255   1.698   3.725 -1.3988  0.3585 -0.1619
 2505SOL    HW218975   4.138   1.663   3.820 -0.5877 -0.9837  2.6233
 2506SOL     OW18976   4.268   0.377   6.725 -0.3990  0.1858 -0.2287
 2506SOL    HW118977   4.180   0.360   6.760 -0.2757  1.4529  0.6916
 2506SOL    HW218978   4.255   0.471   6.735  0.0428  0.2760 -0.5067
 2507SOL     OW18979   3.662   1.293  16.532 -0.0672  0.5542  0.0373
 2507SOL    HW118980   3.694   1.312  16.444  1.4930  1.0113  0.7026
 2507SOL    HW218981   3.731   1.235  16.565  0.9133  1.1140 -1.0473
 2508SOL     OW18982   0.465   2.022  14.613  0.4238 -0.3403  0.2601
 2508SOL    HW118983   0.477   1.940  14.564 -0.0889 -0.6503  0.6577
 2508SOL    HW218984   0.522   2.075  14.558  0.2263 -1.3368 -0.9134
 2509SOL     OW18985   4.024   3.853   0.836 -0.5071 -0.2451  0.3141
 2509SOL    HW118986   4.093   3.796   0.802  0.0462  0.5284  0.1390
 2509SOL    HW218987   4.084   3.918   0.871  0.0526 -0.4252 -0.3094
 2510SOL     OW18988   1.816   4.379   3.637 -0.1247  0.5864  0.9395
 2510SOL    HW118989   1.722   4.393   3.645 -0.2105 -0.2722  1.4209
 2510SOL    HW218990   1.824   4.404   3.545  3.7535  3.1472  1.9563
 2511SOL     OW18991   2.862   0.424   5.734  0.2359 -0.1633  0.1527
 2511SOL    HW118992   2.781   0.468   5.760  0.0407 -0.5854  0.2720
 2511SOL    HW218993   2.883   0.462   5.649  1.2539 -2.6054 -0.6946
 2512SOL     OW18994   1.506   3.294   2.320 -0.6799  0.5132  0.3342
 2512SOL    HW118995   1.584   3.332   2.360 -0.5796  1.6916 -0.9865
 2512SOL    HW218996   1.516   3.297   2.225 -0.3597 -1.8996  0.2930
 2513SOL     OW18997   1.239   3.035   7.246  0.2159  0.6534  0.2685
 2513SOL    HW118998   1.200   3.119   7.223  0.7833  1.1538  1.1068
 2513SOL    HW218999   1.291   3.018   7.168  0.5623  1.1774  0.3817
 2514SOL     OW19000   3.561   1.673   6.454  0.4273  0.0209  0.0097
 2514SOL    HW119001   3.614   1.699   6.379  1.4062  1.3809  1.1713
 2514SOL    HW219002   3.607   1.727   6.518  1.7789 -0.5673 -0.4648
 2515SOL     OW19003   2.962   0.167   3.369  0.0214 -0.2514 -0.3256
 2515SOL    HW119004   2.974   0.178   3.274  2.9681  1.4704  0.2367
 2515SOL    HW219005   2.892   0.231   3.382  0.3232 -0.4327  2.0915
 2516SOL     OW19006   2.503   1.004  11.187 -0.2851  0.3095  0.4950
 2516SOL    HW119007   2.462   1.068  11.246  0.2474  0.7080  0.4389
 2516SOL    HW219008   2.492   0.921  11.234  0.7136  0.5958  1.2341
 2517SOL     OW19009   2.093   2.632  16.126 -0.3981 -0.0645 -0.6251
 2517SOL    HW119010   2.090   2.708  16.068 -1.2926  1.9304  1.9958
 2517SOL    HW219011   2.076   2.673  16.211 -1.0123  1.2167 -1.3600
 2518SOL     OW19012   0.930   0.578  13.209  0.0303 -0.3205 -0.0706
 2518SOL    HW119013   0.978   0.592  13.290 -1.9384 -1.2984  1.2784
 2518SOL    HW219014   0.860   0.519  13.239  0.1262 -1.2807 -1.7094
 2519SOL     OW19015   0.207   2.801   5.723 -0.1531 -0.3417  0.4321
 2519SOL    HW119016   0.132   2.827   5.776 -0.4184 -0.5358  0.1484
 2519SOL    HW219017   0.163   2.761   5.648 -3.6248  1.2627  1.6213
 2520SOL     OW19018   1.720   0.404  11.557  0.0019  0.6550  0.1127
 2520SOL    HW119019   1.746   0.488  11.594 -0.9734  0.9616  0.0863
 2520SOL    HW219020   1.667   0.361  11.624  0.1628 -1.1323 -0.8808
 2521SOL     OW19021   4.460   4.251   9.423 -0.0696 -0.2664 -0.1219
 2521SOL    HW119022   4.387   4.298   9.382 -0.6468 -0.6540  0.4623
 2521SOL    HW219023   4.452   4.158   9.400  1.2940 -0.7740  1.4539
 2522SOL     OW19024   0.966   4.490   9.462  0.2702  0.4661  0.3812
 2522SOL    HW119025   0.900   4.538   9.413 -1.8295  0.0364  2.7971
 2522SOL    HW219026   0.929   4.487   9.550 -0.8381  0.0212 -0.1014
 2523SOL     OW19027   1.692   1.624   1.570  0.3333  0.1236 -0.2108
 2523SOL    HW119028   1.610   1.594   1.531  0.1966 -0.0866  0.2373
 2523SOL    HW219029   1.707   1.548   1.627 -0.7824  0.0577 -0.0006
 2524SOL     OW19030   1.332   1.644   1.290  0.3916  0.1689  0.0526
 2524SOL    HW119031   1.403   1.690   1.247  0.3919 -0.5335 -0.6932
 2524SOL    HW219032   1.362   1.622   1.378  0.2686  0.8345  0.2635
 2525SOL     OW19033   3.692   1.027   3.341  0.5628  0.4345  0.0641
 2525SOL    HW119034   3.605   1.049   3.374  0.6479 -1.9228  1.9018
 2525SOL    HW219035   3.681   1.004   3.249  1.8571  3.7114 -0.8948
 2526SOL     OW19036   4.008   1.025   8.418  0.0567  0.6312  0.0566
 2526SOL    HW119037   3.923   1.066   8.403 -1.3326 -1.4934  2.1356
 2526SOL    HW219038   4.061   1.078   8.359  1.1936 -0.9134 -0.3170
 2527SOL     OW19039   2.541   3.021   5.243  0.0859  0.2917  0.3256
 2527SOL    HW119040   2.629   2.982   5.242  0.2534  0.6527  3.3456
 2527SOL    HW219041   2.530   3.041   5.336  0.6473 -4.1317  1.3311
 2528SOL     OW19042   1.827   1.957   1.804  0.1440 -0.1465 -0.4612
 2528SOL    HW119043   1.789   1.870   1.796  0.3528  0.0905 -3.9327
 2528SOL    HW219044   1.807   1.993   1.891  0.7541  2.1280 -1.2599
 2529SOL     OW19045   2.295   1.458   4.492 -0.5722  0.6666 -0.3414
 2529SOL    HW119046   2.344   1.401   4.551 -1.2392 -0.0017 -0.4345
 2529SOL    HW219047   2.363   1.524   4.479  2.9159 -2.8282  0.1579
 2530SOL     OW19048   1.538   2.034  12.224 -0.6300  0.4965  0.4641
 2530SOL    HW119049   1.610   1.971  12.221  0.3919  1.6782 -0.2228
 2530SOL    HW219050   1.576   2.122  12.219  1.5210 -0.4186  0.7070
 2531SOL     OW19051   2.105   1.627   8.179  0.1575 -0.0570 -0.1446
 2531SOL    HW119052   2.018   1.631   8.218  0.7145  2.2879  0.8184
 2531SOL    HW219053   2.116   1.534   8.158  0.9387 -0.8673  3.7743
 2532SOL     OW19054   2.291   1.801   8.075  0.0831 -0.2375 -0.4356
 2532SOL    HW119055   2.223   1.737   8.097 -1.5469  1.1242 -1.4972
 2532SOL    HW219056   2.352   1.735   8.043  0.4356  0.7800 -1.8755
 2533SOL     OW19057   1.264   1.482   4.079 -0.1248 -0.4882 -0.0465
 2533SOL    HW119058   1.264   1.413   4.012 -0.8110 -0.4464 -0.0950
 2533SOL    HW219059   1.345   1.526   4.053  0.5700 -1.6233  0.1795
 2534SOL     OW19060   1.728   1.774  16.894  0.0087 -0.4313  0.3623
 2534SOL    HW119061   1.765   1.789  16.982  1.8417  0.4055 -0.5594
 2534SOL    HW219062   1.807   1.802  16.849  0.1685 -1.0152  0.2744
 2535SOL     OW19063   1.763   2.430   6.851 -0.2578  0.4676 -0.0433
 2535SOL    HW119064   1.822   2.384   6.792 -1.6453 -2.1510  0.6379
 2535SOL    HW219065   1.769   2.375   6.929 -2.8817 -0.3600 -0.4240
 2536SOL     OW19066   0.962   1.585   5.500 -0.0647  0.2139  0.3740
 2536SOL    HW119067   1.018   1.659   5.477  0.4148 -0.4303 -0.5406
 2536SOL    HW219068   0.886   1.618   5.547  0.1652  0.4625  0.5713
 2537SOL     OW19069   3.197   4.014   3.602  0.2495  0.7074  0.6086
 2537SOL    HW119070   3.284   4.051   3.613  0.1076  1.0877  0.4607
 2537SOL    HW219071   3.197   3.943   3.666 -1.4741 -1.8139 -2.1295
 2538SOL     OW19072   0.148   2.570   2.054 -0.2923  0.1743  0.1445
 2538SOL    HW119073   0.083   2.561   2.124  1.1668 -3.4316  1.0715
 2538SOL    HW219074   0.229   2.597   2.097 -0.3702  2.3345 -1.0700
 2539SOL     OW19075   1.222   0.305   1.334  0.0212 -0.2028 -0.5842
 2539SOL    HW119076   1.311   0.340   1.333 -0.2790  0.5444 -1.3977
 2539SOL    HW219077   1.197   0.302   1.241 -0.0032 -1.2004 -0.5409
 2540SOL     OW19078   2.821   1.562  10.354  0.0941 -0.3251 -0.5549
 2540SOL    HW119079   2.785   1.640  10.312  1.5681  0.7008  0.0657
 2540SOL    HW219080   2.864   1.600  10.431  1.2490 -1.4758 -0.6384
 2541SOL     OW19081   1.508   0.177   9.683 -0.2179  0.4261 -0.1486
 2541SOL    HW119082   1.423   0.176   9.726 -0.3052 -0.4123 -0.3550
 2541SOL    HW219083   1.578   0.177   9.749  0.9961  0.5501 -1.4386
 2542SOL     OW19084   1.309   0.308  10.723 -0.1509 -0.3728  0.6457
 2542SOL    HW119085   1.312   0.388  10.671 -2.0325 -0.0921  0.9502
 2542SOL    HW219086   1.356   0.251  10.662 -1.1848  1.8015 -2.1743
 2543SOL     OW19087   1.234   2.154   5.820  0.9249  0.1230 -0.1803
 2543SOL    HW119088   1.249   2.194   5.906 -2.8359  1.6955 -0.2507
 2543SOL    HW219089   1.226   2.236   5.770  1.9788 -1.4303 -2.8828
 2544SOL     OW19090   0.974   2.516   8.235  0.7787 -0.0756  0.1488
 2544SOL    HW119091   0.928   2.455   8.292 -1.2439  0.7879 -0.5737
 2544SOL    HW219092   0.929   2.599   8.247  1.9246  0.3147  1.6526
 2545SOL     OW19093   3.692   2.792  16.139  0.3905  0.2393 -0.4257
 2545SOL    HW119094   3.635   2.762  16.210 -1.1775  1.2257 -1.2663
 2545SOL    HW219095   3.760   2.835  16.191  1.5876  0.2177 -1.9681
 2546SOL     OW19096   2.850   3.407  12.872  0.1561  0.5054  0.5266
 2546SOL    HW119097   2.805   3.325  12.889  2.2227 -0.5819  0.6619
 2546SOL    HW219098   2.814   3.424  12.785 -2.4761 -0.5376  1.4066
 2547SOL     OW19099   1.570   0.476   2.294  0.2535  0.6559  0.2244
 2547SOL    HW119100   1.509   0.406   2.319 -1.1608  1.4508 -1.0376
 2547SOL    HW219101   1.522   0.554   2.268  1.4667  1.3815  0.1404
 2548SOL     OW19102   4.228   1.072  12.575  0.5459 -0.0943  0.0117
 2548SOL    HW119103   4.260   1.044  12.490 -0.2574  0.7054 -0.5590
 2548SOL    HW219104   4.225   1.166  12.558  0.1295 -0.5767 -2.4935
 2549SOL     OW19105   2.016   1.881  10.800 -0.4994 -0.2461  0.3791
 2549SOL    HW119106   2.050   1.805  10.753  0.5511 -0.4341  1.4430
 2549SOL    HW219107   1.993   1.846  10.886 -0.7788  1.2109  0.8930
 2550SOL     OW19108   1.198   1.751   8.686  0.3001  0.5736 -0.4502
 2550SOL    HW119109   1.136   1.694   8.732 -0.1924  0.2502 -1.5314
 2550SOL    HW219110   1.204   1.828   8.743  1.4122 -0.0732  0.2878
 2551SOL     OW19111   0.234   4.472   3.516  0.2166 -0.3571  0.3026
 2551SOL    HW119112   0.277   4.519   3.445  0.2163 -1.0885 -0.1771
 2551SOL    HW219113   0.232   4.387   3.473  1.4392  0.4024 -1.2569
 2552SOL     OW19114   0.223   0.514   1.246 -0.2033 -0.2672  0.9469
 2552SOL    HW119115   0.284   0.443   1.262 -3.1413 -2.6062  1.8247
 2552SOL    HW219116   0.269   0.570   1.183 -0.3131 -0.6411  0.5330
 2553SOL     OW19117   0.448   2.967   3.769  0.3493 -0.1926 -0.5392
 2553SOL    HW119118   0.475   2.949   3.859 -1.3924 -3.5394 -0.6898
 2553SOL    HW219119   0.414   3.056   3.780 -0.9416 -0.4218 -2.5902
 2554SOL     OW19120   3.634   0.243   4.303  0.5888  0.4333  0.8080
 2554SOL    HW119121   3.699   0.259   4.371 -0.2005  1.0480  1.4054
 2554SOL    HW219122   3.551   0.250   4.350 -1.5417 -1.5545 -2.6627
 2555SOL     OW19123   1.339   2.354   8.627  0.6149  0.4560 -0.1593
 2555SOL    HW119124   1.351   2.286   8.561  2.9864 -0.4981  1.2412
 2555SOL    HW219125   1.337   2.294   8.702 -2.6929  1.0869  0.2674
 2556SOL     OW19126   3.958   2.459   2.841  0.4183 -0.1193  0.2347
 2556SOL    HW119127   3.934   2.384   2.895  4.0414  0.3400  2.4488
 2556SOL    HW219128   4.044   2.482   2.876  1.2217  0.4062 -2.0726
 2557SOL     OW19129   2.738   2.484   5.105  0.1618  0.4130 -0.3303
 2557SOL    HW119130   2.653   2.444   5.089  0.4786 -0.2021 -0.4577
 2557SOL    HW219131   2.743   2.567   5.056  2.8665  0.5332  0.1538
 2558SOL     OW19132   4.410   1.305   6.348  0.6399  0.4365  0.1670
 2558SOL    HW119133   4.322   1.272   6.362  0.3966  0.9879 -0.0765
 2558SOL    HW219134   4.396   1.395   6.379 -0.1680  0.1008  0.7504
 2559SOL     OW19135   1.192   3.871  11.961  0.4250  0.2029  0.7114
 2559SOL    HW119136   1.235   3.804  12.014  0.4043  1.5547  2.4442
 2559SOL    HW219137   1.252   3.884  11.887 -0.1485 -0.6741  0.0894
 2560SOL     OW19138   1.108   2.612   7.901  0.1525  0.2355 -0.1740
 2560SOL    HW119139   1.193   2.592   7.862  0.6811  0.3823  0.8941
 2560SOL    HW219140   1.068   2.527   7.917 -0.9378  1.0630  1.5018
 2561SOL     OW19141   0.915   3.841   2.156 -0.2117  0.2661 -0.3533
 2561SOL    HW119142   0.982   3.891   2.109 -1.5221  0.4959 -1.9452
 2561SOL    HW219143   0.835   3.887   2.131  0.1955  0.1000 -1.9799
 2562SOL     OW19144   4.098   3.756   6.199 -0.3608  0.4784  0.0417
 2562SOL    HW119145   4.106   3.681   6.257 -2.1062  1.1468  1.1271
 2562SOL    HW219146   4.176   3.734   6.147 -0.5995 -0.7973  0.2260
 2563SOL     OW19147   2.558   4.507   4.011 -0.1066 -0.4619 -0.1122
 2563SOL    HW119148   2.611   4.466   4.080  0.9938 -0.6993 -1.0947
 2563SOL    HW219149   2.471   4.480   4.041 -0.1479  0.0424  0.2210
 2564SOL     OW19150   1.665   3.000   2.930 -0.2387 -0.3072  0.2789
 2564SOL    HW119151   1.588   3.026   2.980  0.3253  0.6952  0.6221
 2564SOL    HW219152   1.661   2.904   2.934  2.2075 -0.4699 -1.2141
 2565SOL     OW19153   0.664   1.784   2.485 -0.1043 -0.5726  0.0311
 2565SOL    HW119154   0.759   1.781   2.491  0.1739  2.4625 -3.0567
 2565SOL    HW219155   0.640   1.876   2.498 -1.7789 -0.8356 -1.2151
 2566SOL     OW19156   4.716   3.037   2.601  0.0072  0.2922  0.4290
 2566SOL    HW119157   0.064   3.094   2.587 -0.2498  0.1313 -1.6172
 2566SOL    HW219158   0.015   3.003   2.686  1.8933  1.1828  0.2002
 2567SOL     OW19159   2.704   3.250  10.799 -0.1198 -0.8266 -0.0383
 2567SOL    HW119160   2.691   3.287  10.711 -2.7138  0.6899  1.0153
 2567SOL    HW219161   2.798   3.266  10.811 -0.8700  1.6080  2.3703
 2568SOL     OW19162   2.032   2.059   7.050  0.1142 -0.0468  0.3616
 2568SOL    HW119163   2.072   1.977   7.079  2.1367  0.4775 -0.9342
 2568SOL    HW219164   2.084   2.078   6.972  2.7540 -1.8014  1.6739
 2569SOL     OW19165   2.162   1.800   6.655  0.4423 -0.0045 -0.2300
 2569SOL    HW119166   2.248   1.840   6.641  0.2242  0.4180 -0.3448
 2569SOL    HW219167   2.174   1.736   6.725  3.1752 -0.4941 -1.1496
 2570SOL     OW19168   3.113   0.426   1.518 -0.0909 -0.2243  0.7519
 2570SOL    HW119169   3.027   0.457   1.490 -1.1747 -1.3861  2.8270
 2570SOL    HW219170   3.090   0.346   1.566  1.5471 -1.3572 -0.3572
 2571SOL     OW19171   1.404   3.977   5.301 -0.0166  0.4205  0.1318
 2571SOL    HW119172   1.390   3.896   5.350 -4.0498  0.6160 -0.7103
 2571SOL    HW219173   1.474   4.019   5.352 -0.7594  2.2791 -0.4048
 2572SOL     OW19174   3.640   3.014   4.582  0.4386 -0.2931 -0.0161
 2572SOL    HW119175   3.628   3.005   4.676 -3.2665  2.1584 -0.2532
 2572SOL    HW219176   3.658   3.107   4.564 -0.2636 -0.4646 -1.6669
 2573SOL     OW19177   1.547   0.220   7.208 -0.3076  0.1150  0.4407
 2573SOL    HW119178   1.461   0.201   7.245 -0.1846 -4.2660 -1.4889
 2573SOL    HW219179   1.524   0.246   7.119  1.6192 -0.1511 -0.1418
 2574SOL     OW19180   3.299   0.621   7.896  0.4752  0.1335 -0.5565
 2574SOL    HW119181   3.334   0.565   7.965  0.8294  0.7620 -0.2248
 2574SOL    HW219182   3.379   0.641   7.846 -0.9972 -0.4209 -3.1548
 2575SOL     OW19183   0.931   0.050   7.479  0.2094  0.4252 -0.2091
 2575SOL    HW119184   0.864   0.026   7.543 -2.1167 -0.2973 -2.8883
 2575SOL    HW219185   0.993   4.705   7.479  3.3931  3.1228 -0.1438
 2576SOL     OW19186   3.593   3.432   2.840  0.2100  0.4010  0.0294
 2576SOL    HW119187   3.643   3.514   2.839  0.2423  0.3491 -1.7994
 2576SOL    HW219188   3.630   3.381   2.768 -2.2915 -0.4992 -0.6234
 2577SOL     OW19189   2.950   4.453   9.618  0.2929 -0.0450 -0.0790
 2577SOL    HW119190   3.019   4.421   9.560  0.3596  2.1943 -1.2275
 2577SOL    HW219191   2.912   4.516   9.558  0.5275  1.1208  1.0068
 2578SOL     OW19192   2.515   4.120   6.178  0.3238 -0.1679 -0.3908
 2578SOL    HW119193   2.556   4.051   6.127 -2.7616 -2.6703  0.5238
 2578SOL    HW219194   2.429   4.083   6.197  0.5135  0.3842  1.4623
 2579SOL     OW19195   3.290   2.841   7.552 -0.4791 -0.2188 -0.0491
 2579SOL    HW119196   3.198   2.846   7.528 -1.0542 -2.7787  1.6656
 2579SOL    HW219197   3.325   2.835   7.463 -1.3875 -1.0364 -0.3478
 2580SOL     OW19198   3.856   3.471   0.757 -0.5753  0.1556  0.0982
 2580SOL    HW119199   3.775   3.522   0.754 -0.4739  0.3469  0.7686
 2580SOL    HW219200   3.910   3.538   0.799  0.3666 -0.7174  0.2935
 2581SOL     OW19201   2.518   3.978   5.958 -0.4883  0.5730  0.1827
 2581SOL    HW119202   2.584   3.922   5.999 -1.4312 -1.1472 -0.6216
 2581SOL    HW219203   2.513   3.928   5.876 -0.2137  1.9475 -0.6776
 2582SOL     OW19204   3.388   1.439   6.999 -0.0583  0.3181  0.2367
 2582SOL    HW119205   3.475   1.432   6.961 -0.2783  0.0988 -0.2201
 2582SOL    HW219206   3.355   1.350   7.014  1.1439 -0.3180 -0.9416
 2583SOL     OW19207   4.471   0.593   2.159  0.1645 -0.1563  0.5485
 2583SOL    HW119208   4.411   0.636   2.218  1.5721  0.4283  1.5508
 2583SOL    HW219209   4.540   0.580   2.225  1.2254 -0.6198 -0.6405
 2584SOL     OW19210   1.374   4.614   8.404 -0.5894  0.6800  0.3423
 2584SOL    HW119211   1.406   4.696   8.368  0.1901  1.2632  2.3896
 2584SOL    HW219212   1.282   4.637   8.420 -0.4328  0.5637  1.4357
 2585SOL     OW19213   3.204   0.015   4.332  0.0688  0.9345  0.3921
 2585SOL    HW119214   3.137   0.008   4.264 -0.0385  0.6501  0.5286
 2585SOL    HW219215   3.159   0.012   4.416  0.4140 -1.9040  0.4766
 2586SOL     OW19216   1.984   1.239   6.170  0.4710  0.5008  0.4224
 2586SOL    HW119217   1.898   1.230   6.211  1.0301 -1.0146  1.2714
 2586SOL    HW219218   1.984   1.157   6.121  0.3520  0.6313  0.2053
 2587SOL     OW19219   1.591   0.966   0.835 -0.1480 -0.4295 -0.1866
 2587SOL    HW119220   1.515   0.909   0.828 -0.9177  0.6439 -0.6012
 2587SOL    HW219221   1.649   0.937   0.765  3.0563  2.9674  1.0398
 2588SOL     OW19222   2.321   1.550   2.806  0.0412  0.2030 -0.5653
 2588SOL    HW119223   2.311   1.620   2.872 -1.3250 -0.0042 -0.5629
 2588SOL    HW219224   2.269   1.487   2.855  2.2022 -1.2197 -0.0700
 2589SOL     OW19225   1.006   2.876   7.356  0.2137  0.5521  0.0643
 2589SOL    HW119226   1.070   2.940   7.323 -0.3297  2.2162  2.2557
 2589SOL    HW219227   1.067   2.817   7.400 -0.7973  0.5550  1.4552
 2590SOL     OW19228   1.503   0.041   9.396  0.0731 -0.0554 -0.2752
 2590SOL    HW119229   1.548   0.040   9.481  1.5081 -0.7158 -1.0384
 2590SOL    HW219230   1.415   0.008   9.412  0.5062 -0.9386  0.2477
 2591SOL     OW19231   2.232   4.663   5.929 -0.3910  0.1254 -0.2919
 2591SOL    HW119232   2.308   4.698   5.884  0.8958 -1.1602  0.8776
 2591SOL    HW219233   2.242   4.573   5.897  0.1101 -0.5947  1.8784
 2592SOL     OW19234   2.850   4.467   6.691 -0.6815  0.2980  0.0238
 2592SOL    HW119235   2.838   4.532   6.623  0.0850 -1.4842 -1.8045
 2592SOL    HW219236   2.941   4.492   6.707 -0.2710 -0.3723 -1.2978
 2593SOL     OW19237   0.296   1.506  17.088  0.3267 -0.0093 -0.2928
 2593SOL    HW119238   0.281   1.583  17.034 -0.5597  0.5135  0.6972
 2593SOL    HW219239   0.361   1.459  17.035 -1.4608 -2.3878 -0.3833
 2594SOL     OW19240   0.552   3.383  10.787  0.0289  0.5177  0.1470
 2594SOL    HW119241   0.591   3.465  10.757 -0.3238  0.5586 -0.2001
 2594SOL    HW219242   0.511   3.344  10.710  1.5196  0.6164 -0.7019
 2595SOL     OW19243   0.616   4.616   5.727 -0.1808 -0.0567  0.4980
 2595SOL    HW119244   0.554   4.675   5.771 -0.4427  1.1008 -1.4373
 2595SOL    HW219245   0.557   4.600   5.654 -0.7479 -0.9222  1.1456
 2596SOL     OW19246   0.667   1.337   6.704 -0.0598 -0.0265 -0.5910
 2596SOL    HW119247   0.679   1.327   6.798 -1.2081  0.3471 -0.4066
 2596SOL    HW219248   0.732   1.274   6.675  0.0016  0.5288 -1.6670
 2597SOL     OW19249   2.976   0.341   9.700 -0.4903  0.5257  0.0567
 2597SOL    HW119250   2.984   0.435   9.711  1.7684  0.0531  2.6635
 2597SOL    HW219251   3.067   0.321   9.677 -0.6969  1.4131 -1.4874
 2598SOL     OW19252   1.229   2.519   7.644 -0.0743  0.3409  0.2442
 2598SOL    HW119253   1.231   2.429   7.676 -0.3851 -0.0979 -0.9692
 2598SOL    HW219254   1.302   2.565   7.686 -0.8431  0.1492  1.7814
 2599SOL     OW19255   4.354   2.927   6.680  0.1626 -0.1138  0.5952
 2599SOL    HW119256   4.340   2.980   6.759  1.4613  0.0421  0.7190
 2599SOL    HW219257   4.448   2.928   6.663  0.2392 -0.3776  0.9836
 2600SOL     OW19258   2.035   2.040   9.356 -0.0612 -0.1108  1.2743
 2600SOL    HW119259   2.064   2.106   9.293  0.6709 -0.3176  1.3972
 2600SOL    HW219260   2.024   1.963   9.301  0.9326  0.2683  0.5401
 2601SOL     OW19261   0.338   2.560   7.772 -0.2951 -0.2937 -0.3870
 2601SOL    HW119262   0.353   2.648   7.737  1.1352  0.1884  1.4535
 2601SOL    HW219263   0.333   2.517   7.687  0.1257  1.8338 -1.5059
 2602SOL     OW19264   0.535   0.762   5.282 -0.3459 -0.5169 -0.3239
 2602SOL    HW119265   0.581   0.845   5.283  0.2331 -0.8458  0.9588
 2602SOL    HW219266   0.446   0.796   5.282 -0.5203 -0.9679 -0.7449
 2603SOL     OW19267   1.461   1.546   1.832  0.4299  0.2400 -0.0697
 2603SOL    HW119268   1.374   1.555   1.871  0.6883  1.7928  0.1518
 2603SOL    HW219269   1.488   1.462   1.868 -1.6232  0.9907  3.2892
 2604SOL     OW19270   1.294   2.782   7.051 -0.2416 -0.6088  0.2958
 2604SOL    HW119271   1.306   2.706   6.995  1.3717 -1.4797  1.8167
 2604SOL    HW219272   1.200   2.779   7.067 -0.4980 -2.0385 -1.5666
 2605SOL     OW19273   1.656   4.468   9.587 -0.3810 -0.6300 -0.2574
 2605SOL    HW119274   1.608   4.398   9.631  0.2344 -0.9210 -0.0665
 2605SOL    HW219275   1.640   4.436   9.498 -0.4886  0.8963 -0.7955
 2606SOL     OW19276   3.009   1.604   7.313  0.1942 -0.1903  0.4356
 2606SOL    HW119277   3.093   1.581   7.353  0.2053  1.6369  1.4457
 2606SOL    HW219278   2.956   1.619   7.390 -0.5431  2.6032 -0.6266
 2607SOL     OW19279   1.658   3.908   9.156  0.6118 -0.5222 -0.5086
 2607SOL    HW119280   1.658   3.965   9.079 -3.2744 -0.4784 -0.4722
 2607SOL    HW219281   1.744   3.871   9.135  1.8987  2.1150  0.1642
 2608SOL     OW19282   3.952   1.966   5.910 -0.5822  0.2575  0.1399
 2608SOL    HW119283   4.019   2.024   5.946  0.3453 -0.1823 -0.8932
 2608SOL    HW219284   3.998   1.890   5.872  1.2249  2.2994 -1.7718
 2609SOL     OW19285   3.340   3.790   8.616  0.5669  0.4457  0.2957
 2609SOL    HW119286   3.347   3.862   8.679  1.8407  0.4718  0.1136
 2609SOL    HW219287   3.403   3.724   8.644 -0.0279 -1.3733 -2.6363
 2610SOL     OW19288   2.901   0.988   4.592  0.1577 -0.2324 -0.6124
 2610SOL    HW119289   2.958   0.981   4.669 -1.3248  0.0373  0.5143
 2610SOL    HW219290   2.855   1.070   4.605  1.2668  0.1350  1.0059
 2611SOL     OW19291   2.889   1.075  15.419  0.2880  0.8050 -0.4206
 2611SOL    HW119292   2.813   1.129  15.394  0.1918  0.6713 -0.4185
 2611SOL    HW219293   2.925   1.126  15.491 -0.2414 -0.1134  0.4915
 2612SOL     OW19294   0.537   2.011   5.499 -0.1172  0.0251 -0.1445
 2612SOL    HW119295   0.556   1.924   5.466 -1.0054 -0.2773  0.1409
 2612SOL    HW219296   0.497   1.989   5.583  1.3879 -2.6904 -0.1580
 2613SOL     OW19297   2.196   2.994   7.294 -0.4647  0.1104  0.2469
 2613SOL    HW119298   2.166   2.903   7.296 -0.4414  0.1455  2.6280
 2613SOL    HW219299   2.274   2.977   7.241  0.7702  3.7835  0.9240
 2614SOL     OW19300   1.901   4.160   7.240 -0.0965  0.3490 -0.0119
 2614SOL    HW119301   1.924   4.080   7.287 -1.9355  0.1163  0.4958
 2614SOL    HW219302   1.852   4.209   7.306  1.8075  1.0325  0.8837
 2615SOL     OW19303   0.489   3.410   5.620 -1.0533 -0.0551 -0.1981
 2615SOL    HW119304   0.465   3.502   5.633  1.3089  0.4447  0.7096
 2615SOL    HW219305   0.399   3.378   5.625 -1.5320  1.3217  0.0185
 2616SOL     OW19306   2.604   0.939  17.037 -0.5808  0.0881  0.5145
 2616SOL    HW119307   2.601   0.932  16.941 -0.2297  1.1276  0.4273
 2616SOL    HW219308   2.574   0.851  17.061 -0.2311 -0.2384 -0.2332
 2617SOL     OW19309   0.333   1.690   5.824 -0.3872  0.1756  0.3363
 2617SOL    HW119310   0.278   1.760   5.859 -0.8358 -0.4854  0.9554
 2617SOL    HW219311   0.282   1.621   5.867  1.3052 -1.4792 -0.2771
 2618SOL     OW19312   4.320   1.572  13.055 -0.5267  0.0095  0.5722
 2618SOL    HW119313   4.273   1.655  13.060  0.0257  0.3835 -0.5954
 2618SOL    HW219314   4.410   1.592  13.082 -0.4564 -3.3792  2.8883
 2619SOL     OW19315   1.925   1.849  11.531 -0.8666  0.4311 -0.3994
 2619SOL    HW119316   1.896   1.792  11.602  3.2902 -2.1169 -0.7872
 2619SOL    HW219317   2.019   1.851  11.548 -1.0373  0.2439  0.5211
 2620SOL     OW19318   2.469   2.252   4.482  0.4681 -0.2007  0.4005
 2620SOL    HW119319   2.442   2.292   4.399  1.5002 -3.1811 -1.3956
 2620SOL    HW219320   2.539   2.308   4.516  1.0766 -1.3395  1.0284
 2621SOL     OW19321   3.155   2.175   8.997 -0.5463 -0.5757 -0.0945
 2621SOL    HW119322   3.188   2.262   9.021  1.2846 -1.3611  0.2481
 2621SOL    HW219323   3.166   2.129   9.080 -0.6001 -0.6233 -0.1142
 2622SOL     OW19324   1.392   0.091   8.662 -0.3459  0.1248 -0.0517
 2622SOL    HW119325   1.419   0.109   8.571  2.4422  0.2736  0.8096
 2622SOL    HW219326   1.302   0.123   8.650 -1.3390 -2.5703  0.0669
 2623SOL     OW19327   0.950   2.413   7.964 -0.0359  0.1119 -0.5673
 2623SOL    HW119328   0.860   2.431   7.935  0.5682 -0.9470 -3.0369
 2623SOL    HW219329   0.948   2.439   8.056  1.4691 -0.6108 -0.3305
 2624SOL     OW19330   3.761   2.513   8.713 -0.1200  0.1777 -0.0862
 2624SOL    HW119331   3.849   2.550   8.723 -0.3926  1.0376 -0.8420
 2624SOL    HW219332   3.772   2.475   8.626  1.1560 -0.8169  0.5082
 2625SOL     OW19333   0.717   0.549   1.582 -0.1018  0.4424 -0.1348
 2625SOL    HW119334   0.622   0.540   1.589  0.1218 -1.9673 -0.0375
 2625SOL    HW219335   0.737   0.624   1.638  0.0022  0.0825  0.3106
 2626SOL     OW19336   3.760   2.214   8.737 -0.1677  0.1009 -0.1462
 2626SOL    HW119337   3.760   2.308   8.754  0.7667  0.1526 -0.3901
 2626SOL    HW219338   3.670   2.190   8.759  0.1222 -2.1022 -1.3029
 2627SOL     OW19339   2.639   3.802   2.339 -0.0287  0.2377 -0.3547
 2627SOL    HW119340   2.701   3.871   2.365 -0.0219  0.4298 -0.8731
 2627SOL    HW219341   2.704   3.746   2.298 -0.6796 -0.5085 -0.3770
 2628SOL     OW19342   0.408   2.091  15.417 -0.4545  0.5449 -0.3977
 2628SOL    HW119343   0.418   2.166  15.476  2.1155 -0.9119  1.0486
 2628SOL    HW219344   0.366   2.141  15.347  0.5359  0.0167 -1.3706
 2629SOL     OW19345   1.534   4.679  11.270 -0.6523  0.4307 -0.0736
 2629SOL    HW119346   1.618   4.722  11.253 -0.0211 -0.7989 -0.0648
 2629SOL    HW219347   1.570   4.610  11.326  0.5535  1.4227  0.3626
 2630SOL     OW19348   3.175   3.729   7.849  0.0874  0.2206  0.1109
 2630SOL    HW119349   3.216   3.739   7.935  3.8121  1.3812 -1.7679
 2630SOL    HW219350   3.171   3.822   7.826  1.5731  0.1276 -0.5444
 2631SOL     OW19351   1.689   1.337   6.570 -0.1448 -0.1736 -0.1352
 2631SOL    HW119352   1.733   1.262   6.532 -1.8144 -0.4244 -1.5775
 2631SOL    HW219353   1.688   1.311   6.662 -0.0948  1.0811  0.2245
 2632SOL     OW19354   0.741   4.041  11.851 -0.0021 -0.0366 -0.4077
 2632SOL    HW119355   0.781   3.996  11.777  0.1870  0.1271 -0.4053
 2632SOL    HW219356   0.821   4.058  11.899 -0.7949  1.4854  0.3783
 2633SOL     OW19357   3.988   0.760   8.832 -0.2875 -0.6832 -0.5973
 2633SOL    HW119358   3.909   0.811   8.849  0.3820  0.7285 -1.6445
 2633SOL    HW219359   4.046   0.829   8.798 -1.3742  0.6333  0.2169
 2634SOL     OW19360   0.901   1.816  12.502 -0.1438 -0.3065  0.2494
 2634SOL    HW119361   0.943   1.730  12.499 -0.2077 -0.3978  2.1399
 2634SOL    HW219362   0.963   1.868  12.451 -0.5108 -1.3685 -1.3108
 2635SOL     OW19363   2.664   2.408   3.142  0.2422 -0.1475 -0.3546
 2635SOL    HW119364   2.597   2.456   3.094  2.3125 -0.9543 -3.9780
 2635SOL    HW219365   2.709   2.485   3.177  0.4204 -0.3022 -0.2423
 2636SOL     OW19366   3.833   3.638   4.110 -0.4874  0.0181 -0.4341
 2636SOL    HW119367   3.928   3.646   4.098 -0.6787  0.3380 -1.7610
 2636SOL    HW219368   3.824   3.698   4.183 -0.4117  3.3971 -3.2073
 2637SOL     OW19369   4.188   2.577   5.859  0.4958 -0.1181 -0.2847
 2637SOL    HW119370   4.125   2.546   5.923  1.2540 -1.5588 -0.2352
 2637SOL    HW219371   4.137   2.597   5.780  0.5306 -2.2901 -0.8804
 2638SOL     OW19372   4.317   4.584   6.642  0.5702  0.1484 -0.4069
 2638SOL    HW119373   4.281   4.595   6.731 -0.9151  0.6400 -1.0616
 2638SOL    HW219374   4.241   4.554   6.591  0.3829 -0.6754  0.3378
 2639SOL     OW19375   4.352   0.177   7.467  0.0175 -0.2009 -0.1368
 2639SOL    HW119376   4.354   0.223   7.384 -0.3442  0.3879  0.1809
 2639SOL    HW219377   4.393   0.093   7.448 -0.5800 -0.1948 -1.4318
 2640SOL     OW19378   2.187   1.553   5.055 -0.0780  0.2277  0.4071
 2640SOL    HW119379   2.242   1.613   5.005  1.0210 -0.7348  0.4693
 2640SOL    HW219380   2.211   1.581   5.143 -1.2031 -0.1144  0.8246
 2641SOL     OW19381   2.664   3.086   3.895 -0.0306  0.3596 -0.2162
 2641SOL    HW119382   2.569   3.092   3.901 -0.3114 -2.9141 -1.3558
 2641SOL    HW219383   2.670   3.001   3.852 -3.1409 -0.4411  0.9336
 2642SOL     OW19384   3.506   2.225   3.874 -0.6328 -0.7366 -0.0644
 2642SOL    HW119385   3.574   2.176   3.828 -1.8512 -0.6871 -1.9210
 2642SOL    HW219386   3.557   2.291   3.920 -1.5403 -0.3520  0.4058
 2643SOL     OW19387   3.546   2.661   6.957 -0.5363 -0.2715  0.4502
 2643SOL    HW119388   3.483   2.599   6.921  0.9487 -1.5400  0.0655
 2643SOL    HW219389   3.493   2.741   6.959 -1.5496 -0.8511 -3.1698
 2644SOL     OW19390   2.157   4.330  15.596 -0.3819 -0.4022  1.0583
 2644SOL    HW119391   2.241   4.289  15.615 -0.8695 -2.7002 -1.6888
 2644SOL    HW219392   2.147   4.335  15.501  1.8977  0.7694  0.9100
 2645SOL     OW19393   3.858   3.060  17.340  0.2097  0.4695 -0.0797
 2645SOL    HW119394   3.922   3.054  17.269 -1.2941 -1.0645 -1.3054
 2645SOL    HW219395   3.843   3.154  17.339 -1.1676  0.2444 -0.7103
 2646SOL     OW19396   1.529   4.020   3.222 -0.3594  0.2759  0.3884
 2646SOL    HW119397   1.614   4.009   3.179 -0.5528 -2.2534  0.6921
 2646SOL    HW219398   1.483   3.955   3.169 -2.3154  3.0836 -1.4305
 2647SOL     OW19399   3.918   1.688   4.099 -0.4140 -0.0247  0.2531
 2647SOL    HW119400   3.828   1.693   4.067 -0.9465  0.3110  1.8132
 2647SOL    HW219401   3.955   1.615   4.049 -2.5486  0.9406 -2.7581
 2648SOL     OW19402   3.470   1.127   3.423 -0.5312  0.6140  0.6430
 2648SOL    HW119403   3.442   1.075   3.499  2.5983 -0.4981  1.0389
 2648SOL    HW219404   3.516   1.192   3.476 -0.2748  2.0595 -1.3817
 2649SOL     OW19405   3.850   4.586   1.878 -0.4631  0.0773  0.8809
 2649SOL    HW119406   3.835   4.492   1.888  1.2121 -0.2767  0.0954
 2649SOL    HW219407   3.838   4.589   1.783 -4.0097 -1.1668  1.2815
 2650SOL     OW19408   3.043   3.042   8.308  0.3492  0.3424 -0.4547
 2650SOL    HW119409   2.968   3.098   8.288 -0.1126  0.0753  0.5153
 2650SOL    HW219410   3.100   3.094   8.365 -1.0089  0.8797  0.4230
 2651SOL     OW19411   3.498   1.583  16.696  0.4288  0.6985  0.1778
 2651SOL    HW119412   3.568   1.529  16.734  1.6878  1.7468 -0.6649
 2651SOL    HW219413   3.534   1.672  16.703 -0.4917  1.0375  0.6300
 2652SOL     OW19414   3.649   3.901   4.775 -0.1861 -0.0461 -0.3447
 2652SOL    HW119415   3.557   3.883   4.793 -0.0358  0.0070  0.4811
 2652SOL    HW219416   3.679   3.915   4.864 -0.5603  1.8486 -0.5329
 2653SOL     OW19417   3.380   3.136   9.444 -0.0269  0.1654 -0.2337
 2653SOL    HW119418   3.291   3.126   9.409  0.1278 -0.8075 -0.3476
 2653SOL    HW219419   3.414   3.047   9.450  0.0368  0.2124  0.1062
 2654SOL     OW19420   1.229   0.370   8.460  0.1887  0.3622 -0.0647
 2654SOL    HW119421   1.241   0.340   8.550 -2.5079  2.7883  1.0761
 2654SOL    HW219422   1.148   0.325   8.435  0.6211  0.8159 -2.2646
 2655SOL     OW19423   4.270   3.165   7.580 -0.0805 -0.1568 -0.1424
 2655SOL    HW119424   4.310   3.078   7.582 -3.2171 -1.5260  1.9876
 2655SOL    HW219425   4.181   3.131   7.587  0.8430 -2.6270 -0.2337
 2656SOL     OW19426   0.288   3.445   1.105  0.8256 -0.1262 -0.3956
 2656SOL    HW119427   0.306   3.481   1.192  2.1765 -1.1927 -0.2446
 2656SOL    HW219428   0.197   3.471   1.090  0.4122 -2.1227 -1.4033
 2657SOL     OW19429   4.635   2.094  15.447 -0.3310  0.5203 -0.3925
 2657SOL    HW119430   4.586   2.012  15.453 -2.3384  1.7955  0.9530
 2657SOL    HW219431   4.601   2.125  15.363  0.9762 -2.6340 -2.0635
 2658SOL     OW19432   1.640   2.571   3.102 -0.0558 -0.4333  0.3645
 2658SOL    HW119433   1.717   2.597   3.153  0.9912 -0.9138 -0.9403
 2658SOL    HW219434   1.603   2.511   3.166 -0.0747  0.1452  0.9038
 2659SOL     OW19435   3.089   1.668   3.579 -0.3692  0.5880  0.0289
 2659SOL    HW119436   3.131   1.753   3.593  0.2739  0.2883 -0.0666
 2659SOL    HW219437   3.038   1.694   3.503 -1.1092 -2.5554 -0.5303
 2660SOL     OW19438   0.721   1.301   5.393  0.0389 -0.0848 -0.0727
 2660SOL    HW119439   0.658   1.372   5.407 -1.1717 -1.3304  0.7702
 2660SOL    HW219440   0.775   1.338   5.323 -0.4764  2.3416  0.7864
 2661SOL     OW19441   3.160   1.767   1.424 -0.1078 -0.5239  0.7193
 2661SOL    HW119442   3.150   1.741   1.332 -0.3467  0.8270  0.3725
 2661SOL    HW219443   3.128   1.697   1.482 -0.6102 -1.7258 -0.9843
 2662SOL     OW19444   1.788   3.538   8.427 -0.4925 -0.3862 -0.1418
 2662SOL    HW119445   1.784   3.463   8.486 -0.8498  0.7851  1.3111
 2662SOL    HW219446   1.883   3.549   8.419 -0.5349  0.9543  1.2132
 2663SOL     OW19447   2.615   2.414  11.003  0.1494 -0.2748  0.6788
 2663SOL    HW119448   2.682   2.483  11.003  0.2839 -0.3924 -0.9667
 2663SOL    HW219449   2.544   2.451  11.056  1.4042  2.9879  0.0496
 2664SOL     OW19450   2.811   2.512   4.017 -0.5784  0.4817  1.0374
 2664SOL    HW119451   2.765   2.595   4.006  0.7116  1.3877  2.5462
 2664SOL    HW219452   2.884   2.528   3.958  0.1615  1.2999  2.1822
 2665SOL     OW19453   3.990   0.013  16.810 -0.5565  0.3163 -0.2142
 2665SOL    HW119454   3.907   0.038  16.850 -0.2869 -0.0327  0.5515
 2665SOL    HW219455   3.957   4.663  16.764  0.6784 -0.7227  0.6472
 2666SOL     OW19456   0.490   3.016  16.747  0.2130 -0.1510  0.6368
 2666SOL    HW119457   0.401   3.049  16.731  1.2944  2.4968  0.1445
 2666SOL    HW219458   0.470   2.957  16.820  1.2528  0.1062  1.1275
 2667SOL     OW19459   3.602   0.841   0.693  0.4688 -0.1926  0.0683
 2667SOL    HW119460   3.514   0.804   0.700  0.9672 -1.2768  0.5899
 2667SOL    HW219461   3.658   0.774   0.732  1.5303 -0.0075 -1.1355
 2668SOL     OW19462   4.242   4.098   5.017  0.0463  0.5394  0.1236
 2668SOL    HW119463   4.185   4.068   4.947 -0.2851 -1.1025  1.1145
 2668SOL    HW219464   4.323   4.053   4.995  0.0470  0.2817  0.6411
 2669SOL     OW19465   2.721   1.952  14.031 -0.0035 -0.0269  0.0974
 2669SOL    HW119466   2.666   1.925  14.104 -0.2963  2.2796  0.7505
 2669SOL    HW219467   2.708   1.868  13.987 -0.1617  0.1811 -0.2526
 2670SOL     OW19468   2.442   3.844   2.141 -0.2718 -0.0739  0.2560
 2670SOL    HW119469   2.507   3.834   2.211 -1.4749 -1.2793  1.2115
 2670SOL    HW219470   2.364   3.839   2.197 -1.0096 -2.2502 -0.9441
 2671SOL     OW19471   1.346   4.329   4.346 -0.3238 -0.5853 -0.1256
 2671SOL    HW119472   1.434   4.295   4.333 -1.0667 -2.0051 -1.4705
 2671SOL    HW219473   1.339   4.337   4.441 -0.8213  0.0083 -0.2108
 2672SOL     OW19474   0.429   2.119   0.826  0.5243  0.4640 -0.0237
 2672SOL    HW119475   0.337   2.116   0.854  1.5765 -0.3869  3.4199
 2672SOL    HW219476   0.465   2.135   0.914 -0.3220  0.7247  0.2787
 2673SOL     OW19477   3.326   3.352   4.397 -0.7650 -0.9653  0.1927
 2673SOL    HW119478   3.386   3.339   4.325  0.1191 -0.0726  0.7723
 2673SOL    HW219479   3.246   3.352   4.345 -1.1593 -0.3811  0.7864
 2674SOL     OW19480   1.815   2.987   6.042 -0.3746 -0.3426  0.2564
 2674SOL    HW119481   1.884   2.973   6.106 -0.4705  0.4576  0.5332
 2674SOL    HW219482   1.857   3.047   5.981  0.2988 -0.9280  0.1436
 2675SOL     OW19483   0.764   3.106   6.771  0.4836 -0.3416 -0.4572
 2675SOL    HW119484   0.836   3.139   6.826  0.0500 -0.0652 -0.0609
 2675SOL    HW219485   0.704   3.179   6.783  0.0160 -0.3129 -2.8816
 2676SOL     OW19486   1.167   0.314   1.061 -0.4161 -0.4613 -0.3130
 2676SOL    HW119487   1.197   0.372   0.991  1.2260 -0.0880  0.7222
 2676SOL    HW219488   1.074   0.334   1.051 -0.7044 -0.4000  2.4931
 2677SOL     OW19489   0.843   3.523   1.974 -0.3183  0.2853  0.1190
 2677SOL    HW119490   0.876   3.434   1.990 -1.5340 -0.0317  0.8605
 2677SOL    HW219491   0.793   3.537   2.055  0.8680  0.1525  0.8716
 2678SOL     OW19492   4.391   0.090   8.852 -0.9619 -0.1817 -0.1062
 2678SOL    HW119493   4.454   0.127   8.790  1.0557 -0.1939  1.9646
 2678SOL    HW219494   4.437   0.007   8.865  0.2704  0.5853  0.4364
 2679SOL     OW19495   4.386   4.529  10.801  0.0933  0.0287 -0.4151
 2679SOL    HW119496   4.457   4.563  10.856  0.7120  0.9580 -1.7920
 2679SOL    HW219497   4.424   4.448  10.766 -1.6518 -0.9286 -0.0610
 2680SOL     OW19498   1.640   2.382   4.293 -0.5918 -0.4786  0.3900
 2680SOL    HW119499   1.682   2.335   4.364  2.9055 -0.5365 -1.7047
 2680SOL    HW219500   1.720   2.406   4.246 -1.4916  1.7877  0.0314
 2681SOL     OW19501   3.543   1.337   6.294  0.6051  0.0946  0.3623
 2681SOL    HW119502   3.630   1.363   6.263  0.9220 -1.1743  0.1774
 2681SOL    HW219503   3.510   1.286   6.219 -0.7937 -0.8644  1.6245
 2682SOL     OW19504   1.855   2.870  15.537  0.2959  0.0359 -0.4275
 2682SOL    HW119505   1.839   2.938  15.470 -0.4395 -1.7490 -2.0597
 2682SOL    HW219506   1.906   2.907  15.609  0.5756  0.0686 -0.6387
 2683SOL     OW19507   1.689   2.522  15.466 -0.5875 -0.5384  0.3392
 2683SOL    HW119508   1.637   2.602  15.464 -0.7085 -0.6942 -1.8341
 2683SOL    HW219509   1.665   2.502  15.557 -0.2948 -1.9531  0.1080
 2684SOL     OW19510   3.746   4.593   7.011  0.5717 -0.7917 -0.4485
 2684SOL    HW119511   3.739   4.520   6.949  1.6444 -0.1157 -1.3804
 2684SOL    HW219512   3.692   4.568   7.086  0.3892 -1.9519 -0.9722
 2685SOL     OW19513   2.031   1.738   3.457 -0.2761 -0.4242  0.1767
 2685SOL    HW119514   2.075   1.823   3.463  0.5118 -0.8312  0.2213
 2685SOL    HW219515   1.949   1.764   3.416 -1.0494 -0.3454  1.7666
 2686SOL     OW19516   0.399   1.291   0.387  0.7474 -0.2167  0.5013
 2686SOL    HW119517   0.342   1.312   0.461 -0.1138 -0.8498  0.0104
 2686SOL    HW219518   0.469   1.352   0.411  0.5284  0.2085  0.0553
 2687SOL     OW19519   2.545   1.397   5.183 -0.0258  0.2436 -0.0379
 2687SOL    HW119520   2.550   1.311   5.141  1.0941  0.3923 -0.2164
 2687SOL    HW219521   2.565   1.459   5.112  0.8503 -0.6323 -0.5463
 2688SOL     OW19522   3.721   1.858   3.309 -0.3068 -0.7927  1.0413
 2688SOL    HW119523   3.725   1.822   3.397 -0.3435 -0.5675  1.1369
 2688SOL    HW219524   3.786   1.799   3.271  0.9126 -0.1094  2.0426
 2689SOL     OW19525   4.469   2.057   6.742 -0.2461 -0.3640  0.1235
 2689SOL    HW119526   4.417   2.137   6.751 -0.2491 -0.2957 -0.5197
 2689SOL    HW219527   4.478   2.074   6.648 -4.9203 -0.3721 -0.3468
 2690SOL     OW19528   0.245   1.005  11.149  0.5478 -0.4121 -0.4325
 2690SOL    HW119529   0.294   1.084  11.124  1.1761 -0.5155  0.4819
 2690SOL    HW219530   0.167   1.001  11.094 -0.5616  1.7943  0.9408
 2691SOL     OW19531   0.396   1.064   6.210  0.1204 -0.0432  0.4768
 2691SOL    HW119532   0.412   0.970   6.206  0.9297  0.0492  1.3813
 2691SOL    HW219533   0.440   1.075   6.294  0.8250  0.4395  0.0401
 2692SOL     OW19534   2.627   0.752   1.649  0.5934 -0.2431  0.0744
 2692SOL    HW119535   2.563   0.691   1.612  1.2317 -0.5558 -0.5282
 2692SOL    HW219536   2.672   0.780   1.569 -1.0826  2.0772 -0.0722
 2693SOL     OW19537   1.520   1.775   7.230  0.0601 -0.0970  0.4453
 2693SOL    HW119538   1.518   1.711   7.301  1.5804 -1.1053 -0.4321
 2693SOL    HW219539   1.609   1.786   7.196  0.0405  0.7959  0.6691
 2694SOL     OW19540   1.616   3.118   7.944 -0.0788 -0.7417 -0.3530
 2694SOL    HW119541   1.521   3.106   7.940 -0.1441 -0.4620  0.3042
 2694SOL    HW219542   1.631   3.077   7.859 -2.4758  1.2388 -1.7150
 2695SOL     OW19543   1.104   4.249   4.959 -0.0276 -0.4504  0.0776
 2695SOL    HW119544   1.130   4.165   4.920 -1.2031 -1.3295  1.1683
 2695SOL    HW219545   1.190   4.290   4.962  0.4063 -1.2170 -2.3012
 2696SOL     OW19546   4.707   4.321   2.845  0.1610 -0.0443  0.0441
 2696SOL    HW119547   0.011   4.412   2.845  1.2405 -0.4220  0.2994
 2696SOL    HW219548   4.612   4.333   2.844  0.0731 -0.9538 -1.9144
 2697SOL     OW19549   1.017   1.441   0.304  0.0550 -0.0976 -0.1839
 2697SOL    HW119550   1.049   1.433   0.214 -0.3669  1.0542 -0.4273
 2697SOL    HW219551   1.026   1.536   0.312  2.1382 -0.4169  1.4336
 2698SOL     OW19552   1.550   0.886   5.149  0.0499  0.1762  0.2854
 2698SOL    HW119553   1.644   0.868   5.153  0.5198  2.1285 -1.7315
 2698SOL    HW219554   1.528   0.853   5.062  0.6900  0.6039 -0.0363
 2699SOL     OW19555   4.375   3.513   7.101 -0.0995  0.2154 -0.7661
 2699SOL    HW119556   4.409   3.424   7.112 -0.0297  0.4825  1.2697
 2699SOL    HW219557   4.301   3.513   7.163  0.7083 -1.7670  0.1961
 2700SOL     OW19558   4.694   0.265   9.362 -0.2782  0.0667  0.0788
 2700SOL    HW119559   0.029   0.232   9.426 -0.5186 -1.9462 -0.7257
 2700SOL    HW219560   4.717   0.358   9.361  1.5973 -0.3806  0.1274
 2701SOL     OW19561   1.465   4.049  11.978  0.2068  0.0494  0.5489
 2701SOL    HW119562   1.460   4.117  11.911 -0.3151 -0.8536 -0.3294
 2701SOL    HW219563   1.444   3.971  11.927  1.6619  1.5363 -2.3535
 2702SOL     OW19564   4.392   0.751  15.517  0.1898  0.3272  0.6336
 2702SOL    HW119565   4.454   0.786  15.581 -0.0860 -1.6236  1.9606
 2702SOL    HW219566   4.335   0.822  15.491  0.4789  0.8407  1.4070
 2703SOL     OW19567   0.552   2.201  12.649  0.2056 -0.1712 -0.1044
 2703SOL    HW119568   0.457   2.204  12.662  0.2399  1.0770 -0.1478
 2703SOL    HW219569   0.576   2.114  12.681 -2.7140  0.2374  3.2486
 2704SOL     OW19570   1.550   1.179   4.397 -0.5905  0.4290  0.1084
 2704SOL    HW119571   1.493   1.256   4.394  0.7368  1.4330  0.6930
 2704SOL    HW219572   1.519   1.145   4.313  1.6366  0.5360 -0.7435
 2705SOL     OW19573   2.377   0.501   2.321 -0.2799 -0.0600  0.5227
 2705SOL    HW119574   2.317   0.429   2.301 -1.5740  0.8505  1.1419
 2705SOL    HW219575   2.425   0.452   2.388  1.6344  1.4223  0.2362
 2706SOL     OW19576   2.829   2.608  10.023 -0.2967  0.6116 -0.1021
 2706SOL    HW119577   2.800   2.623  10.113 -1.1150 -0.6953 -0.1416
 2706SOL    HW219578   2.924   2.596  10.031 -0.4646 -0.7172 -0.1201
 2707SOL     OW19579   4.437   0.945   6.253  0.0813 -0.3799  0.4212
 2707SOL    HW119580   4.451   1.026   6.303  0.5075 -0.3991  0.3254
 2707SOL    HW219581   4.344   0.939   6.276  0.1220 -0.8038  0.4838
 2708SOL     OW19582   2.140   0.904  17.651  0.3084 -0.0232 -0.7032
 2708SOL    HW119583   2.170   0.964  17.583  0.8643 -0.8741 -1.2085
 2708SOL    HW219584   2.057   0.943  17.680  0.3372 -0.0310 -0.6114
 2709SOL     OW19585   1.993   2.827   4.246  0.5574  0.1145 -0.0639
 2709SOL    HW119586   1.955   2.884   4.179 -1.5424 -0.8736  0.2567
 2709SOL    HW219587   1.966   2.879   4.322 -3.1951  2.6554 -3.1416
 2710SOL     OW19588   1.387   0.467  12.850  0.1446  0.2159 -0.3220
 2710SOL    HW119589   1.423   0.401  12.909  3.0699  1.4051 -0.8133
 2710SOL    HW219590   1.458   0.530  12.858 -1.2531  1.9177 -1.4924
 2711SOL     OW19591   1.625   2.981   0.598  0.9742  0.6116 -0.1328
 2711SOL    HW119592   1.619   2.891   0.629  0.2487  0.2639 -1.3294
 2711SOL    HW219593   1.559   2.986   0.530  1.5010  0.2012 -0.6714
 2712SOL     OW19594   4.134   0.643   6.775  0.1576 -0.6054 -0.4211
 2712SOL    HW119595   4.186   0.702   6.829 -1.7985 -0.1689  1.0128
 2712SOL    HW219596   4.085   0.700   6.716  3.5515  2.0934 -0.6202
 2713SOL     OW19597   3.032   0.464   3.129  0.0948 -0.0100 -0.0800
 2713SOL    HW119598   3.106   0.446   3.188 -0.4631 -0.7102  0.4067
 2713SOL    HW219599   3.064   0.536   3.076  1.3054  0.5067  1.3584
 2714SOL     OW19600   2.270   3.749   6.143 -0.3152 -0.0474  0.0745
 2714SOL    HW119601   2.197   3.780   6.196 -0.7179 -0.6433 -0.1406
 2714SOL    HW219602   2.267   3.818   6.077 -2.5276 -0.9326 -0.7517
 2715SOL     OW19603   0.430   1.756   7.797 -0.1465 -0.3587 -0.2809
 2715SOL    HW119604   0.419   1.811   7.719 -0.9890 -1.2797 -0.8180
 2715SOL    HW219605   0.458   1.819   7.863 -0.1082  0.0629 -0.6975
 2716SOL     OW19606   2.597   1.656   6.705 -0.1394  0.3695 -0.1786
 2716SOL    HW119607   2.616   1.745   6.677 -0.2853  1.0112  1.7883
 2716SOL    HW219608   2.671   1.607   6.667  1.3567  1.4041  1.4026
 2717SOL     OW19609   0.682   4.694   3.608  0.8259  0.1041 -0.1813
 2717SOL    HW119610   0.632   4.613   3.613 -0.6966  0.8448 -3.9130
 2717SOL    HW219611   0.674   4.725   3.518 -0.6389  1.3329  0.3801
 2718SOL     OW19612   3.626   4.688   5.306 -0.0058 -0.3145  0.1646
 2718SOL    HW119613   3.580   0.044   5.306  0.7044  0.0744  0.7453
 2718SOL    HW219614   3.551   4.632   5.324 -1.3328  1.8504  1.3640
 2719SOL     OW19615   1.376   0.373   7.486 -0.5496  0.2441 -0.4233
 2719SOL    HW119616   1.318   0.323   7.428  0.2640  2.8577 -3.5197
 2719SOL    HW219617   1.325   0.452   7.504  0.2112  0.4378  0.8402
 2720SOL     OW19618   2.393   3.455  14.048  0.0712  0.0804  0.1928
 2720SOL    HW119619   2.474   3.413  14.020 -0.7025 -1.0303 -0.3776
 2720SOL    HW219620   2.342   3.461  13.968 -1.6869  0.1705  1.3198
 2721SOL     OW19621   3.062   3.627   9.818  0.3733  0.3644  0.0285
 2721SOL    HW119622   3.152   3.613   9.790  0.1992  0.7055 -0.6792
 2721SOL    HW219623   3.063   3.709   9.868 -1.4397  0.8977 -0.7916
 2722SOL     OW19624   2.095   2.712   6.873  0.6540 -0.1694  0.1907
 2722SOL    HW119625   2.142   2.698   6.791 -0.6934  0.6250 -0.7224
 2722SOL    HW219626   2.095   2.806   6.889  0.9942 -0.4310  1.8142
 2723SOL     OW19627   1.640   0.794  16.634 -0.2899  0.0621 -0.0176
 2723SOL    HW119628   1.562   0.838  16.601 -0.6866 -1.2390 -0.8437
 2723SOL    HW219629   1.620   0.795  16.727  0.6957 -0.8846  0.2081
 2724SOL     OW19630   0.232   3.046   8.243 -0.3149  0.2625 -0.9250
 2724SOL    HW119631   0.326   3.064   8.246 -0.2930  0.0843 -0.5514
 2724SOL    HW219632   0.192   3.130   8.265  0.6224 -0.2841  2.8531
 2725SOL     OW19633   2.000   2.527   5.453  0.5786  0.3172 -0.0568
 2725SOL    HW119634   1.946   2.532   5.374 -1.5857  1.6796  1.4940
 2725SOL    HW219635   2.077   2.479   5.423  1.4008  1.7381 -0.2449
 2726SOL     OW19636   2.051   1.832   7.778 -0.1614 -0.2313  0.0519
 2726SOL    HW119637   2.090   1.809   7.694  2.5721 -0.7839  1.4618
 2726SOL    HW219638   2.069   1.756   7.834  0.6489 -0.4444 -0.4988
 2727SOL     OW19639   4.297   2.555   3.557  0.1419  0.6399 -0.3060
 2727SOL    HW119640   4.204   2.563   3.535  0.2402  1.3302 -0.4838
 2727SOL    HW219641   4.331   2.555   3.467  0.7239  2.4935 -0.0835
 2728SOL     OW19642   3.031   3.466   7.550 -0.4888  0.1173  0.2122
 2728SOL    HW119643   3.041   3.372   7.564  1.2722  0.4045  0.8425
 2728SOL    HW219644   2.968   3.482   7.620 -1.2062 -1.9323  0.0367
 2729SOL     OW19645   4.480   2.734   7.186 -0.4834  0.1720  0.2219
 2729SOL    HW119646   4.521   2.660   7.141  0.9442  1.5080 -0.6956
 2729SOL    HW219647   4.456   2.783   7.108 -2.6263  0.3029  0.9515
 2730SOL     OW19648   2.437   2.450   2.387  0.7186  0.5052 -0.1083
 2730SOL    HW119649   2.399   2.520   2.439  0.7061  0.7302 -0.4206
 2730SOL    HW219650   2.411   2.469   2.297 -0.4184  1.0131  0.3342
 2731SOL     OW19651   0.747   3.341  13.161  0.8700  0.6225 -0.2421
 2731SOL    HW119652   0.800   3.262  13.168  1.0513  0.9077  1.7409
 2731SOL    HW219653   0.767   3.379  13.076 -2.2358 -1.4675 -1.8966
 2732SOL     OW19654   2.787   3.587  13.771  0.1325 -0.3594 -0.1472
 2732SOL    HW119655   2.794   3.531  13.849  1.6975 -1.7106 -1.2569
 2732SOL    HW219656   2.880   3.598  13.748  0.0437  1.7708  0.5444
 2733SOL     OW19657   3.699   0.310   3.131 -0.1934  0.3623  0.2474
 2733SOL    HW119658   3.647   0.391   3.127 -1.5781 -0.6650 -2.1032
 2733SOL    HW219659   3.677   0.270   3.047  2.1930 -1.7976  0.6539
 2734SOL     OW19660   1.111   3.654   2.486  0.2158 -0.3746  0.5039
 2734SOL    HW119661   1.190   3.632   2.436 -0.3098  3.3300 -1.9717
 2734SOL    HW219662   1.121   3.749   2.488 -1.8616 -0.1969  1.7738
 2735SOL     OW19663   2.183   2.154   3.355  0.3756  0.4107  0.3150
 2735SOL    HW119664   2.164   2.074   3.404 -1.0672  1.6416  1.7646
 2735SOL    HW219665   2.274   2.140   3.329 -1.2137 -4.1846 -2.5811
 2736SOL     OW19666   1.828   3.230  15.815  0.4882 -0.0592 -0.0821
 2736SOL    HW119667   1.861   3.204  15.729 -0.4217  0.4134 -0.5642
 2736SOL    HW219668   1.772   3.156  15.839 -0.5636  1.2977  1.6667
 2737SOL     OW19669   1.132   2.056   3.219 -0.1046 -0.4492  0.5452
 2737SOL    HW119670   1.077   1.981   3.198 -1.2894  0.7147 -0.5469
 2737SOL    HW219671   1.108   2.123   3.155 -2.0624 -1.6528  0.0285
 2738SOL     OW19672   3.172   2.535   4.734  0.3358  0.6122 -0.4487
 2738SOL    HW119673   3.162   2.456   4.789  1.3522  0.2332 -0.7976
 2738SOL    HW219674   3.085   2.538   4.696 -0.3856  0.2349  1.1582
 2739SOL     OW19675   2.443   4.094   7.573  0.2063  0.3294 -0.5218
 2739SOL    HW119676   2.358   4.138   7.576  1.0088  1.8634 -0.0925
 2739SOL    HW219677   2.484   4.143   7.645 -1.9915 -0.1162  1.0265
 2740SOL     OW19678   1.486   1.995   1.870 -0.4172  0.1151 -0.2706
 2740SOL    HW119679   1.540   1.916   1.871 -2.1756 -1.0774 -0.0129
 2740SOL    HW219680   1.489   2.021   1.778 -1.0605 -1.8814 -0.8555
 2741SOL     OW19681   0.517   1.269   7.553 -0.4982  0.1602  0.1183
 2741SOL    HW119682   0.593   1.280   7.610  0.4292  0.0639 -1.0982
 2741SOL    HW219683   0.481   1.184   7.577 -2.0533  1.3886  2.1811
 2742SOL     OW19684   2.511   3.577   7.572  0.6558  0.6864 -0.2591
 2742SOL    HW119685   2.553   3.542   7.651 -0.2959 -1.3699 -0.6572
 2742SOL    HW219686   2.520   3.671   7.589 -1.6746  0.8706 -0.0738
 2743SOL     OW19687   3.640   3.562  10.865  0.3546  0.7092 -0.0496
 2743SOL    HW119688   3.668   3.647  10.833 -1.3013  1.4809  0.5668
 2743SOL    HW219689   3.695   3.552  10.943 -0.0375 -2.6022 -0.1615
 2744SOL     OW19690   1.501   3.618  15.164  0.1084 -0.1547  0.5700
 2744SOL    HW119691   1.449   3.540  15.147 -0.4918  0.0797  1.3802
 2744SOL    HW219692   1.432   3.681  15.186  0.8908  0.6440  0.7350
 2745SOL     OW19693   2.255   1.100   0.628  0.2467 -0.3120  0.4034
 2745SOL    HW119694   2.328   1.148   0.667 -0.8057  0.0343  1.9217
 2745SOL    HW219695   2.235   1.052   0.708 -0.3319 -0.9962 -0.1562
 2746SOL     OW19696   1.616   4.289   2.763  0.3295  0.1114  0.1063
 2746SOL    HW119697   1.704   4.311   2.793  1.2098 -1.4232 -1.3846
 2746SOL    HW219698   1.596   4.212   2.816  1.3901 -1.8797 -2.4037
 2747SOL     OW19699   0.136   0.101   6.391  0.2723  0.5278  0.4553
 2747SOL    HW119700   0.221   0.069   6.361  0.3426  0.9668  0.1922
 2747SOL    HW219701   0.153   0.194   6.410 -0.3257  0.3975  1.6310
 2748SOL     OW19702   3.971   2.991   6.926  0.8855  0.8338 -0.4680
 2748SOL    HW119703   4.066   3.000   6.939  0.5369  2.3860  0.9669
 2748SOL    HW219704   3.961   3.061   6.862 -1.3078  1.6328  0.7446
 2749SOL     OW19705   4.417   1.572  10.943  0.0553  0.1802 -0.2297
 2749SOL    HW119706   4.390   1.573  10.851 -1.0284  0.8595  0.1010
 2749SOL    HW219707   4.410   1.664  10.966  0.1790  0.6539 -2.1197
 2750SOL     OW19708   0.545   0.294   4.710 -0.5412  0.4369 -0.5581
 2750SOL    HW119709   0.495   0.274   4.630  1.2114 -0.9185 -1.3227
 2750SOL    HW219710   0.619   0.235   4.702 -2.3197 -1.9576  0.4320
 2751SOL     OW19711   0.905   0.803   1.183  0.2730  0.2993 -0.5227
 2751SOL    HW119712   0.852   0.724   1.170 -1.0010  1.0712 -0.0567
 2751SOL    HW219713   0.989   0.758   1.178 -0.6970 -1.5135 -0.7413
 2752SOL     OW19714   3.120   2.579   5.980  0.2784 -0.2080  0.6917
 2752SOL    HW119715   3.070   2.606   6.057  1.2369  1.5642  0.6902
 2752SOL    HW219716   3.042   2.551   5.933  1.6150 -0.2682 -1.4617
 2753SOL     OW19717   2.188   0.880   6.364  0.4327 -0.6503 -0.0930
 2753SOL    HW119718   2.095   0.883   6.341  0.5231  0.4432 -0.2943
 2753SOL    HW219719   2.189   0.864   6.458 -4.7340 -0.2783 -0.0058
 2754SOL     OW19720   3.270   0.091   2.747  0.7862  0.2635 -0.2351
 2754SOL    HW119721   3.294   0.012   2.795  0.3519 -1.4237 -2.7956
 2754SOL    HW219722   3.358   0.117   2.719  0.4836  0.5782 -0.8788
 2755SOL     OW19723   4.407   2.034   7.411  0.4013  0.0705 -0.1864
 2755SOL    HW119724   4.382   1.955   7.458  0.7466 -1.6542 -2.9141
 2755SOL    HW219725   4.421   1.998   7.323 -1.3121  1.7842 -1.1632
 2756SOL     OW19726   2.310   0.187   1.358  0.0345 -0.0231  0.0096
 2756SOL    HW119727   2.384   0.201   1.299 -0.5045 -1.0431 -0.8857
 2756SOL    HW219728   2.308   0.271   1.404 -0.9746  1.0184 -1.9259
 2757SOL     OW19729   0.330   3.979   8.726 -0.0708  0.4365 -0.1523
 2757SOL    HW119730   0.402   4.041   8.736 -0.3391  0.9036 -1.0546
 2757SOL    HW219731   0.357   3.907   8.782 -1.2731  0.9317  1.0674
 2758SOL     OW19732   3.582   1.030   2.547 -0.6774 -0.2296  0.2649
 2758SOL    HW119733   3.649   1.038   2.615 -0.3348 -1.3335  0.0565
 2758SOL    HW219734   3.621   1.074   2.471 -1.6334  0.9021  0.4356
 2759SOL     OW19735   4.515   2.323  17.545 -0.5134  0.1805  0.3009
 2759SOL    HW119736   4.463   2.302  17.467  0.3078 -0.7836  0.0057
 2759SOL    HW219737   4.446   2.336  17.609  0.8806  1.2237  1.5964
 2760SOL     OW19738   4.163   1.230   6.404 -0.6651  0.0395 -0.4994
 2760SOL    HW119739   4.168   1.171   6.480 -0.0696  0.4511 -0.2170
 2760SOL    HW219740   4.111   1.179   6.342 -0.9086 -0.8894  0.4773
 2761SOL     OW19741   2.218   2.768  17.456 -0.0662 -0.5932 -0.3102
 2761SOL    HW119742   2.244   2.860  17.449 -1.0374 -0.2281  0.9103
 2761SOL    HW219743   2.156   2.765  17.384 -2.0974  1.6679  1.3296
 2762SOL     OW19744   4.588   3.223   8.673 -0.1823  0.6929 -0.2396
 2762SOL    HW119745   4.543   3.213   8.756 -1.5205  2.6079 -0.7177
 2762SOL    HW219746   4.571   3.137   8.634  2.6484  0.3234 -0.6693
 2763SOL     OW19747   1.261   1.197   4.972  0.2700  0.1401 -0.0776
 2763SOL    HW119748   1.292   1.254   5.042  1.7831 -0.2104 -0.4662
 2763SOL    HW219749   1.179   1.235   4.939  0.8587 -0.5679 -2.3114
 2764SOL     OW19750   4.312   4.222   9.712 -0.5281 -0.2928 -0.6091
 2764SOL    HW119751   4.394   4.253   9.673 -0.6024  1.1698  0.4151
 2764SOL    HW219752   4.298   4.290   9.778  0.9742  1.4530 -2.0727
 2765SOL     OW19753   4.273   2.014   9.049 -0.1528 -0.6978 -0.2111
 2765SOL    HW119754   4.361   2.006   9.087 -1.1982 -0.1176  2.3261
 2765SOL    HW219755   4.285   1.968   8.966  0.1207  2.2162 -1.8123
 2766SOL     OW19756   1.454   3.606   3.823  0.1815  0.4774  0.5169
 2766SOL    HW119757   1.511   3.546   3.775 -0.6309  1.0644 -1.1886
 2766SOL    HW219758   1.397   3.644   3.755 -0.5417 -0.6133  0.5261
 2767SOL     OW19759   0.861   0.834   7.422  0.1082 -0.2722  0.0816
 2767SOL    HW119760   0.866   0.782   7.502 -0.2418  2.4303  1.8848
 2767SOL    HW219761   0.803   0.788   7.361 -1.8457  1.9799  0.2568
 2768SOL     OW19762   3.923   1.953   3.682  0.1386 -0.2856 -0.1409
 2768SOL    HW119763   3.984   2.022   3.709  0.2725 -0.6228  0.4087
 2768SOL    HW219764   3.837   1.988   3.703  0.9945  2.1266 -0.6937
 2769SOL     OW19765   3.442   0.013  15.119 -0.1284 -0.1103 -0.0220
 2769SOL    HW119766   3.401   4.668  15.074 -0.8914  1.1181 -1.3164
 2769SOL    HW219767   3.483   0.038  15.037  0.3485 -0.3307  0.1485
 2770SOL     OW19768   2.564   0.647   8.793  0.6444  0.1742 -0.3572
 2770SOL    HW119769   2.630   0.627   8.726 -0.4283  0.2751 -1.4343
 2770SOL    HW219770   2.587   0.731   8.833 -0.1339  1.0106 -1.6706
 2771SOL     OW19771   0.469   2.334   4.838 -0.3213  0.3852  0.5351
 2771SOL    HW119772   0.535   2.341   4.907  0.9526 -0.0967 -0.6382
 2771SOL    HW219773   0.471   2.422   4.800 -0.7912 -0.0994 -0.5958
 2772SOL     OW19774   2.621   1.256   4.851 -0.1424  0.2391  0.2744
 2772SOL    HW119775   2.561   1.315   4.806 -0.8216  1.3928  2.6891
 2772SOL    HW219776   2.552   1.193   4.873  0.7658  0.0319  2.5100
 2773SOL     OW19777   4.472   4.111   0.525  0.1978  0.2662 -0.6923
 2773SOL    HW119778   4.519   4.176   0.577  1.2101 -0.5491 -0.5643
 2773SOL    HW219779   4.397   4.169   0.516 -0.5729 -0.8970 -1.7716
 2774SOL     OW19780   1.502   3.294  17.091 -0.7162 -0.1135 -0.5046
 2774SOL    HW119781   1.582   3.323  17.134 -1.1086 -0.9410  0.7637
 2774SOL    HW219782   1.458   3.271  17.173 -0.1183 -3.2511 -1.0671
 2775SOL     OW19783   4.222   0.854   6.969 -0.5835  0.5497 -0.2136
 2775SOL    HW119784   4.273   0.899   7.037  0.3864 -1.5926  0.4648
 2775SOL    HW219785   4.182   0.786   7.022  1.7522  0.1543  1.0709
 2776SOL     OW19786   0.487   2.533   9.104 -0.1021  0.1149 -0.6922
 2776SOL    HW119787   0.549   2.560   9.036 -0.6902 -1.1495 -1.7230
 2776SOL    HW219788   0.413   2.591   9.088  0.9570  1.3392 -1.1733
 2777SOL     OW19789   0.022   1.834  10.114  0.3415  0.0199  0.0413
 2777SOL    HW119790   0.015   1.899  10.043 -0.2171  2.9410  2.7460
 2777SOL    HW219791   4.661   1.800  10.121 -0.9108  3.1536 -0.3747
 2778SOL     OW19792   2.773   2.563   6.800  0.4288 -0.2467  0.0150
 2778SOL    HW119793   2.820   2.595   6.877 -0.2852  0.6167  0.0906
 2778SOL    HW219794   2.759   2.472   6.825  2.4676 -1.0350 -1.6738
 2779SOL     OW19795   4.344   2.162   5.075 -0.7356  0.6158 -0.1176
 2779SOL    HW119796   4.323   2.126   4.989  0.1043  0.6388 -0.3299
 2779SOL    HW219797   4.389   2.244   5.052  0.1784  0.3946  0.8757
 2780SOL     OW19798   4.445   2.881   1.153 -0.6033  0.0604  0.1409
 2780SOL    HW119799   4.482   2.795   1.129  1.5859  0.2198  2.9130
 2780SOL    HW219800   4.481   2.897   1.240 -0.6112 -0.4058  0.2337
 2781SOL     OW19801   1.956   3.110   8.507 -0.3057 -0.0904 -0.0678
 2781SOL    HW119802   1.939   3.175   8.439 -1.8493  0.2641  0.6425
 2781SOL    HW219803   1.878   3.059   8.484 -1.3373  1.3241  0.2796
 2782SOL     OW19804   1.731   0.994   5.911 -0.6782 -0.2700 -0.2406
 2782SOL    HW119805   1.737   0.905   5.945 -0.5788 -0.3484 -0.4678
 2782SOL    HW219806   1.680   1.038   5.979 -1.5220 -0.9888 -0.3946
 2783SOL     OW19807   1.445   0.735   2.528  0.5243  0.5069 -0.3256
 2783SOL    HW119808   1.473   0.814   2.482  2.9810  0.1545  0.5738
 2783SOL    HW219809   1.380   0.706   2.464 -1.0165  1.7952  0.6453
 2784SOL     OW19810   4.712   3.535   4.683 -0.4102 -0.9467  0.2561
 2784SOL    HW119811   4.618   3.549   4.674  0.1194  2.5606  0.2506
 2784SOL    HW219812   0.002   3.481   4.606  1.0701 -1.7835  1.1774
 2785SOL     OW19813   2.708   2.584   4.333 -0.5257  0.0950 -0.8320
 2785SOL    HW119814   2.796   2.618   4.318 -0.5107 -0.5747 -2.3240
 2785SOL    HW219815   2.706   2.506   4.277  3.1082 -0.2008 -0.5208
 2786SOL     OW19816   2.888   0.114   8.364  0.2367  0.4039 -0.4278
 2786SOL    HW119817   2.955   0.054   8.330  0.4224 -0.6209  1.7289
 2786SOL    HW219818   2.919   0.097   8.453  0.2803 -1.0310 -0.7165
 2787SOL     OW19819   2.756   4.408  14.189 -0.4546 -0.3889  0.0602
 2787SOL    HW119820   2.837   4.392  14.239 -0.2752  1.1269  0.2565
 2787SOL    HW219821   2.708   4.471  14.242 -0.3301  0.3839 -0.7415
 2788SOL     OW19822   3.823   4.566   5.179  1.0932 -0.5301  0.6187
 2788SOL    HW119823   3.751   4.576   5.241 -1.0393 -2.6356 -1.5502
 2788SOL    HW219824   3.836   4.471   5.175 -2.8479 -1.0120 -0.7481
 2789SOL     OW19825   4.599   3.937  15.255 -0.1023  0.2536  0.1363
 2789SOL    HW119826   4.615   4.020  15.209  0.3310 -0.0299 -0.2226
 2789SOL    HW219827   4.530   3.899  15.200  0.2468 -0.8030  0.4381
 2790SOL     OW19828   4.028   1.787   2.949 -0.1189 -0.1586 -0.1860
 2790SOL    HW119829   4.044   1.880   2.937  1.1396 -0.5437 -1.4963
 2790SOL    HW219830   4.081   1.753   2.876  2.6721  3.1738  0.2737
 2791SOL     OW19831   4.549   0.747   6.926  0.0617 -0.2795 -0.3351
 2791SOL    HW119832   4.466   0.740   6.973 -0.0861 -1.6394 -0.7869
 2791SOL    HW219833   4.593   0.672   6.966 -2.1812 -1.0330  0.7824
 2792SOL     OW19834   3.941   3.786   3.007 -0.0001  0.6371  0.3295
 2792SOL    HW119835   3.950   3.771   3.101 -1.8794 -0.0266  0.4016
 2792SOL    HW219836   4.031   3.768   2.979 -1.2981 -1.7744 -2.2977
 2793SOL     OW19837   2.862   4.459  16.297 -0.4511 -0.1593 -0.1168
 2793SOL    HW119838   2.794   4.485  16.359  0.6095 -0.3690  1.1080
 2793SOL    HW219839   2.829   4.491  16.212 -0.0556 -0.7384 -0.4850
 2794SOL     OW19840   2.285   0.404   6.443  0.4745 -0.0291  0.1586
 2794SOL    HW119841   2.294   0.479   6.502 -1.1165  0.3584 -0.0990
 2794SOL    HW219842   2.233   0.341   6.493 -0.9537  1.4206  0.4957
 2795SOL     OW19843   2.140   0.000   1.230  0.6281  0.1420 -0.1787
 2795SOL    HW119844   2.195   4.662   1.188  0.1567 -0.4891  0.2118
 2795SOL    HW219845   2.206   0.067   1.249 -2.6247  2.7531  1.9983
 2796SOL     OW19846   2.730   1.120   2.821 -0.5369 -0.1081  0.2309
 2796SOL    HW119847   2.808   1.070   2.846  0.5201  0.9414 -0.9648
 2796SOL    HW219848   2.673   1.056   2.777  1.3312 -1.8456  0.3192
 2797SOL     OW19849   2.391   2.521   8.125 -0.0684  0.9327 -0.5512
 2797SOL    HW119850   2.437   2.476   8.195  1.5192  0.7655 -1.6863
 2797SOL    HW219851   2.377   2.442   8.073 -0.3284  0.4858  0.2155
 2798SOL     OW19852   3.930   2.252   3.363  0.2883 -0.1421  0.0702
 2798SOL    HW119853   3.834   2.253   3.370  0.1695  1.9012 -2.0150
 2798SOL    HW219854   3.942   2.346   3.366 -2.2898  0.2136 -0.2241
 2799SOL     OW19855   3.343   3.809  17.021 -0.1805 -0.1126 -0.1299
 2799SOL    HW119856   3.420   3.799  17.077 -0.4570  1.6667  0.5893
 2799SOL    HW219857   3.299   3.727  17.043 -1.6852  0.4951 -0.8424
 2800SOL     OW19858   1.621   2.816   2.066 -0.1511 -0.3750 -0.4621
 2800SOL    HW119859   1.597   2.813   1.973 -1.3914  0.8809 -0.1797
 2800SOL    HW219860   1.625   2.911   2.078  0.0228 -0.6735  1.8175
 2801SOL     OW19861   2.858   0.363   5.218  0.0252 -0.4796 -0.5146
 2801SOL    HW119862   2.891   0.404   5.138 -0.9160  0.5026 -0.3945
 2801SOL    HW219863   2.878   0.271   5.201  3.7367 -0.1189  1.9812
 2802SOL     OW19864   3.761   2.253  10.182 -0.6403 -0.3904  0.5042
 2802SOL    HW119865   3.779   2.279  10.273  0.1228  1.4264 -0.1657
 2802SOL    HW219866   3.833   2.197  10.152  0.8790  1.2053  1.1509
 2803SOL     OW19867   1.550   0.377   9.053  0.5093 -0.4612  0.1715
 2803SOL    HW119868   1.507   0.350   9.134 -1.6737  1.3879 -0.3847
 2803SOL    HW219869   1.560   0.296   9.002 -1.0303 -1.8332  2.0215
 2804SOL     OW19870   3.664   3.409   7.297 -0.0214 -0.1430  0.6564
 2804SOL    HW119871   3.682   3.497   7.330  0.1058  0.8137 -1.9266
 2804SOL    HW219872   3.570   3.400   7.313  0.1852 -0.5735  1.6249
 2805SOL     OW19873   1.013   0.068   9.730 -0.1160 -0.0010  0.4213
 2805SOL    HW119874   1.045   0.075   9.640  0.5427 -1.9873  0.5172
 2805SOL    HW219875   0.956   0.145   9.728  0.3400  0.3362  0.4205
 2806SOL     OW19876   2.857   4.045  11.658  0.3003  0.3876 -0.6034
 2806SOL    HW119877   2.794   4.006  11.597 -1.4729  0.4303  1.1808
 2806SOL    HW219878   2.799   4.102  11.709 -1.7796 -1.1846 -1.1853
 2807SOL     OW19879   2.206   4.726   6.694  0.2554 -0.0652 -0.0152
 2807SOL    HW119880   2.163   0.078   6.661 -0.1760 -0.7595 -1.1355
 2807SOL    HW219881   2.196   0.007   6.789 -1.8809  1.4330 -0.3749
 2808SOL     OW19882   3.012   2.163   8.372  0.0284 -0.1484 -0.3273
 2808SOL    HW119883   3.062   2.188   8.294 -0.3180  0.5937 -0.3114
 2808SOL    HW219884   3.054   2.215   8.440 -0.2268 -1.6171  0.9547
 2809SOL     OW19885   0.200   0.115   5.074  0.1482 -0.0787 -0.1990
 2809SOL    HW119886   0.260   0.069   5.015  2.0700  0.6948  1.1358
 2809SOL    HW219887   0.238   0.202   5.064 -0.7101  0.4017  0.6739
 2810SOL     OW19888   4.177   2.810   6.311 -0.3495  1.0054 -0.2114
 2810SOL    HW119889   4.247   2.874   6.299  0.8874 -0.0313  1.4349
 2810SOL    HW219890   4.147   2.828   6.400 -1.4913  1.7309 -0.7366
 2811SOL     OW19891   3.881   3.437  10.744  0.2577  0.0076  0.7779
 2811SOL    HW119892   3.799   3.461  10.786 -0.6265  0.4361 -1.2111
 2811SOL    HW219893   3.945   3.496  10.784 -0.9708  1.5363  0.4677
 2812SOL     OW19894   3.337   1.192  12.815  0.0196 -0.3286  0.0836
 2812SOL    HW119895   3.318   1.099  12.804  1.9577 -0.6789 -0.3666
 2812SOL    HW219896   3.403   1.176  12.883 -0.2024  0.0214  0.3783
 2813SOL     OW19897   2.403   1.899   7.178 -0.0066 -0.1539 -0.0595
 2813SOL    HW119898   2.486   1.880   7.134  1.0627  1.0235  1.4525
 2813SOL    HW219899   2.416   1.992   7.197  0.7431 -0.4220  0.7399
 2814SOL     OW19900   3.327   2.389   9.385  0.6452 -0.2878  0.6327
 2814SOL    HW119901   3.244   2.369   9.341  0.7331  1.3447 -0.2610
 2814SOL    HW219902   3.329   2.484   9.387 -2.2270 -0.2183 -0.1451
 2815SOL     OW19903   0.560   2.984   4.706 -0.4095  0.1799  0.8581
 2815SOL    HW119904   0.584   3.042   4.634  0.0996 -0.8814  0.1698
 2815SOL    HW219905   0.526   2.914   4.651  1.2673 -0.2083  0.3192
 2816SOL     OW19906   1.287   2.525   6.231 -0.2314  0.1544 -0.0708
 2816SOL    HW119907   1.271   2.514   6.138 -0.9506  0.3767  0.0231
 2816SOL    HW219908   1.345   2.452   6.251  0.2483 -0.0984 -2.3939
 2817SOL     OW19909   0.147   1.105   1.575  0.2131 -0.2928 -0.0434
 2817SOL    HW119910   0.106   1.080   1.492 -0.4108 -0.1645  0.2264
 2817SOL    HW219911   0.173   1.194   1.548  1.3204 -0.9564 -1.1558
 2818SOL     OW19912   3.033   4.525   6.392  0.1349 -0.0971  0.1693
 2818SOL    HW119913   2.985   4.591   6.443 -3.6397 -0.7195 -2.5704
 2818SOL    HW219914   3.035   4.448   6.449 -3.9643 -0.3076  0.0322
 2819SOL     OW19915   2.218   2.107   4.058  0.1899 -0.0391 -0.3669
 2819SOL    HW119916   2.173   2.101   4.143 -0.9768  2.4534 -0.8190
 2819SOL    HW219917   2.241   2.016   4.039  3.8849  0.7458  0.4041
 2820SOL     OW19918   1.995   4.461   2.217 -0.1922  0.0002 -0.3580
 2820SOL    HW119919   1.945   4.543   2.211  2.1806  1.2950 -2.6827
 2820SOL    HW219920   2.046   4.457   2.135  1.1067  1.6903  0.3705
 2821SOL     OW19921   4.219   2.669   2.060  0.4931 -0.7085 -0.3676
 2821SOL    HW119922   4.260   2.731   2.121 -1.8392  1.0538 -0.6080
 2821SOL    HW219923   4.251   2.585   2.092 -1.0003 -1.4563 -0.8896
 2822SOL     OW19924   0.869   0.462   0.511 -0.3127 -0.2845 -0.3414
 2822SOL    HW119925   0.888   0.510   0.592  0.9128 -1.6072  0.1670
 2822SOL    HW219926   0.913   0.516   0.447  0.8469 -2.5358 -1.4349
 2823SOL     OW19927   3.486   0.314   1.892  0.7939  0.3983  0.9336
 2823SOL    HW119928   3.446   0.347   1.973 -0.8687 -2.3211  1.2073
 2823SOL    HW219929   3.578   0.306   1.917  0.6522 -1.4002  0.8466
 2824SOL     OW19930   3.269   1.622   7.417 -0.2170 -0.1648  0.2715
 2824SOL    HW119931   3.333   1.686   7.447  2.6778 -2.3108 -1.3596
 2824SOL    HW219932   3.281   1.563   7.492 -0.8136 -2.3560 -1.3336
 2825SOL     OW19933   1.584   2.072   0.835 -0.6365 -0.2270 -0.4226
 2825SOL    HW119934   1.571   1.993   0.888  1.4275 -0.3733 -0.1614
 2825SOL    HW219935   1.669   2.090   0.873 -1.4952 -0.0924  1.4495
 2826SOL     OW19936   2.910   1.598   2.482  0.7162  0.3905 -0.0781
 2826SOL    HW119937   2.908   1.660   2.409 -1.3394  0.5426  0.0967
 2826SOL    HW219938   2.898   1.653   2.560  1.4509 -0.6505  0.7769
 2827SOL     OW19939   0.662   0.719   7.263  0.2702  0.0308 -0.0837
 2827SOL    HW119940   0.699   0.756   7.182  2.5213 -0.0497  0.9184
 2827SOL    HW219941   0.632   0.634   7.228 -1.3688  0.8524 -0.6815
 2828SOL     OW19942   2.776   2.788   4.002  0.4855 -0.4364 -0.0896
 2828SOL    HW119943   2.808   2.787   4.092  0.7342  0.2755 -0.1690
 2828SOL    HW219944   2.837   2.854   3.969  0.3008 -0.2374 -0.0344
 2829SOL     OW19945   1.073   4.281   8.066  0.1252  0.2305  0.2700
 2829SOL    HW119946   1.013   4.223   8.115  1.0945 -2.4483 -1.7229
 2829SOL    HW219947   1.108   4.340   8.133  0.2736 -1.9858  2.1539
 2830SOL     OW19948   2.916   3.879   8.346 -0.1099  0.3621 -0.2033
 2830SOL    HW119949   2.983   3.828   8.392 -1.0438 -1.6624 -1.0911
 2830SOL    HW219950   2.858   3.921   8.409 -0.6052 -0.8376  0.1536
 2831SOL     OW19951   2.117   2.138   8.869 -0.3235 -0.0472  0.1758
 2831SOL    HW119952   2.199   2.149   8.820  0.0697  2.1711  1.3283
 2831SOL    HW219953   2.054   2.195   8.824  0.9632  2.1073  1.0809
 2832SOL     OW19954   0.394   2.039  14.872  0.0552  0.6150  0.2143
 2832SOL    HW119955   0.436   2.030  14.786 -0.8188  1.7954 -0.3264
 2832SOL    HW219956   0.356   2.127  14.875  1.3470  1.1767  0.2793
 2833SOL     OW19957   3.052   2.303   5.756 -0.3676 -0.1153 -0.3304
 2833SOL    HW119958   3.053   2.281   5.849  0.0845  1.0526 -0.0562
 2833SOL    HW219959   3.083   2.218   5.726  2.6413  0.9563 -0.2230
 2834SOL     OW19960   1.136   0.520   4.180  0.6849  0.1829  0.3641
 2834SOL    HW119961   1.170   0.438   4.218  0.3387 -0.8429 -1.5640
 2834SOL    HW219962   1.137   0.575   4.258  0.9660  2.1284 -1.0284
 2835SOL     OW19963   1.814   0.401   3.495  0.5379 -0.5487  0.1932
 2835SOL    HW119964   1.748   0.444   3.439  2.2638 -0.5848 -1.8861
 2835SOL    HW219965   1.893   0.440   3.458 -0.4461  0.4239 -0.9273
 2836SOL     OW19966   4.341   1.308  12.192 -0.2257 -0.0265 -0.1725
 2836SOL    HW119967   4.302   1.366  12.126  2.0600  1.3432 -0.3022
 2836SOL    HW219968   4.379   1.244  12.131 -0.3261  0.0221 -0.2863
 2837SOL     OW19969   3.142   2.865   5.842 -0.1193 -0.5835  0.3854
 2837SOL    HW119970   3.081   2.850   5.914  2.0761 -0.9349  2.1762
 2837SOL    HW219971   3.177   2.776   5.845 -0.3444 -0.6920 -0.3103
 2838SOL     OW19972   3.566   2.382   6.237  0.3886  0.1682 -0.2011
 2838SOL    HW119973   3.596   2.374   6.147 -0.4898  1.7205 -0.6400
 2838SOL    HW219974   3.550   2.475   6.252 -2.4758 -0.1059 -1.5814
 2839SOL     OW19975   3.463   4.033   3.449  0.3011 -0.2785 -0.1097
 2839SOL    HW119976   3.471   3.967   3.380  1.6423 -1.4077  1.1434
 2839SOL    HW219977   3.489   4.112   3.401 -3.4172  1.4940  0.7908
 2840SOL     OW19978   0.148   1.891   7.964  0.1166 -0.1764  0.2498
 2840SOL    HW119979   0.187   1.821   8.017 -0.3562  0.0388  0.8867
 2840SOL    HW219980   0.183   1.882   7.876  1.4634 -1.1284  0.8700
 2841SOL     OW19981   0.498   4.582   3.070  0.0951 -0.2036 -0.0437
 2841SOL    HW119982   0.594   4.572   3.065  0.2596  1.8092 -0.5395
 2841SOL    HW219983   0.471   4.492   3.088  1.1655 -0.9469 -2.1909
 2842SOL     OW19984   4.634   1.723   7.299 -0.4840 -0.3178  0.6951
 2842SOL    HW119985   4.554   1.774   7.285 -0.2322 -0.3077 -0.7320
 2842SOL    HW219986   4.692   1.764   7.234 -2.1707  0.5552 -0.2578
 2843SOL     OW19987   1.089   4.090   6.667 -0.0624  0.1683  0.0196
 2843SOL    HW119988   1.149   4.091   6.593  1.3709  0.9897  1.2039
 2843SOL    HW219989   1.016   4.141   6.632  0.5568  1.7561  1.0676
 2844SOL     OW19990   1.536   3.445   4.652  0.5148 -0.2317 -0.3089
 2844SOL    HW119991   1.481   3.429   4.576 -0.4027 -0.5859  0.4304
 2844SOL    HW219992   1.536   3.540   4.666  0.3283 -0.2413 -0.2454
 2845SOL     OW19993   0.385   4.257   4.617 -0.4283  0.4633  0.5346
 2845SOL    HW119994   0.470   4.293   4.591 -0.7753 -0.0705 -1.3253
 2845SOL    HW219995   0.332   4.335   4.609  1.8405  1.8614 -0.9522
 2846SOL     OW19996   1.543   2.842   5.973 -0.1100  0.0356 -0.3974
 2846SOL    HW119997   1.627   2.876   6.003 -0.6139  0.5181  0.4458
 2846SOL    HW219998   1.578   2.814   5.888  1.6766 -3.5123  1.5000
 2847SOL     OW19999   2.874   1.090   4.335 -0.5527 -0.4572 -0.5346
 2847SOL    HW120000   2.929   1.020   4.298 -0.8475 -1.8284  1.6061
 2847SOL    HW220001   2.879   1.071   4.428  0.9696  1.3567 -0.2429
 2848SOL     OW20002   1.036   3.130   5.142 -0.7918  0.0433  0.0091
 2848SOL    HW120003   1.092   3.061   5.106  0.2261 -0.3113  2.2691
 2848SOL    HW220004   0.962   3.139   5.082 -1.7929  0.9631  1.3778
 2849SOL     OW20005   2.650   1.613   1.920 -0.0155  0.6348  0.2657
 2849SOL    HW120006   2.565   1.569   1.927 -0.6598  1.2308 -4.1202
 2849SOL    HW220007   2.676   1.618   2.012 -0.2583  0.2705  0.3532
 2850SOL     OW20008   3.249   3.126   9.922 -0.2297 -0.0133 -0.1788
 2850SOL    HW120009   3.337   3.112   9.887 -1.2241 -0.5052 -2.4487
 2850SOL    HW220010   3.215   3.045   9.884  1.1901 -0.8523  0.3465
 2851SOL     OW20011   0.235   0.069  13.950  0.7054  0.6571 -0.0977
 2851SOL    HW120012   0.257   0.146  13.897 -0.8502  2.8219  2.4060
 2851SOL    HW220013   0.260   0.005  13.884 -3.2874 -0.3797 -0.6090
 2852SOL     OW20014   3.571   3.093   5.464 -0.3741  0.2368 -0.2536
 2852SOL    HW120015   3.512   3.045   5.406  0.9944 -1.0002 -0.6222
 2852SOL    HW220016   3.641   3.030   5.481 -1.2736  0.2525  3.4169
 2853SOL     OW20017   4.653   1.702  12.050  0.3133  0.3559 -1.1417
 2853SOL    HW120018   4.679   1.614  12.077  0.7272  0.9872  0.5336
 2853SOL    HW220019   4.696   1.759  12.113 -1.6065 -0.7739  1.2209
 2854SOL     OW20020   1.860   1.186   6.760  0.4328 -0.5640 -0.1796
 2854SOL    HW120021   1.951   1.207   6.782 -0.3297  2.7348 -0.1717
 2854SOL    HW220022   1.819   1.248   6.819 -0.4893 -1.4708  0.1244
 2855SOL     OW20023   3.079   1.524   3.210 -0.1525 -0.3513 -0.4893
 2855SOL    HW120024   3.131   1.519   3.290  0.8892  2.8330 -0.9836
 2855SOL    HW220025   3.092   1.615   3.184 -1.3088 -0.3459 -1.0686
 2856SOL     OW20026   0.352   1.571   6.221  0.1971 -0.0186 -0.9687
 2856SOL    HW120027   0.409   1.648   6.222  0.4581 -0.2082 -1.2956
 2856SOL    HW220028   0.388   1.509   6.284 -0.7060  1.5390  1.1031
 2857SOL     OW20029   3.300   2.420   8.937  0.1010 -0.5880  0.3121
 2857SOL    HW120030   3.365   2.488   8.953 -1.7232  1.1543  0.4725
 2857SOL    HW220031   3.318   2.405   8.844  0.9185 -1.0382  0.5515
 2858SOL     OW20032   3.462   0.678  13.702  0.7623  0.2213  0.1784
 2858SOL    HW120033   3.541   0.626  13.718  0.8279  0.2812  0.0530
 2858SOL    HW220034   3.438   0.643  13.616 -1.0014  1.2739  0.2419
 2859SOL     OW20035   1.365   3.222   7.080  0.4409 -0.3050 -0.4275
 2859SOL    HW120036   1.424   3.272   7.023  1.2682 -1.7149 -0.7980
 2859SOL    HW220037   1.372   3.138   7.034  0.5165 -0.9555  0.7682
 2860SOL     OW20038   0.222   0.988   5.016  0.6417 -1.1530 -0.1267
 2860SOL    HW120039   0.200   0.954   5.103 -0.8093  0.7280  0.2328
 2860SOL    HW220040   0.225   0.907   4.964 -0.2997 -0.0647 -1.8969
 2861SOL     OW20041   1.539   1.494   0.707 -0.0508 -0.1507  0.1459
 2861SOL    HW120042   1.612   1.545   0.672 -0.5286 -0.6215 -1.5305
 2861SOL    HW220043   1.596   1.438   0.759  0.4742  0.0227 -0.2511
 2862SOL     OW20044   4.447   3.492   7.768  0.3623 -0.0840 -0.6437
 2862SOL    HW120045   4.509   3.524   7.702  0.1654  0.3087 -0.6398
 2862SOL    HW220046   4.435   3.561   7.834 -0.0395  0.8760 -1.7150
 2863SOL     OW20047   2.070   4.496   9.472  0.7405 -0.0219  0.2097
 2863SOL    HW120048   1.995   4.491   9.532 -0.8486 -1.3507 -1.8680
 2863SOL    HW220049   2.103   4.407   9.487 -0.1147 -0.6358 -1.4400
 2864SOL     OW20050   0.341   0.487  11.745 -0.5706 -0.5560 -0.1950
 2864SOL    HW120051   0.284   0.520  11.675  1.2654 -1.1820 -2.0056
 2864SOL    HW220052   0.346   0.556  11.811  2.1598 -1.8631  0.9648
 2865SOL     OW20053   4.680   0.707   7.518 -0.0490  0.3952 -0.1720
 2865SOL    HW120054   4.703   0.614   7.516 -1.8893  0.0057 -2.8613
 2865SOL    HW220055   4.586   0.705   7.534 -0.0261 -1.7724 -0.3400
 2866SOL     OW20056   2.578   4.235   7.810 -0.4737 -0.3346 -0.6222
 2866SOL    HW120057   2.560   4.155   7.860 -0.5788  0.1699  0.1556
 2866SOL    HW220058   2.673   4.229   7.807 -0.2847  0.6887  2.7606
 2867SOL     OW20059   3.561   0.349   8.682 -0.3774  0.6690  0.0290
 2867SOL    HW120060   3.486   0.347   8.741 -0.0353 -1.4142  0.3882
 2867SOL    HW220061   3.612   0.289   8.735 -0.7977  1.0069  0.8108
 2868SOL     OW20062   1.092   3.227   6.940  0.1556 -0.2083 -0.3714
 2868SOL    HW120063   1.172   3.277   6.957  0.3864 -1.0174  0.9787
 2868SOL    HW220064   1.093   3.223   6.845 -1.1592 -0.8488 -0.3572
 2869SOL     OW20065   4.175   1.358  17.521 -0.4716  0.7830 -0.0522
 2869SOL    HW120066   4.123   1.433  17.492 -4.4360 -1.2961  1.6201
 2869SOL    HW220067   4.178   1.371  17.616  0.6564  0.9486 -0.1153
 2870SOL     OW20068   2.775   1.529   1.684  0.9921 -0.3355 -0.2770
 2870SOL    HW120069   2.750   1.546   1.775 -0.5097 -2.2105 -0.3470
 2870SOL    HW220070   2.777   1.434   1.688 -2.4730 -0.3880  0.0879
 2871SOL     OW20071   0.721   3.865   0.354 -0.0706  0.3643 -0.1184
 2871SOL    HW120072   0.678   3.802   0.413 -0.7172  2.1046  1.2688
 2871SOL    HW220073   0.657   3.846   0.285 -0.1824 -2.3259  0.6898
 2872SOL     OW20074   0.843   2.885  15.907  0.1674  0.2265  0.2104
 2872SOL    HW120075   0.840   2.790  15.896  0.9889  0.2609 -0.2972
 2872SOL    HW220076   0.880   2.895  15.995  2.9402 -2.3044 -0.6585
 2873SOL     OW20077   1.742   4.239  16.011 -0.3289 -0.5995 -0.2588
 2873SOL    HW120078   1.801   4.202  15.945  0.1103  0.1496 -0.2814
 2873SOL    HW220079   1.697   4.307  15.962 -0.1355 -1.0403 -1.0359
 2874SOL     OW20080   0.792   1.952  14.375 -0.3915  0.0703  0.0288
 2874SOL    HW120081   0.821   2.009  14.446  2.7048 -1.9866  0.4238
 2874SOL    HW220082   0.775   1.873  14.426 -0.7403  1.7284  2.4982
 2875SOL     OW20083   3.711   1.919  14.563  0.0455 -0.3353  0.1241
 2875SOL    HW120084   3.771   1.988  14.590  0.4618 -0.3285 -0.8191
 2875SOL    HW220085   3.626   1.957  14.587  0.9355  1.1498  0.9455
 2876SOL     OW20086   1.178   2.849   8.007  0.0363  0.0626 -0.4247
 2876SOL    HW120087   1.149   2.761   7.984  1.8347 -0.1130 -1.9890
 2876SOL    HW220088   1.121   2.898   7.948 -1.0416  1.4470  1.7312
 2877SOL     OW20089   3.642   1.322  14.926  0.2369  0.1225  0.1550
 2877SOL    HW120090   3.637   1.230  14.952  1.0634  0.3615  1.1822
 2877SOL    HW220091   3.575   1.362  14.982  0.0839  0.9741 -0.6285
 2878SOL     OW20092   3.175   3.259   4.182  0.3271  0.1827  0.6257
 2878SOL    HW120093   3.125   3.296   4.109  0.0702 -1.7682 -0.1930
 2878SOL    HW220094   3.235   3.200   4.136 -0.0983  0.9610 -0.9482
 2879SOL     OW20095   0.716   3.744  16.953 -0.1403 -0.3825  0.3482
 2879SOL    HW120096   0.685   3.828  16.985  0.3366 -0.5548  1.2901
 2879SOL    HW220097   0.806   3.743  16.986  0.0725  1.9993 -0.1619
 2880SOL     OW20098   1.765   4.491  15.906  0.3060 -0.1526 -0.0021
 2880SOL    HW120099   1.832   4.551  15.939 -1.7112  1.5204  1.0559
 2880SOL    HW220100   1.817   4.424  15.861 -1.5015 -0.7717 -1.1735
 2881SOL     OW20101   1.618   1.103  14.711  0.2849 -0.3142 -0.3322
 2881SOL    HW120102   1.681   1.159  14.756  1.6332 -0.8377 -1.5348
 2881SOL    HW220103   1.530   1.137  14.723  0.3000 -0.6019  0.5797
 2882SOL     OW20104   0.828   1.409  15.190 -0.2592 -0.0116  0.2986
 2882SOL    HW120105   0.847   1.423  15.097  0.1865  0.1014  0.4035
 2882SOL    HW220106   0.818   1.500  15.219  1.6274  0.5024 -0.6371
 2883SOL     OW20107   4.052   1.086   6.849  0.2039  0.0554 -0.6493
 2883SOL    HW120108   4.122   1.020   6.848 -2.3662 -2.6792 -0.5999
 2883SOL    HW220109   4.115   1.156   6.865 -0.5568  0.3338  1.2006
 2884SOL     OW20110   4.107   1.006   6.244  0.2989  0.0295  0.1187
 2884SOL    HW120111   4.097   0.912   6.262 -1.2759 -0.0685 -1.2756
 2884SOL    HW220112   4.036   1.009   6.180  0.0772  1.4157  0.4427
 2885SOL     OW20113   3.208   0.273   9.538 -0.0898  0.3343 -0.1743
 2885SOL    HW120114   3.240   0.349   9.588 -0.1151  0.4005 -0.2576
 2885SOL    HW220115   3.259   0.267   9.458 -2.6732  1.4545 -1.8931
 2886SOL     OW20116   4.572   3.698   3.854  0.2246  0.0092 -0.3745
 2886SOL    HW120117   4.665   3.719   3.843  0.1602 -0.2216 -1.3054
 2886SOL    HW220118   4.537   3.742   3.777 -2.3955  0.5164  1.0986
 2887SOL     OW20119   0.973   2.360   7.577 -0.2629  0.2619 -0.4786
 2887SOL    HW120120   1.043   2.409   7.534  1.0254 -0.7984  0.4066
 2887SOL    HW220121   0.922   2.436   7.606  0.6103  0.5651  0.2511
 2888SOL     OW20122   1.988   1.610   5.948  0.5843 -0.2098  0.1415
 2888SOL    HW120123   1.976   1.567   5.863  2.4994 -1.2855  0.4095
 2888SOL    HW220124   2.032   1.545   6.004 -0.6143 -0.9869  0.1930
 2889SOL     OW20125   3.664   3.064  17.682  0.1287  0.1277 -1.0050
 2889SOL    HW120126   3.718   2.985  17.669 -1.3897 -1.0851  0.0263
 2889SOL    HW220127   3.597   3.032   0.031  2.0930 -1.4492  0.3299
 2890SOL     OW20128   3.294   0.547   5.853 -0.1548 -0.4822 -0.1725
 2890SOL    HW120129   3.381   0.510   5.836  0.2340  0.5920 -0.5226
 2890SOL    HW220130   3.251   0.533   5.769  0.1197 -0.5779 -0.2965
 2891SOL     OW20131   0.204   2.068  12.884 -0.2903 -0.3422 -0.6976
 2891SOL    HW120132   0.109   2.076  12.879 -0.1660  0.1917 -2.2024
 2891SOL    HW220133   0.227   2.064  12.791  2.6668 -0.6641  0.0369
 2892SOL     OW20134   0.735   0.380  12.958 -0.4972  0.3295 -0.2715
 2892SOL    HW120135   0.727   0.285  12.970 -2.1759  0.5052  0.0358
 2892SOL    HW220136   0.683   0.391  12.878  0.7465  1.8436 -0.8766
 2893SOL     OW20137   3.675   0.661   3.359 -0.2841  0.5211  0.2123
 2893SOL    HW120138   3.608   0.700   3.414 -0.8232 -1.1209  0.7272
 2893SOL    HW220139   3.732   0.737   3.351  1.5798 -0.9899 -0.9492
 2894SOL     OW20140   0.078   1.267   4.138  0.6372 -0.0720  0.2953
 2894SOL    HW120141   0.070   1.182   4.180  0.2006  0.5276  1.4324
 2894SOL    HW220142   4.719   1.308   4.143  0.1340 -1.1623  0.3652
 2895SOL     OW20143   3.933   0.462   3.989 -0.0804  0.0592 -0.0119
 2895SOL    HW120144   4.026   0.486   3.985 -0.2805  1.0357  1.3439
 2895SOL    HW220145   3.933   0.366   3.987  0.5493  0.0713 -0.5684
 2896SOL     OW20146   0.747   2.113  16.832  0.1661  0.4107  0.4452
 2896SOL    HW120147   0.664   2.128  16.878 -0.7068  0.2016 -1.0473
 2896SOL    HW220148   0.738   2.022  16.803  1.1030  0.6193 -0.4824
 2897SOL     OW20149   3.892   3.457  15.258  0.4526 -0.6401 -0.1009
 2897SOL    HW120150   3.933   3.371  15.261 -0.3428 -0.9793  0.9825
 2897SOL    HW220151   3.971   3.509  15.247 -1.1088  2.4938  3.5472
 2898SOL     OW20152   3.971   4.586   2.596  0.3177 -0.2099 -0.0005
 2898SOL    HW120153   4.045   4.647   2.604 -0.2635  0.6343 -0.9829
 2898SOL    HW220154   3.993   4.549   2.510  1.5867  1.6411 -0.4905
 2899SOL     OW20155   0.524   3.040   7.179 -0.3535 -0.2743  0.0361
 2899SOL    HW120156   0.519   3.003   7.090 -0.5840  2.1958 -0.9743
 2899SOL    HW220157   0.613   3.014   7.203 -0.4947  1.3936  2.2803
 2900SOL     OW20158   3.970   2.803   3.538  0.5647 -0.0918 -0.0123
 2900SOL    HW120159   3.955   2.813   3.444 -1.3146  1.1685  0.4163
 2900SOL    HW220160   3.989   2.891   3.569  1.3385 -0.0660 -0.5548
 2901SOL     OW20161   0.309   1.179   7.984  0.5185 -0.3141  0.6647
 2901SOL    HW120162   0.226   1.134   7.970  1.2780 -0.8641 -2.1364
 2901SOL    HW220163   0.362   1.141   7.914 -0.5863  1.2541 -1.0309
 2902SOL     OW20164   1.403   4.219   9.476 -0.4534  0.0848 -0.4624
 2902SOL    HW120165   1.334   4.256   9.421 -2.9843 -1.1256  1.9200
 2902SOL    HW220166   1.468   4.198   9.408 -2.0595  0.1933 -2.0380
 2903SOL     OW20167   4.187   2.427   3.237  0.1861 -0.4034  0.6032
 2903SOL    HW120168   4.157   2.504   3.284 -0.8699  0.0173 -0.7447
 2903SOL    HW220169   4.194   2.449   3.144  0.8193  0.6262  0.9045
 2904SOL     OW20170   0.825   3.138   5.912  0.4842 -0.3244 -0.2150
 2904SOL    HW120171   0.843   3.143   5.818  0.0001  0.9056 -0.2412
 2904SOL    HW220172   0.739   3.179   5.906  0.5757 -0.1086 -0.0340
 2905SOL     OW20173   2.371   3.576   9.301 -0.4826 -0.0627  0.6611
 2905SOL    HW120174   2.406   3.487   9.307  1.5350  0.7934  1.5908
 2905SOL    HW220175   2.289   3.571   9.351 -0.4858 -0.8809  0.5806
 2906SOL     OW20176   1.643   3.530  14.594 -0.4545 -0.0356 -0.1282
 2906SOL    HW120177   1.724   3.576  14.574 -0.6243  1.1608  1.9446
 2906SOL    HW220178   1.587   3.595  14.637 -0.8427  0.6848 -1.7115
 2907SOL     OW20179   2.892   4.721  10.904 -0.1480  0.4572  0.7890
 2907SOL    HW120180   2.893   4.643  10.960  1.7103  1.0428  1.5878
 2907SOL    HW220181   2.799   4.724  10.882 -0.1215  1.4138  0.8152
 2908SOL     OW20182   3.277   4.049   9.288  0.0956  0.1001  0.5330
 2908SOL    HW120183   3.280   3.957   9.261 -1.5970 -0.0608  0.8643
 2908SOL    HW220184   3.351   4.073   9.233 -0.1252 -2.3020 -0.8470
 2909SOL     OW20185   2.382   4.273   4.948  0.5362  0.4995 -0.1314
 2909SOL    HW120186   2.378   4.220   5.027 -0.2246 -0.2350 -0.6703
 2909SOL    HW220187   2.345   4.352   4.989 -0.9184 -0.3641  0.2227
 2910SOL     OW20188   4.216   3.565   5.565 -0.1164  0.5719 -0.5962
 2910SOL    HW120189   4.139   3.597   5.520  0.7311 -0.5497 -2.8255
 2910SOL    HW220190   4.281   3.593   5.500 -1.1679  0.2211 -1.7775
 2911SOL     OW20191   3.196   2.411   3.025  0.2911 -0.1254 -0.3029
 2911SOL    HW120192   3.286   2.425   2.997 -0.4342  1.2157 -1.9566
 2911SOL    HW220193   3.173   2.326   2.986  0.6241 -0.5877  0.5137
 2912SOL     OW20194   3.011   0.117   2.658 -0.1717  0.1503 -0.0038
 2912SOL    HW120195   3.086   0.074   2.699 -0.5840 -2.5338 -2.0354
 2912SOL    HW220196   3.026   0.211   2.666 -0.7562  0.3872 -1.7365
 2913SOL     OW20197   4.135   3.392   8.129  0.4633 -1.2563 -0.1270
 2913SOL    HW120198   4.153   3.448   8.053 -2.1448  1.2745  1.0981
 2913SOL    HW220199   4.216   3.403   8.179  0.3281 -1.4622  0.1359
 2914SOL     OW20200   4.419   2.189   8.514  0.1159 -1.2330 -0.2528
 2914SOL    HW120201   4.418   2.094   8.500  0.0283 -0.9003 -2.4658
 2914SOL    HW220202   4.374   2.204   8.597 -0.3136  0.9268 -0.8741
 2915SOL     OW20203   0.567   0.316   7.463  0.2492  0.1510 -0.1663
 2915SOL    HW120204   0.522   0.231   7.462 -2.4699  1.5958  1.6214
 2915SOL    HW220205   0.486   0.367   7.461 -0.1226 -0.3797  1.4315
 2916SOL     OW20206   0.844   1.966   4.765 -0.0656 -0.4085  0.2826
 2916SOL    HW120207   0.759   2.011   4.760  0.5077  0.0802 -4.3989
 2916SOL    HW220208   0.810   1.880   4.787 -2.0862  0.2407 -0.2856
 2917SOL     OW20209   0.551   2.352   8.335  0.1140  0.1241 -0.0093
 2917SOL    HW120210   0.520   2.392   8.253 -2.8275 -1.2318  0.4185
 2917SOL    HW220211   0.510   2.265   8.329 -2.2964  1.3902 -2.1400
 2918SOL     OW20212   4.024   1.912   7.359 -0.0763  0.0827 -0.0323
 2918SOL    HW120213   3.943   1.907   7.410  0.7358 -2.5537  1.0206
 2918SOL    HW220214   4.054   1.821   7.355 -0.3372 -0.0605  1.1491
 2919SOL     OW20215   2.521   3.196   9.601 -0.4932  0.1924  0.1867
 2919SOL    HW120216   2.517   3.124   9.664  1.2264 -0.8912 -0.9398
 2919SOL    HW220217   2.434   3.237   9.602  0.2892  1.8567  0.9268
 2920SOL     OW20218   0.340   0.405  13.533  0.4176 -0.0839  0.2583
 2920SOL    HW120219   0.386   0.428  13.452  3.0989 -0.3282  1.7449
 2920SOL    HW220220   0.395   0.337  13.572 -0.2410 -0.3734  0.6772
 2921SOL     OW20221   2.760   4.100   5.132  0.7029  0.4214 -0.0108
 2921SOL    HW120222   2.813   4.054   5.197  2.5245  1.1670 -0.9876
 2921SOL    HW220223   2.806   4.097   5.049  2.6765 -0.5575  1.1109
 2922SOL     OW20224   2.344   1.241   9.135  0.0035  0.1156 -0.2745
 2922SOL    HW120225   2.258   1.265   9.170  1.2944  1.6331  1.8898
 2922SOL    HW220226   2.391   1.304   9.190  0.8575  0.0954 -0.9753
 2923SOL     OW20227   4.083   4.534   5.311 -0.3474 -0.1537  0.0579
 2923SOL    HW120228   4.065   4.591   5.385 -1.6408 -0.3446 -0.0988
 2923SOL    HW220229   3.992   4.539   5.281 -0.4578 -1.8096  0.0975
 2924SOL     OW20230   3.256   3.600   7.516 -0.8445 -0.2355 -0.2026
 2924SOL    HW120231   3.246   3.695   7.503 -2.7045 -0.3669  0.2911
 2924SOL    HW220232   3.171   3.565   7.543 -0.4695 -1.3281 -0.4575
 2925SOL     OW20233   2.555   1.970   4.464 -0.1822  0.8839  0.4629
 2925SOL    HW120234   2.487   2.038   4.465 -0.8909  0.1884  0.0643
 2925SOL    HW220235   2.552   1.957   4.370 -2.5394 -1.7252  0.8832
 2926SOL     OW20236   1.186   0.840   1.648  0.8579  0.4429 -0.1484
 2926SOL    HW120237   1.160   0.861   1.558  1.8949 -1.1735 -0.8167
 2926SOL    HW220238   1.199   0.746   1.637  0.9320  0.7716 -2.9508
 2927SOL     OW20239   2.450   3.211   3.609 -0.3302  0.3146  0.6038
 2927SOL    HW120240   2.471   3.284   3.667 -1.1711  2.2765 -1.5768
 2927SOL    HW220241   2.372   3.170   3.648 -0.7484  1.1132  0.6138
 2928SOL     OW20242   1.188   2.821   4.389 -0.3543 -0.3032 -0.0183
 2928SOL    HW120243   1.107   2.853   4.349 -0.5170  0.9834  1.3383
 2928SOL    HW220244   1.161   2.755   4.452  1.3678  0.1506  1.2132
 2929SOL     OW20245   0.186   1.337   1.382 -0.6204 -0.1237 -0.2453
 2929SOL    HW120246   0.092   1.323   1.375 -0.4726 -0.8584 -0.7095
 2929SOL    HW220247   0.207   1.367   1.293 -0.5046 -1.2950 -0.6084
 2930SOL     OW20248   2.149   0.685   8.952  0.2060  0.2075  0.1187
 2930SOL    HW120249   2.150   0.780   8.965  0.3141  0.4740 -1.7077
 2930SOL    HW220250   2.200   0.671   8.872  1.1247  1.1573  0.5283
 2931SOL     OW20251   3.743   3.927   0.716 -0.2757  0.0518 -0.3211
 2931SOL    HW120252   3.832   3.942   0.750  0.0753  0.7963 -1.5689
 2931SOL    HW220253   3.729   3.836   0.742 -2.9571  0.7886  0.7626
 2932SOL     OW20254   4.436   0.139  16.685  0.1533  0.0666 -0.1736
 2932SOL    HW120255   4.440   0.065  16.746  2.9733 -1.3374 -2.0216
 2932SOL    HW220256   4.530   0.159  16.690 -0.3108  2.2041 -0.2088
 2933SOL     OW20257   3.597   1.919   8.468  0.3259  0.0752 -0.8813
 2933SOL    HW120258   3.580   1.839   8.418  0.0214 -0.0220 -0.6177
 2933SOL    HW220259   3.628   1.889   8.553  2.2907 -1.6748 -2.1901
 2934SOL     OW20260   2.011   4.073   2.659  0.4811 -0.1856  0.3271
 2934SOL    HW120261   2.072   4.144   2.682 -0.2289  0.9072 -1.1632
 2934SOL    HW220262   2.050   4.046   2.575  0.3349  1.1729 -0.1781
 2935SOL     OW20263   3.327   3.725   1.938 -0.2749 -0.5393  0.7789
 2935SOL    HW120264   3.394   3.662   1.967  2.9238  1.4332 -2.2370
 2935SOL    HW220265   3.256   3.680   1.893  1.1745 -1.3472 -0.7175
 2936SOL     OW20266   1.918   2.517  10.099  0.4575  0.1439 -0.2315
 2936SOL    HW120267   1.850   2.497  10.034  1.1844  1.1054 -1.2770
 2936SOL    HW220268   1.977   2.564  10.041 -1.9483  2.1178 -1.0914
 2937SOL     OW20269   2.489   4.428  15.787  0.1858  0.0638 -0.2794
 2937SOL    HW120270   2.520   4.503  15.735 -0.1249 -0.0555 -0.6382
 2937SOL    HW220271   2.560   4.403  15.846 -0.5383 -0.3656  0.3950
 2938SOL     OW20272   1.458   1.451   7.801  0.3517  0.6918  0.2084
 2938SOL    HW120273   1.446   1.546   7.792  2.9020  0.7736 -2.3238
 2938SOL    HW220274   1.365   1.431   7.812  0.2669  0.8952 -0.1237
 2939SOL     OW20275   2.327   3.844   9.789  0.0894 -0.1659  0.1385
 2939SOL    HW120276   2.403   3.785   9.794  0.1544  0.1769  2.7841
 2939SOL    HW220277   2.311   3.867   9.880  1.9207  1.7067 -0.0009
 2940SOL     OW20278   2.787   3.679  15.093 -0.1295  0.1285 -0.9577
 2940SOL    HW120279   2.703   3.725  15.094 -1.0062 -1.4331 -4.1477
 2940SOL    HW220280   2.826   3.702  15.008 -0.5028 -0.2673 -1.2364
 2941SOL     OW20281   1.399   3.621   4.987  0.0017 -0.2095 -0.1796
 2941SOL    HW120282   1.340   3.548   5.005  3.2163 -2.8328 -0.2369
 2941SOL    HW220283   1.478   3.576   4.955  0.1895 -1.8179  2.4900
 2942SOL     OW20284   3.443   1.517  11.916 -0.3056 -0.2514  0.3484
 2942SOL    HW120285   3.408   1.453  11.853 -0.2523  1.5994 -1.5360
 2942SOL    HW220286   3.464   1.461  11.991 -0.1298 -0.0821  0.4243
 2943SOL     OW20287   0.552   3.797   3.489 -0.8269  0.0369 -0.0453
 2943SOL    HW120288   0.517   3.711   3.513  2.0382 -1.4759 -1.3234
 2943SOL    HW220289   0.615   3.801   3.562 -0.0067  0.1607 -0.7589
 2944SOL     OW20290   1.193   4.228   7.662 -0.0748  0.2217 -0.3687
 2944SOL    HW120291   1.258   4.159   7.673 -0.6714 -0.0923  1.2666
 2944SOL    HW220292   1.190   4.271   7.747 -1.2901  1.8389 -1.2260
 2945SOL     OW20293   1.556   3.850   4.017 -0.4370 -0.0665  0.1501
 2945SOL    HW120294   1.464   3.847   4.043  0.2999  0.7032  2.7469
 2945SOL    HW220295   1.546   3.787   3.945 -1.1229  0.5891 -0.3295
 2946SOL     OW20296   0.856   1.046   3.640  0.1737  0.2521  0.2791
 2946SOL    HW120297   0.860   0.950   3.644 -0.6059  0.3216  2.6883
 2946SOL    HW220298   0.766   1.064   3.665  0.7445  0.2808  2.3080
 2947SOL     OW20299   3.293   3.303   5.339 -0.8333 -0.3200  0.4068
 2947SOL    HW120300   3.353   3.325   5.268 -1.5163  0.3670  0.0440
 2947SOL    HW220301   3.256   3.220   5.308 -0.6688 -0.0048 -0.6126
 2948SOL     OW20302   3.229   0.926  13.647  0.3713 -0.5764 -0.2595
 2948SOL    HW120303   3.189   0.849  13.606 -0.3693 -0.3852  0.0933
 2948SOL    HW220304   3.192   0.991  13.588 -1.6007 -1.6306 -0.1932
 2949SOL     OW20305   2.251   0.728   2.262 -0.1177  0.5009  0.3331
 2949SOL    HW120306   2.301   0.656   2.300 -1.9852 -0.6913  0.5381
 2949SOL    HW220307   2.223   0.681   2.184  0.8879 -1.1549  0.9773
 2950SOL     OW20308   0.723   2.794   8.082  0.0078  0.2913  0.0537
 2950SOL    HW120309   0.759   2.832   8.002 -0.8560  0.7628 -0.1112
 2950SOL    HW220310   0.674   2.718   8.050  1.3894 -0.9000  0.7709
 2951SOL     OW20311   2.795   4.168   5.725 -0.4416 -0.5469 -0.3382
 2951SOL    HW120312   2.844   4.204   5.799  0.9216  0.3971 -1.6795
 2951SOL    HW220313   2.872   4.171   5.668  0.5765 -0.1872  1.0470
 2952SOL     OW20314   0.296   0.665   7.019 -0.4164 -0.2635 -0.2780
 2952SOL    HW120315   0.295   0.594   6.954  0.0725 -0.2957 -0.2459
 2952SOL    HW220316   0.240   0.636   7.091 -0.3185 -1.9106 -0.8528
 2953SOL     OW20317   0.535   3.208   2.465 -0.0794 -0.2377 -0.1870
 2953SOL    HW120318   0.624   3.199   2.430  0.1004  1.0626 -0.0444
 2953SOL    HW220319   0.521   3.302   2.459  3.3908  0.2195 -1.2514
 2954SOL     OW20320   2.498   0.749  15.423 -0.4176 -0.3639  0.1803
 2954SOL    HW120321   2.572   0.748  15.483 -1.0046 -0.1204  0.9048
 2954SOL    HW220322   2.484   0.842  15.409 -0.4607 -0.3580  0.2616
 2955SOL     OW20323   1.459   1.154   4.083  0.2837  0.1835 -0.0001
 2955SOL    HW120324   1.480   1.073   4.037  1.1097  0.3439  0.0932
 2955SOL    HW220325   1.394   1.194   4.025  2.2896 -1.0322 -3.0500
 2956SOL     OW20326   4.139   3.344   0.490 -0.2938  0.1716  0.1321
 2956SOL    HW120327   4.215   3.285   0.490 -2.8284 -3.1040 -0.4662
 2956SOL    HW220328   4.172   3.427   0.455  1.8510 -0.4890  0.6343
 2957SOL     OW20329   1.301   0.505   6.095 -0.1658  0.2474  0.5989
 2957SOL    HW120330   1.241   0.574   6.066  1.9098  1.2562 -1.2582
 2957SOL    HW220331   1.371   0.545   6.147 -1.9788  2.1617  1.5491
 2958SOL     OW20332   1.989   1.126   0.757  0.2929  0.2257  0.0505
 2958SOL    HW120333   1.894   1.136   0.751  0.2535  1.3705  2.8314
 2958SOL    HW220334   1.998   1.039   0.718 -0.3955  0.6965 -1.1591
 2959SOL     OW20335   0.385   2.929  14.227 -0.0293 -0.0327  0.6003
 2959SOL    HW120336   0.357   2.954  14.138 -2.8648 -1.9349  0.9634
 2959SOL    HW220337   0.463   2.878  14.208  0.8643  2.2879 -2.0068
 2960SOL     OW20338   1.867   2.992  17.362  0.6097 -0.0747  0.3342
 2960SOL    HW120339   1.863   2.912  17.414 -1.1092 -3.0185 -4.2987
 2960SOL    HW220340   1.787   2.979  17.312 -0.4420 -1.7996  2.4934
 2961SOL     OW20341   2.078   2.293   0.784 -0.1987 -0.1398  0.6796
 2961SOL    HW120342   2.027   2.318   0.707 -0.0981  2.0715  1.3150
 2961SOL    HW220343   2.023   2.225   0.823  0.7832 -0.2012  1.9694
 2962SOL     OW20344   4.324   4.663  10.115 -0.1450 -0.6158 -0.3451
 2962SOL    HW120345   4.246   4.673  10.169 -0.9564  1.4351 -1.8797
 2962SOL    HW220346   4.285   4.641  10.031 -1.3596  2.1976 -0.5236
 2963SOL     OW20347   4.621   0.297   5.125  0.2843  0.0702  0.1190
 2963SOL    HW120348   4.527   0.291   5.142  0.1340  1.5779 -0.1888
 2963SOL    HW220349   4.661   0.247   5.195 -1.2080  1.0044  1.6369
 2964SOL     OW20350   1.060   2.213   0.869 -0.8886 -0.4791 -0.2403
 2964SOL    HW120351   1.113   2.265   0.810 -1.2078  0.2628  0.1316
 2964SOL    HW220352   1.045   2.134   0.817 -0.8534 -1.1575  0.7635
 2965SOL     OW20353   3.880   1.994   5.114 -0.3368  0.0859 -0.0809
 2965SOL    HW120354   3.786   1.987   5.095 -1.0136 -0.3505  3.3549
 2965SOL    HW220355   3.935   1.958   5.044 -1.0432 -1.2671  0.0681
 2966SOL     OW20356   1.734   1.763   6.287  0.4432 -0.1947 -0.4014
 2966SOL    HW120357   1.756   1.703   6.358  0.5974  0.7446  0.3391
 2966SOL    HW220358   1.686   1.835   6.327 -2.3613 -2.5409  0.4281
 2967SOL     OW20359   4.687   3.363   3.999  0.2688 -0.1525 -0.3473
 2967SOL    HW120360   0.026   3.406   3.945  0.4703 -0.8041 -0.6206
 2967SOL    HW220361   4.619   3.377   3.933 -2.2385 -0.0874  2.2485
 2968SOL     OW20362   4.165   0.230  17.583 -0.0923 -0.6743 -0.4199
 2968SOL    HW120363   4.087   0.181  17.610 -0.3902  0.6748  1.2097
 2968SOL    HW220364   4.194   0.271  17.664  1.0768 -0.7982 -0.7793
 2969SOL     OW20365   2.970   4.456   8.049 -0.0937 -0.6105  0.1103
 2969SOL    HW120366   2.879   4.484   8.057  0.1291  1.2013 -3.5239
 2969SOL    HW220367   2.988   4.411   8.131  1.1582 -2.3245 -1.0751
 2970SOL     OW20368   2.623   0.871   1.985 -0.7534 -0.1888  0.4256
 2970SOL    HW120369   2.576   0.856   2.067 -0.1163  0.8635  0.9843
 2970SOL    HW220370   2.673   0.790   1.991 -0.3890 -0.2332 -3.1046
 2971SOL     OW20371   3.335   1.244   2.481  0.0557 -0.2782  0.4822
 2971SOL    HW120372   3.421   1.286   2.486  0.0882 -0.1780 -0.8775
 2971SOL    HW220373   3.340   1.187   2.558  0.2009  0.2413  0.8621
 2972SOL     OW20374   0.466   0.108   7.149  0.8031  0.4917  0.3214
 2972SOL    HW120375   0.550   0.096   7.194  0.0686  1.7990  2.0173
 2972SOL    HW220376   0.489   0.118   7.056  0.9209 -0.2834  0.2655
 2973SOL     OW20377   3.806   4.509   7.290 -0.3381 -0.2199 -0.1286
 2973SOL    HW120378   3.866   4.496   7.363 -0.5124 -1.0468 -0.1303
 2973SOL    HW220379   3.856   4.568   7.234  0.3639 -0.8618 -0.1743
 2974SOL     OW20380   3.937   1.688   3.812  0.2616 -0.1367 -0.2144
 2974SOL    HW120381   3.847   1.660   3.829  0.4295 -0.3173  0.3876
 2974SOL    HW220382   3.933   1.782   3.797  1.4053  0.0460  0.6386
 2975SOL     OW20383   4.061   4.664  12.059  0.2121  0.1236  0.0058
 2975SOL    HW120384   4.097   0.024  12.065  2.1151 -0.8007  2.0955
 2975SOL    HW220385   4.104   4.623  12.134  0.7474  1.0911  0.2182
 2976SOL     OW20386   3.942   2.939   4.479  0.3086  0.0725 -0.6736
 2976SOL    HW120387   4.013   2.952   4.416  1.8738  0.1947  1.1128
 2976SOL    HW220388   3.870   2.931   4.417  0.6862  0.1495 -1.1195
 2977SOL     OW20389   3.455   3.380   6.465  0.1178 -0.2720  0.0410
 2977SOL    HW120390   3.398   3.344   6.397 -2.3890  2.1879  0.8536
 2977SOL    HW220391   3.506   3.449   6.423 -2.1793  0.2261 -1.8809
 2978SOL     OW20392   2.944   3.280   5.081 -0.0491  0.5166 -0.4200
 2978SOL    HW120393   2.856   3.318   5.088 -0.1709 -0.3277  2.4501
 2978SOL    HW220394   2.932   3.221   5.006  1.7344 -0.4191  0.0454
 2979SOL     OW20395   3.735   1.448  11.409 -0.2493  0.4774 -0.3280
 2979SOL    HW120396   3.805   1.386  11.389 -0.7410  0.4478 -1.9487
 2979SOL    HW220397   3.699   1.480  11.327 -1.2547 -0.0263 -0.0838
 2980SOL     OW20398   4.340   2.279   9.021  0.1545 -0.4451 -0.1487
 2980SOL    HW120399   4.260   2.227   9.035 -1.1431  1.9623  1.3401
 2980SOL    HW220400   4.384   2.272   9.105 -1.6644  0.2364  0.8630
 2981SOL     OW20401   0.804   2.189   7.341 -0.0764 -0.0845  0.3953
 2981SOL    HW120402   0.836   2.261   7.396 -0.7267 -0.1945  0.9095
 2981SOL    HW220403   0.740   2.243   7.294  0.1125 -0.6343 -0.4918
 2982SOL     OW20404   3.314   2.809   2.757  0.5059 -0.0526  0.3252
 2982SOL    HW120405   3.353   2.863   2.689  1.3670 -1.1008 -0.0240
 2982SOL    HW220406   3.355   2.726   2.732  1.5209  1.3770 -2.6825
 2983SOL     OW20407   2.883   1.329   7.114 -0.2675  0.3813  0.2690
 2983SOL    HW120408   2.806   1.275   7.131  0.1164 -0.1108  0.4627
 2983SOL    HW220409   2.831   1.408   7.102  1.8983  2.1393  2.3871
 2984SOL     OW20410   2.387   3.653   6.923  0.2246  0.1506  0.5295
 2984SOL    HW120411   2.370   3.708   6.999 -0.8650  0.5773 -0.0247
 2984SOL    HW220412   2.362   3.718   6.857  0.8182  0.5977  0.7433
 2985SOL     OW20413   3.071   4.362   2.932  0.2124 -0.1673  0.4079
 2985SOL    HW120414   3.087   4.353   3.026 -0.5845  3.1158  0.8610
 2985SOL    HW220415   3.118   4.444   2.915  0.1157 -0.2851 -0.4259
 2986SOL     OW20416   1.338   0.450   3.936 -0.3270  0.4833 -0.9152
 2986SOL    HW120417   1.340   0.540   3.902  0.1890  0.6871 -0.3479
 2986SOL    HW220418   1.245   0.427   3.936 -0.4523  1.0250  0.8631
 2987SOL     OW20419   0.162   3.727   2.184 -0.9106  0.2605 -0.2989
 2987SOL    HW120420   0.233   3.790   2.196 -0.3436 -0.5996  0.9204
 2987SOL    HW220421   0.119   3.742   2.269 -1.4278  0.6194 -0.6294
 2988SOL     OW20422   0.909   4.053   8.168  0.2542 -0.0787  0.1070
 2988SOL    HW120423   0.895   4.097   8.251 -0.4991 -1.2020  0.5697
 2988SOL    HW220424   0.911   3.964   8.204  0.6685 -0.7641 -1.5861
 2989SOL     OW20425   1.177   3.861   2.854  0.1500 -0.3159  0.0069
 2989SOL    HW120426   1.186   3.952   2.881 -1.1247 -0.0501 -0.4603
 2989SOL    HW220427   1.125   3.885   2.777  0.0046 -3.2965 -0.8397
 2990SOL     OW20428   1.111   3.405  11.608  0.5299 -0.4305  0.3357
 2990SOL    HW120429   1.078   3.326  11.566 -3.1056  0.4887  1.4779
 2990SOL    HW220430   1.153   3.354  11.678  0.5702  1.7303  1.9090
 2991SOL     OW20431   1.412   1.631  16.559  0.0824 -0.3845  0.2824
 2991SOL    HW120432   1.360   1.590  16.490 -0.0210 -0.4245  0.3838
 2991SOL    HW220433   1.409   1.570  16.633 -2.0974 -0.3322  0.2441
 2992SOL     OW20434   3.260   0.513   1.740 -0.3421 -0.2352  0.5132
 2992SOL    HW120435   3.185   0.490   1.795 -0.6201  1.4338  0.8376
 2992SOL    HW220436   3.218   0.504   1.654 -2.0487 -0.9997  1.4270
 2993SOL     OW20437   0.277   2.499   4.265 -0.0314 -0.2851  0.2791
 2993SOL    HW120438   0.358   2.473   4.309 -1.1124 -1.4557  1.5791
 2993SOL    HW220439   0.224   2.507   4.344  0.0867  0.1303  0.3155
 2994SOL     OW20440   4.486   0.298   6.034 -0.6018 -0.6189 -0.3387
 2994SOL    HW120441   4.455   0.209   6.020  1.5696 -1.8459  2.6597
 2994SOL    HW220442   4.433   0.332   6.106  2.2034  0.1598  1.3845
 2995SOL     OW20443   2.949   1.106   2.476  0.4246 -0.1710 -0.0716
 2995SOL    HW120444   2.857   1.090   2.456  0.5954  1.8332 -2.4928
 2995SOL    HW220445   2.972   1.015   2.493  1.3639  0.3422  1.4163
 2996SOL     OW20446   1.789   0.822  12.265  0.1203 -0.0608 -0.5362
 2996SOL    HW120447   1.713   0.792  12.215 -0.5459 -3.2283  2.3787
 2996SOL    HW220448   1.792   0.913  12.235  0.9352  0.2168  0.3799
 2997SOL     OW20449   4.338   0.812   7.809  0.6295 -0.0896 -0.0274
 2997SOL    HW120450   4.255   0.818   7.761  0.6763  1.6803  0.1079
 2997SOL    HW220451   4.329   0.730   7.857 -1.3483 -0.2853 -0.7386
 2998SOL     OW20452   0.554   4.165   3.918 -0.1387  0.2299 -0.4781
 2998SOL    HW120453   0.636   4.123   3.942 -0.7738 -1.4449 -1.2040
 2998SOL    HW220454   0.541   4.224   3.991 -0.4302 -0.5860  0.1325
 2999SOL     OW20455   2.702   3.825  10.480  0.7796 -0.0490  0.0972
 2999SOL    HW120456   2.646   3.899  10.457  0.4899 -0.7663 -1.4793
 2999SOL    HW220457   2.725   3.850  10.569 -0.5535  0.5804  0.2612
 3000SOL     OW20458   3.371   2.982   4.263 -0.4730  0.2036  0.3883
 3000SOL    HW120459   3.309   3.006   4.332 -0.5489  0.3441  0.2708
 3000SOL    HW220460   3.331   2.899   4.240  0.4190  0.1059 -0.8350
 3001SOL     OW20461   2.973   4.483  11.078  0.0371 -0.3416  0.0093
 3001SOL    HW120462   2.916   4.477  11.155 -1.2234 -0.0163 -0.8992
 3001SOL    HW220463   3.038   4.417  11.103  1.1305  0.1348 -1.5987
 3002SOL     OW20464   3.564   0.297   2.242 -0.2675  0.4926  0.3165
 3002SOL    HW120465   3.531   0.370   2.189 -0.9637 -0.3723 -0.4532
 3002SOL    HW220466   3.485   0.253   2.273  0.6914 -0.1126  1.9018
 3003SOL     OW20467   1.699   3.593   9.125 -0.3479 -0.1642 -0.5644
 3003SOL    HW120468   1.769   3.554   9.179 -1.1796 -1.9609 -0.7955
 3003SOL    HW220469   1.749   3.590   9.044  0.8680  0.4186  0.1596
 3004SOL     OW20470   3.600   3.934   5.386  0.3312 -0.4146 -0.4433
 3004SOL    HW120471   3.693   3.911   5.377  0.7862  0.3960  2.2989
 3004SOL    HW220472   3.577   3.866   5.449  0.2396  0.5396  0.5361
 3005SOL     OW20473   2.633   1.836   4.735 -0.5795  0.7420  0.7068
 3005SOL    HW120474   2.577   1.824   4.658  1.7398 -0.5006 -0.8041
 3005SOL    HW220475   2.657   1.744   4.749 -0.3882  0.3698 -1.9412
 3006SOL     OW20476   1.077   3.333   4.789 -0.8806 -0.4123 -0.3782
 3006SOL    HW120477   1.097   3.370   4.703 -0.9056 -0.6530 -0.4855
 3006SOL    HW220478   1.148   3.271   4.799  1.5386  2.4625  0.1940
 3007SOL     OW20479   3.608   1.929   5.119 -0.0456  0.6243 -0.1216
 3007SOL    HW120480   3.590   2.022   5.125 -0.4202  0.5345  0.0987
 3007SOL    HW220481   3.572   1.922   5.031  1.2143 -1.4303 -0.4853
 3008SOL     OW20482   2.715   1.968   4.035  0.6021  0.9540 -0.4029
 3008SOL    HW120483   2.632   1.948   3.992  0.1912 -0.0771  0.8761
 3008SOL    HW220484   2.688   2.021   4.111  1.8338  1.8020 -0.5549
 3009SOL     OW20485   3.113   0.308   4.642  0.3364  0.5015 -0.3703
 3009SOL    HW120486   3.071   0.354   4.715 -0.7062 -1.8250  0.5242
 3009SOL    HW220487   3.049   0.324   4.573  0.5265 -0.0916 -0.6904
 3010SOL     OW20488   0.063   4.581   2.879 -0.9518  0.2656 -0.0216
 3010SOL    HW120489   4.725   4.647   2.899  0.3614  1.3220  0.8548
 3010SOL    HW220490   0.107   4.569   2.963  1.3834  0.7552 -1.1548
 3011SOL     OW20491   1.433   4.056   7.933 -0.7006 -0.0948  0.3256
 3011SOL    HW120492   1.458   4.001   8.007  1.6216 -0.3858 -0.6460
 3011SOL    HW220493   1.449   3.993   7.862 -0.6588  0.2411  0.0384
 3012SOL     OW20494   4.717   1.567   5.445  0.1524 -0.6199  0.5476
 3012SOL    HW120495   4.725   1.472   5.436  1.1546 -0.5686  0.9971
 3012SOL    HW220496   4.642   1.567   5.505  1.2952  0.3995  1.9534
 3013SOL     OW20497   4.341   1.165   2.313 -0.0804 -0.0486  0.1594
 3013SOL    HW120498   4.267   1.211   2.273 -1.9108 -2.6207  0.6007
 3013SOL    HW220499   4.359   1.230   2.380 -1.3468  2.3327 -1.8125
 3014SOL     OW20500   2.742   3.180   7.641  0.2346  0.0707 -0.8683
 3014SOL    HW120501   2.713   3.225   7.721 -0.1457 -1.1298 -0.3340
 3014SOL    HW220502   2.665   3.124   7.631  0.9146 -0.3153 -4.0516
 3015SOL     OW20503   2.804   3.112   6.882 -1.3207  0.0122  0.3851
 3015SOL    HW120504   2.804   3.020   6.855  0.0776 -0.3948  1.7544
 3015SOL    HW220505   2.714   3.137   6.903 -1.4479 -0.3175  0.2280
 3016SOL     OW20506   0.622   0.433   6.190  0.4203  0.0480  0.0258
 3016SOL    HW120507   0.691   0.387   6.141 -0.0325  1.1365 -1.6190
 3016SOL    HW220508   0.613   0.516   6.144 -0.1758 -0.9530 -1.6708
 3017SOL     OW20509   4.359   1.539   6.475 -0.3619 -0.4155  0.0767
 3017SOL    HW120510   4.440   1.590   6.476 -0.3033 -0.5068 -0.1117
 3017SOL    HW220511   4.298   1.583   6.535 -1.2171 -0.8725 -0.4526
 3018SOL     OW20512   1.263   0.502   6.935  0.4292 -0.4209 -0.0375
 3018SOL    HW120513   1.223   0.569   6.990 -0.9610 -1.2733 -0.0136
 3018SOL    HW220514   1.239   0.535   6.848 -0.1238  0.8070  0.5873
 3019SOL     OW20515   3.300   0.206  15.523 -0.3221 -0.3705 -0.2906
 3019SOL    HW120516   3.259   0.291  15.509  1.1479  0.1494 -1.4487
 3019SOL    HW220517   3.294   0.168  15.435  0.8520 -0.9557 -0.1064
 3020SOL     OW20518   1.782   0.573   2.839 -0.0541  0.0272 -0.4046
 3020SOL    HW120519   1.841   0.500   2.821 -0.7317 -0.7148  0.3852
 3020SOL    HW220520   1.747   0.586   2.751 -1.2845 -0.7150 -0.0240
 3021SOL     OW20521   2.571   1.481   3.175 -0.0971 -0.3725 -0.2872
 3021SOL    HW120522   2.609   1.408   3.224 -1.0518 -0.5120  0.2353
 3021SOL    HW220523   2.488   1.441   3.152  0.1223 -1.5979  1.0348
 3022SOL     OW20524   4.201   3.739   3.505 -0.3895  0.0517 -0.0170
 3022SOL    HW120525   4.136   3.695   3.559 -0.8278 -0.6950 -1.1454
 3022SOL    HW220526   4.282   3.737   3.556 -1.3806  2.2331  1.6190
 3023SOL     OW20527   3.055   3.532   5.812  0.4545  0.3437 -0.0790
 3023SOL    HW120528   3.042   3.532   5.907 -1.2268 -1.4368 -0.3010
 3023SOL    HW220529   3.114   3.607   5.804  1.7721 -0.6765  0.0145
 3024SOL     OW20530   4.430   2.775   8.317  0.4334 -0.0293 -0.4505
 3024SOL    HW120531   4.374   2.832   8.264 -1.2325  0.2558  1.5716
 3024SOL    HW220532   4.503   2.837   8.321  1.6104 -1.5261  1.4115
 3025SOL     OW20533   1.748   0.295   6.069 -0.5795 -0.2067 -0.0853
 3025SOL    HW120534   1.763   0.200   6.066  0.2039 -0.0115 -1.9360
 3025SOL    HW220535   1.832   0.339   6.063  0.2294 -1.3084  2.8327
 3026SOL     OW20536   1.720   4.171  15.400  0.3077  0.4485 -0.8701
 3026SOL    HW120537   1.751   4.095  15.351 -0.3466  0.1929 -0.8749
 3026SOL    HW220538   1.763   4.157  15.484  0.3988  1.3461 -0.7648
 3027SOL     OW20539   2.820   4.172   4.856  0.5337 -0.4463  0.1220
 3027SOL    HW120540   2.729   4.167   4.827  0.9068  1.6684 -1.3943
 3027SOL    HW220541   2.862   4.136   4.778 -1.7223  1.3917 -1.9213
 3028SOL     OW20542   2.562   4.435   5.534  0.0216 -0.1353 -0.4645
 3028SOL    HW120543   2.619   4.499   5.578 -1.4752  1.6929 -1.1813
 3028SOL    HW220544   2.481   4.444   5.584  0.9174  0.9214  0.8099
 3029SOL     OW20545   1.025   0.640   6.115 -0.6789 -0.2899  0.0172
 3029SOL    HW120546   1.031   0.549   6.145  1.5881 -1.0652 -2.7198
 3029SOL    HW220547   1.026   0.677   6.203  0.0870 -1.6299  0.5758
 3030SOL     OW20548   1.217   3.451  16.028  0.1325  0.1495  0.5873
 3030SOL    HW120549   1.263   3.463  15.945 -0.9179 -1.5385 -0.2227
 3030SOL    HW220550   1.130   3.432  15.991  1.0502  0.6676 -1.8553
 3031SOL     OW20551   2.044   1.046  13.235  0.4607  0.0018 -0.1030
 3031SOL    HW120552   2.062   0.995  13.155  0.8485  0.6575 -0.4360
 3031SOL    HW220553   2.100   1.123  13.223 -0.7912  1.2238  2.0345
 3032SOL     OW20554   2.093   4.108  15.310 -0.0455  0.8914  0.0993
 3032SOL    HW120555   2.099   4.089  15.217 -0.3925  2.8550 -0.3120
 3032SOL    HW220556   2.102   4.203  15.315  2.6737  0.6007  0.9830
 3033SOL     OW20557   0.063   0.408   5.673 -0.2052 -0.1396  0.4484
 3033SOL    HW120558   4.697   0.393   5.666 -0.2045 -0.1211  0.3992
 3033SOL    HW220559   0.079   0.488   5.724  0.5992  0.9096 -1.4204
 3034SOL     OW20560   2.778   4.005   8.541 -0.1843 -0.3825  0.4513
 3034SOL    HW120561   2.694   3.963   8.559 -1.3996  1.9078  0.1651
 3034SOL    HW220562   2.759   4.098   8.554 -1.1204 -0.6950  1.2870
 3035SOL     OW20563   1.029   2.707   5.062 -0.1642  0.1847 -0.5824
 3035SOL    HW120564   0.977   2.684   5.140  1.6033 -0.0394  0.5394
 3035SOL    HW220565   1.062   2.622   5.033 -0.3316  0.3644 -1.2813
 3036SOL     OW20566   4.060   1.950   4.743 -0.2546 -1.1131  0.2635
 3036SOL    HW120567   4.014   1.870   4.767 -0.6658 -0.1754  2.5720
 3036SOL    HW220568   4.023   1.964   4.656  0.0915  1.5821  0.5447
 3037SOL     OW20569   3.312   2.023   8.012  0.4710  0.3221 -0.1092
 3037SOL    HW120570   3.384   2.017   7.948  1.7823 -1.3661  1.5164
 3037SOL    HW220571   3.334   1.944   8.062  2.5377 -0.3807 -2.1082
 3038SOL     OW20572   1.996   1.393   0.708 -0.0908 -0.5482  0.4370
 3038SOL    HW120573   2.015   1.319   0.652 -0.5890 -0.3306 -0.0289
 3038SOL    HW220574   1.952   1.345   0.778  1.7299 -1.8600  0.6749
 3039SOL     OW20575   0.586   4.628   1.769 -0.6261  0.4309 -0.4891
 3039SOL    HW120576   0.628   4.663   1.690  2.8390  2.2787  2.1613
 3039SOL    HW220577   0.514   4.580   1.728 -0.1345 -1.8573  1.3096
 3040SOL     OW20578   4.705   0.818  15.932  0.0054  0.0831 -0.3158
 3040SOL    HW120579   0.033   0.895  15.931 -0.9503  0.8243  2.6060
 3040SOL    HW220580   4.673   0.825  15.842  0.7277  0.2647 -0.5570
 3041SOL     OW20581   1.565   0.767  10.537 -0.0544 -0.0531 -0.0358
 3041SOL    HW120582   1.657   0.743  10.530  0.1847  1.4133 -1.8928
 3041SOL    HW220583   1.525   0.726  10.460 -3.1494 -0.4591  1.8188
 3042SOL     OW20584   3.316   1.041   6.833  0.6964 -0.3386 -0.5377
 3042SOL    HW120585   3.241   0.991   6.865  1.2261 -1.5666 -1.2445
 3042SOL    HW220586   3.327   1.095   6.912 -0.7539 -1.5900  0.5153
 3043SOL     OW20587   4.159   3.378   7.415  0.4293  0.3327 -0.2396
 3043SOL    HW120588   4.163   3.382   7.511 -0.9017 -2.4243 -0.0988
 3043SOL    HW220589   4.081   3.433   7.408  0.4484  0.5000  0.8203
 3044SOL     OW20590   0.388   1.945  13.039 -0.0129  0.2872  0.6697
 3044SOL    HW120591   0.314   1.977  12.988 -0.3880 -0.6685  0.6032
 3044SOL    HW220592   0.374   1.850  13.030  2.8097 -0.0023 -0.7495
 3045SOL     OW20593   0.772   0.567   6.394 -0.1441 -0.1172  0.3140
 3045SOL    HW120594   0.728   0.500   6.342  1.4521 -1.5868  0.8505
 3045SOL    HW220595   0.841   0.602   6.339 -2.1744  1.4565 -1.2409
 3046SOL     OW20596   0.490   1.406   8.566 -0.2339  0.0195  0.1270
 3046SOL    HW120597   0.510   1.370   8.479  2.0770  0.0933  0.6493
 3046SOL    HW220598   0.524   1.495   8.573 -0.5312  0.0017  1.8186
 3047SOL     OW20599   1.776   0.695   5.467 -0.5713  0.0566  0.2826
 3047SOL    HW120600   1.705   0.683   5.529 -0.7472  0.9941  0.2593
 3047SOL    HW220601   1.810   0.783   5.485  0.6314  0.3652 -3.3667
 3048SOL     OW20602   4.110   1.315  14.550 -0.1967  0.2045 -0.3939
 3048SOL    HW120603   4.182   1.283  14.604 -1.6733  0.1981  1.5453
 3048SOL    HW220604   4.156   1.392  14.516  2.0049 -0.0724  1.9629
 3049SOL     OW20605   0.053   2.672   1.635  0.1211 -0.4498 -0.6912
 3049SOL    HW120606   0.046   2.581   1.605  2.1845 -1.3164  1.4349
 3049SOL    HW220607   4.695   2.698   1.667  1.0205  0.7503  0.7505
 3050SOL     OW20608   3.517   0.576   4.976  0.0041  0.0342  0.1684
 3050SOL    HW120609   3.566   0.577   4.894 -1.1689  0.6998 -0.5118
 3050SOL    HW220610   3.483   0.487   4.967  0.8365 -0.3113  0.3873
 3051SOL     OW20611   3.066   1.264   7.306 -0.0589  0.5216  0.5366
 3051SOL    HW120612   3.011   1.284   7.230  0.8657 -0.6834 -0.4507
 3051SOL    HW220613   3.025   1.315   7.376  3.5042  3.3249  0.5706
 3052SOL     OW20614   1.408   0.056  14.635 -0.2943  0.1503 -0.8093
 3052SOL    HW120615   1.354   4.711  14.666  0.2488 -0.7293 -1.9112
 3052SOL    HW220616   1.491   0.015  14.609  0.0701  0.9278 -0.8737
 3053SOL     OW20617   1.463   2.091   4.818  0.2778  0.4975  0.0858
 3053SOL    HW120618   1.405   2.058   4.887  1.1757 -0.3869  0.4043
 3053SOL    HW220619   1.549   2.067   4.851  1.2726  2.8390 -0.8540
 3054SOL     OW20620   1.472   0.327   0.883  0.2781  0.3872 -0.4661
 3054SOL    HW120621   1.429   0.296   0.803  2.5871  0.7175 -1.8324
 3054SOL    HW220622   1.565   0.315   0.866  0.5486 -1.5561  2.3975
 3055SOL     OW20623   2.986   4.097   6.175  0.1969 -0.2237 -0.4128
 3055SOL    HW120624   3.041   4.166   6.212 -1.1687  0.3451  0.5437
 3055SOL    HW220625   3.018   4.088   6.085 -1.3733 -3.1098 -0.6745
 3056SOL     OW20626   1.295   4.037   6.429 -0.3693  0.8379 -0.3705
 3056SOL    HW120627   1.313   4.101   6.360  1.7977  2.0295  1.3138
 3056SOL    HW220628   1.251   3.970   6.376  3.0252 -1.7602  0.0807
 3057SOL     OW20629   4.334   2.432  12.371  0.6116  0.1164 -0.3119
 3057SOL    HW120630   4.239   2.439  12.358  0.8977 -0.9439 -2.8579
 3057SOL    HW220631   4.359   2.412  12.281  0.9801 -0.1417 -0.1511
 3058SOL     OW20632   0.690   3.147  10.769  0.5834 -0.5892 -0.7751
 3058SOL    HW120633   0.773   3.099  10.764  0.7614 -0.3281 -0.2850
 3058SOL    HW220634   0.712   3.232  10.730 -0.5165 -0.0192 -0.1620
 3059SOL     OW20635   4.672   0.800  17.220 -0.0276  0.0609  0.4332
 3059SOL    HW120636   4.638   0.857  17.151  1.0452  0.0862 -0.0769
 3059SOL    HW220637   4.595   0.775  17.272 -0.6744 -0.1103 -0.6030
 3060SOL     OW20638   2.389   2.752   7.415 -0.5059 -0.6208  0.1847
 3060SOL    HW120639   2.455   2.740   7.346 -0.7406  1.0297 -0.3285
 3060SOL    HW220640   2.444   2.745   7.493 -0.9709  0.0883  0.5699
 3061SOL     OW20641   2.161   1.570   3.824 -0.1840 -0.1535  0.2355
 3061SOL    HW120642   2.151   1.642   3.887 -2.2063 -0.5295  0.3398
 3061SOL    HW220643   2.077   1.568   3.779  1.4280 -0.5027 -2.7569
 3062SOL     OW20644   2.876   2.912  11.876 -0.2724  0.4750  0.2317
 3062SOL    HW120645   2.784   2.888  11.865 -0.7189  1.2254  2.2883
 3062SOL    HW220646   2.893   2.877  11.963  0.3213  0.8733  0.2761
 3063SOL     OW20647   3.054   3.131   6.977  0.2559 -0.1810 -0.9774
 3063SOL    HW120648   2.968   3.117   6.936 -2.4063  0.1355  4.5152
 3063SOL    HW220649   3.042   3.095   7.065 -0.1408 -2.5007 -1.9607
 3064SOL     OW20650   4.477   1.471  14.747 -0.2490 -0.6113 -0.8325
 3064SOL    HW120651   4.483   1.513  14.832  2.1708  1.1738 -1.8969
 3064SOL    HW220652   4.568   1.479  14.718 -0.0395 -1.1638 -0.3188
 3065SOL     OW20653   4.489   2.846   5.271  0.3794  0.2465  0.1568
 3065SOL    HW120654   4.544   2.797   5.209  2.8191  1.7951  1.1009
 3065SOL    HW220655   4.537   2.843   5.354  0.6824 -1.0850 -0.0690
 3066SOL     OW20656   1.076   3.972   3.477  0.4597  0.5176 -0.1954
 3066SOL    HW120657   1.009   4.039   3.474 -0.0824  0.1096  2.2694
 3066SOL    HW220658   1.144   3.999   3.539  0.1590 -0.7792  0.7174
 3067SOL     OW20659   2.011   0.098   5.443  0.2641  0.2443  0.5158
 3067SOL    HW120660   2.052   0.055   5.517 -1.9056 -0.6457  1.1857
 3067SOL    HW220661   2.051   0.184   5.460  2.6593 -1.0669  1.4494
 3068SOL     OW20662   1.849   2.372   1.372  0.1182 -0.1547  0.5191
 3068SOL    HW120663   1.826   2.279   1.372  1.3167 -0.4651  0.8665
 3068SOL    HW220664   1.764   2.410   1.391  0.9451  2.4253 -1.0605
 3069SOL     OW20665   4.139   2.360  14.669 -0.2141  0.1551  0.1139
 3069SOL    HW120666   4.052   2.382  14.702  0.0244  0.2232  0.6966
 3069SOL    HW220667   4.137   2.376  14.574 -0.7661  0.2883  0.1473
 3070SOL     OW20668   1.488   1.898  16.238  0.6644 -0.1269 -0.0689
 3070SOL    HW120669   1.486   1.877  16.144 -2.0671  0.2289 -0.0942
 3070SOL    HW220670   1.508   1.810  16.269 -0.3864 -0.2620  0.2171
 3071SOL     OW20671   0.612   2.253   1.751  0.1414  0.0811  0.2801
 3071SOL    HW120672   0.621   2.177   1.809 -0.6098  0.0926  0.4059
 3071SOL    HW220673   0.679   2.236   1.684 -0.0803 -0.0727  0.0985
 3072SOL     OW20674   1.006   0.967   1.845 -0.6125 -0.4501 -0.3435
 3072SOL    HW120675   1.014   1.046   1.791  0.3957  0.3543  0.9770
 3072SOL    HW220676   1.070   0.908   1.805 -2.9929 -1.2247 -3.0071
 3073SOL     OW20677   0.176   2.575   7.079 -0.3029 -0.1328  0.1524
 3073SOL    HW120678   0.107   2.531   7.128 -0.0219 -1.5447 -0.6985
 3073SOL    HW220679   0.256   2.542   7.119 -0.3976 -0.5256  0.0180
 3074SOL     OW20680   0.141   1.888   0.718  0.2980  0.1318 -0.3598
 3074SOL    HW120681   0.154   1.931   0.803 -0.3034 -0.4069  0.0070
 3074SOL    HW220682   0.111   1.802   0.746 -1.5459  1.2163  1.0556
 3075SOL     OW20683   0.823   2.949   7.566  0.0364  0.2715 -0.1781
 3075SOL    HW120684   0.887   2.894   7.520 -1.7095 -0.7706 -1.4015
 3075SOL    HW220685   0.823   3.030   7.515  1.3580 -0.1895 -0.9084
 3076SOL     OW20686   3.755   2.016   0.378  0.6312  0.4901  0.7064
 3076SOL    HW120687   3.771   2.108   0.358  0.7358  0.3241  0.0006
 3076SOL    HW220688   3.714   2.030   0.463  0.3419 -0.1967  0.6833
 3077SOL     OW20689   2.532   3.059  10.858 -0.2685 -0.1108 -0.2110
 3077SOL    HW120690   2.509   3.022  10.773  3.2885  0.8170 -1.5648
 3077SOL    HW220691   2.595   3.130  10.846 -1.5816  1.1850  0.5705
 3078SOL     OW20692   1.138   3.224   2.722  0.0468  0.5298 -0.1606
 3078SOL    HW120693   1.056   3.218   2.770  0.0494 -1.1073 -0.3367
 3078SOL    HW220694   1.117   3.189   2.635 -0.8564  0.4013  0.1025
 3079SOL     OW20695   3.396   3.498   8.865 -0.4553  0.0434 -0.5593
 3079SOL    HW120696   3.415   3.511   8.772 -0.1965  0.4690 -0.4486
 3079SOL    HW220697   3.481   3.502   8.908 -1.0973  1.3295  0.6105
 3080SOL     OW20698   1.102   0.657   3.550 -0.3493  0.3603 -0.0353
 3080SOL    HW120699   1.061   0.574   3.574 -1.7983  0.9934 -0.3301
 3080SOL    HW220700   1.165   0.622   3.486  0.6823 -0.0233  1.1917
 3081SOL     OW20701   1.695   3.424  14.194 -0.1403 -0.1407 -0.5934
 3081SOL    HW120702   1.628   3.447  14.130 -0.1989 -4.0241 -1.8995
 3081SOL    HW220703   1.668   3.336  14.222  1.8670 -0.5539  0.1299
 3082SOL     OW20704   2.116   0.844   0.361 -0.0267  0.3528 -0.3700
 3082SOL    HW120705   2.206   0.875   0.362 -0.0643  0.4324  1.1301
 3082SOL    HW220706   2.118   0.753   0.334 -1.0200  0.5903 -1.2552
 3083SOL     OW20707   1.851   3.127   3.163  0.1604 -0.0113  0.1767
 3083SOL    HW120708   1.785   3.194   3.145  1.5083  1.2534 -0.0657
 3083SOL    HW220709   1.820   3.068   3.093  3.1833 -1.4233  0.0512
 3084SOL     OW20710   4.436   2.277   5.449  0.3858  0.4469 -0.2158
 3084SOL    HW120711   4.422   2.237   5.534  4.7618 -1.4194 -0.3980
 3084SOL    HW220712   4.356   2.257   5.400  1.6921 -1.3505 -1.6499
 3085SOL     OW20713   1.670   0.409   8.031 -0.6712  0.4752  0.3837
 3085SOL    HW120714   1.686   0.399   8.124 -2.7178  0.9609  0.7876
 3085SOL    HW220715   1.738   0.363   7.980 -2.3640 -1.0337 -0.5480
 3086SOL     OW20716   2.452   2.953   5.821  0.2361 -0.1373 -0.8632
 3086SOL    HW120717   2.406   2.926   5.742 -1.3545  1.8836 -0.6326
 3086SOL    HW220718   2.489   2.866   5.840  2.7397  1.3952  1.2900
 3087SOL     OW20719   1.213   4.175   3.854  0.4658  0.1694  0.4238
 3087SOL    HW120720   1.184   4.262   3.879  1.0079 -0.4494  3.2087
 3087SOL    HW220721   1.303   4.173   3.887  0.9424 -0.5747 -0.9326
 3088SOL     OW20722   2.176   3.090   3.656 -0.6378 -0.6065  0.0514
 3088SOL    HW120723   2.088   3.056   3.643 -0.7828 -1.5166  3.3950
 3088SOL    HW220724   2.167   3.180   3.625  2.2202 -0.3279  0.0375
 3089SOL     OW20725   0.791   4.384   0.910  0.2755  0.3428 -0.0105
 3089SOL    HW120726   0.735   4.454   0.878  0.1413  1.1328  1.9548
 3089SOL    HW220727   0.787   4.405   1.003  2.7795  0.3763  0.0762
 3090SOL     OW20728   0.892   0.827  14.527 -0.0018  0.4175  0.9359
 3090SOL    HW120729   0.868   0.820  14.435 -1.9187 -0.4513  1.4915
 3090SOL    HW220730   0.973   0.873  14.504 -0.0354 -0.3287 -0.6583
 3091SOL     OW20731   0.626   2.513   6.653 -0.1275 -0.6187 -0.2101
 3091SOL    HW120732   0.575   2.590   6.678  0.4463 -0.2068 -0.2995
 3091SOL    HW220733   0.635   2.517   6.557 -0.1489  0.2521 -0.1763
 3092SOL     OW20734   2.466   4.217   2.693 -0.2698 -0.2379 -0.1990
 3092SOL    HW120735   2.548   4.218   2.643  0.4751  1.4746  1.0471
 3092SOL    HW220736   2.480   4.153   2.763  1.1339 -1.0973 -1.2606
 3093SOL     OW20737   3.185   1.000   7.732 -0.3063 -0.8505 -0.3133
 3093SOL    HW120738   3.151   0.984   7.644 -1.0006 -1.9903  0.1642
 3093SOL    HW220739   3.264   1.043   7.700 -1.6668 -1.5104 -4.5106
 3094SOL     OW20740   4.611   3.311   5.709  0.2321 -0.1019 -0.2062
 3094SOL    HW120741   4.629   3.307   5.616  0.4748 -0.5734 -0.1363
 3094SOL    HW220742   4.553   3.238   5.729 -0.1053  0.0412 -0.6602
 3095SOL     OW20743   3.589   3.363   5.499  0.4749 -0.4956 -0.3605
 3095SOL    HW120744   3.568   3.269   5.495 -0.7464 -0.2707  0.8292
 3095SOL    HW220745   3.683   3.351   5.512  0.5552 -0.5126 -0.9390
 3096SOL     OW20746   1.122   1.250   1.877  0.1361 -0.1100 -0.0824
 3096SOL    HW120747   1.035   1.284   1.856 -0.9765 -1.9313  1.5198
 3096SOL    HW220748   1.167   1.273   1.796  1.0675 -0.6514  0.2810
 3097SOL     OW20749   0.304   1.931   5.631  0.1532  0.5620 -0.2101
 3097SOL    HW120750   0.283   1.839   5.651  1.3112  0.2390 -0.4608
 3097SOL    HW220751   0.234   1.979   5.673 -0.2893  0.7607 -1.1835
 3098SOL     OW20752   0.226   1.792   2.556  0.4723  0.3675 -0.4827
 3098SOL    HW120753   0.253   1.802   2.464  1.0286 -2.4374 -0.6111
 3098SOL    HW220754   0.137   1.828   2.551  0.2334 -0.5205 -2.6405
 3099SOL     OW20755   2.090   1.896  10.227 -0.4523 -0.7369 -0.4131
 3099SOL    HW120756   2.026   1.831  10.257 -2.3864  0.1636 -2.5298
 3099SOL    HW220757   2.101   1.932  10.314 -3.5047 -1.6548  0.3583
 3100SOL     OW20758   0.544   0.532   7.102  1.0058 -0.5939  0.5488
 3100SOL    HW120759   0.474   0.596   7.084  0.2203 -2.1278 -1.8570
 3100SOL    HW220760   0.549   0.486   7.019 -1.8078 -1.1159  0.6586
 3101SOL     OW20761   2.046   2.160   3.110  0.0160  0.3025  0.4231
 3101SOL    HW120762   1.960   2.161   3.069 -0.3268  1.1168  1.1786
 3101SOL    HW220763   2.030   2.167   3.204  2.5755  1.0226  0.8151
 3102SOL     OW20764   0.991   4.630  11.251  0.6610 -0.0308  0.2433
 3102SOL    HW120765   1.087   4.632  11.256  0.6461  0.9859  0.0775
 3102SOL    HW220766   0.980   4.535  11.253  3.0577 -0.3972 -3.1948
 3103SOL     OW20767   1.691   2.712   5.791  0.6096  0.3055 -0.2049
 3103SOL    HW120768   1.660   2.624   5.812  2.1714  0.0303  0.9602
 3103SOL    HW220769   1.777   2.720   5.833  0.1457  1.3489  0.5737
 3104SOL     OW20770   2.421   2.965   7.066 -0.2168  0.2680 -0.4859
 3104SOL    HW120771   2.332   2.969   7.029 -0.7094  0.4509  0.7281
 3104SOL    HW220772   2.457   3.041   7.021 -1.1085  0.3305 -1.0928
 3105SOL     OW20773   4.508   2.792  17.229 -0.0081  0.4352  0.3704
 3105SOL    HW120774   4.482   2.714  17.278  0.0848  1.2616  1.7435
 3105SOL    HW220775   4.438   2.805  17.165 -0.4916 -0.1130  0.7779
 3106SOL     OW20776   0.839   2.649  11.563 -0.1442 -0.5784  0.2104
 3106SOL    HW120777   0.755   2.674  11.602 -0.4672  0.3983 -1.1066
 3106SOL    HW220778   0.893   2.621  11.637 -0.4499  0.3936  0.7928
 3107SOL     OW20779   4.325   0.311   5.213 -0.3385 -0.1391  0.0892
 3107SOL    HW120780   4.250   0.268   5.172  0.5719 -1.7908  0.1361
 3107SOL    HW220781   4.327   0.260   5.294 -3.1656  0.0460  0.2948
 3108SOL     OW20782   1.371   2.913   7.729  0.0154 -0.7473  0.3550
 3108SOL    HW120783   1.392   2.988   7.786  2.5808 -0.2157 -1.2625
 3108SOL    HW220784   1.380   2.958   7.645  2.2676 -0.8569  0.5209
 3109SOL     OW20785   2.640   3.562  10.416 -0.1026 -0.0600 -0.0271
 3109SOL    HW120786   2.669   3.641  10.463  1.6776  0.4204 -1.9074
 3109SOL    HW220787   2.662   3.594  10.328 -0.4131  2.3558  0.7766
 3110SOL     OW20788   2.132   0.697  12.239  0.1811  0.3655  0.1020
 3110SOL    HW120789   2.183   0.627  12.200 -1.5620 -0.2159 -1.1450
 3110SOL    HW220790   2.052   0.697  12.187 -0.3212  0.5934  0.8739
 3111SOL     OW20791   4.633   2.167   8.022  0.1512 -0.0370 -0.1600
 3111SOL    HW120792   4.706   2.201   7.970 -1.5327  2.0295 -1.2077
 3111SOL    HW220793   4.636   2.225   8.098 -1.6653 -2.5397  1.8263
 3112SOL     OW20794   2.870   2.535   4.592 -0.6199 -0.1735 -0.1893
 3112SOL    HW120795   2.901   2.444   4.589 -1.3381 -0.4666  1.5676
 3112SOL    HW220796   2.777   2.514   4.583 -0.2522 -1.1782 -1.8471
 3113SOL     OW20797   4.435   0.797   0.762  0.2172 -0.3458 -0.2310
 3113SOL    HW120798   4.355   0.781   0.812  0.6265  0.5759  0.7014
 3113SOL    HW220799   4.409   0.869   0.705  0.4155  2.0317  2.7172
 3114SOL     OW20800   3.868   1.944   8.242 -0.3703 -0.1527 -0.2046
 3114SOL    HW120801   3.918   1.872   8.281 -1.5014 -0.5995  0.4357
 3114SOL    HW220802   3.939   1.983   8.191  1.0196  0.2157  2.0076
 3115SOL     OW20803   0.299   0.576   9.233  0.4093  0.1675  0.2149
 3115SOL    HW120804   0.335   0.572   9.322  0.6961  0.6333  0.1192
 3115SOL    HW220805   0.256   0.491   9.234 -1.7923  1.2888  0.7443
 3116SOL     OW20806   0.821   1.569   4.387 -0.1102 -0.7724 -0.0565
 3116SOL    HW120807   0.858   1.651   4.419  0.4364 -0.5798 -1.1913
 3116SOL    HW220808   0.739   1.559   4.437  0.7760  0.4515  1.6447
 3117SOL     OW20809   4.712   4.181   2.553 -0.0351 -0.3990 -0.3220
 3117SOL    HW120810   4.628   4.162   2.509  0.0808 -1.6740  0.0076
 3117SOL    HW220811   4.711   4.107   2.614  0.0533 -0.1313  0.0042
 3118SOL     OW20812   0.411   4.536   1.582 -0.4454 -0.9055  0.4404
 3118SOL    HW120813   0.368   4.467   1.634 -1.1660 -1.7988 -1.3434
 3118SOL    HW220814   0.329   4.584   1.565  0.6592  1.0950  0.7573
 3119SOL     OW20815   0.613   4.128   6.090 -0.0192  0.9189 -0.3276
 3119SOL    HW120816   0.704   4.157   6.102 -0.3184  2.4622 -1.8818
 3119SOL    HW220817   0.595   4.111   6.182  0.1572 -2.3727 -0.8778
 3120SOL     OW20818   0.959   4.693   1.464  0.2897  0.1196  0.1993
 3120SOL    HW120819   1.006   4.667   1.543 -0.7408  0.1748  0.8316
 3120SOL    HW220820   0.942   4.611   1.418  0.4090  0.6554 -0.8036
 3121SOL     OW20821   3.889   2.219  12.495  0.4400  0.0310  0.1386
 3121SOL    HW120822   3.900   2.308  12.462 -0.5192 -0.4726 -1.5436
 3121SOL    HW220823   3.796   2.211  12.519  0.1476 -0.2323 -1.0722
 3122SOL     OW20824   2.631   1.295  16.085  0.1639 -0.0604 -0.4100
 3122SOL    HW120825   2.630   1.322  16.177  1.7201  2.5066 -1.1604
 3122SOL    HW220826   2.606   1.204  16.097  0.8835 -0.1238  0.5780
 3123SOL     OW20827   3.613   1.313  11.073  0.4682  0.3188  0.1096
 3123SOL    HW120828   3.568   1.230  11.086  0.2533  0.0555 -2.3167
 3123SOL    HW220829   3.609   1.306  10.978  0.9442 -3.8261  0.3961
 3124SOL     OW20830   2.798   2.443   0.457  0.0749 -0.6430  0.2462
 3124SOL    HW120831   2.874   2.438   0.516  0.9657 -0.5484 -0.8992
 3124SOL    HW220832   2.835   2.406   0.377 -2.8511  0.1609 -1.4699
 3125SOL     OW20833   4.141   0.665   8.141 -0.3285 -0.4895  0.0445
 3125SOL    HW120834   4.077   0.723   8.099  0.1102  0.8153  1.1784
 3125SOL    HW220835   4.170   0.713   8.219 -1.0276  0.3715 -0.2158
 3126SOL     OW20836   0.502   2.800  15.375 -0.3086  0.4458  0.3127
 3126SOL    HW120837   0.534   2.726  15.426  2.6877  1.1020 -0.5849
 3126SOL    HW220838   0.428   2.770  15.322 -0.3364 -1.4842  1.4439
 3127SOL     OW20839   1.721   4.130  13.972 -0.1705  0.7517  0.0466
 3127SOL    HW120840   1.802   4.144  13.924 -0.1283 -0.4661 -0.2447
 3127SOL    HW220841   1.675   4.211  13.951  0.8479  1.3280  0.0581
 3128SOL     OW20842   3.326   4.283  11.943  0.1946  0.6321  0.2412
 3128SOL    HW120843   3.276   4.295  11.862  0.9384 -1.5847 -0.5621
 3128SOL    HW220844   3.378   4.363  11.934 -0.8308  1.1625 -0.9833
 3129SOL     OW20845   2.876   1.141   5.850  0.5181  0.6582  0.2533
 3129SOL    HW120846   2.839   1.135   5.762 -0.6385 -0.1408  0.8000
 3129SOL    HW220847   2.912   1.230   5.841 -1.4129  1.2398 -1.6530
 3130SOL     OW20848   1.176   0.426   2.164  0.5180  0.0397 -0.5109
 3130SOL    HW120849   1.199   0.421   2.071  1.2407  1.0859 -0.3939
 3130SOL    HW220850   1.082   0.414   2.156  0.4821 -0.1568  0.1592
 3131SOL     OW20851   4.371   1.700  12.316 -0.0904 -0.5276 -0.7708
 3131SOL    HW120852   4.414   1.615  12.322  0.0467 -0.5332 -1.7634
 3131SOL    HW220853   4.334   1.714  12.403  1.2529 -2.0864  0.0510
 3132SOL     OW20854   3.683   0.085  16.650 -0.3150 -0.1676 -0.1420
 3132SOL    HW120855   3.717   0.099  16.739  0.1007  1.4436 -0.5677
 3132SOL    HW220856   3.739   0.014  16.619 -1.7388 -1.2368 -0.2920
 3133SOL     OW20857   0.929   4.587   5.235 -0.1150 -0.2535 -0.3528
 3133SOL    HW120858   0.945   4.598   5.142  3.2167  1.3368  0.4025
 3133SOL    HW220859   1.015   4.554   5.264  0.7567  1.7857 -0.5857
 3134SOL     OW20860   3.387   4.692   6.824 -0.3051 -0.2876 -0.4358
 3134SOL    HW120861   3.390   4.642   6.742 -3.0603 -1.6031  0.2525
 3134SOL    HW220862   3.431   0.048   6.815  0.2798 -0.4283  1.1783
 3135SOL     OW20863   0.968   0.535  12.951 -0.2487 -0.4443 -0.1173
 3135SOL    HW120864   0.891   0.480  12.964 -0.2987 -0.4238 -0.3369
 3135SOL    HW220865   0.977   0.572  13.039  1.0910 -1.3622  0.1346
 3136SOL     OW20866   3.123   1.900   2.272  0.0667  0.0681  0.1528
 3136SOL    HW120867   3.156   1.989   2.261 -2.2284  0.8573 -0.4083
 3136SOL    HW220868   3.188   1.855   2.218  0.1088  0.4867 -0.1457
 3137SOL     OW20869   0.688   2.711  11.275 -0.1113  0.5599 -0.0819
 3137SOL    HW120870   0.604   2.756  11.278 -0.7757 -0.5960 -1.2854
 3137SOL    HW220871   0.736   2.786  11.240  0.5320  1.0513  1.8741
 3138SOL     OW20872   2.836   0.143   6.149 -0.7920 -0.0703  0.0172
 3138SOL    HW120873   2.865   0.234   6.135 -1.3252 -0.0387 -0.8767
 3138SOL    HW220874   2.820   0.148   6.243  1.6382 -0.9793  0.4761
 3139SOL     OW20875   3.068   1.014   5.203 -0.1719 -0.4828 -0.5524
 3139SOL    HW120876   3.156   0.982   5.221 -0.8912 -1.5029  1.1999
 3139SOL    HW220877   3.031   1.030   5.290  0.0093  0.9057 -0.7308
 3140SOL     OW20878   0.541   0.193   8.034  0.1006 -0.3044 -0.6841
 3140SOL    HW120879   0.614   0.196   8.096  0.2842  3.6484 -1.0972
 3140SOL    HW220880   0.553   0.268   7.976 -1.1120  1.4550  1.3645
 3141SOL     OW20881   2.130   2.407  10.233 -0.4800  0.5352  0.0006
 3141SOL    HW120882   2.075   2.338  10.270  0.8076 -1.1967 -1.2909
 3141SOL    HW220883   2.066   2.459  10.184  0.0253  0.3763 -0.8303
 3142SOL     OW20884   4.454   2.519   9.672  0.0912 -0.2658  0.1553
 3142SOL    HW120885   4.523   2.570   9.714  0.9177 -1.3023  0.0635
 3142SOL    HW220886   4.393   2.495   9.742  0.3610  1.0681  0.8490
 3143SOL     OW20887   4.462   0.273   3.697  0.1505 -0.0689 -0.2047
 3143SOL    HW120888   4.387   0.214   3.695 -0.0188  0.1309  0.2759
 3143SOL    HW220889   4.501   0.268   3.784 -1.7152  0.4347  0.6500
 3144SOL     OW20890   3.256   3.677   2.788  0.2171 -0.7464 -0.2099
 3144SOL    HW120891   3.253   3.770   2.766 -0.4769 -0.6053  0.4633
 3144SOL    HW220892   3.251   3.635   2.703  2.9216  1.3594 -1.4211
 3145SOL     OW20893   2.363   3.278  13.145  0.3083  0.8128  0.0422
 3145SOL    HW120894   2.395   3.282  13.235 -0.3915 -1.5512  0.4144
 3145SOL    HW220895   2.326   3.366  13.140  2.8385  1.8699 -0.1386
 3146SOL     OW20896   2.690   4.413   7.396 -0.0917 -0.1454 -0.2265
 3146SOL    HW120897   2.661   4.323   7.381 -0.5007  0.1238 -1.1109
 3146SOL    HW220898   2.756   4.430   7.329  3.0210  2.5641  3.6063
 3147SOL     OW20899   2.844   2.339   1.983  0.1334  0.1383  0.0291
 3147SOL    HW120900   2.810   2.408   2.040  0.1124 -2.9085  3.6650
 3147SOL    HW220901   2.816   2.255   2.019  1.1841  0.7695  2.3454
 3148SOL     OW20902   2.783   3.435  12.595 -0.8598 -0.1168 -0.3306
 3148SOL    HW120903   2.827   3.428  12.511 -1.5406  2.5073 -0.9212
 3148SOL    HW220904   2.761   3.348  12.629 -2.5102  1.2462  2.1572
 3149SOL     OW20905   1.623   4.376  13.146  0.0032  0.3580  0.1344
 3149SOL    HW120906   1.575   4.453  13.177 -0.3155  0.4338 -0.5535
 3149SOL    HW220907   1.693   4.417  13.094 -1.5779  0.4090 -1.9323
 3150SOL     OW20908   0.529   1.859   2.063 -0.1750 -0.4725 -0.8573
 3150SOL    HW120909   0.533   1.782   2.120  1.0775 -0.7210 -1.2774
 3150SOL    HW220910   0.536   1.934   2.121  1.7696 -1.5989  0.3877
 3151SOL     OW20911   4.497   1.606   9.657 -0.0520 -0.2847  0.1807
 3151SOL    HW120912   4.463   1.517   9.646 -1.7117  0.4219 -0.4569
 3151SOL    HW220913   4.417   1.659   9.660  1.4961  2.1792 -1.6297
 3152SOL     OW20914   4.415   2.355   8.278 -0.1993  0.2212 -0.0116
 3152SOL    HW120915   4.421   2.300   8.356  1.2010  1.3569  0.6812
 3152SOL    HW220916   4.329   2.397   8.289 -0.3905 -0.2906  0.4655
 3153SOL     OW20917   3.624   4.669   7.523 -0.1956 -0.0722  0.4301
 3153SOL    HW120918   3.555   4.641   7.582  0.3917 -0.5800  0.8731
 3153SOL    HW220919   3.618   4.625   7.438  1.9596 -1.5885  1.0831
 3154SOL     OW20920   1.199   1.401  11.798  0.3025 -0.4669 -0.0778
 3154SOL    HW120921   1.255   1.460  11.747 -1.0062 -0.2568 -1.2532
 3154SOL    HW220922   1.229   1.326  11.746  0.3235 -0.7778  0.3805
 3155SOL     OW20923   0.476   3.170  11.086  0.2463  0.6993 -0.1531
 3155SOL    HW120924   0.428   3.132  11.160  0.2211  0.7162 -0.1611
 3155SOL    HW220925   0.538   3.097  11.077 -1.0216 -0.4318  0.2809
 3156SOL     OW20926   3.681   0.922  13.199  0.1951  0.5154 -0.4617
 3156SOL    HW120927   3.676   0.922  13.295  1.1543 -0.3927 -0.4129
 3156SOL    HW220928   3.628   0.845  13.178 -0.5597  0.7550  0.5810
 3157SOL     OW20929   4.559   4.039   8.829 -0.4629  0.7246 -0.1409
 3157SOL    HW120930   4.622   3.967   8.827 -1.5215 -0.1573 -2.1932
 3157SOL    HW220931   4.608   4.099   8.885 -0.0453  2.7136 -2.6521
 3158SOL     OW20932   2.011   3.760   7.805  0.5992 -0.2668 -0.3639
 3158SOL    HW120933   1.991   3.748   7.712 -0.8568  1.5013 -0.2817
 3158SOL    HW220934   1.984   3.676   7.841  1.6038  1.1404  3.7295
 3159SOL     OW20935   0.477   4.661  11.273 -0.3894  0.2550  0.9271
 3159SOL    HW120936   0.462   4.567  11.281 -4.4208  0.8612  0.3381
 3159SOL    HW220937   0.570   4.654  11.252 -0.1666  3.3227  0.9395
 3160SOL     OW20938   2.801   1.164  11.118 -0.0107  0.0040  0.2844
 3160SOL    HW120939   2.822   1.078  11.154  0.5810  0.6733  1.5445
 3160SOL    HW220940   2.767   1.138  11.033 -2.1256  0.5744  0.9232
 3161SOL     OW20941   2.472   2.358   6.179 -0.4723 -0.3508 -0.3253
 3161SOL    HW120942   2.515   2.385   6.098  1.9761  0.7000  1.3470
 3161SOL    HW220943   2.540   2.383   6.241 -1.7108 -2.4937  1.9021
 3162SOL     OW20944   2.697   1.720   1.519  0.0555 -0.3936  0.5152
 3162SOL    HW120945   2.729   1.671   1.595  1.5098 -0.5462 -0.2021
 3162SOL    HW220946   2.698   1.641   1.465 -2.1328  0.4477 -0.7598
 3163SOL     OW20947   1.825   3.484  15.759  0.2604  0.1632  0.5985
 3163SOL    HW120948   1.823   3.389  15.770  2.0104 -0.0269 -0.9275
 3163SOL    HW220949   1.919   3.498  15.771  0.5075 -1.0741  0.0121
 3164SOL     OW20950   1.202   1.279   2.157  0.1823 -0.6163  0.0927
 3164SOL    HW120951   1.183   1.255   2.066  0.9000 -0.6563 -0.0512
 3164SOL    HW220952   1.164   1.367   2.156 -1.5150 -1.3499  0.5356
 3165SOL     OW20953   0.668   3.856   4.066 -0.1522  0.3118  0.0086
 3165SOL    HW120954   0.712   3.773   4.080 -2.8493 -0.6215  2.8979
 3165SOL    HW220955   0.728   3.925   4.094  0.6520  1.0597 -3.5200
 3166SOL     OW20956   0.076   2.392   1.581 -0.1646 -0.3339  0.0635
 3166SOL    HW120957   0.067   2.310   1.629 -0.4568  0.8289  1.9671
 3166SOL    HW220958   0.171   2.396   1.595 -0.2835 -3.0063  1.5938
 3167SOL     OW20959   4.562   0.306   7.866 -0.1287  0.4732 -0.2631
 3167SOL    HW120960   4.523   0.281   7.950  2.1697  0.3368  0.7508
 3167SOL    HW220961   4.653   0.292   7.892 -1.2107 -5.5474  0.3186
 3168SOL     OW20962   3.978   1.233   3.785 -0.0516  0.4962 -0.0806
 3168SOL    HW120963   4.064   1.226   3.745 -1.2036  1.8199 -2.7366
 3168SOL    HW220964   3.927   1.192   3.715 -1.4635  3.0408 -0.5438
 3169SOL     OW20965   1.152   1.557   2.921 -0.1296  0.4653  0.6112
 3169SOL    HW120966   1.132   1.468   2.950  1.0576  0.0284  0.0713
 3169SOL    HW220967   1.212   1.537   2.850 -0.3340 -0.9582  0.8494
 3170SOL     OW20968   4.143   4.517   0.513  0.2180  0.3305  0.3705
 3170SOL    HW120969   4.115   4.585   0.453  1.0222  1.1900  0.9670
 3170SOL    HW220970   4.059   4.486   0.546 -0.1458  0.4956 -0.4120
 3171SOL     OW20971   3.284   0.174   8.046 -0.3978  0.6469 -0.0309
 3171SOL    HW120972   3.226   0.098   8.047 -2.8368  2.5247  0.7428
 3171SOL    HW220973   3.334   0.167   7.964 -0.4411  2.9055 -0.2546
 3172SOL     OW20974   1.545   2.867   4.454 -0.8915  0.1564 -0.1165
 3172SOL    HW120975   1.511   2.778   4.465  0.5348 -0.3452  0.3578
 3172SOL    HW220976   1.484   2.895   4.386 -0.1268  0.8014 -0.5390
 3173SOL     OW20977   1.067   4.038   7.517 -0.0106  0.4583 -0.1491
 3173SOL    HW120978   0.973   4.023   7.531  0.5214 -0.6747  2.1780
 3173SOL    HW220979   1.098   4.109   7.573  2.4975 -1.5863  1.0475
 3174SOL     OW20980   4.383   1.518   0.412  0.6964  0.3669 -0.8450
 3174SOL    HW120981   4.370   1.608   0.442  1.1384 -0.3831  1.5849
 3174SOL    HW220982   4.470   1.498   0.444  0.0898  1.8684  1.7864
 3175SOL     OW20983   4.341   1.796   7.531 -0.1787 -0.2897  0.5588
 3175SOL    HW120984   4.245   1.789   7.526 -0.1514 -0.2014 -0.0730
 3175SOL    HW220985   4.361   1.710   7.493  0.1247  1.3355 -2.9605
 3176SOL     OW20986   2.878   0.679   4.398  0.5701 -0.0618  0.0348
 3176SOL    HW120987   2.895   0.698   4.306 -2.9399  1.8517 -0.2117
 3176SOL    HW220988   2.784   0.694   4.404  0.4116 -1.1206  0.2668
 3177SOL     OW20989   0.727   1.702   5.633  0.5240  0.7835  0.1696
 3177SOL    HW120990   0.746   1.779   5.686 -0.3205  1.2444 -0.1902
 3177SOL    HW220991   0.676   1.652   5.697  0.5370 -1.0128 -1.2338
 3178SOL     OW20992   2.866   0.793   9.665 -0.6527 -0.2365 -0.0409
 3178SOL    HW120993   2.852   0.875   9.713 -0.2534  0.6496 -1.4229
 3178SOL    HW220994   2.899   0.822   9.580 -0.5329 -0.4229 -0.0577
 3179SOL     OW20995   0.907   3.905  16.763  0.2094  0.5282  0.1870
 3179SOL    HW120996   0.822   3.872  16.735  0.2887  0.3068  0.2122
 3179SOL    HW220997   0.919   3.870  16.851 -1.9706 -2.9788 -0.9518
 3180SOL     OW20998   3.816   0.409   5.734 -0.4398  0.8410  0.3619
 3180SOL    HW120999   3.859   0.353   5.798 -0.5393  1.8990  1.3659
 3180SOL    HW221000   3.844   0.373   5.650  1.2118  1.2361  0.7410
 3181SOL     OW21001   2.202   1.719   5.341  0.2049  0.0025 -0.5131
 3181SOL    HW121002   2.161   1.716   5.427 -0.1521  0.2118 -0.6748
 3181SOL    HW221003   2.282   1.667   5.348  0.1990 -0.3517 -3.1621
 3182SOL     OW21004   1.905   3.559   5.280  0.4490  0.2698 -0.3164
 3182SOL    HW121005   1.827   3.612   5.265 -0.4426 -0.7607  0.7025
 3182SOL    HW221006   1.973   3.623   5.260  0.3701  0.1484 -0.9906
 3183SOL     OW21007   2.032   2.488   0.562  0.1060 -0.2125  0.2899
 3183SOL    HW121008   2.045   2.528   0.648 -3.0330  0.4257  0.4746
 3183SOL    HW221009   1.965   2.552   0.538  0.2031 -0.7998 -1.5836
 3184SOL     OW21010   2.775   4.576   2.944 -0.0488  0.0123  0.1238
 3184SOL    HW121011   2.748   4.487   2.967 -0.9863  0.3607  0.3797
 3184SOL    HW221012   2.798   4.569   2.852 -1.5747  0.9475 -0.3154
 3185SOL     OW21013   3.676   0.523  17.682  0.1034  0.4411 -0.2947
 3185SOL    HW121014   3.683   0.563  17.595  0.4213  2.9347  0.9013
 3185SOL    HW221015   3.650   0.592   0.031 -0.3407  0.5680 -0.6215
 3186SOL     OW21016   4.583   1.621   5.185 -0.1948  0.1635 -0.7746
 3186SOL    HW121017   4.661   1.616   5.240 -1.5560  0.7188  1.1929
 3186SOL    HW221018   4.515   1.659   5.240  1.4099  3.0181 -0.7703
 3187SOL     OW21019   4.212   2.235   2.698  0.0517  0.1215 -0.1725
 3187SOL    HW121020   4.215   2.166   2.632  2.0666 -0.0300  0.0649
 3187SOL    HW221021   4.157   2.296   2.650 -2.0360 -0.7183  1.1328
 3188SOL     OW21022   2.955   0.265  10.552 -0.0298 -0.5422  0.4481
 3188SOL    HW121023   2.896   0.263  10.627  1.7436  0.2173  1.8742
 3188SOL    HW221024   2.907   0.210  10.490  0.4789  0.1884 -0.5849
 3189SOL     OW21025   1.080   0.256   6.841  0.1100  0.6865  0.3734
 3189SOL    HW121026   1.156   0.199   6.839 -0.4083  0.0546 -2.1860
 3189SOL    HW221027   1.121   0.335   6.805 -0.4663  0.0385 -1.7358
 3190SOL     OW21028   0.960   0.959   4.031  0.0353 -0.6240  0.6468
 3190SOL    HW121029   0.895   0.907   3.983 -1.2978  0.2684  1.5081
 3190SOL    HW221030   0.977   1.036   3.976 -0.0072  0.3671  2.0300
 3191SOL     OW21031   3.012   1.502  17.470 -0.0088 -0.6044  0.0406
 3191SOL    HW121032   2.918   1.499  17.488  0.0044 -1.3985 -0.0005
 3191SOL    HW221033   3.042   1.420  17.509 -2.4798 -1.7335 -0.4696
 3192SOL     OW21034   1.455   3.054   4.270  0.1739  0.3959  0.0360
 3192SOL    HW121035   1.545   3.078   4.293  0.0324  0.6683  0.3098
 3192SOL    HW221036   1.394   3.119   4.304 -0.6628 -1.0788  1.3282
 3193SOL     OW21037   4.443   3.289   7.391 -0.0440 -0.0670  0.3006
 3193SOL    HW121038   4.460   3.195   7.403 -0.6256 -0.0045  1.6604
 3193SOL    HW221039   4.353   3.292   7.422 -0.8881  2.7097 -2.3845
 3194SOL     OW21040   4.083   0.072   7.517  0.2262  0.1115  0.2735
 3194SOL    HW121041   4.110   0.026   7.596 -0.6039 -1.1811 -0.1982
 3194SOL    HW221042   4.163   0.124   7.510  1.4775 -2.1901 -2.9745
 3195SOL     OW21043   0.211   1.739   6.839  0.4086  0.4838  0.0817
 3195SOL    HW121044   0.243   1.819   6.797 -0.2561  1.1745  0.8906
 3195SOL    HW221045   0.285   1.718   6.896 -1.1675 -0.6856  1.6931
 3196SOL     OW21046   4.374   3.490   8.269 -0.1665 -0.5267 -0.4101
 3196SOL    HW121047   4.326   3.518   8.346  0.2962 -0.8893  0.0113
 3196SOL    HW221048   4.462   3.482   8.305 -0.6237  1.7065  1.1991
 3197SOL     OW21049   0.702   2.064   8.215 -0.2754  0.0687  0.0374
 3197SOL    HW121050   0.668   1.976   8.229 -0.0749 -0.0061  0.0444
 3197SOL    HW221051   0.632   2.119   8.250  0.9179  1.0613  0.8622
 3198SOL     OW21052   3.280   1.202  13.766 -0.7042 -0.4380  0.4544
 3198SOL    HW121053   3.212   1.171  13.706 -1.7958  0.7441  1.0853
 3198SOL    HW221054   3.244   1.174  13.850 -2.0543  4.1982  1.4125
 3199SOL     OW21055   2.053   2.117   4.250  0.1730 -0.7768  0.2082
 3199SOL    HW121056   1.967   2.102   4.213 -0.3294  1.2039  0.5730
 3199SOL    HW221057   2.060   2.044   4.311  0.1797 -1.5690 -0.7463
 3200SOL     OW21058   0.917   1.832   3.581 -0.0957 -0.5196 -0.6994
 3200SOL    HW121059   0.897   1.800   3.492  0.8175 -2.5581 -0.1646
 3200SOL    HW221060   0.942   1.923   3.569 -1.8952  0.2833  1.7243
 3201SOL     OW21061   4.213   0.830   5.977  0.1081  0.6181 -0.2763
 3201SOL    HW121062   4.159   0.861   5.904  0.2968  1.2377 -0.1580
 3201SOL    HW221063   4.214   0.916   6.019 -2.8852  1.0547 -1.0733
 3202SOL     OW21064   1.338   1.875   6.615 -0.0978 -0.1862 -0.3956
 3202SOL    HW121065   1.314   1.949   6.670 -0.6866  0.4537 -1.5268
 3202SOL    HW221066   1.307   1.905   6.530 -0.6015 -0.1380 -0.1932
 3203SOL     OW21067   1.723   0.396   3.769 -0.1121  0.5365 -0.9096
 3203SOL    HW121068   1.638   0.353   3.765 -0.0393  0.4902 -1.9059
 3203SOL    HW221069   1.747   0.375   3.679 -0.2673 -0.5740 -0.6911
 3204SOL     OW21070   1.349   0.922   1.836 -0.5965 -0.4426  0.0734
 3204SOL    HW121071   1.264   0.889   1.807  0.8482 -2.1256 -2.2234
 3204SOL    HW221072   1.401   0.864   1.780  1.1796  1.1644  0.0255
 3205SOL     OW21073   0.413   1.809  17.263 -0.6889  0.0024 -0.1413
 3205SOL    HW121074   0.448   1.735  17.213  3.5919  0.3334  2.3773
 3205SOL    HW221075   0.453   1.810  17.350 -1.9246 -0.0277  0.4357
 3206SOL     OW21076   2.100   3.075   3.259 -0.2265  0.1084  0.2082
 3206SOL    HW121077   2.151   3.095   3.180 -0.2688  1.4232  0.5054
 3206SOL    HW221078   2.010   3.097   3.233 -0.6495  0.1788  1.7677
 3207SOL     OW21079   0.158   1.643  15.323  0.0390 -0.2680 -0.4725
 3207SOL    HW121080   0.168   1.553  15.354 -0.0994 -0.4405 -0.9276
 3207SOL    HW221081   0.208   1.697  15.385  0.3610 -0.4577 -0.5694
 3208SOL     OW21082   3.260   2.495   4.478  0.1023 -0.1094 -0.3886
 3208SOL    HW121083   3.249   2.400   4.477  2.3896 -0.3869  1.5259
 3208SOL    HW221084   3.298   2.519   4.562  0.4520 -0.0229 -0.5711
 3209SOL     OW21085   3.554   4.591   5.026 -0.1265 -0.2339 -0.1029
 3209SOL    HW121086   3.635   4.606   5.074 -0.0078  2.7287 -1.2033
 3209SOL    HW221087   3.573   4.501   4.999  2.7889  0.3261  0.1082
 3210SOL     OW21088   2.544   3.172   3.004 -0.5910 -0.1069  0.2079
 3210SOL    HW121089   2.537   3.244   3.066  0.8427  1.6065 -1.6315
 3210SOL    HW221090   2.546   3.211   2.917 -1.1271  0.8239  0.6154
 3211SOL     OW21091   3.453   1.830   8.926  0.0628 -0.1396  0.1983
 3211SOL    HW121092   3.478   1.882   9.002  2.9176  2.6672 -2.6834
 3211SOL    HW221093   3.373   1.872   8.894  0.5106 -0.2727 -1.0969
 3212SOL     OW21094   0.172   4.391  15.886  0.4414  0.3791 -0.0182
 3212SOL    HW121095   0.254   4.432  15.913  1.4921 -2.3059  0.9116
 3212SOL    HW221096   0.133   4.476  15.866 -1.1189 -0.3947 -0.2576
 3213SOL     OW21097   4.400   2.459  16.374 -0.1620 -0.4080  0.3110
 3213SOL    HW121098   4.335   2.473  16.443 -1.3945  0.6739 -1.0860
 3213SOL    HW221099   4.368   2.495  16.291  0.0981 -1.2212 -0.1422
 3214SOL     OW21100   0.617   3.924  13.220 -0.2635  0.2798  0.1023
 3214SOL    HW121101   0.702   3.881  13.209 -0.5929  0.2214 -2.1917
 3214SOL    HW221102   0.571   3.868  13.283  2.5748 -1.3663  0.7146
 3215SOL     OW21103   0.427   3.932  15.232  0.0313  0.5555 -0.3434
 3215SOL    HW121104   0.380   3.940  15.315 -0.0408 -0.7421 -0.2460
 3215SOL    HW221105   0.376   3.982  15.168  0.5367 -0.5844 -1.6421
 3216SOL     OW21106   4.001   0.770   3.690 -1.4246 -0.2189  0.7545
 3216SOL    HW121107   4.050   0.692   3.663 -0.8807  0.4224 -0.1233
 3216SOL    HW221108   3.937   0.771   3.619 -1.3655 -1.8249  0.6836
 3217SOL     OW21109   4.708   4.064   7.784  0.0448  0.4067  0.4402
 3217SOL    HW121110   4.664   3.980   7.795  0.6310 -0.0003 -0.3111
 3217SOL    HW221111   0.012   4.063   7.694  0.7255 -0.9982  0.6983
 3218SOL     OW21112   2.193   0.049   7.859 -0.5630  0.4649  0.2506
 3218SOL    HW121113   2.163   0.060   7.949 -0.4948 -1.0268  0.4667
 3218SOL    HW221114   2.156   0.124   7.812  0.9089  0.4022 -1.0354
 3219SOL     OW21115   1.498   0.368   0.359 -0.1011  0.5300 -0.2466
 3219SOL    HW121116   1.567   0.323   0.310  1.4186  2.1561  0.4129
 3219SOL    HW221117   1.470   0.431   0.292  3.4449  0.8076 -1.4721
 3220SOL     OW21118   3.726   1.852   5.795  0.7471 -0.3861  0.0345
 3220SOL    HW121119   3.650   1.908   5.787 -0.8470 -2.1257  2.8541
 3220SOL    HW221120   3.789   1.899   5.850  1.7721 -0.9936 -0.6069
 3221SOL     OW21121   1.345   2.980   0.887  0.0160 -0.0804  0.4293
 3221SOL    HW121122   1.360   3.065   0.847  0.5710  0.2833  1.4219
 3221SOL    HW221123   1.411   2.920   0.852  0.7786 -0.3851  2.4143
 3222SOL     OW21124   4.346   1.103   5.907 -0.3427 -0.0213  0.5076
 3222SOL    HW121125   4.412   1.146   5.961  0.5473 -0.5009 -0.1989
 3222SOL    HW221126   4.402   1.035   5.869 -0.7423 -0.6564  1.0709
 3223SOL     OW21127   0.496   0.579   9.730  0.2054 -0.4784 -0.0949
 3223SOL    HW121128   0.485   0.542   9.817  1.5370 -0.0837  0.2436
 3223SOL    HW221129   0.470   0.671   9.732  1.4246 -0.1035 -1.0892
 3224SOL     OW21130   3.884   0.013   6.852 -0.0964 -0.2112 -0.3318
 3224SOL    HW121131   3.817   0.021   6.783  0.6533 -0.6041 -1.1130
 3224SOL    HW221132   3.836   4.685   6.914  1.8407  0.2548  1.5805
 3225SOL     OW21133   1.229   2.560   2.168  0.0593 -1.3560  0.3283
 3225SOL    HW121134   1.312   2.587   2.208  0.5480  0.2501 -1.7330
 3225SOL    HW221135   1.260   2.479   2.128  0.5338 -1.4064  0.8057
 3226SOL     OW21136   1.383   2.587   5.553 -0.1207  0.6818  0.0569
 3226SOL    HW121137   1.349   2.677   5.551  0.2298  0.8382  1.2075
 3226SOL    HW221138   1.466   2.607   5.510  1.1504 -1.5003  1.4873
 3227SOL     OW21139   3.632   2.316   8.304  0.0352  0.2835  0.8926
 3227SOL    HW121140   3.662   2.239   8.255  2.5383  1.2618  0.9103
 3227SOL    HW221141   3.560   2.281   8.357 -0.8004  1.0668  0.2481
 3228SOL     OW21142   0.640   0.343   5.016  0.8191  0.3116 -0.3339
 3228SOL    HW121143   0.569   0.311   4.961  0.6999 -2.2671  1.3100
 3228SOL    HW221144   0.615   0.433   5.038  0.5174  0.0111  0.5644
 3229SOL     OW21145   0.430   0.686   4.201  0.0747 -0.6182 -0.0488
 3229SOL    HW121146   0.407   0.762   4.254 -0.0913 -0.5292 -0.2484
 3229SOL    HW221147   0.522   0.672   4.223 -0.0360 -0.5509  0.4596
 3230SOL     OW21148   3.190   4.333   9.997  0.1638  0.5595 -0.2247
 3230SOL    HW121149   3.170   4.274  10.069 -3.3099  3.2008  1.0135
 3230SOL    HW221150   3.103   4.342   9.957  0.7761  0.1170 -1.6629
 3231SOL     OW21151   1.331   3.413  15.772  0.2795  0.5699  0.3646
 3231SOL    HW121152   1.259   3.353  15.754  1.3531 -1.0755  1.5608
 3231SOL    HW221153   1.390   3.362  15.827  2.5262  1.1308 -1.5167
 3232SOL     OW21154   2.746   2.652   7.294  0.3844 -0.0821  0.1785
 3232SOL    HW121155   2.767   2.695   7.211 -1.6669  0.2735 -0.1805
 3232SOL    HW221156   2.661   2.616   7.266  0.0074  1.7710 -1.0490
 3233SOL     OW21157   2.379   2.809  15.074  0.3786  0.1626  0.3627
 3233SOL    HW121158   2.322   2.844  15.006  1.5482  1.6499  0.1583
 3233SOL    HW221159   2.375   2.714  15.061 -1.1452 -0.1926  3.2922
 3234SOL     OW21160   0.890   2.573   5.819  0.4074  0.0595  0.2460
 3234SOL    HW121161   0.926   2.484   5.823 -2.4136 -1.1293 -0.3125
 3234SOL    HW221162   0.816   2.577   5.758  4.0338 -1.0577 -4.1850
 3235SOL     OW21163   1.577   1.184   2.800  0.3649 -0.4462  0.7952
 3235SOL    HW121164   1.615   1.176   2.713 -1.9066  0.3128 -0.2831
 3235SOL    HW221165   1.487   1.153   2.788  1.0025 -1.8865 -0.1572
 3236SOL     OW21166   1.093   3.472   4.532  0.0968 -0.2059  0.0040
 3236SOL    HW121167   1.096   3.381   4.503 -2.2227 -0.3604  0.3013
 3236SOL    HW221168   1.010   3.506   4.500  0.2854  0.3553  0.0967
 3237SOL     OW21169   1.943   1.509   5.459 -0.7654  0.3487 -0.1176
 3237SOL    HW121170   1.942   1.478   5.550 -1.0708  1.5738  0.2850
 3237SOL    HW221171   1.967   1.601   5.464  2.3186 -0.5525  1.7366
 3238SOL     OW21172   1.036   0.750   3.209 -0.9332  0.1930  0.5583
 3238SOL    HW121173   1.016   0.834   3.249  2.9425  1.0958  0.5783
 3238SOL    HW221174   1.101   0.712   3.268 -0.3192 -0.6590 -0.6619
 3239SOL     OW21175   3.488   4.324   9.197 -0.0469  0.0502 -0.3311
 3239SOL    HW121176   3.440   4.274   9.263  0.8899 -0.8734 -0.3546
 3239SOL    HW221177   3.418   4.338   9.133 -0.5243 -0.0546  0.1675
 3240SOL     OW21178   2.718   3.284   8.611  0.0577  0.8049 -0.0195
 3240SOL    HW121179   2.782   3.309   8.676 -0.7272  2.3294  0.1661
 3240SOL    HW221180   2.743   3.198   8.577  0.3625  1.0907 -0.5133
 3241SOL     OW21181   0.517   2.993   9.211 -0.5573 -0.2098  0.1755
 3241SOL    HW121182   0.492   2.926   9.275 -3.8468  2.8155  2.0366
 3241SOL    HW221183   0.453   3.063   9.225  2.5816  2.6281  0.0787
 3242SOL     OW21184   2.389   1.015   7.144  0.3353  0.0655  0.3425
 3242SOL    HW121185   2.321   1.081   7.133  0.0981  0.0188  1.5215
 3242SOL    HW221186   2.465   1.071   7.128 -0.5988  1.0748 -0.5965
 3243SOL     OW21187   2.868   1.839   2.309 -0.3142 -0.2776  0.5216
 3243SOL    HW121188   2.960   1.856   2.291 -0.7066  2.0321  0.6190
 3243SOL    HW221189   2.837   1.929   2.319 -0.7257 -0.6014  2.1374
 3244SOL     OW21190   2.219   1.638   6.882 -0.8380  0.1533  0.0933
 3244SOL    HW121191   2.192   1.565   6.939  1.5896  0.1387  1.2032
 3244SOL    HW221192   2.308   1.636   6.917 -0.7850  0.6226 -0.0152
 3245SOL     OW21193   4.614   3.605  15.611 -0.0470 -0.3132 -0.2217
 3245SOL    HW121194   4.680   3.536  15.611  2.4380  2.0433  2.7346
 3245SOL    HW221195   4.532   3.564  15.638 -0.8546  0.0076 -2.1687
 3246SOL     OW21196   2.135   3.144   8.272  0.4633  0.2112 -0.4735
 3246SOL    HW121197   2.051   3.190   8.270 -0.4064 -1.3696 -0.8609
 3246SOL    HW221198   2.125   3.068   8.214  0.5285  0.3423 -0.6560
 3247SOL     OW21199   4.316   2.365  12.105  0.3615  0.1341  0.0370
 3247SOL    HW121200   4.272   2.375  12.020  0.9497 -0.5775 -0.3512
 3247SOL    HW221201   4.400   2.389  12.066 -1.0076 -0.6878 -3.3950
 3248SOL     OW21202   0.199   4.329   6.294 -0.1756  0.3523  0.5512
 3248SOL    HW121203   0.128   4.390   6.275 -0.3113  0.0049 -0.0451
 3248SOL    HW221204   0.264   4.385   6.337 -1.1538  2.1891 -0.3615
 3249SOL     OW21205   4.512   0.712   8.339 -0.2121  0.3730 -0.1408
 3249SOL    HW121206   4.514   0.630   8.289 -0.7338  0.7782 -0.8286
 3249SOL    HW221207   4.525   0.673   8.425  1.0414  2.5394  0.6565
 3250SOL     OW21208   1.802   1.001  13.397 -0.1550  0.6590  0.3875
 3250SOL    HW121209   1.873   1.066  13.397  1.4325 -1.0729 -1.0990
 3250SOL    HW221210   1.816   0.978  13.305  0.6719 -1.1492  0.9651
 3251SOL     OW21211   0.300   1.940   5.295 -1.0029  0.4586 -0.3093
 3251SOL    HW121212   0.385   1.965   5.333 -0.5496  0.3249 -1.2254
 3251SOL    HW221213   0.259   1.908   5.375  2.1283 -0.9064  0.7532
 3252SOL     OW21214   2.952   4.399   4.979  0.7647  0.0165 -0.2138
 3252SOL    HW121215   3.046   4.382   4.982  0.9756  1.1818 -0.3972
 3252SOL    HW221216   2.913   4.316   4.950 -1.2447  0.7368  0.4930
 3253SOL     OW21217   0.274   4.610   2.012  0.5008 -0.0872  0.3117
 3253SOL    HW121218   0.179   4.603   2.022  0.4109 -0.1443 -0.6328
 3253SOL    HW221219   0.291   4.523   2.048 -1.4049 -0.4353  0.3860
 3254SOL     OW21220   2.403   4.596   3.099  0.4053  0.1314  0.1226
 3254SOL    HW121221   2.314   4.605   3.063  0.7390  2.8154  0.0465
 3254SOL    HW221222   2.455   4.651   3.040 -0.1899  1.2604  0.6573
 3255SOL     OW21223   1.250   4.576  10.081 -0.4317  0.2707 -0.1751
 3255SOL    HW121224   1.159   4.567  10.050 -1.1269  0.2674  1.8736
 3255SOL    HW221225   1.250   4.505  10.145 -0.4151 -1.3131 -1.9091
 3256SOL     OW21226   0.998   2.332   5.804 -0.4747  0.2463 -0.2237
 3256SOL    HW121227   0.924   2.279   5.774 -0.4613  0.2034 -0.1792
 3256SOL    HW221228   1.065   2.267   5.821 -0.6119  0.8928  2.8229
 3257SOL     OW21229   3.133   0.830   7.981  0.0190  0.4811 -0.2424
 3257SOL    HW121230   3.195   0.767   7.943 -1.1558 -1.6605  1.4109
 3257SOL    HW221231   3.124   0.898   7.914 -2.9141 -0.2689 -0.5785
 3258SOL     OW21232   0.901   3.418   7.180 -0.5467 -0.1513  0.2903
 3258SOL    HW121233   0.827   3.444   7.234 -0.5241  1.2262 -0.3496
 3258SOL    HW221234   0.859   3.388   7.099 -0.5885 -0.9369  0.5963
 3259SOL     OW21235   2.485   0.611   4.583 -0.4249  0.6807  0.0170
 3259SOL    HW121236   2.539   0.681   4.620  0.8323  0.0263 -0.5863
 3259SOL    HW221237   2.462   0.652   4.499 -0.1406  1.0498  0.1167
 3260SOL     OW21238   4.653   1.830  12.966  0.4777 -0.1455 -0.0265
 3260SOL    HW121239   0.020   1.819  12.975  0.3534 -0.4351  0.8695
 3260SOL    HW221240   4.629   1.741  12.940 -0.1861 -0.2819  1.0846
 3261SOL     OW21241   3.647   2.350   5.986 -0.4121  0.4246  0.1727
 3261SOL    HW121242   3.630   2.416   5.919  0.0481  1.5159  1.1331
 3261SOL    HW221243   3.735   2.318   5.966 -0.8768 -0.1740 -0.8782
 3262SOL     OW21244   2.434   1.470   2.316 -0.0602 -0.1077  0.4188
 3262SOL    HW121245   2.503   1.405   2.300 -0.3142 -0.2268 -0.1561
 3262SOL    HW221246   2.417   1.454   2.409 -1.4059 -0.7166  0.0684
 3263SOL     OW21247   0.428   2.049   7.097 -0.2427  0.4269 -0.2289
 3263SOL    HW121248   0.419   2.124   7.157 -1.3439  0.0841  0.0423
 3263SOL    HW221249   0.390   1.976   7.145  0.6545  0.0004 -0.1683
 3264SOL     OW21250   3.485   2.170   8.494  0.5015  0.1010  0.2495
 3264SOL    HW121251   3.450   2.167   8.583 -0.5808 -0.7567 -0.2000
 3264SOL    HW221252   3.537   2.090   8.483  2.4760  1.2584  1.2033
 3265SOL     OW21253   1.504   0.972   8.310  0.3248 -0.0859  0.2623
 3265SOL    HW121254   1.456   0.905   8.357 -1.5433  0.9478 -0.1810
 3265SOL    HW221255   1.586   0.960   8.359  0.1852 -2.0494 -0.0006
 3266SOL     OW21256   1.545   2.923  16.432  0.3549  0.3651  0.0209
 3266SOL    HW121257   1.458   2.921  16.391  0.2248 -0.8497  0.3528
 3266SOL    HW221258   1.591   2.854  16.385  0.3780  0.9378 -0.8035
 3267SOL     OW21259   4.019   0.248   8.725  0.6103  0.4723 -0.1356
 3267SOL    HW121260   4.075   0.255   8.803 -0.4062  0.4916  0.5892
 3267SOL    HW221261   3.938   0.280   8.764 -0.3583 -0.7579 -1.1383
 3268SOL     OW21262   3.501   3.954   4.384  0.3239 -0.3954 -0.4268
 3268SOL    HW121263   3.560   3.880   4.401  1.1965  0.3067 -0.4517
 3268SOL    HW221264   3.509   4.009   4.462  0.5649 -0.9846 -0.0282
 3269SOL     OW21265   1.090   3.778  15.346  0.1803 -0.2675 -0.2412
 3269SOL    HW121266   1.091   3.695  15.393 -2.6109  0.1518  0.5481
 3269SOL    HW221267   1.030   3.747  15.279 -0.2309  0.0922 -0.0396
 3270SOL     OW21268   0.428   1.380   6.374  0.1113 -0.3980 -0.2614
 3270SOL    HW121269   0.353   1.343   6.422 -2.3066  3.9514 -0.6685
 3270SOL    HW221270   0.490   1.308   6.380  0.5439 -0.1729 -2.0286
 3271SOL     OW21271   4.149   2.361   6.193 -0.0522  0.1755 -0.0736
 3271SOL    HW121272   4.088   2.379   6.264 -0.5399 -2.3780  0.1362
 3271SOL    HW221273   4.109   2.408   6.120  3.1754  0.1472 -1.8711
 3272SOL     OW21274   0.581   1.416  13.671  0.4131 -0.2232 -0.7911
 3272SOL    HW121275   0.490   1.390  13.683  0.9888 -2.0605 -0.4073
 3272SOL    HW221276   0.596   1.475  13.597  0.2839 -0.4601 -1.0034
 3273SOL     OW21277   2.602   1.567   7.727  0.1043 -0.7138  0.5178
 3273SOL    HW121278   2.636   1.612   7.649 -1.2527  0.4198  0.5861
 3273SOL    HW221279   2.643   1.623   7.794  0.8144 -0.2832 -0.2736
 3274SOL     OW21280   3.482   4.203   4.038  0.0319  0.7055 -0.4586
 3274SOL    HW121281   3.500   4.213   4.131 -2.2050  2.0124 -0.1735
 3274SOL    HW221282   3.551   4.141   4.015 -0.9489 -0.1731 -1.0650
 3275SOL     OW21283   0.243   2.025   1.838 -0.0356 -0.1659 -0.3003
 3275SOL    HW121284   0.166   1.972   1.858  0.4456  0.3274  2.8297
 3275SOL    HW221285   0.260   2.007   1.745 -0.1776 -0.6027 -0.2416
 3276SOL     OW21286   0.200   2.901   7.093 -0.5033 -0.7325  0.0582
 3276SOL    HW121287   0.216   2.808   7.076 -0.3250 -1.1182  2.3157
 3276SOL    HW221288   0.130   2.918   7.031  3.1804  0.5460 -3.7863
 3277SOL     OW21289   3.308   3.608   9.320  0.2383 -0.3508  0.2300
 3277SOL    HW121290   3.367   3.664   9.371 -1.6259  1.8818 -0.0760
 3277SOL    HW221291   3.314   3.531   9.377  0.1997 -0.3836  0.1892
 3278SOL     OW21292   4.496   4.097   6.099  0.7067  0.2870  0.7073
 3278SOL    HW121293   4.580   4.053   6.112  1.6640  1.8897 -0.1253
 3278SOL    HW221294   4.498   4.113   6.005 -1.6679 -0.0089  0.6177
 3279SOL     OW21295   3.852   4.305   9.060  0.0633 -0.4082 -0.3790
 3279SOL    HW121296   3.929   4.347   9.023  1.0683 -0.1607  1.9632
 3279SOL    HW221297   3.795   4.314   8.984 -0.4433 -2.1586 -0.2152
 3280SOL     OW21298   1.887   4.662   7.984  0.5785  0.0915  0.0059
 3280SOL    HW121299   1.833   4.597   7.937 -0.2868  0.5987  0.2985
 3280SOL    HW221300   1.925   4.710   7.910  1.3200 -0.6865 -0.1165
 3281SOL     OW21301   4.470   3.767   3.614 -0.1947 -0.2002  0.2976
 3281SOL    HW121302   4.488   3.861   3.609  3.1020 -0.8928 -1.0402
 3281SOL    HW221303   4.519   3.744   3.535  0.1737  1.3012  0.0907
 3282SOL     OW21304   4.010   3.082   3.568  0.1214 -0.7317 -0.1179
 3282SOL    HW121305   3.915   3.079   3.559  0.0503 -0.0822  0.3518
 3282SOL    HW221306   4.030   3.144   3.498  1.5438 -0.6331  0.3762
 3283SOL     OW21307   0.176   3.022  14.645 -0.0807 -0.0425 -0.1885
 3283SOL    HW121308   0.131   3.057  14.569  0.4834 -0.0680 -0.5296
 3283SOL    HW221309   0.264   3.026  14.608  0.0262  0.8722  0.1579
 3284SOL     OW21310   2.254   0.326   8.984  0.8376  0.3174 -0.1258
 3284SOL    HW121311   2.277   0.293   8.898  0.4798 -0.1138 -0.0613
 3284SOL    HW221312   2.279   0.247   9.034 -1.6885 -1.1347 -1.1491
 3285SOL     OW21313   0.452   0.571   0.780 -0.2877 -0.4722 -0.2184
 3285SOL    HW121314   0.509   0.585   0.704 -0.5230  4.1842  0.4892
 3285SOL    HW221315   0.369   0.554   0.734 -1.3956  1.4871  1.0857
 3286SOL     OW21316   1.168   1.661   8.006  0.4050  0.4654 -0.2510
 3286SOL    HW121317   1.165   1.682   8.100 -1.5479 -0.6549 -0.0815
 3286SOL    HW221318   1.116   1.733   7.970 -2.0008 -1.6052 -0.8516
 3287SOL     OW21319   4.371   0.605   7.099  0.7521 -0.2752 -0.3318
 3287SOL    HW121320   4.441   0.642   7.154 -0.8845  0.4751  1.2299
 3287SOL    HW221321   4.337   0.530   7.149  0.2923 -0.8118 -1.4389
 3288SOL     OW21322   1.289   4.675   8.892  0.2927  0.3453 -0.1106
 3288SOL    HW121323   1.226   4.613   8.854  1.0204 -0.0082 -0.7510
 3288SOL    HW221324   1.316   4.712   8.808 -1.9491  1.9645 -0.1080
 3289SOL     OW21325   3.597   4.314   3.606 -0.3155  0.3980  0.1423
 3289SOL    HW121326   3.515   4.348   3.642  1.8330  2.1965  3.2661
 3289SOL    HW221327   3.575   4.319   3.513 -1.3760 -0.0502  0.3700
 3290SOL     OW21328   2.772   4.449   4.606 -0.0289 -0.4275  0.0119
 3290SOL    HW121329   2.705   4.454   4.674 -0.3734 -1.7376 -0.2348
 3290SOL    HW221330   2.784   4.354   4.607  0.9832 -0.2843  2.2348
 3291SOL     OW21331   4.377   2.574   2.677  0.0221  0.1107  0.4246
 3291SOL    HW121332   4.374   2.499   2.737 -1.6269  1.3035  1.8497
 3291SOL    HW221333   4.371   2.536   2.590  0.2893  0.6959  0.1520
 3292SOL     OW21334   3.202   4.312   5.000  1.0699  0.3156  0.5844
 3292SOL    HW121335   3.202   4.230   5.050 -1.0758  0.1069  0.2601
 3292SOL    HW221336   3.261   4.288   4.929  0.1361  1.1929 -0.4850
 3293SOL     OW21337   2.150   0.102  16.938  0.4549  0.1843 -0.0787
 3293SOL    HW121338   2.131   0.190  16.969 -3.1922 -0.7630  0.4520
 3293SOL    HW221339   2.111   0.107  16.851  0.6774  1.7372 -0.0843
 3294SOL     OW21340   1.316   0.339   9.214 -0.0209 -0.8870 -0.5875
 3294SOL    HW121341   1.287   0.429   9.227  1.5876 -0.5549  0.6787
 3294SOL    HW221342   1.343   0.318   9.304 -2.6743 -0.1181  0.3677
 3295SOL     OW21343   0.952   2.046   5.629 -0.0451  0.2592  0.3360
 3295SOL    HW121344   0.916   1.975   5.682  0.7897 -0.1207  0.3959
 3295SOL    HW221345   0.873   2.071   5.581  0.3077 -1.1519 -0.9950
 3296SOL     OW21346   2.305   3.142   7.538 -0.2014 -0.0834  0.4763
 3296SOL    HW121347   2.397   3.122   7.521 -0.3052 -0.3328  0.2103
 3296SOL    HW221348   2.261   3.084   7.476  0.5719  0.8619 -0.9634
 3297SOL     OW21349   4.108   0.064  16.380  0.7751  0.2519 -0.1028
 3297SOL    HW121350   4.106   0.006  16.456  0.2474  0.1514 -0.1945
 3297SOL    HW221351   4.164   0.131  16.419  2.2655 -1.2956  0.4252
 3298SOL     OW21352   3.599   4.074  12.950 -0.7410  0.7630 -0.2050
 3298SOL    HW121353   3.510   4.097  12.925 -0.7995 -0.3165 -0.9492
 3298SOL    HW221354   3.650   4.153  12.970 -1.8787  0.9898  1.8559
 3299SOL     OW21355   3.181   1.236   8.713  0.2146 -0.1595  0.8058
 3299SOL    HW121356   3.155   1.193   8.795 -0.4487 -0.9708  0.1781
 3299SOL    HW221357   3.206   1.324   8.738  2.2197  0.2854 -2.7018
 3300SOL     OW21358   4.096   3.706   4.094 -1.2780  1.1856 -0.8557
 3300SOL    HW121359   4.098   3.764   4.170 -0.7803  1.6908 -1.2546
 3300SOL    HW221360   4.187   3.702   4.063  0.3967 -0.3985  4.3258
 3301SOL     OW21361   1.876   0.489   9.547 -0.2364 -0.1275 -0.6184
 3301SOL    HW121362   1.936   0.427   9.590 -2.8088 -1.3773  1.1679
 3301SOL    HW221363   1.895   0.468   9.456  1.2806  0.6598 -0.4970
 3302SOL     OW21364   3.960   0.316  14.637  0.0784  0.0509 -0.5128
 3302SOL    HW121365   4.029   0.378  14.658 -0.0371  0.7961 -2.3222
 3302SOL    HW221366   3.979   0.243  14.696  0.2788 -0.5544 -1.3182
 3303SOL     OW21367   2.127   1.129   5.207  0.0331  0.3410  0.2042
 3303SOL    HW121368   2.045   1.174   5.228 -1.7712 -3.1607  0.6391
 3303SOL    HW221369   2.140   1.153   5.115  1.2352  0.8203  0.5084
 3304SOL     OW21370   2.900   0.568   9.824 -0.5659 -0.2015  0.0972
 3304SOL    HW121371   2.832   0.533   9.883 -0.1902 -1.3836 -0.1647
 3304SOL    HW221372   2.860   0.647   9.788 -1.4207 -0.4847  0.4209
 3305SOL     OW21373   1.532   3.708   4.693  0.1826  0.1583 -0.4340
 3305SOL    HW121374   1.529   3.751   4.608  0.1626 -1.9720 -1.5172
 3305SOL    HW221375   1.439   3.722   4.709 -0.0535  1.0923 -2.7165
 3306SOL     OW21376   2.398   1.125   3.239 -0.1527 -0.3434  0.2447
 3306SOL    HW121377   2.382   1.197   3.178 -2.2455 -0.5687  0.5187
 3306SOL    HW221378   2.354   1.049   3.200 -1.2050 -0.0609  0.8959
 3307SOL     OW21379   2.395   2.516   8.686 -0.1817  0.4571  0.5089
 3307SOL    HW121380   2.313   2.553   8.718 -1.6626 -1.8388 -0.6219
 3307SOL    HW221381   2.448   2.595   8.691  2.1380 -0.9157 -1.9459
 3308SOL     OW21382   1.446   3.180  17.334  0.3265 -0.4687 -0.4420
 3308SOL    HW121383   1.369   3.220  17.376 -0.5585 -0.5484 -1.9917
 3308SOL    HW221384   1.510   3.223  17.390 -1.8861  3.7338 -1.1102
 3309SOL     OW21385   4.140   2.137   5.576 -0.0607 -0.3083  0.7408
 3309SOL    HW121386   4.052   2.152   5.609 -0.0280 -0.3564  0.8526
 3309SOL    HW221387   4.125   2.071   5.509  0.6602 -0.3249  0.5926
 3310SOL     OW21388   2.198   0.137   8.135  0.1680  0.2726 -0.3446
 3310SOL    HW121389   2.287   0.167   8.114  0.1295 -0.9421 -2.2762
 3310SOL    HW221390   2.202   0.110   8.226 -0.0892 -1.1983 -0.7728
 3311SOL     OW21391   4.625   0.152   4.349 -0.8829  0.2065 -0.0857
 3311SOL    HW121392   4.601   0.190   4.433  0.2280  1.8052 -0.4992
 3311SOL    HW221393   4.587   0.064   4.351  1.6384 -0.8405  1.2245
 3312SOL     OW21394   0.461   4.358   7.944  0.2184 -0.2253  0.0972
 3312SOL    HW121395   0.547   4.316   7.949  0.1522 -0.4383 -0.5369
 3312SOL    HW221396   0.490   4.417   7.875  2.7806  0.5850  1.8454
 3313SOL     OW21397   0.856   0.202  15.514  0.1516  0.1245 -0.1205
 3313SOL    HW121398   0.899   0.150  15.582  0.6828 -0.4325 -0.8865
 3313SOL    HW221399   0.780   0.150  15.486  0.0285 -0.4389  1.2610
 3314SOL     OW21400   1.367   0.996  11.027  0.1056  0.4133 -0.2646
 3314SOL    HW121401   1.438   1.061  11.028  0.2213  0.2967 -0.8872
 3314SOL    HW221402   1.301   1.050  10.983 -0.9444 -0.4558  0.2536
 3315SOL     OW21403   2.788   1.829   6.483  0.1144 -0.5611  0.3610
 3315SOL    HW121404   2.852   1.762   6.459  1.1021  0.8635 -1.0006
 3315SOL    HW221405   2.710   1.812   6.430  1.4400 -0.7186 -1.5612
 3316SOL     OW21406   2.757   2.733   2.937 -0.0578  0.1135  0.2500
 3316SOL    HW121407   2.725   2.658   2.886 -0.6404  1.9146 -2.0278
 3316SOL    HW221408   2.739   2.711   3.028 -2.1455  0.8221  0.0022
 3317SOL     OW21409   4.005   4.444   9.302 -0.4715  0.7185  0.3774
 3317SOL    HW121410   3.912   4.420   9.302 -0.7114  1.6194  1.9914
 3317SOL    HW221411   4.006   4.531   9.263  1.5750  1.5725  2.3770
 3318SOL     OW21412   3.428   4.034   5.971 -0.4751 -0.5267  0.0128
 3318SOL    HW121413   3.369   4.110   5.973 -1.2525 -1.1345 -0.2687
 3318SOL    HW221414   3.372   3.973   6.019 -0.6604  0.7979  1.4937
 3319SOL     OW21415   3.171   1.768   8.295 -0.3334  0.3682  0.1054
 3319SOL    HW121416   3.138   1.812   8.373 -1.2801 -0.1927  0.0218
 3319SOL    HW221417   3.175   1.679   8.331 -3.6160  0.1186 -0.1451
 3320SOL     OW21418   2.109   1.687  17.649  0.6049  0.3918  0.8567
 3320SOL    HW121419   2.194   1.722  17.622 -0.2310  0.6620 -1.3895
 3320SOL    HW221420   2.084   1.622  17.583  0.6952  0.2849  0.9266
 3321SOL     OW21421   0.376   4.584  13.473 -0.1289 -0.4159 -0.3361
 3321SOL    HW121422   0.293   4.578  13.424 -0.5714 -1.0279  0.4789
 3321SOL    HW221423   0.405   4.496  13.450  1.4797  0.3076 -1.0174
 3322SOL     OW21424   0.755   2.125   3.279 -0.0406  0.6712  0.4623
 3322SOL    HW121425   0.821   2.107   3.211 -1.0626  0.3304 -0.4387
 3322SOL    HW221426   0.694   2.059   3.247 -2.6442  4.4327 -2.3427
 3323SOL     OW21427   3.882   3.156   2.967 -0.2575 -0.0308 -0.0459
 3323SOL    HW121428   3.817   3.104   2.920  0.6501 -0.4021 -0.8625
 3323SOL    HW221429   3.963   3.148   2.917  0.3629  1.2191  0.7561
 3324SOL     OW21430   1.438   4.622  13.174 -0.2654 -0.1422  0.5625
 3324SOL    HW121431   1.445   4.683  13.247 -0.1454  0.4356  0.0748
 3324SOL    HW221432   1.436   4.684  13.101 -0.0889 -0.8827 -0.0815
 3325SOL     OW21433   2.153   0.609   7.809  0.1259 -0.7176 -0.0061
 3325SOL    HW121434   2.217   0.551   7.767  0.9415 -0.0339  0.2729
 3325SOL    HW221435   2.203   0.644   7.883  0.8826 -0.5039 -0.6029
 3326SOL     OW21436   3.281   4.337   8.537 -0.0383 -0.3153  0.5514
 3326SOL    HW121437   3.190   4.369   8.537  0.5079  1.2256  0.7135
 3326SOL    HW221438   3.343   4.381   8.595  2.5610 -1.3529 -1.4281
 3327SOL     OW21439   0.210   3.063   6.114  0.1527 -0.0775 -0.7977
 3327SOL    HW121440   0.152   3.009   6.168  1.1586 -0.3940 -0.0216
 3327SOL    HW221441   0.294   3.035   6.152  0.1643  0.0307 -0.7447
 3328SOL     OW21442   3.291   4.169   4.743 -0.0686  0.4286  0.0327
 3328SOL    HW121443   3.261   4.223   4.669 -0.3412 -0.3771 -0.4456
 3328SOL    HW221444   3.378   4.142   4.716  0.0934  0.6319  0.3504
 3329SOL     OW21445   4.639   0.728   0.937 -0.4064 -0.1531 -0.3687
 3329SOL    HW121446   4.584   0.727   1.015  0.2297  1.0024  0.0861
 3329SOL    HW221447   4.586   0.719   0.858  0.8647 -0.6412 -1.1691
 3330SOL     OW21448   3.511   2.529   1.449 -0.6350  0.4460  0.4188
 3330SOL    HW121449   3.445   2.490   1.391 -1.1749  1.2660  0.4825
 3330SOL    HW221450   3.542   2.587   1.379  2.5021 -0.1253  1.3246
 3331SOL     OW21451   2.770   2.310   6.924  0.3125  0.0505 -0.2858
 3331SOL    HW121452   2.862   2.329   6.942 -0.0734  0.6768  1.0471
 3331SOL    HW221453   2.764   2.214   6.915  3.0595 -0.1536  0.0509
 3332SOL     OW21454   2.570   0.028   2.960  0.0206  0.2851 -0.3357
 3332SOL    HW121455   2.639   4.691   2.971 -0.4550 -0.1573  0.0607
 3332SOL    HW221456   2.594   0.051   2.870 -1.9966  1.1214 -0.6557
 3333SOL     OW21457   0.824   3.377  12.551  0.3032 -0.4000 -0.2637
 3333SOL    HW121458   0.896   3.349  12.607  1.0174 -0.2707 -1.1189
 3333SOL    HW221459   0.779   3.439  12.608  2.1363 -0.2498  1.0114
 3334SOL     OW21460   2.233   3.974   4.502 -0.6596 -0.5717  0.2543
 3334SOL    HW121461   2.282   3.930   4.432 -0.5178 -1.2472  0.7783
 3334SOL    HW221462   2.206   3.897   4.553 -0.5725 -2.1230 -2.0215
 3335SOL     OW21463   1.774   2.391  16.691 -0.2933  0.3759 -0.1730
 3335SOL    HW121464   1.716   2.452  16.736  2.1684  2.3005  0.3715
 3335SOL    HW221465   1.723   2.310  16.699  2.0817 -1.2028 -0.8013
 3336SOL     OW21466   1.025   1.407   5.848  0.4134 -0.2321 -0.2715
 3336SOL    HW121467   0.984   1.392   5.763  0.4875  2.8813 -0.8283
 3336SOL    HW221468   0.967   1.473   5.886  1.6231  0.0121  1.1827
 3337SOL     OW21469   2.772   2.902   5.296 -0.2699  0.0356 -0.6102
 3337SOL    HW121470   2.816   2.914   5.212  0.9538  1.2051  0.1912
 3337SOL    HW221471   2.825   2.962   5.349 -0.3762 -2.7666  2.7478
 3338SOL     OW21472   1.934   1.729   9.852  0.1234 -0.3359 -0.0217
 3338SOL    HW121473   1.943   1.814   9.810  0.5540  0.2122  1.1755
 3338SOL    HW221474   1.947   1.665   9.783 -0.2774  0.4114 -0.7834
 3339SOL     OW21475   4.407   0.580   4.722 -0.4334 -0.2758  0.5153
 3339SOL    HW121476   4.393   0.662   4.769  0.9230  0.6589 -0.7019
 3339SOL    HW221477   4.397   0.516   4.792  1.0413  0.4931  1.4331
 3340SOL     OW21478   2.816   2.641   3.210 -0.1263  0.3511 -0.2041
 3340SOL    HW121479   2.910   2.623   3.211  0.0524  1.2328 -1.0030
 3340SOL    HW221480   2.805   2.704   3.281  2.0668 -0.2539  0.6703
 3341SOL     OW21481   2.786   0.736   3.232  0.4957 -0.1213 -0.2920
 3341SOL    HW121482   2.761   0.812   3.180 -0.0088  0.2189  0.4548
 3341SOL    HW221483   2.800   0.666   3.168  2.3166 -1.4365  1.5349
 3342SOL     OW21484   4.543   3.749  13.965  0.1023 -0.9477 -0.3201
 3342SOL    HW121485   4.474   3.694  14.003  0.6704 -0.5223  1.3439
 3342SOL    HW221486   4.622   3.741  14.019 -1.1352 -1.7477  1.3780
 3343SOL     OW21487   4.029   0.814   9.843 -0.2049  0.3242  0.1512
 3343SOL    HW121488   4.084   0.849   9.913 -1.4311 -1.0465  1.7939
 3343SOL    HW221489   4.033   0.718   9.847  1.2930  0.2865 -1.8841
 3344SOL     OW21490   2.368   1.140   2.279  0.1718 -0.7201 -0.0925
 3344SOL    HW121491   2.451   1.170   2.243 -0.0470  1.6371  1.3374
 3344SOL    HW221492   2.308   1.211   2.258  0.0775 -1.2238 -1.4865
 3345SOL     OW21493   3.624   3.510   9.512 -0.5710  0.4143 -0.3449
 3345SOL    HW121494   3.544   3.460   9.526 -2.3149  2.8709 -1.4904
 3345SOL    HW221495   3.691   3.457   9.469 -3.6997 -1.4594 -2.8287
 3346SOL     OW21496   3.418   4.111   5.497  0.0514 -0.5240  0.6066
 3346SOL    HW121497   3.478   4.050   5.455  1.2561  0.6015  0.7023
 3346SOL    HW221498   3.396   4.064   5.577 -1.4952  0.0356  0.5148
 3347SOL     OW21499   2.112   1.476   6.169 -0.1819 -0.3795 -0.5477
 3347SOL    HW121500   2.068   1.496   6.252  1.1980  1.6612 -0.2984
 3347SOL    HW221501   2.081   1.386   6.158  1.3603 -1.0638  0.6421
 3348SOL     OW21502   0.053   1.669  13.940  0.4429 -0.3971 -0.7193
 3348SOL    HW121503   0.064   1.693  13.848 -0.6397 -2.2551 -1.3497
 3348SOL    HW221504   0.144   1.679  13.970  0.6491 -2.8157 -0.5372
 3349SOL     OW21505   4.376   1.948   8.796  0.3852 -0.1509 -0.7575
 3349SOL    HW121506   4.468   1.926   8.782  0.5491  0.1201 -0.1059
 3349SOL    HW221507   4.337   1.903   8.721  0.3189 -3.4574  1.2981
 3350SOL     OW21508   4.668   1.977   5.212 -0.1691 -0.3165 -0.0143
 3350SOL    HW121509   4.686   1.928   5.292  2.0338  1.4179  0.5400
 3350SOL    HW221510   4.584   1.936   5.192  0.0778 -1.1810  0.7287
 3351SOL     OW21511   0.134   3.739   2.485  0.5398 -0.3959  0.4225
 3351SOL    HW121512   0.102   3.654   2.513 -0.3684 -0.0730  0.3777
 3351SOL    HW221513   0.051   3.787   2.495  0.2845 -0.8126  0.2945
 3352SOL     OW21514   3.813   3.513   3.867  0.1604  0.0764 -0.3442
 3352SOL    HW121515   3.809   3.568   3.945 -0.0221 -1.1013  0.4710
 3352SOL    HW221516   3.728   3.470   3.863  1.2253 -2.1242  0.5302
 3353SOL     OW21517   3.107   1.800   5.391  0.0049  0.1762  0.3507
 3353SOL    HW121518   3.104   1.708   5.417  1.0633  0.0231 -0.0864
 3353SOL    HW221519   3.185   1.801   5.336  0.9873 -1.1787  1.7128
 3354SOL     OW21520   4.662   1.197   6.817  0.0229  0.0205 -0.2600
 3354SOL    HW121521   4.656   1.167   6.727  0.1632 -3.0120  0.7489
 3354SOL    HW221522   4.691   1.114   6.855 -2.9522 -0.0953  1.7768
 3355SOL     OW21523   0.313   3.696   7.529 -0.0405  0.3207 -0.7183
 3355SOL    HW121524   0.386   3.745   7.493 -0.3106  1.2305 -0.0131
 3355SOL    HW221525   0.341   3.653   7.609  3.1704  0.2170 -1.8984
 3356SOL     OW21526   4.205   3.712   2.979 -0.4268  0.6394 -0.3659
 3356SOL    HW121527   4.208   3.625   2.939  2.1023  0.3949  0.3587
 3356SOL    HW221528   4.221   3.687   3.070  0.0535  3.2966  0.2939
 3357SOL     OW21529   0.204   2.979   3.084 -0.6253 -0.3199 -0.1906
 3357SOL    HW121530   0.242   3.063   3.110  0.6071 -0.9231 -0.0343
 3357SOL    HW221531   0.265   2.925   3.135  0.7292 -0.6959 -2.2052
 3358SOL     OW21532   1.257   3.381  13.356 -0.3323 -0.1036  0.4630
 3358SOL    HW121533   1.301   3.296  13.344 -0.4815 -0.3553  1.7485
 3358SOL    HW221534   1.322   3.450  13.367 -1.2617  1.0989 -1.5602
 3359SOL     OW21535   3.828   4.159   4.927  0.4719 -0.3155  0.3581
 3359SOL    HW121536   3.912   4.115   4.915 -0.1718 -1.3545 -0.3786
 3359SOL    HW221537   3.810   4.185   4.836 -1.7168 -2.0064  0.3179
 3360SOL     OW21538   0.718   2.116   0.816  0.5271 -0.0764 -0.0541
 3360SOL    HW121539   0.623   2.115   0.804  0.5772 -1.4254 -0.4286
 3360SOL    HW221540   0.733   2.029   0.778 -0.0791  0.6279 -1.8988
 3361SOL     OW21541   0.775   0.389   1.341 -0.1039 -0.3156 -0.1494
 3361SOL    HW121542   0.779   0.438   1.423 -1.2329 -0.3997 -0.0420
 3361SOL    HW221543   0.847   0.328   1.354  2.7007  2.7510 -1.0716
 3362SOL     OW21544   0.534   2.947  15.637 -0.2075 -0.1604 -0.1026
 3362SOL    HW121545   0.593   2.875  15.614  0.0027  0.9045 -2.9635
 3362SOL    HW221546   0.571   3.028  15.603  0.0056 -0.2713 -0.1365
 3363SOL     OW21547   2.461   0.329   1.143 -0.4533 -0.0619  0.6493
 3363SOL    HW121548   2.385   0.384   1.127  0.9719  1.2798 -1.4928
 3363SOL    HW221549   2.515   0.354   1.068 -1.8412 -1.4488 -0.8078
 3364SOL     OW21550   1.214   2.737  11.344  0.4315 -0.4358 -0.1312
 3364SOL    HW121551   1.135   2.765  11.390  1.4786 -0.0004  1.3919
 3364SOL    HW221552   1.265   2.693  11.411  0.9062  1.3447  0.6678
 3365SOL     OW21553   2.949   0.802   4.822  0.0652  0.3310 -0.2264
 3365SOL    HW121554   2.993   0.726   4.782 -1.0683 -0.4390 -0.0053
 3365SOL    HW221555   3.024   0.860   4.837  0.5401 -0.8224  1.9161
 3366SOL     OW21556   1.603   0.967   7.002  0.0537  0.9570 -0.1689
 3366SOL    HW121557   1.628   0.950   6.912  1.1642 -0.4582  0.4196
 3366SOL    HW221558   1.514   0.931   6.996  0.2874  0.1361  1.3424
 3367SOL     OW21559   4.723   3.829   9.096  0.2561 -0.4959  0.6265
 3367SOL    HW121560   0.002   3.843   9.002  0.6670  0.7466  0.8403
 3367SOL    HW221561   0.052   3.895   9.135 -0.0066  0.0061  0.1528
 3368SOL     OW21562   3.679   4.348   4.520 -0.1345  0.0530  0.0346
 3368SOL    HW121563   3.584   4.358   4.527 -0.5044 -1.8758 -2.1412
 3368SOL    HW221564   3.695   4.379   4.431  2.8066 -2.4767 -0.3062
 3369SOL     OW21565   2.789   1.230   4.610 -0.3362  0.3411 -0.2692
 3369SOL    HW121566   2.792   1.306   4.551 -2.3976  0.6129 -0.0219
 3369SOL    HW221567   2.755   1.270   4.690  2.4382 -0.1399  1.1326
 3370SOL     OW21568   3.350   2.403   8.046  0.2565  0.4521 -0.5992
 3370SOL    HW121569   3.333   2.494   8.070 -0.1622 -0.1472  1.3951
 3370SOL    HW221570   3.443   2.407   8.071  0.0278  2.3859 -0.0617
 3371SOL     OW21571   3.748   0.712   5.358 -0.3005 -0.6551 -0.1794
 3371SOL    HW121572   3.692   0.739   5.284 -0.8400 -1.3860 -0.0350
 3371SOL    HW221573   3.700   0.635   5.388 -1.7643  0.1008 -0.5494
 3372SOL     OW21574   3.644   2.084   8.169  0.0184 -0.0472 -0.1237
 3372SOL    HW121575   3.583   2.034   8.224  1.8687 -2.5642 -0.3253
 3372SOL    HW221576   3.730   2.044   8.185  0.3570 -0.3721 -2.7988
 3373SOL     OW21577   0.815   2.318   9.119 -0.1613 -0.3275 -0.1500
 3373SOL    HW121578   0.728   2.300   9.155 -0.9664 -0.6989 -2.3075
 3373SOL    HW221579   0.865   2.319   9.201  1.7150 -0.1005 -1.3067
 3374SOL     OW21580   4.634   0.696   8.607 -0.3256 -0.1693 -0.4280
 3374SOL    HW121581   4.659   0.785   8.630 -2.1770 -0.1515  1.4470
 3374SOL    HW221582   4.722   0.662   8.587  0.1768  0.7534  0.2323
 3375SOL     OW21583   1.372   1.314   9.600  0.1363 -0.5330  0.0035
 3375SOL    HW121584   1.426   1.235   9.590  0.4876 -0.5761  2.2737
 3375SOL    HW221585   1.392   1.353   9.685  1.4509 -1.9864  0.3743
 3376SOL     OW21586   2.821   0.689   2.182  0.8935  0.1529  0.1227
 3376SOL    HW121587   2.848   0.679   2.273  0.0049  0.4680  0.4130
 3376SOL    HW221588   2.762   0.615   2.172  0.2069  0.7775 -0.4488
 3377SOL     OW21589   2.879   1.028   3.753 -0.3790 -0.0963  0.4187
 3377SOL    HW121590   2.943   0.970   3.712 -0.3018 -0.3268  0.8606
 3377SOL    HW221591   2.826   1.050   3.677  1.6834  1.5317 -0.5619
 3378SOL     OW21592   3.240   2.177  10.245  0.3718  0.5404 -0.2177
 3378SOL    HW121593   3.334   2.191  10.260  0.4512  0.5276 -0.7076
 3378SOL    HW221594   3.248   2.106  10.181  3.4302  0.0246  0.7142
 3379SOL     OW21595   4.272   3.925   8.563  0.0011 -0.4903  0.5246
 3379SOL    HW121596   4.228   3.933   8.647  0.5132 -2.1053  0.9524
 3379SOL    HW221597   4.352   3.888   8.600  0.2238 -0.0660  0.4613
 3380SOL     OW21598   3.606   1.065   0.844 -0.4604 -0.1113 -0.6752
 3380SOL    HW121599   3.612   0.980   0.801  0.5324  0.3094 -1.3528
 3380SOL    HW221600   3.559   1.112   0.775 -2.0261 -0.0379  0.4345
 3381SOL     OW21601   0.199   4.227   9.802  0.3858 -0.0388 -0.0720
 3381SOL    HW121602   0.223   4.239   9.894  0.8062 -0.5647 -0.1173
 3381SOL    HW221603   0.203   4.319   9.776 -1.3488 -0.5328 -2.1138
 3382SOL     OW21604   3.209   0.922  11.536 -0.4092 -0.4686  0.2928
 3382SOL    HW121605   3.224   1.000  11.591 -0.5277 -1.4735  1.7613
 3382SOL    HW221606   3.198   0.975  11.457  2.0044  1.8080  1.4767
 3383SOL     OW21607   1.617   3.841   7.943 -0.0040  0.7962  0.3175
 3383SOL    HW121608   1.630   3.803   7.856  0.8489 -1.9561  1.6571
 3383SOL    HW221609   1.705   3.835   7.981  0.7718 -0.7184 -1.7476
 3384SOL     OW21610   1.447   2.269   3.773  0.2445  0.3502 -0.2571
 3384SOL    HW121611   1.471   2.266   3.866 -1.7562  2.1610  0.3211
 3384SOL    HW221612   1.518   2.317   3.729  1.8568  0.0968  2.0622
 3385SOL     OW21613   1.193   0.695   1.084 -0.2777 -0.1188  0.2943
 3385SOL    HW121614   1.269   0.656   1.042 -0.6075  0.8127 -1.1790
 3385SOL    HW221615   1.145   0.710   1.002  0.7247 -0.5704 -0.3659
 3386SOL     OW21616   2.278   0.236  10.344  0.3146 -0.1423 -1.2532
 3386SOL    HW121617   2.280   0.294  10.267 -0.8970  0.8713 -0.5297
 3386SOL    HW221618   2.340   0.168  10.318 -0.7500 -1.8990  0.8484
 3387SOL     OW21619   1.941   3.403   3.596 -0.4680  0.5493  0.2416
 3387SOL    HW121620   1.996   3.369   3.525  0.5178  0.0081  1.2707
 3387SOL    HW221621   1.940   3.489   3.554  0.5815 -0.1013 -1.1522
 3388SOL     OW21622   3.361   1.767   6.856  0.2682  0.3839  0.1039
 3388SOL    HW121623   3.351   1.774   6.951  0.2987  3.4475 -0.1075
 3388SOL    HW221624   3.453   1.741   6.850  0.0017 -0.6818  0.7037
 3389SOL     OW21625   1.556   4.059   4.843 -0.4581 -0.3186  0.0130
 3389SOL    HW121626   1.592   3.991   4.899 -0.4290 -1.1192 -0.9806
 3389SOL    HW221627   1.635   4.092   4.800 -0.4339 -1.6555 -0.9661
 3390SOL     OW21628   3.924   1.437  14.878 -0.3622 -0.3052  0.4060
 3390SOL    HW121629   3.874   1.518  14.882 -1.2907 -0.8361 -0.4999
 3390SOL    HW221630   3.857   1.369  14.878 -0.2687 -0.3978  0.2527
 3391SOL     OW21631   2.486   1.605   3.591 -0.1912  0.2449 -0.0019
 3391SOL    HW121632   2.539   1.682   3.570  0.1058  0.6736  2.2722
 3391SOL    HW221633   2.414   1.623   3.531  0.5309 -0.7847 -1.1813
 3392SOL     OW21634   4.670   3.306   6.018 -0.0386 -0.1330 -0.4377
 3392SOL    HW121635   4.650   3.270   5.931 -0.4993  1.8964 -1.1755
 3392SOL    HW221636   0.035   3.328   6.016 -0.5175  1.9120  0.3749
 3393SOL     OW21637   4.646   1.405   1.674 -0.3437 -0.4435 -0.2762
 3393SOL    HW121638   4.683   1.321   1.702 -0.2620  0.0591  1.0916
 3393SOL    HW221639   4.583   1.411   1.745 -1.5303 -1.0190 -1.2718
 3394SOL     OW21640   3.921   2.151   6.444  0.1183 -0.1025  0.0701
 3394SOL    HW121641   3.911   2.230   6.392 -0.8349  1.0337  1.9857
 3394SOL    HW221642   3.880   2.181   6.525  0.5524  1.1427 -0.1852
 3395SOL     OW21643   1.961   0.255   8.236  0.4233  0.2918  0.6140
 3395SOL    HW121644   2.015   0.290   8.165  1.9386 -0.5061  1.3768
 3395SOL    HW221645   2.024   0.261   8.308  1.0455  0.7925  0.0335
 3396SOL     OW21646   0.629   0.920  12.580  0.3613 -0.0186 -0.0138
 3396SOL    HW121647   0.596   0.830  12.584  2.3020 -0.6420  1.7161
 3396SOL    HW221648   0.626   0.940  12.673  2.8850 -0.3292  0.1286
 3397SOL     OW21649   2.001   0.837  14.938 -0.2866 -0.9658  0.6500
 3397SOL    HW121650   2.008   0.749  14.977  2.1426 -0.5791  1.0741
 3397SOL    HW221651   2.052   0.887  15.001  0.4919 -0.0895 -0.6842
 3398SOL     OW21652   4.329   4.180   5.783 -0.1792 -0.2201  0.0166
 3398SOL    HW121653   4.269   4.242   5.742  0.2303 -0.0836 -0.3711
 3398SOL    HW221654   4.290   4.180   5.871 -0.0656  0.4799  0.0662
 3399SOL     OW21655   3.739   4.437   6.551 -0.4176  0.0852  0.0183
 3399SOL    HW121656   3.671   4.413   6.488  0.3970  1.7008 -1.4518
 3399SOL    HW221657   3.815   4.455   6.497 -0.6687 -0.4202 -0.5084
 3400SOL     OW21658   3.863   0.272   4.466 -0.4105  0.5558  0.4308
 3400SOL    HW121659   3.892   0.355   4.427 -0.1442  0.3252  0.1433
 3400SOL    HW221660   3.942   0.224   4.443  0.3603  0.9155  2.3179
 3401SOL     OW21661   0.984   1.445   6.802 -0.4354 -0.4588  0.6932
 3401SOL    HW121662   1.054   1.491   6.755 -0.5459 -0.5872  0.3992
 3401SOL    HW221663   0.909   1.503   6.809 -0.0781  0.0392  0.3646
 3402SOL     OW21664   2.870   0.977   5.012  0.3738  0.7861 -0.4307
 3402SOL    HW121665   2.898   0.911   4.948  0.9430  0.2198  0.4022
 3402SOL    HW221666   2.953   0.997   5.055  0.1666 -0.9751  0.8113
 3403SOL     OW21667   3.495   3.138   1.211  0.3254  0.1581 -0.1481
 3403SOL    HW121668   3.492   3.071   1.279  0.1088 -0.0016 -0.3116
 3403SOL    HW221669   3.584   3.131   1.175  0.7019  1.7877  0.4885
 3404SOL     OW21670   1.948   0.002   3.898 -0.0138  0.0054  0.3719
 3404SOL    HW121671   1.978   4.659   3.840 -1.7196  0.0316 -0.5387
 3404SOL    HW221672   1.865   0.025   3.857 -1.8371 -2.2212  2.8467
 3405SOL     OW21673   3.404   3.900   6.254  0.1928 -0.0002 -0.4552
 3405SOL    HW121674   3.340   3.890   6.184 -0.0397 -0.8753 -0.1151
 3405SOL    HW221675   3.358   3.891   6.337  0.2729 -1.1471 -0.5426
 3406SOL     OW21676   0.583   1.941   3.495  0.8912 -0.3284 -0.3935
 3406SOL    HW121677   0.652   1.903   3.439  2.4786  1.5442  0.2961
 3406SOL    HW221678   0.504   1.929   3.443  0.8685 -1.0755 -0.1858
 3407SOL     OW21679   2.583   0.643   3.387 -0.1671  0.2027  0.1559
 3407SOL    HW121680   2.663   0.671   3.343  0.2991  0.8428  1.4094
 3407SOL    HW221681   2.546   0.729   3.404  2.8342  1.5415 -0.1772
 3408SOL     OW21682   0.115   3.767   4.540  0.2650  0.6900 -0.0636
 3408SOL    HW121683   0.143   3.679   4.564 -1.5404  0.0560 -0.3198
 3408SOL    HW221684   0.193   3.801   4.497 -0.2346  1.2930 -0.4896
 3409SOL     OW21685   0.061   0.274   2.432 -0.3137  0.3752 -0.1269
 3409SOL    HW121686   4.724   0.292   2.364  0.3296 -1.4623 -1.2323
 3409SOL    HW221687   0.076   0.180   2.439 -0.6832  0.2616 -0.9568
 3410SOL     OW21688   0.793   2.637  15.810  0.0344 -0.0319 -0.2851
 3410SOL    HW121689   0.725   2.581  15.848  1.1889 -0.4916  1.1094
 3410SOL    HW221690   0.745   2.704  15.762 -2.3681 -1.2446  0.4549
 3411SOL     OW21691   1.555   1.888   0.501 -0.0023  0.0665  0.1460
 3411SOL    HW121692   1.534   1.795   0.490 -0.0736  0.1793 -0.6782
 3411SOL    HW221693   1.647   1.878   0.525 -1.1005 -1.3419  3.8699
 3412SOL     OW21694   2.363   3.220   5.910  0.7996  0.2166 -0.7187
 3412SOL    HW121695   2.335   3.180   5.993 -0.5944 -0.1061 -1.3505
 3412SOL    HW221696   2.381   3.133   5.874  2.4297  0.5027 -0.5859
 3413SOL     OW21697   4.083   2.674  12.246  0.9540  0.1929  0.0352
 3413SOL    HW121698   4.092   2.677  12.151 -1.1512  1.9000 -0.1337
 3413SOL    HW221699   4.159   2.725  12.275  1.0590 -0.2915  0.6217
 3414SOL     OW21700   1.965   2.388   8.752 -0.1809  0.2532  0.1231
 3414SOL    HW121701   2.006   2.412   8.668 -2.4600  1.7207 -0.5711
 3414SOL    HW221702   1.883   2.351   8.720  0.8047 -1.3934 -0.4909
 3415SOL     OW21703   2.454   3.685   3.911  0.0130  0.2647 -0.4686
 3415SOL    HW121704   2.547   3.676   3.931 -0.4407 -1.2286  0.9788
 3415SOL    HW221705   2.410   3.644   3.985  1.0178 -0.0915 -0.0704
 3416SOL     OW21706   4.444   3.911   6.511 -0.0620  0.5593 -0.1748
 3416SOL    HW121707   4.401   3.827   6.523  2.5637 -0.9245 -1.2217
 3416SOL    HW221708   4.539   3.906   6.519 -0.1390 -1.6196 -0.7073
 3417SOL     OW21709   0.709   0.181   2.032 -0.3524  0.3753 -0.3959
 3417SOL    HW121710   0.698   0.275   2.018 -2.8401  0.0799 -0.3769
 3417SOL    HW221711   0.617   0.154   2.038 -0.2995  0.7797  1.9336
 3418SOL     OW21712   2.342   2.010   6.622  0.4138 -0.4476 -0.6036
 3418SOL    HW121713   2.364   2.014   6.528 -3.1683  0.5565 -1.4028
 3418SOL    HW221714   2.430   2.014   6.661  0.1188  1.8742 -0.1563
 3419SOL     OW21715   0.873   4.603  16.217  0.4879 -0.0799 -0.0931
 3419SOL    HW121716   0.933   4.530  16.200  0.1378  0.4695 -3.5140
 3419SOL    HW221717   0.879   4.594  16.313 -3.4521  1.7408  0.2872
 3420SOL     OW21718   1.261   1.610   6.890 -0.2981  0.1321 -0.0273
 3420SOL    HW121719   1.333   1.672   6.889 -1.0007  0.9746  1.3832
 3420SOL    HW221720   1.188   1.671   6.878  0.0388  0.5345 -0.0125
 3421SOL     OW21721   2.688   0.859  13.933 -0.0830  0.5919  0.2142
 3421SOL    HW121722   2.666   0.773  13.897 -2.2173  0.3535  2.0384
 3421SOL    HW221723   2.711   0.841  14.024 -0.1616  2.2618  0.5666
 3422SOL     OW21724   0.114   2.684  12.720  0.1654  0.3286 -0.0429
 3422SOL    HW121725   0.074   2.746  12.659  0.0665 -0.2373 -0.5544
 3422SOL    HW221726   0.190   2.737  12.742  1.1303 -0.9676 -0.2828
 3423SOL     OW21727   1.306   1.664   0.845  0.0105  0.2585  0.1288
 3423SOL    HW121728   1.317   1.617   0.763 -0.4303  1.0110 -0.3692
 3423SOL    HW221729   1.337   1.752   0.822  0.7888  0.4564  1.9311
 3424SOL     OW21730   0.624   0.410   7.843 -0.1250  0.0729  0.4473
 3424SOL    HW121731   0.688   0.401   7.772 -0.9940  1.6527 -0.5536
 3424SOL    HW221732   0.616   0.506   7.845  1.0384  0.2050 -0.8500
 3425SOL     OW21733   0.793   1.136   5.755 -0.1838  0.2083 -0.1675
 3425SOL    HW121734   0.766   1.044   5.758 -0.0164  0.1740  0.3514
 3425SOL    HW221735   0.864   1.147   5.693  0.7917 -1.0735  0.7093
 3426SOL     OW21736   0.289   4.222  13.230  0.5521  0.0184  0.0782
 3426SOL    HW121737   0.211   4.273  13.209 -0.3794 -0.6860  1.7550
 3426SOL    HW221738   0.327   4.225  13.142 -0.1603 -2.3744 -0.3344
 3427SOL     OW21739   4.252   4.236   3.971  0.3219 -0.5146 -0.1892
 3427SOL    HW121740   4.166   4.277   3.962  0.7467  0.2077 -1.0423
 3427SOL    HW221741   4.224   4.155   3.928  0.1407  0.1911 -1.4063
 3428SOL     OW21742   0.972   0.182  17.159  0.1919  0.2748  0.3313
 3428SOL    HW121743   0.950   0.090  17.142  0.5128  0.4852 -1.1686
 3428SOL    HW221744   0.911   0.228  17.101  1.0558  1.1074  0.0848
 3429SOL     OW21745   3.784   3.881  12.899 -0.5048 -0.8229  0.2314
 3429SOL    HW121746   3.719   3.810  12.906  0.5433 -1.8945 -0.8537
 3429SOL    HW221747   3.726   3.944  12.856  0.3659  1.8533  3.0630
 3430SOL     OW21748   1.134   2.012  14.795  0.7747 -0.0082 -0.3802
 3430SOL    HW121749   1.169   1.930  14.761  3.4355  1.5152 -1.2630
 3430SOL    HW221750   1.082   2.049  14.725  3.9455  0.6583 -2.3605
 3431SOL     OW21751   0.236   4.512   7.849  0.2106  0.5574 -0.3106
 3431SOL    HW121752   0.273   4.427   7.872 -0.7065 -0.3271 -2.0805
 3431SOL    HW221753   0.156   4.487   7.802 -0.4392 -0.1385  1.1610
 3432SOL     OW21754   3.464   3.385   7.945  0.9021  0.8424  0.3999
 3432SOL    HW121755   3.413   3.438   7.884 -0.9595  1.5587  2.5805
 3432SOL    HW221756   3.406   3.386   8.021 -1.2899  1.4973 -1.2843
 3433SOL     OW21757   4.565   0.893   4.156  0.3074  0.2799  0.4085
 3433SOL    HW121758   4.528   0.956   4.219 -0.1762  0.0904  0.3099
 3433SOL    HW221759   4.584   0.812   4.204  1.1784  1.6765  2.4563
 3434SOL     OW21760   4.650   1.162   9.943  0.3973 -0.3036 -0.3201
 3434SOL    HW121761   4.718   1.224   9.917 -0.7151  0.7101 -0.7911
 3434SOL    HW221762   4.700   1.082   9.960  0.5892 -0.1760 -0.2765
 3435SOL     OW21763   3.895   3.856   2.638 -0.6284 -0.2279  0.5980
 3435SOL    HW121764   3.918   3.819   2.553  0.8837 -1.9261  1.7438
 3435SOL    HW221765   3.984   3.872   2.668 -0.2242 -0.5098 -0.4630
 3436SOL     OW21766   1.189   3.252   2.391  0.1516 -0.2491 -0.2691
 3436SOL    HW121767   1.147   3.166   2.386  1.9507 -1.0358 -1.8387
 3436SOL    HW221768   1.216   3.272   2.302 -0.9481  1.3378 -0.2332
 3437SOL     OW21769   4.254   4.196   8.097 -0.3220  0.1989  0.7092
 3437SOL    HW121770   4.260   4.285   8.060  0.6528 -1.1618 -2.4077
 3437SOL    HW221771   4.203   4.211   8.176 -2.4369 -2.5683 -0.1309
 3438SOL     OW21772   4.691   2.981   7.773  0.6939  0.2751  0.3878
 3438SOL    HW121773   0.019   3.011   7.845 -1.2834  2.0593  1.1649
 3438SOL    HW221774   4.636   3.056   7.753  0.5967  0.6444  2.0129
 3439SOL     OW21775   1.805   2.564   6.335  0.7231  1.1737  0.1905
 3439SOL    HW121776   1.761   2.594   6.255  1.5204 -1.3126 -1.1488
 3439SOL    HW221777   1.739   2.502   6.367  1.0559  0.1508 -1.1092
 3440SOL     OW21778   4.278   2.419   2.114 -0.3692  0.2652  0.0313
 3440SOL    HW121779   4.236   2.371   2.042 -2.1023  0.0215  1.1943
 3440SOL    HW221780   4.304   2.348   2.173 -1.2401 -1.3862 -1.5651
 3441SOL     OW21781   0.021   3.029  11.410 -0.2559  0.6143 -0.0162
 3441SOL    HW121782   4.719   3.102  11.356 -2.7570 -0.2882  0.1615
 3441SOL    HW221783   4.673   2.974  11.391  0.2428  0.4977 -1.7058
 3442SOL     OW21784   3.868   3.984   5.358 -0.6223 -0.1190  0.0421
 3442SOL    HW121785   3.921   3.972   5.437  1.0731  2.2532 -0.7333
 3442SOL    HW221786   3.934   4.020   5.298  1.8814 -1.0590  2.2406
 3443SOL     OW21787   1.815   0.722  13.092  0.0854  0.1051  0.4832
 3443SOL    HW121788   1.780   0.668  13.162  1.2649  0.0772  1.0486
 3443SOL    HW221789   1.804   0.811  13.126 -0.3635  0.0455  0.4952
 3444SOL     OW21790   2.537   4.392  13.438 -0.0958 -0.1361 -0.0081
 3444SOL    HW121791   2.589   4.334  13.384 -0.7874 -0.0916 -0.7244
 3444SOL    HW221792   2.448   4.363  13.415  0.2066 -0.2132 -1.0515
 3445SOL     OW21793   0.946   3.283  10.849  0.1455  0.1312  0.1402
 3445SOL    HW121794   0.971   3.374  10.837  2.2328 -0.2071  1.9298
 3445SOL    HW221795   0.944   3.252  10.759  0.5342 -0.1213  0.2186
 3446SOL     OW21796   4.526   1.102   9.402  0.0685 -0.0848 -0.0835
 3446SOL    HW121797   4.434   1.113   9.379  0.6279  2.6045 -0.9909
 3446SOL    HW221798   4.529   1.048   9.481 -0.5941  0.9893  0.6671
 3447SOL     OW21799   2.661   2.155   3.025 -0.3706 -0.1452 -0.3300
 3447SOL    HW121800   2.715   2.171   2.948 -1.0610 -0.0974 -0.8033
 3447SOL    HW221801   2.673   2.239   3.067  1.0244  0.0866 -1.2057
 3448SOL     OW21802   0.805   1.557   5.930  0.3463 -0.3148  0.2393
 3448SOL    HW121803   0.725   1.539   5.880  1.3987 -0.6196 -1.3373
 3448SOL    HW221804   0.769   1.629   5.982 -1.4806  0.3802 -1.9911
 3449SOL     OW21805   1.490   4.294   9.707 -0.0105  0.0114 -0.3738
 3449SOL    HW121806   1.438   4.267   9.632 -0.3974 -1.0015  0.2625
 3449SOL    HW221807   1.436   4.364   9.744 -0.1465 -0.3169  0.0408
 3450SOL     OW21808   3.303   1.713   4.462  0.4024 -0.2484  0.2322
 3450SOL    HW121809   3.382   1.681   4.417  0.2961  1.5800 -1.2571
 3450SOL    HW221810   3.236   1.660   4.419  0.4600  0.1103 -0.3082
 3451SOL     OW21811   0.427   4.583   6.162  0.1397  0.3273  0.1644
 3451SOL    HW121812   0.426   4.509   6.101  0.5006 -0.0903  0.6628
 3451SOL    HW221813   0.391   4.648   6.102  0.9620  1.9597  1.4128
 3452SOL     OW21814   4.506   1.298  11.243 -0.6145  0.2406  0.0922
 3452SOL    HW121815   4.462   1.227  11.290  0.3416 -1.4398 -1.5784
 3452SOL    HW221816   4.593   1.294  11.283 -0.1528  1.3243 -0.8021
 3453SOL     OW21817   0.558   2.292  11.909  0.1384  0.3405 -0.1212
 3453SOL    HW121818   0.543   2.315  11.818  1.3767 -0.4618 -0.5384
 3453SOL    HW221819   0.653   2.306  11.911  0.0671  0.9649 -1.7183
 3454SOL     OW21820   2.544   2.444  17.342 -0.0151  0.0017 -0.4751
 3454SOL    HW121821   2.545   2.350  17.359 -0.3580  0.0342 -0.2894
 3454SOL    HW221822   2.619   2.455  17.282  0.8853  1.2050  0.8746
 3455SOL     OW21823   1.020   0.952  12.895 -0.2184 -0.3734  0.0355
 3455SOL    HW121824   1.089   0.897  12.933  0.7892  2.2700  2.0480
 3455SOL    HW221825   1.032   0.942  12.800 -0.6304 -0.8116  0.0339
 3456SOL     OW21826   2.738   3.626   9.481 -0.2026 -0.6020  0.5147
 3456SOL    HW121827   2.810   3.629   9.417 -1.0811 -2.4661 -0.5794
 3456SOL    HW221828   2.748   3.536   9.514  1.3298 -0.3995  0.6195
 3457SOL     OW21829   3.682   2.905   2.008 -0.0907  0.7294  0.3678
 3457SOL    HW121830   3.664   2.866   1.923 -1.4656 -0.4442  1.1942
 3457SOL    HW221831   3.770   2.941   1.993  0.3832 -1.0193 -1.0463
 3458SOL     OW21832   2.223   3.381   3.155  0.1270  0.2605 -0.0315
 3458SOL    HW121833   2.289   3.439   3.116  1.3774 -1.6187 -0.7007
 3458SOL    HW221834   2.188   3.348   3.072  1.2476 -0.6875 -0.1223
 3459SOL     OW21835   2.633   4.565   9.309 -0.2636  0.7742  0.1009
 3459SOL    HW121836   2.696   4.615   9.360  1.3981 -0.9585 -0.2552
 3459SOL    HW221837   2.634   4.478   9.350 -2.9411  0.9999  0.6852
 3460SOL     OW21838   3.792   1.610  15.124  0.2674 -0.4999 -0.1172
 3460SOL    HW121839   3.887   1.618  15.130  0.3927 -0.5176 -2.1366
 3460SOL    HW221840   3.783   1.637  15.033  0.9349 -0.2133 -0.1031
 3461SOL     OW21841   1.722   4.353   9.315  0.0962  0.6687  0.5090
 3461SOL    HW121842   1.814   4.373   9.329  0.8824 -1.1408 -2.0876
 3461SOL    HW221843   1.720   4.259   9.333  0.0391  0.5906  0.0905
 3462SOL     OW21844   0.645   4.508   9.827  0.1620  0.7352 -0.1131
 3462SOL    HW121845   0.645   4.590   9.877 -2.7253  0.2095  0.7251
 3462SOL    HW221846   0.739   4.489   9.822  0.4173  1.6502  1.1212
 3463SOL     OW21847   2.192   3.995   3.323  0.0855 -0.7556 -0.5258
 3463SOL    HW121848   2.217   3.916   3.275 -3.0474 -2.7038  1.0333
 3463SOL    HW221849   2.159   3.955   3.404 -2.1566  0.3052 -0.9164
 3464SOL     OW21850   2.751   2.290   5.811 -0.1753 -0.1706  0.0540
 3464SOL    HW121851   2.798   2.280   5.894 -0.0120 -1.0830 -0.1400
 3464SOL    HW221852   2.808   2.235   5.756  0.0618  0.5523 -0.4191
 3465SOL     OW21853   3.207   3.280   3.321 -0.1946 -0.3637 -0.3227
 3465SOL    HW121854   3.258   3.209   3.361  0.3821 -0.0231 -0.4496
 3465SOL    HW221855   3.217   3.276   3.226  0.5955  4.3065 -0.4627
 3466SOL     OW21856   2.995   0.768   8.607  0.4886  0.1117 -0.1306
 3466SOL    HW121857   2.985   0.845   8.551  0.6414 -0.8657 -1.5254
 3466SOL    HW221858   3.053   0.707   8.560  0.3450  0.1118 -0.3105
 3467SOL     OW21859   2.806   1.280   2.065  0.3374  0.2250 -0.7076
 3467SOL    HW121860   2.864   1.338   2.015  3.1906 -0.2586  2.0168
 3467SOL    HW221861   2.863   1.204   2.076 -0.9446 -0.9913 -2.4832
 3468SOL     OW21862   1.032   0.752   8.534  0.2978 -0.0974 -0.6414
 3468SOL    HW121863   0.968   0.694   8.492 -1.1432  0.2209  1.1337
 3468SOL    HW221864   0.981   0.770   8.613 -2.1437 -2.7245 -1.5987
 3469SOL     OW21865   0.831   1.029  17.395 -0.0490 -0.6513  0.3985
 3469SOL    HW121866   0.885   1.058  17.322 -2.3914  1.1530 -0.6311
 3469SOL    HW221867   0.787   1.110  17.420 -2.4887 -1.0080 -2.6925
 3470SOL     OW21868   0.308   4.610  12.687 -0.4549  0.5782  0.9119
 3470SOL    HW121869   0.345   4.570  12.766 -1.6685 -0.5048  0.9372
 3470SOL    HW221870   0.217   4.625  12.715 -1.3620 -4.1462  0.5606
 3471SOL     OW21871   3.045   3.185   7.599  0.5848  0.6522  0.2658
 3471SOL    HW121872   3.080   3.122   7.536 -2.5532 -1.9897  1.1264
 3471SOL    HW221873   2.950   3.170   7.595  0.7380 -0.6016  1.2739
 3472SOL     OW21874   1.669   1.642   3.050 -0.6152 -0.2897  0.0800
 3472SOL    HW121875   1.726   1.716   3.027  1.6209 -1.7469  0.8955
 3472SOL    HW221876   1.629   1.614   2.968  0.6699 -0.1519 -0.6031
 3473SOL     OW21877   2.016   0.608  15.101  0.1330  0.3198 -0.5654
 3473SOL    HW121878   2.014   0.515  15.078  1.3596  0.6376 -1.9318
 3473SOL    HW221879   2.010   0.622  15.196  0.8560 -1.0187 -0.3199
 3474SOL     OW21880   0.908   3.099  10.165 -0.4710 -0.1917  0.5620
 3474SOL    HW121881   0.913   3.154  10.087  0.4974 -2.0292 -0.6797
 3474SOL    HW221882   0.991   3.122  10.207 -0.5764 -0.2135  0.7817
 3475SOL     OW21883   0.761   3.499   7.587 -1.0242 -0.3625 -0.0956
 3475SOL    HW121884   0.856   3.485   7.589 -1.0271 -0.3782 -0.0689
 3475SOL    HW221885   0.732   3.426   7.641 -0.4543 -0.4352  0.1160
 3476SOL     OW21886   1.665   3.403   7.883 -0.5235 -0.1065  0.0341
 3476SOL    HW121887   1.598   3.458   7.842 -0.8395 -1.3077 -1.0751
 3476SOL    HW221888   1.635   3.315   7.860 -0.6814 -0.0051 -0.1505
 3477SOL     OW21889   2.788   1.189   0.138  0.3689  0.0307  0.1474
 3477SOL    HW121890   2.854   1.152   0.197 -0.9524 -0.0002  1.6137
 3477SOL    HW221891   2.799   1.282   0.156  2.7742 -0.3722  0.8055
 3478SOL     OW21892   4.496   3.632   2.282  0.2232  0.1931 -0.3579
 3478SOL    HW121893   4.430   3.578   2.324  0.4863  0.2841  0.1752
 3478SOL    HW221894   4.479   3.612   2.190 -0.0058 -1.1799 -0.0159
 3479SOL     OW21895   4.232   4.366  16.287 -0.3897  0.5306  0.1120
 3479SOL    HW121896   4.208   4.455  16.260  0.1910  0.6917  0.1371
 3479SOL    HW221897   4.319   4.376  16.323 -0.7228  1.2763  0.7197
 3480SOL     OW21898   3.867   0.455   1.329  0.1517  0.0183  0.4652
 3480SOL    HW121899   3.797   0.436   1.392 -0.9467  0.7909 -0.5226
 3480SOL    HW221900   3.882   0.546   1.353 -0.8127  1.3260 -3.8488
 3481SOL     OW21901   1.711   4.131   8.147  0.1249  0.2058  0.3869
 3481SOL    HW121902   1.756   4.050   8.120  3.2449  0.9485  3.3040
 3481SOL    HW221903   1.621   4.102   8.134  1.1508 -3.1291  0.5544
 3482SOL     OW21904   4.343   2.670  12.721  1.5093  0.1015  0.2512
 3482SOL    HW121905   4.254   2.642  12.701  1.6098 -0.9708  1.2660
 3482SOL    HW221906   4.396   2.591  12.720 -0.6637 -1.3598  0.9329
 3483SOL     OW21907   2.995   2.278   4.619  0.0495  0.1468  0.0746
 3483SOL    HW121908   3.065   2.297   4.682 -0.8437  0.1652  1.0570
 3483SOL    HW221909   2.974   2.189   4.647  1.4047  0.1081  0.9710
 3484SOL     OW21910   4.131   1.032   7.680 -0.1935  0.0692  0.2044
 3484SOL    HW121911   4.051   1.049   7.630  1.2881  1.0961 -1.8330
 3484SOL    HW221912   4.183   0.983   7.617 -0.6443  2.0672 -1.7326
 3485SOL     OW21913   0.643   2.700   7.772 -0.3759 -0.0827 -0.3263
 3485SOL    HW121914   0.583   2.722   7.701  0.8920 -1.7331 -1.8925
 3485SOL    HW221915   0.667   2.789   7.800 -1.5693  0.4667 -1.0323
 3486SOL     OW21916   0.634   1.536   1.510  0.0358 -0.5135  0.4258
 3486SOL    HW121917   0.728   1.553   1.513 -0.1939  0.3681  2.4434
 3486SOL    HW221918   0.622   1.457   1.562  0.8659 -2.1448 -1.8661
 3487SOL     OW21919   2.632   4.550   8.417 -0.0296 -0.5228 -0.2779
 3487SOL    HW121920   2.634   4.637   8.377 -2.9327 -0.3712 -0.1300
 3487SOL    HW221921   2.662   4.568   8.506 -1.2716  0.5999 -0.0896
 3488SOL     OW21922   4.349   4.074  13.569 -0.3514 -0.3753  0.4659
 3488SOL    HW121923   4.342   4.145  13.633 -2.1898  0.0511 -0.1950
 3488SOL    HW221924   4.415   4.014  13.604  3.1946  2.6036 -1.1172
 3489SOL     OW21925   2.221   3.212   4.493 -0.4361 -0.3505  0.2189
 3489SOL    HW121926   2.312   3.181   4.498  0.4053  2.0829  0.0804
 3489SOL    HW221927   2.186   3.134   4.537 -1.9709  0.2486  0.0410
 3490SOL     OW21928   0.726   1.354   3.328  0.3078  0.0631 -0.2043
 3490SOL    HW121929   0.682   1.425   3.374 -0.2013 -0.4780  0.1502
 3490SOL    HW221930   0.806   1.360   3.381  0.5021  0.7601 -0.5798
 3491SOL     OW21931   2.926   1.632   4.286  0.3239 -0.2462  0.2728
 3491SOL    HW121932   2.894   1.565   4.225  0.9579  2.0268 -2.5423
 3491SOL    HW221933   3.016   1.650   4.258  0.9767 -4.0901 -0.0939
 3492SOL     OW21934   0.403   2.708  11.493 -0.0114  0.2552 -0.5509
 3492SOL    HW121935   0.350   2.783  11.521  2.2345  1.6630 -0.1236
 3492SOL    HW221936   0.352   2.641  11.540  1.0770 -1.0330 -1.2109
 3493SOL     OW21937   3.154   2.269   9.856 -0.2454 -0.5035  0.2907
 3493SOL    HW121938   3.209   2.205   9.903 -1.7514 -0.7007  1.8076
 3493SOL    HW221939   3.206   2.349   9.860 -0.8755 -0.0546 -0.5967
 3494SOL     OW21940   4.357   3.910   4.801  0.3876 -0.1560 -0.1918
 3494SOL    HW121941   4.320   3.847   4.862  1.7883 -1.2453 -0.4736
 3494SOL    HW221942   4.451   3.914   4.820  0.0375  1.2271  1.2748
 3495SOL     OW21943   2.282   0.775   1.376 -0.3724  0.4011 -0.6083
 3495SOL    HW121944   2.319   0.854   1.415  1.7647 -0.4933 -0.8060
 3495SOL    HW221945   2.357   0.716   1.380  0.8966  2.1180  1.3656
 3496SOL     OW21946   3.168   3.006   6.115  0.0680 -0.4962  0.0920
 3496SOL    HW121947   3.211   2.935   6.068  1.5510  0.5858 -0.1976
 3496SOL    HW221948   3.075   2.987   6.102  0.4002 -1.6673 -0.5588
 3497SOL     OW21949   3.017   3.812  15.787 -0.3401  0.0104 -0.0472
 3497SOL    HW121950   3.098   3.820  15.836 -0.2895  1.4746 -0.3746
 3497SOL    HW221951   3.018   3.890  15.731 -0.3215  0.0010 -0.0600
 3498SOL     OW21952   0.935   0.891  15.222  0.1878 -0.8395 -0.7853
 3498SOL    HW121953   0.894   0.821  15.273  1.1000 -2.1893 -1.8797
 3498SOL    HW221954   0.946   0.960  15.287 -1.7189 -1.2035 -0.0977
 3499SOL     OW21955   3.375   3.418   0.929  0.6181  0.6244 -0.3651
 3499SOL    HW121956   3.334   3.494   0.887  0.8437  0.3796 -1.0250
 3499SOL    HW221957   3.434   3.471   0.984  0.1916  0.6962  0.0216
 3500SOL     OW21958   4.431   2.865  10.455 -0.2695 -0.3873  0.1561
 3500SOL    HW121959   4.353   2.840  10.504  0.4824 -1.0277  1.0196
 3500SOL    HW221960   4.418   2.960  10.457  2.2964 -0.0668  1.1737
 3501SOL     OW21961   4.531   1.921   3.998 -0.3410  0.1855  0.1910
 3501SOL    HW121962   4.483   1.891   4.076 -0.1515 -1.5591 -0.3769
 3501SOL    HW221963   4.623   1.898   4.007  0.1043  1.1476 -1.9568
 3502SOL     OW21964   1.317   2.462   1.306  0.1874  0.2523 -0.2180
 3502SOL    HW121965   1.323   2.557   1.294 -1.2848  0.4595  0.6789
 3502SOL    HW221966   1.238   2.449   1.254  0.6916 -1.2962 -0.5969
 3503SOL     OW21967   2.143   0.439   3.854 -0.5850 -0.4533  0.1786
 3503SOL    HW121968   2.188   0.488   3.786 -0.1626 -0.2295  0.6194
 3503SOL    HW221969   2.219   0.394   3.890 -2.1697 -1.5139  2.2146
 3504SOL     OW21970   3.336   3.883  14.487  0.0254 -0.4589 -0.4768
 3504SOL    HW121971   3.330   3.831  14.408  1.6853  2.3293 -2.4382
 3504SOL    HW221972   3.399   3.953  14.468 -1.8109  1.5024  0.5901
 3505SOL     OW21973   3.861   2.553   4.004 -0.4492  0.0873  0.3389
 3505SOL    HW121974   3.805   2.582   3.932  1.5240  2.7653 -0.1063
 3505SOL    HW221975   3.868   2.629   4.061 -0.2429 -0.4712  1.0655
 3506SOL     OW21976   1.917   3.874  17.595 -0.4068  0.1688  0.7931
 3506SOL    HW121977   1.990   3.854  17.536 -1.8230 -1.3878 -0.4372
 3506SOL    HW221978   1.913   3.793  17.645 -2.0656  0.9326  1.8557
 3507SOL     OW21979   4.472   2.865   6.931 -0.2365 -0.0544 -0.0090
 3507SOL    HW121980   4.566   2.882   6.936 -0.3172  0.0401  1.0535
 3507SOL    HW221981   4.481   2.776   6.895 -2.0149 -1.2785  2.5879
 3508SOL     OW21982   4.289   4.058   8.828 -0.0933  0.2612  0.2180
 3508SOL    HW121983   4.289   4.109   8.909 -2.3312  1.2807 -0.4277
 3508SOL    HW221984   4.383   4.051   8.808 -0.5200  0.7736 -1.9198
 3509SOL     OW21985   3.839   2.312   1.334  0.4139 -0.1779 -0.0971
 3509SOL    HW121986   3.766   2.286   1.390 -0.5906  0.7204 -0.9761
 3509SOL    HW221987   3.844   2.405   1.356 -0.4024  0.1601 -1.3107
 3510SOL     OW21988   2.713   2.167   8.316 -0.1040  0.3991 -0.0269
 3510SOL    HW121989   2.696   2.101   8.382  0.4633 -0.9176 -1.2109
 3510SOL    HW221990   2.807   2.187   8.321  0.2737 -2.1226  2.6231
 3511SOL     OW21991   4.101   1.883  13.534 -0.1633  0.2942 -0.2267
 3511SOL    HW121992   4.100   1.870  13.439 -1.3956 -0.8043 -0.0479
 3511SOL    HW221993   4.010   1.914  13.532  0.3766  1.9063 -0.4439
 3512SOL     OW21994   1.577   4.171   6.102  0.0363 -0.1578  0.3794
 3512SOL    HW121995   1.552   4.097   6.046 -1.4723 -0.0124  0.8674
 3512SOL    HW221996   1.509   4.237   6.086  1.2642  1.3675  1.4418
 3513SOL     OW21997   0.406   1.759   8.479  0.6876  0.3189  0.0247
 3513SOL    HW121998   0.405   1.681   8.424 -0.8241  0.3048  0.0779
 3513SOL    HW221999   0.469   1.736   8.547  0.4806  0.9357  0.4261
 3514SOL     OW22000   0.638   1.847   1.632  0.1436 -0.1856  0.4853
 3514SOL    HW122001   0.619   1.905   1.707  1.1979  1.7668 -0.7699
 3514SOL    HW222002   0.731   1.833   1.647  0.1165 -0.1030  0.7422
 3515SOL     OW22003   3.043   1.396   2.675  0.0413 -0.1941  0.0799
 3515SOL    HW122004   3.004   1.455   2.610 -0.6160  2.8010  3.1857
 3515SOL    HW222005   3.068   1.329   2.611 -0.1105  1.8563 -2.1010
 3516SOL     OW22006   2.986   4.626   9.218 -0.2161  0.0397  0.6054
 3516SOL    HW122007   2.951   4.619   9.307 -0.4313 -0.7488  0.4580
 3516SOL    HW222008   3.019   4.715   9.209  1.2284 -0.4016  1.5167
 3517SOL     OW22009   1.203   0.324  17.129 -0.1859 -0.0441 -0.0268
 3517SOL    HW122010   1.144   0.372  17.072 -1.1408 -1.1724  0.0012
 3517SOL    HW222011   1.143   0.257  17.163  0.3187  0.3465  1.6700
 3518SOL     OW22012   2.717   1.647   2.199 -0.0290 -0.1404  0.2531
 3518SOL    HW122013   2.781   1.704   2.242 -0.7573  1.1117 -0.3292
 3518SOL    HW222014   2.638   1.662   2.251 -0.8107 -1.8290 -0.4272
 3519SOL     OW22015   1.689   3.144   4.369  0.2928  1.0255  0.3152
 3519SOL    HW122016   1.777   3.178   4.387  0.1549  1.2982  0.4778
 3519SOL    HW222017   1.678   3.066   4.423  0.0547  0.7909 -0.0701
 3520SOL     OW22018   2.286   0.117   3.700 -0.0538 -0.0811 -0.1058
 3520SOL    HW122019   2.223   0.073   3.643 -2.0490  1.7706  0.6701
 3520SOL    HW222020   2.366   0.122   3.648 -0.1908 -0.6044 -0.3703
 3521SOL     OW22021   1.489   3.917   0.576  0.3632 -0.3137 -0.1360
 3521SOL    HW122022   1.556   3.945   0.638 -0.4854 -0.8085  0.9939
 3521SOL    HW222023   1.547   3.866   0.519 -0.4843 -2.9630  1.3829
 3522SOL     OW22024   4.631   4.660  16.499 -0.3521  0.1575  0.0048
 3522SOL    HW122025   4.641   0.024  16.527  0.3920 -0.0243  0.3541
 3522SOL    HW222026   4.680   4.659  16.417 -1.3407 -1.9443 -0.5448
 3523SOL     OW22027   4.536   1.338   2.778 -0.0156 -0.4138 -0.1972
 3523SOL    HW122028   4.550   1.404   2.710  0.1830 -3.7336 -3.3962
 3523SOL    HW222029   4.622   1.327   2.817 -0.2658  0.8515  0.7068
 3524SOL     OW22030   0.397   2.005   4.026 -0.0887 -0.6165  0.2717
 3524SOL    HW122031   0.484   2.012   4.064  0.4188  1.2685 -1.2501
 3524SOL    HW222032   0.409   1.948   3.950  0.2194  0.1987 -0.2759
 3525SOL     OW22033   2.829   1.233   7.784 -0.9295  0.0010  0.4005
 3525SOL    HW122034   2.736   1.216   7.773 -1.2184  0.0733  2.7485
 3525SOL    HW222035   2.855   1.295   7.716 -0.7358 -0.9997 -0.4359
 3526SOL     OW22036   4.630   0.732   5.547  0.7738 -0.3705  0.1463
 3526SOL    HW122037   4.684   0.724   5.626  0.8716  1.5513  0.2686
 3526SOL    HW222038   4.599   0.643   5.531  1.3119 -0.5883  0.3153
 3527SOL     OW22039   2.122   4.573   8.676  0.6223 -0.3163  0.0248
 3527SOL    HW122040   2.081   4.660   8.670 -2.5636 -1.8405 -0.6244
 3527SOL    HW222041   2.064   4.522   8.619  0.1335 -0.0023  0.2368
 3528SOL     OW22042   3.796   4.693   9.006 -0.1766  0.3966  0.3227
 3528SOL    HW122043   3.882   4.666   9.038  0.1198 -0.1603 -0.9462
 3528SOL    HW222044   3.753   4.670   9.088 -2.0556 -1.2088 -1.0961
 3529SOL     OW22045   0.927   4.247   5.836 -0.0563  0.6425 -0.3793
 3529SOL    HW122046   0.975   4.281   5.762  1.2560  1.5397  0.8931
 3529SOL    HW222047   0.849   4.302   5.826 -1.4970 -1.1073  1.0532
 3530SOL     OW22048   1.687   3.453  15.289  0.4092  0.3998 -0.1698
 3530SOL    HW122049   1.607   3.400  15.288  1.3987 -1.1024 -1.0082
 3530SOL    HW222050   1.638   3.531  15.264  0.1787  0.1459 -0.5117
 3531SOL     OW22051   1.368   2.361   0.837  0.4375 -0.2032 -0.1329
 3531SOL    HW122052   1.455   2.378   0.872  0.1737 -2.4253  1.6334
 3531SOL    HW222053   1.377   2.377   0.744  0.1159 -2.0845 -0.4829
 3532SOL     OW22054   4.240   0.815   8.350  0.4025  0.1271 -0.1671
 3532SOL    HW122055   4.335   0.821   8.345  0.1529  1.8886 -3.4009
 3532SOL    HW222056   4.223   0.852   8.437 -1.3607 -1.2968  0.0887
 3533SOL     OW22057   1.572   1.579   7.396 -0.0776 -1.3035 -0.5718
 3533SOL    HW122058   1.655   1.586   7.444 -0.6468 -0.0491  0.2380
 3533SOL    HW222059   1.521   1.519   7.451 -1.7516  0.8271  0.2140
 3534SOL     OW22060   3.925   1.570   7.618  0.3584  0.0237 -0.4726
 3534SOL    HW122061   3.966   1.657   7.613  1.3253 -0.4427 -0.6390
 3534SOL    HW222062   3.854   1.588   7.679 -1.2946 -0.2299 -2.3259
 3535SOL     OW22063   2.518   4.232   3.688  0.0108  0.1799 -0.1617
 3535SOL    HW122064   2.587   4.213   3.752 -0.8055  1.5473  1.1299
 3535SOL    HW222065   2.474   4.148   3.678  0.1131  0.0994  0.0486
 3536SOL     OW22066   0.644   4.076   7.094 -0.2993 -0.2969  0.3329
 3536SOL    HW122067   0.738   4.065   7.110 -0.7548 -0.7807  2.6780
 3536SOL    HW222068   0.644   4.170   7.077 -0.8280 -0.0585  1.6518
 3537SOL     OW22069   4.127   4.643  17.350 -0.1248 -0.4067 -0.3935
 3537SOL    HW122070   4.177   4.722  17.370 -0.2488  0.1854 -2.3936
 3537SOL    HW222071   4.166   4.569  17.398 -0.7847 -1.5709 -1.6329
 3538SOL     OW22072   0.731   4.654  11.202  0.1233  0.4948  0.2664
 3538SOL    HW122073   0.826   4.666  11.212 -0.0660  3.3249 -1.3740
 3538SOL    HW222074   0.733   4.580  11.141 -1.1875 -0.3813  1.2883
 3539SOL     OW22075   2.793   3.914   3.751  0.3076  0.1187  0.3744
 3539SOL    HW122076   2.826   3.848   3.690 -0.5547  0.8618 -0.8933
 3539SOL    HW222077   2.864   3.920   3.815 -1.2793  0.5658  2.0966
 3540SOL     OW22078   1.820   4.063   5.282 -0.0499  0.7959 -0.6161
 3540SOL    HW122079   1.809   4.128   5.352  0.2969  0.9306 -0.6882
 3540SOL    HW222080   1.778   3.988   5.324  1.9618  0.0387  0.0525
 3541SOL     OW22081   0.806   1.975   5.205  0.1785 -0.0744 -0.4082
 3541SOL    HW122082   0.853   1.909   5.154  1.5732  0.1579  0.5922
 3541SOL    HW222083   0.740   1.923   5.253 -1.2952  1.8669 -0.3363
 3542SOL     OW22084   3.260   3.387   0.489  0.2394  0.8232 -0.3349
 3542SOL    HW122085   3.203   3.438   0.546  0.7001 -0.1097  0.9422
 3542SOL    HW222086   3.340   3.397   0.539  0.8371 -2.3868 -0.6399
 3543SOL     OW22087   4.107   1.598   6.047 -0.1144 -0.3240 -0.2359
 3543SOL    HW122088   4.079   1.556   6.128 -1.9650 -1.6591 -1.5791
 3543SOL    HW222089   4.189   1.553   6.025 -0.0804 -0.7469  0.7667
 3544SOL     OW22090   2.766   1.404   6.331 -0.1425 -0.4024  0.0852
 3544SOL    HW122091   2.676   1.377   6.349 -0.0741 -0.6657  0.0379
 3544SOL    HW222092   2.770   1.390   6.236  2.5720 -2.8401  0.5764
 3545SOL     OW22093   1.870   3.844   8.038 -0.4016  0.3925  0.2278
 3545SOL    HW122094   1.930   3.884   8.102 -0.9740 -0.5718  1.3627
 3545SOL    HW222095   1.919   3.845   7.956  0.2553  1.3630  0.6329
 3546SOL     OW22096   3.296   4.354   2.250  0.2742 -0.4393  0.0214
 3546SOL    HW122097   3.224   4.300   2.217  1.1721 -1.1958 -0.6930
 3546SOL    HW222098   3.259   4.441   2.232  1.1747 -0.4371 -1.9024
 3547SOL     OW22099   2.966   0.215   1.323 -0.2481  0.2959  0.6852
 3547SOL    HW122100   2.918   0.254   1.396  0.1351  0.0156  1.0937
 3547SOL    HW222101   3.059   0.214   1.346 -0.5428 -3.4169  1.7609
 3548SOL     OW22102   2.170   0.977  12.242  0.2530  0.1889 -0.1379
 3548SOL    HW122103   2.175   0.888  12.276 -1.1449 -0.0535 -0.5663
 3548SOL    HW222104   2.134   1.035  12.309  0.7774  0.3357  0.0177
 3549SOL     OW22105   2.296   0.965   7.817 -0.3907  0.0971 -0.5822
 3549SOL    HW122106   2.211   1.008   7.815 -0.1758  0.5711  0.6518
 3549SOL    HW222107   2.286   0.906   7.891 -0.5167  2.4220  1.2385
 3550SOL     OW22108   1.090   1.073  11.752 -0.0015 -0.3103 -0.2307
 3550SOL    HW122109   1.129   1.045  11.669 -0.1297 -1.0564 -0.0418
 3550SOL    HW222110   1.110   1.008  11.819 -0.9075 -1.2790 -0.9039
 3551SOL     OW22111   0.839   0.741   5.158  0.2180  0.1575 -0.1338
 3551SOL    HW122112   0.893   0.662   5.171  0.1218  0.1680  0.3265
 3551SOL    HW222113   0.746   0.720   5.151  1.0888 -3.2641 -1.7316
 3552SOL     OW22114   4.428   1.474   4.280  0.1419 -0.4750 -0.6093
 3552SOL    HW122115   4.483   1.442   4.351  0.2818  1.0467 -0.0386
 3552SOL    HW222116   4.479   1.531   4.224 -1.1350  0.8519 -0.4265
 3553SOL     OW22117   1.190   2.604   6.630  0.3224 -0.1159 -0.2630
 3553SOL    HW122118   1.229   2.518   6.613 -2.6322 -1.6761  0.8838
 3553SOL    HW222119   1.099   2.597   6.602  0.1662  2.2163 -0.3296
 3554SOL     OW22120   0.987   0.162   0.776  0.4663  0.5239  0.3946
 3554SOL    HW122121   0.968   0.092   0.714 -2.0184  1.7631 -0.2316
 3554SOL    HW222122   0.900   0.175   0.813  0.5064 -2.0632  1.4065
 3555SOL     OW22123   1.104   1.223   2.523  0.7554  0.1750 -0.1604
 3555SOL    HW122124   1.037   1.263   2.578  2.1305  1.8081  0.3619
 3555SOL    HW222125   1.059   1.157   2.470 -0.2809  0.1665  0.7428
 3556SOL     OW22126   1.590   4.038  10.429  0.2170  0.5390 -0.0575
 3556SOL    HW122127   1.551   4.066  10.346 -1.5712  1.0854  0.9636
 3556SOL    HW222128   1.529   3.991  10.486 -1.4542  0.6073 -1.7801
 3557SOL     OW22129   3.117   4.558   6.693 -0.6605  0.0333 -0.1940
 3557SOL    HW122130   3.186   4.553   6.760 -3.1633 -2.6575  2.1648
 3557SOL    HW222131   3.149   4.623   6.631 -0.2309 -0.6367 -0.6742
 3558SOL     OW22132   0.226   0.439   2.298 -0.1351  0.0511 -0.5448
 3558SOL    HW122133   0.172   0.390   2.359 -1.0153  1.1269 -0.4678
 3558SOL    HW222134   0.288   0.368   2.282 -0.5698 -0.6403  0.8941
 3559SOL     OW22135   2.974   2.149   9.484  0.1199 -0.4432  0.7799
 3559SOL    HW122136   2.921   2.158   9.563 -0.2191 -0.6164  0.5719
 3559SOL    HW222137   3.031   2.079   9.518 -2.8901 -2.6483  1.2258
 3560SOL     OW22138   4.025   3.533   2.073 -0.4454 -0.0822  0.1569
 3560SOL    HW122139   4.079   3.593   2.022  0.8340 -1.3229  0.0461
 3560SOL    HW222140   3.951   3.590   2.092 -1.2343 -0.8667 -0.5759
 3561SOL     OW22141   4.061   1.773   7.929 -0.4233 -0.5149 -0.7811
 3561SOL    HW122142   4.091   1.791   8.019  2.3728 -0.9588 -1.6294
 3561SOL    HW222143   3.977   1.818   7.933  0.2319  0.9408 -3.3594
 3562SOL     OW22144   2.284   0.210   2.035 -0.6335  0.1501  0.1678
 3562SOL    HW122145   2.258   0.161   2.113 -1.1502 -1.4101 -0.9792
 3562SOL    HW222146   2.228   0.160   1.975  1.0057 -0.3872 -0.9136
 3563SOL     OW22147   0.489   3.931   7.746  0.1030  0.0697  0.1561
 3563SOL    HW122148   0.535   4.012   7.724 -0.4566  0.3404 -0.0253
 3563SOL    HW222149   0.547   3.861   7.716 -1.2704 -0.3700 -1.4876
 3564SOL     OW22150   4.404   0.622   7.483 -0.0021  0.3250  0.6716
 3564SOL    HW122151   4.335   0.579   7.534  0.4665 -1.2195 -0.0127
 3564SOL    HW222152   4.472   0.559   7.504  1.1551  1.1869 -0.4514
 3565SOL     OW22153   2.138   2.871   4.735  0.2499 -0.5562  0.0688
 3565SOL    HW122154   2.182   2.887   4.651  2.9673 -0.0796  1.5676
 3565SOL    HW222155   2.155   2.950   4.786 -2.3202 -0.3531  0.6022
 3566SOL     OW22156   2.368   4.675  16.908 -0.1800 -0.1082  0.0283
 3566SOL    HW122157   2.284   4.721  16.916 -0.5579 -0.4487 -2.0045
 3566SOL    HW222158   2.363   4.601  16.967  0.8023  0.1912  0.4931
 3567SOL     OW22159   1.531   1.432  17.454 -0.5733  0.1748  0.2023
 3567SOL    HW122160   1.439   1.404  17.452 -0.7654  0.6444  2.1729
 3567SOL    HW222161   1.566   1.357  17.502  1.1944  0.8655 -0.0295
 3568SOL     OW22162   4.478   0.638   9.751  0.0377 -0.3668  0.0812
 3568SOL    HW122163   4.436   0.623   9.836 -2.3981  0.5290 -0.9482
 3568SOL    HW222164   4.533   0.713   9.773  1.0795 -0.2386 -2.8949
 3569SOL     OW22165   1.820   1.257   0.473  0.2718 -0.2228  0.8840
 3569SOL    HW122166   1.803   1.323   0.405 -0.6435 -0.4047  0.9359
 3569SOL    HW222167   1.899   1.222   0.431 -1.8521 -1.1351 -2.3186
 3570SOL     OW22168   0.726   4.723   5.351  0.0181 -0.3839  0.8396
 3570SOL    HW122169   0.774   4.665   5.292 -1.0397 -1.6858  1.2615
 3570SOL    HW222170   0.638   4.710   5.314 -0.3808  2.2936  0.8261
 3571SOL     OW22171   1.929   4.240   3.237  0.5462 -0.6340 -0.0540
 3571SOL    HW122172   1.851   4.296   3.245  1.8664  1.3961 -1.3270
 3571SOL    HW222173   1.968   4.245   3.324  2.2094  1.7618 -0.9450
 3572SOL     OW22174   2.681   2.365  14.689  0.1457 -0.1589 -0.7389
 3572SOL    HW122175   2.630   2.398  14.615  0.3574  1.8367  0.0039
 3572SOL    HW222176   2.770   2.398  14.677  0.9099 -1.2760  1.9843
 3573SOL     OW22177   2.974   0.912  13.959  0.5037  0.0308  0.2384
 3573SOL    HW122178   2.895   0.939  13.911  1.3270  0.9486 -0.5859
 3573SOL    HW222179   2.938   0.868  14.037  1.4649  1.6696  1.6149
 3574SOL     OW22180   1.653   4.356   2.475  0.1986 -0.4517  0.1835
 3574SOL    HW122181   1.701   4.308   2.542 -2.2787 -0.3794  2.0243
 3574SOL    HW222182   1.603   4.421   2.524  0.7143  1.4674 -1.8758
 3575SOL     OW22183   2.350   4.185  11.992 -0.0469  0.1561 -0.0124
 3575SOL    HW122184   2.424   4.198  12.051  0.0213 -1.8849  0.3193
 3575SOL    HW222185   2.286   4.147  12.052 -1.3170  2.4194  0.0903
 3576SOL     OW22186   3.048   3.525  13.029 -0.4718  0.6988 -0.4589
 3576SOL    HW122187   2.975   3.474  12.994  1.5328 -2.1551 -0.4988
 3576SOL    HW222188   3.042   3.607  12.981 -0.0487  0.9376 -0.0989
 3577SOL     OW22189   3.930   2.238   3.071  0.0541 -0.4349 -0.4817
 3577SOL    HW122190   3.845   2.201   3.095  0.5070 -0.3417  1.2642
 3577SOL    HW222191   3.975   2.227   3.155 -0.6932 -0.5340 -0.0904
 3578SOL     OW22192   3.517   1.434   8.648  0.4209 -0.7339 -0.6069
 3578SOL    HW122193   3.471   1.355   8.677  1.7690 -1.0300  0.6926
 3578SOL    HW222194   3.600   1.394   8.620 -0.3970 -3.1334  0.3890
 3579SOL     OW22195   3.168   3.512   3.469  0.7918 -0.2253 -0.2727
 3579SOL    HW122196   3.084   3.489   3.507  0.5079 -1.3257 -1.5631
 3579SOL    HW222197   3.170   3.436   3.410  0.2733 -0.0262 -0.5449
 3580SOL     OW22198   1.547   0.806   4.901 -0.1792 -0.2947  0.8078
 3580SOL    HW122199   1.586   0.768   4.822 -0.9958  0.4239  0.0490
 3580SOL    HW222200   1.501   0.885   4.872  0.6749 -0.3811 -0.7770
 3581SOL     OW22201   0.704   0.317   7.231 -0.5599  0.0201  0.4081
 3581SOL    HW122202   0.652   0.356   7.160  0.1442  0.4195  0.1092
 3581SOL    HW222203   0.666   0.353   7.311  1.3960 -0.4524  1.5339
 3582SOL     OW22204   0.074   1.618   8.416 -0.6716  0.3179 -0.4604
 3582SOL    HW122205   0.068   1.703   8.372  1.0267 -0.1558 -1.6061
 3582SOL    HW222206   0.111   1.642   8.501 -1.7296  0.7699 -0.1256
 3583SOL     OW22207   4.208   4.583   8.752 -0.3971  0.1221  0.0622
 3583SOL    HW122208   4.178   4.674   8.764 -1.4377 -0.0030 -1.5683
 3583SOL    HW222209   4.303   4.581   8.758 -0.4316 -1.6922 -0.1509
 3584SOL     OW22210   1.423   1.686   6.244 -0.0186 -0.3900 -0.4115
 3584SOL    HW122211   1.329   1.700   6.257  0.3565  1.1373  0.7334
 3584SOL    HW222212   1.433   1.679   6.149  0.2270  1.2432 -0.5106
 3585SOL     OW22213   0.401   0.808   9.905  0.0044 -0.4498  0.3562
 3585SOL    HW122214   0.311   0.815   9.938  0.0050  0.5964  0.1328
 3585SOL    HW222215   0.437   0.897   9.913 -0.8906 -0.1488  1.0924
 3586SOL     OW22216   0.541   1.601   2.220 -0.1349 -0.4375  0.3491
 3586SOL    HW122217   0.608   1.532   2.215 -2.2155 -2.4194 -0.1437
 3586SOL    HW222218   0.499   1.571   2.300  0.1234  1.6271  1.2434
 3587SOL     OW22219   2.234   1.496  11.676  0.0394  0.2342  0.0915
 3587SOL    HW122220   2.240   1.550  11.598  0.5321  0.6936  0.4491
 3587SOL    HW222221   2.220   1.413  11.631  0.8731  0.1889 -0.0853
 3588SOL     OW22222   0.143   2.738   8.043 -0.6959 -0.4696  0.2307
 3588SOL    HW122223   0.075   2.729   8.110 -0.8258  1.1447  0.3057
 3588SOL    HW222224   0.222   2.746   8.096  0.0408  0.9142 -1.0618
 3589SOL     OW22225   3.992   4.310  11.672  0.7181  0.8338  0.4153
 3589SOL    HW122226   3.961   4.224  11.644 -0.1556  0.2973  3.0245
 3589SOL    HW222227   4.007   4.352  11.587 -1.1862 -1.3299 -0.9823
 3590SOL     OW22228   1.411   2.457   4.961  0.1845 -0.0923  0.1973
 3590SOL    HW122229   1.473   2.505   5.014  0.7336  0.4091 -0.9034
 3590SOL    HW222230   1.447   2.468   4.873  3.2354  0.0396  1.4849
 3591SOL     OW22231   3.987   3.444   3.036  0.0822 -0.0713  0.4615
 3591SOL    HW122232   3.922   3.390   2.993 -0.4498  0.0507  1.1158
 3591SOL    HW222233   4.043   3.481   2.968 -0.1196  2.1811  1.4893
 3592SOL     OW22234   2.207   1.261  13.137  0.0878 -0.0959  0.3846
 3592SOL    HW122235   2.301   1.277  13.150 -0.0990  1.2860  0.0023
 3592SOL    HW222236   2.160   1.343  13.148 -0.1469 -0.2764  0.7475
 3593SOL     OW22237   1.727   4.441   5.202 -0.3520  0.3082  0.6448
 3593SOL    HW122238   1.698   4.532   5.204  1.7009  0.9500  1.3956
 3593SOL    HW222239   1.807   4.452   5.255 -1.2482 -1.2914  2.3574
 3594SOL     OW22240   2.870   3.386  13.940  0.2927 -0.7844 -0.5950
 3594SOL    HW122241   2.887   3.423  14.026 -1.5562  0.7327 -0.8702
 3594SOL    HW222242   2.904   3.298  13.956  0.6149 -0.3693  0.9751
 3595SOL     OW22243   0.560   2.228   2.825 -0.3131  0.8223 -0.1450
 3595SOL    HW122244   0.516   2.247   2.742  0.1535 -1.1903 -0.8452
 3595SOL    HW222245   0.655   2.232   2.811 -0.2646 -1.9355 -0.6309
 3596SOL     OW22246   1.193   2.517   2.826  0.0656  0.0816  0.0409
 3596SOL    HW122247   1.220   2.440   2.877  0.7410 -0.5468 -1.2759
 3596SOL    HW222248   1.107   2.522   2.868 -0.6095 -0.4345 -1.3071
 3597SOL     OW22249   1.575   1.678  10.816 -0.2120 -0.0591 -0.7679
 3597SOL    HW122250   1.605   1.761  10.854  0.9921  0.1402 -2.1193
 3597SOL    HW222251   1.482   1.698  10.810 -0.1646  0.3291 -0.2351
 3598SOL     OW22252   1.902   0.498  14.715 -0.4438  0.5006  0.0314
 3598SOL    HW122253   1.821   0.454  14.740 -0.8112  0.7474 -0.7469
 3598SOL    HW222254   1.945   0.433  14.659 -1.0749  1.8321 -1.9614
 3599SOL     OW22255   2.475   3.883  11.318  0.1424 -0.1312 -0.2244
 3599SOL    HW122256   2.462   3.873  11.412 -1.7427  1.6505 -0.3026
 3599SOL    HW222257   2.570   3.897  11.322 -0.0394  0.6176  1.2594
 3600SOL     OW22258   3.651   3.004  16.868 -0.4741  0.2795  0.0291
 3600SOL    HW122259   3.626   3.077  16.812  1.5865  0.0373 -1.2078
 3600SOL    HW222260   3.613   3.031  16.952 -1.3496 -0.2652 -0.1919
 3601SOL     OW22261   3.176   0.508   6.804 -0.0693 -0.0893  0.7833
 3601SOL    HW122262   3.239   0.558   6.753 -0.9263 -1.7258 -1.8454
 3601SOL    HW222263   3.198   0.421   6.772 -0.4332 -0.3975  1.3790
 3602SOL     OW22264   4.160   4.570   4.294  0.8002  0.4528  0.6924
 3602SOL    HW122265   4.094   4.559   4.225 -1.0212  2.1238  2.1625
 3602SOL    HW222266   4.235   4.517   4.267  0.0314 -0.9428  1.2839
 3603SOL     OW22267   0.323   2.318  14.886 -0.3323 -0.3698 -0.4318
 3603SOL    HW122268   0.286   2.300  14.973 -0.7288 -1.2867 -0.7901
 3603SOL    HW222269   0.252   2.341  14.827  0.9842  0.4700 -1.6911
 3604SOL     OW22270   2.199   2.477   4.040  0.2342 -0.0282 -0.7028
 3604SOL    HW122271   2.119   2.484   3.987  0.8174  0.2312 -1.5389
 3604SOL    HW222272   2.268   2.516   3.987 -1.3470  0.5745 -2.3476
 3605SOL     OW22273   3.736   0.825   8.602 -0.0495  0.1070  0.1273
 3605SOL    HW122274   3.815   0.837   8.550 -1.2576  2.4205 -1.1967
 3605SOL    HW222275   3.727   0.730   8.605  0.3226  0.1264  1.8327
 3606SOL     OW22276   3.786   0.138   6.393 -0.3654 -0.0376  0.2361
 3606SOL    HW122277   3.764   0.209   6.334  0.3114 -0.2419 -0.2640
 3606SOL    HW222278   3.857   0.176   6.446  1.9688 -3.1083 -0.6475
 3607SOL     OW22279   1.572   2.446   1.427 -0.5841 -0.5127 -0.1933
 3607SOL    HW122280   1.502   2.467   1.365  2.0385 -0.6878 -3.2579
 3607SOL    HW222281   1.609   2.535   1.426 -0.9832 -0.3782 -3.1451
 3608SOL     OW22282   1.146   1.452   8.909 -0.1413 -0.1021 -0.7914
 3608SOL    HW122283   1.195   1.422   8.986 -1.9993  0.4735  0.6032
 3608SOL    HW222284   1.105   1.374   8.873 -0.7424 -0.1234 -0.0543
 3609SOL     OW22285   2.647   0.805   6.276 -0.2551 -0.3373  0.1599
 3609SOL    HW122286   2.569   0.860   6.270  0.6249  1.3244  3.8204
 3609SOL    HW222287   2.659   0.794   6.182 -0.9175 -1.8560  0.2566
 3610SOL     OW22288   2.358   2.659  17.666  0.6671  0.1164  0.5864
 3610SOL    HW122289   2.326   2.716  17.596  1.3502  1.1088  1.0642
 3610SOL    HW222290   2.319   2.691   0.036  0.0834  2.3204 -0.5616
 3611SOL     OW22291   4.461   1.279   4.053 -0.0136  0.0552  0.1325
 3611SOL    HW122292   4.456   1.360   4.002  2.0474 -0.0956 -0.2987
 3611SOL    HW222293   4.494   1.222   3.983 -2.5343 -0.2631 -0.7882
 3612SOL     OW22294   1.502   4.378  15.991 -0.0218 -0.0202  0.1164
 3612SOL    HW122295   1.584   4.370  16.040  2.0831  1.1371 -3.2840
 3612SOL    HW222296   1.456   4.295  16.004 -1.9906  1.1547  0.8474
 3613SOL     OW22297   0.634   3.362  14.244  0.4812 -0.1245  0.0782
 3613SOL    HW122298   0.696   3.403  14.183  0.6880 -0.8791 -0.2190
 3613SOL    HW222299   0.552   3.350  14.196  0.8899  0.7020 -0.8348
 3614SOL     OW22300   2.972   2.749   9.464 -0.6717  0.1671  0.2925
 3614SOL    HW122301   2.984   2.821   9.526 -0.8960  0.6318 -0.2058
 3614SOL    HW222302   2.965   2.796   9.381 -0.9691 -0.1528  0.1337
 3615SOL     OW22303   3.957   2.257   5.157  0.1974  0.1530  0.0215
 3615SOL    HW122304   3.919   2.291   5.076 -0.1105  3.0101  1.3871
 3615SOL    HW222305   3.958   2.163   5.138  0.1051  0.0150  0.7077
 3616SOL     OW22306   4.659   2.874   2.291  0.0420  1.0342 -0.0675
 3616SOL    HW122307   4.595   2.891   2.360 -1.0125 -1.6830 -0.3842
 3616SOL    HW222308   0.004   2.934   2.307  0.4600  0.2276  1.0311
 3617SOL     OW22309   1.171   2.947  16.055  0.4775  0.2196  0.1566
 3617SOL    HW122310   1.113   2.873  16.039  1.4464 -0.5879  0.3727
 3617SOL    HW222311   1.114   3.023  16.063  0.9786  0.8487 -2.2053
 3618SOL     OW22312   1.950   1.604   0.538 -0.0857  0.4884  0.3861
 3618SOL    HW122313   2.044   1.614   0.523  0.2309 -1.4093  1.0995
 3618SOL    HW222314   1.949   1.532   0.602 -0.8033  1.3713  1.3605
 3619SOL     OW22315   2.012   2.190   0.521 -0.0938 -0.2078  0.5418
 3619SOL    HW122316   2.087   2.166   0.465 -0.6568  0.7779 -0.6281
 3619SOL    HW222317   1.997   2.281   0.495 -0.3349 -1.0361 -2.1633
 3620SOL     OW22318   2.877   3.387   4.603 -0.1340  0.2076  0.5771
 3620SOL    HW122319   2.856   3.295   4.618  2.8893 -0.3238  1.4151
 3620SOL    HW222320   2.868   3.423   4.691 -0.2563  0.5424  0.4267
 3621SOL     OW22321   1.601   4.329   4.502 -0.1272  0.4731 -0.0105
 3621SOL    HW122322   1.685   4.286   4.520 -0.0958  0.4835 -0.1307
 3621SOL    HW222323   1.624   4.393   4.435  0.0896 -0.0341 -0.4232
 3622SOL     OW22324   3.222   2.986  10.855  0.3794 -0.5073 -0.3764
 3622SOL    HW122325   3.143   3.029  10.887  1.4535 -0.1679  1.7877
 3622SOL    HW222326   3.277   3.064  10.845  0.5543 -0.4961  0.7230
 3623SOL     OW22327   1.662   3.117   1.202  0.2047 -0.5394  0.0406
 3623SOL    HW122328   1.573   3.105   1.168 -0.0818  2.0867 -0.1587
 3623SOL    HW222329   1.713   3.132   1.122 -0.0239  0.0344  0.0055
 3624SOL     OW22330   2.662   1.139   8.273 -0.0713  0.5992  1.1469
 3624SOL    HW122331   2.697   1.194   8.342  0.6402  1.2879  0.2383
 3624SOL    HW222332   2.612   1.201   8.220 -0.4433  1.3062  2.3218
 3625SOL     OW22333   2.587   3.395   0.018  0.0068 -0.7607 -0.9325
 3625SOL    HW122334   2.547   3.362   0.099  1.7062 -0.0128  0.1898
 3625SOL    HW222335   2.661   3.335   0.007 -1.2192 -2.5248  0.3452
 3626SOL     OW22336   4.346   0.393  17.462 -0.3328 -0.1198  0.0349
 3626SOL    HW122337   4.303   0.479  17.468  1.8896  1.0288 -0.4712
 3626SOL    HW222338   4.291   0.328  17.507 -1.1135  0.5664  0.0736
 3627SOL     OW22339   1.164   2.606   4.557  0.1948 -0.2781  0.1977
 3627SOL    HW122340   1.180   2.654   4.638  0.0668 -0.0584  0.0915
 3627SOL    HW222341   1.089   2.550   4.577 -1.2846  1.5087 -0.3833
 3628SOL     OW22342   2.909   3.001   5.753 -0.0019  0.0372  0.0655
 3628SOL    HW122343   2.995   2.960   5.765  0.4072  0.4707 -1.3661
 3628SOL    HW222344   2.855   2.927   5.726  0.5761  0.0300 -1.0800
 3629SOL     OW22345   2.423   1.109  17.173 -0.0572 -0.1049 -0.2174
 3629SOL    HW122346   2.363   1.066  17.111 -1.9727  1.8629  0.2761
 3629SOL    HW222347   2.504   1.062  17.153  0.1678  0.4324 -0.5539
 3630SOL     OW22348   4.076   3.541   6.376  0.5161  0.1809 -0.6001
 3630SOL    HW122349   4.018   3.479   6.332  2.3906 -2.1084  0.1567
 3630SOL    HW222350   4.070   3.510   6.466  0.3783  1.1089 -0.2966
 3631SOL     OW22351   0.405   3.634   3.899  0.3597 -0.7529  0.5624
 3631SOL    HW122352   0.455   3.710   3.871  1.0251 -0.0233  3.7184
 3631SOL    HW222353   0.398   3.653   3.993  0.1208 -3.1516  1.0463
 3632SOL     OW22354   1.030   1.614  10.915 -0.1278 -0.4407 -0.1220
 3632SOL    HW122355   0.964   1.544  10.916 -0.5649 -0.0152  0.4618
 3632SOL    HW222356   1.104   1.568  10.953 -0.5266 -0.5137  0.5741
 3633SOL     OW22357   3.891   1.302   5.062 -0.3724 -0.3462  0.1299
 3633SOL    HW122358   3.948   1.232   5.093 -1.2572 -0.9426  0.3997
 3633SOL    HW222359   3.869   1.347   5.144  2.5096  3.5016 -1.1827
 3634SOL     OW22360   1.137   4.088  10.190 -0.4277 -0.4692 -0.3786
 3634SOL    HW122361   1.087   4.143  10.130 -0.9674  0.1976  0.6926
 3634SOL    HW222362   1.099   4.000  10.191 -0.3608 -0.4902  0.6141
 3635SOL     OW22363   0.667   1.531   1.061  0.0553  0.8732 -0.2921
 3635SOL    HW122364   0.716   1.502   0.984 -2.1408 -0.9653 -0.9862
 3635SOL    HW222365   0.602   1.582   1.013 -2.1226 -0.1844  1.5596
 3636SOL     OW22366   2.795   4.356   8.273 -0.8836 -0.4764  0.9398
 3636SOL    HW122367   2.749   4.411   8.210 -1.3819 -0.6993  1.1114
 3636SOL    HW222368   2.759   4.394   8.354  0.5494  1.5949  0.6024
 3637SOL     OW22369   3.925   0.361  17.699 -0.6812  0.0617  0.3066
 3637SOL    HW122370   3.955   0.371  17.609 -1.1488 -1.1252  0.0094
 3637SOL    HW222371   3.843   0.411  17.701  0.8539  2.6161 -1.2626
 3638SOL     OW22372   0.270   2.380   4.010 -0.3096  0.1650 -0.1572
 3638SOL    HW122373   0.298   2.293   4.036  1.5766  0.9700  0.4986
 3638SOL    HW222374   0.243   2.421   4.092  0.1147  1.0424 -0.4527
 3639SOL     OW22375   3.412   0.530   8.499 -0.4159 -0.0529  0.3135
 3639SOL    HW122376   3.415   0.465   8.569 -1.1217 -0.2386  0.1795
 3639SOL    HW222377   3.501   0.557   8.477 -0.2346 -1.1807 -0.3471
 3640SOL     OW22378   3.016   2.865   6.773  0.1181 -0.2939 -0.0132
 3640SOL    HW122379   3.108   2.884   6.790 -0.0416  0.9532 -0.5559
 3640SOL    HW222380   3.016   2.899   6.684  1.7490  0.3141  0.2231
 3641SOL     OW22381   4.593   3.167   1.977  0.1158 -0.2322  0.2683
 3641SOL    HW122382   4.601   3.077   2.008 -1.9335 -0.0322  1.3488
 3641SOL    HW222383   4.652   3.151   1.903 -0.1660  0.7977 -0.1805
 3642SOL     OW22384   3.622   2.688   4.161  0.0726  0.6541  0.5480
 3642SOL    HW122385   3.527   2.692   4.177 -0.3869  2.0143 -2.5467
 3642SOL    HW222386   3.640   2.758   4.099 -1.4268  0.3363 -0.2392
 3643SOL     OW22387   4.680   2.494   4.084  0.8443  0.1209 -0.4468
 3643SOL    HW122388   4.693   2.497   4.179 -0.8010 -1.3386 -0.1762
 3643SOL    HW222389   4.661   2.406   4.051 -0.8625 -0.1029  1.1440
 3644SOL     OW22390   3.992   1.114   1.249  0.1075  0.0298 -0.0479
 3644SOL    HW122391   4.004   1.199   1.291  0.0735  0.0143 -0.0063
 3644SOL    HW222392   3.896   1.110   1.251  0.1165 -0.0029  0.4040
 3645SOL     OW22393   2.447   4.137  13.919 -0.2219 -0.6952 -0.4845
 3645SOL    HW122394   2.470   4.133  14.012  1.1634  1.1307 -0.7358
 3645SOL    HW222395   2.425   4.044  13.916  2.1306 -1.3634  2.9944
 3646SOL     OW22396   1.530   2.210   7.155 -0.4751 -0.2884 -0.0515
 3646SOL    HW122397   1.620   2.212   7.120 -0.2631 -1.8715  0.4062
 3646SOL    HW222398   1.524   2.288   7.210  0.8501  2.0129 -3.1681
 3647SOL     OW22399   4.589   1.814   4.635 -0.4706 -0.3851  0.1436
 3647SOL    HW122400   4.599   1.906   4.656  1.3339 -0.2782 -1.1516
 3647SOL    HW222401   4.598   1.776   4.722 -0.5317  0.5521  0.5552
 3648SOL     OW22402   1.188   1.675   9.979  0.0940 -1.0959 -0.3042
 3648SOL    HW122403   1.191   1.632  10.064  1.0588  0.3639  0.3877
 3648SOL    HW222404   1.247   1.750   9.973 -1.3482  0.0274 -0.5829
 3649SOL     OW22405   4.580   1.133   3.086  0.0978  0.4339 -0.5420
 3649SOL    HW122406   4.549   1.197   3.151  0.6480 -0.9345  1.0604
 3649SOL    HW222407   4.657   1.182   3.057 -0.2046  1.9679  1.2240
 3650SOL     OW22408   0.495   4.025   9.945  0.3516 -0.3270 -0.2048
 3650SOL    HW122409   0.488   4.093  10.012  0.7119 -1.2599  0.7750
 3650SOL    HW222410   0.511   4.077   9.866  0.8495  1.4309  1.0381
 3651SOL     OW22411   3.149   0.092   8.964  0.0762  0.0899  0.1505
 3651SOL    HW122412   3.066   0.103   8.919  0.2183 -0.2526 -0.1941
 3651SOL    HW222413   3.120   0.117   9.052 -1.7215 -0.3288 -0.3246
 3652SOL     OW22414   1.679   3.405  17.261  0.1880 -0.6164  0.0923
 3652SOL    HW122415   1.668   3.493  17.224  1.0345  0.0412  1.3821
 3652SOL    HW222416   1.665   3.420  17.355  2.2649 -2.2096  0.6429
 3653SOL     OW22417   2.617   2.694   4.627 -0.1348 -0.1247  0.4095
 3653SOL    HW122418   2.643   2.633   4.696 -0.3013 -0.1565  0.4423
 3653SOL    HW222419   2.595   2.640   4.551  0.2867 -1.4332  1.2026
 3654SOL     OW22420   4.557   3.813   4.126 -0.1266 -0.2504 -0.3396
 3654SOL    HW122421   4.621   3.755   4.166  0.7140 -0.3281 -1.8097
 3654SOL    HW222422   4.541   3.772   4.041 -0.2162 -2.2457  0.6563
 3655SOL     OW22423   0.488   3.310   8.130 -0.1170  0.4565  0.5882
 3655SOL    HW122424   0.421   3.366   8.092  0.5640  0.2785 -0.8546
 3655SOL    HW222425   0.495   3.339   8.221 -2.6241  0.4911  0.7761
 3656SOL     OW22426   0.351   3.988   5.066 -0.9798  0.4434 -0.2690
 3656SOL    HW122427   0.407   3.995   4.989  0.2426  1.8930  0.7554
 3656SOL    HW222428   0.366   3.898   5.097 -2.0318  0.9558  1.7330
 3657SOL     OW22429   4.576   0.363   9.971 -0.0667 -0.1109  0.0263
 3657SOL    HW122430   4.606   0.342   9.883  0.2586 -0.3215  0.1867
 3657SOL    HW222431   4.646   0.325  10.024 -2.2673 -2.1448  1.4924
 3658SOL     OW22432   0.276   3.995  13.396  0.7160 -0.7653  0.2923
 3658SOL    HW122433   0.264   4.073  13.342 -1.1051 -0.6994  0.8014
 3658SOL    HW222434   0.278   3.929  13.326  0.9807 -2.3056  1.7691
 3659SOL     OW22435   2.221   1.517  17.232  0.2386 -0.6555  0.2948
 3659SOL    HW122436   2.174   1.528  17.149  2.2504 -2.5845 -1.0903
 3659SOL    HW222437   2.299   1.568  17.213  0.3796 -1.1637 -0.4800
 3660SOL     OW22438   0.179   3.128   5.864  0.0580 -0.1358 -0.1511
 3660SOL    HW122439   0.140   3.044   5.840  0.3852 -0.1841 -0.5247
 3660SOL    HW222440   0.201   3.106   5.955 -0.2158  0.7184  0.1212
 3661SOL     OW22441   4.100   0.545   9.885 -0.2449  0.3530 -0.0459
 3661SOL    HW122442   4.091   0.453   9.858  0.9973  0.5184 -1.0135
 3661SOL    HW222443   4.192   0.545   9.913  0.2583 -1.4944 -1.6413
 3662SOL     OW22444   3.670   2.334   3.365  0.1485  0.2963 -0.0951
 3662SOL    HW122445   3.596   2.386   3.333 -0.6797 -0.4738  0.6069
 3662SOL    HW222446   3.618   2.276   3.420  0.7700 -0.3297 -0.1773
 3663SOL     OW22447   3.662   3.106   7.326 -0.5133  0.4456 -0.4353
 3663SOL    HW122448   3.602   3.095   7.252  1.3750  0.1249 -1.9397
 3663SOL    HW222449   3.700   3.193   7.316  1.2069  0.0019  2.3097
 3664SOL     OW22450   2.717   2.949   2.451 -0.7821  0.6455 -0.1650
 3664SOL    HW122451   2.673   2.953   2.536 -1.1155  1.6611 -0.3829
 3664SOL    HW222452   2.806   2.978   2.473 -0.2604 -1.5972  0.7018
 3665SOL     OW22453   2.201   2.161   6.867  0.0031 -0.8191 -0.5743
 3665SOL    HW122454   2.226   2.118   6.786  3.7745  1.2628 -0.5365
 3665SOL    HW222455   2.164   2.246   6.845 -0.8910 -0.5062  2.0415
 3666SOL     OW22456   0.289   2.737   4.921 -0.1628  0.1933 -0.0930
 3666SOL    HW122457   0.241   2.710   4.999  0.9703 -1.4164  0.0514
 3666SOL    HW222458   0.236   2.803   4.877 -1.0198  0.7772  1.8141
 3667SOL     OW22459   4.714   0.048   3.432  0.4124  0.3939 -0.4909
 3667SOL    HW122460   4.620   0.054   3.417  0.4625 -0.0947 -0.9913
 3667SOL    HW222461   0.019   0.068   3.345  0.3924  0.5580 -0.4598
 3668SOL     OW22462   4.071   3.177   2.090  0.5713 -0.6594  0.1831
 3668SOL    HW122463   4.163   3.165   2.115  0.3583 -1.4016  0.5920
 3668SOL    HW222464   4.083   3.258   2.040 -1.6276 -1.1329 -1.0808
 3669SOL     OW22465   0.182   3.816   9.497  0.5013 -0.1249 -0.1205
 3669SOL    HW122466   0.169   3.792   9.405 -0.2658  2.9918 -0.8099
 3669SOL    HW222467   0.094   3.843   9.524  0.7288 -0.3482  0.8573
 3670SOL     OW22468   1.082   2.872  16.717 -0.4614  0.1648 -0.0815
 3670SOL    HW122469   1.151   2.846  16.778 -2.3466 -1.4357  1.3561
 3670SOL    HW222470   1.005   2.825  16.748  0.3849 -0.3998  1.1272
 3671SOL     OW22471   0.972   3.263   6.391  0.0298 -0.3176 -0.1756
 3671SOL    HW122472   1.004   3.180   6.357 -0.6913 -0.1768 -1.1938
 3671SOL    HW222473   0.942   3.298   6.307  0.2424  0.4293  0.0589
 3672SOL     OW22474   2.517   0.235  10.539 -0.0881  0.6000  0.6906
 3672SOL    HW122475   2.459   0.308  10.518 -0.9570 -0.3499 -0.1983
 3672SOL    HW222476   2.519   0.177  10.462 -1.5836  3.2944 -1.3940
 3673SOL     OW22477   3.652   3.710   1.287 -0.4099 -0.2495 -0.1015
 3673SOL    HW122478   3.744   3.726   1.311 -1.3581  2.9965  1.3511
 3673SOL    HW222479   3.631   3.635   1.343 -1.8782 -1.0698 -1.7498
 3674SOL     OW22480   3.605   0.198   2.905  0.1027 -0.1142 -0.6941
 3674SOL    HW122481   3.655   0.143   2.845 -2.5208 -2.0921 -1.0171
 3674SOL    HW222482   3.575   0.273   2.853 -0.9441 -0.2258 -0.2417
 3675SOL     OW22483   1.803   2.851   7.478 -0.5821 -0.1562 -0.1861
 3675SOL    HW122484   1.804   2.761   7.445 -0.1442  0.2873 -1.3953
 3675SOL    HW222485   1.733   2.891   7.426 -1.5949  1.4382  2.4178
 3676SOL     OW22486   4.169   3.438   9.552 -0.2550  0.1129  0.6664
 3676SOL    HW122487   4.247   3.485   9.521 -0.5883 -0.6026 -1.2953
 3676SOL    HW222488   4.090   3.490   9.537  1.3266  2.1009 -0.6809
 3677SOL     OW22489   3.149   0.605  16.686 -0.6184 -0.1509 -0.1823
 3677SOL    HW122490   3.241   0.581  16.675 -0.4950 -1.0855  2.7724
 3677SOL    HW222491   3.127   0.612  16.594 -1.5220  1.9161  0.2090
 3678SOL     OW22492   4.025   3.698   5.410 -0.6304  0.5220  0.5014
 3678SOL    HW122493   3.931   3.718   5.405 -0.4943  1.3499  1.3283
 3678SOL    HW222494   4.058   3.772   5.358 -0.7263  0.1161 -0.1338
 3679SOL     OW22495   2.394   4.472   2.559 -0.4111 -0.6928  0.2100
 3679SOL    HW122496   2.322   4.520   2.599 -0.2810  0.9679 -1.5173
 3679SOL    HW222497   2.389   4.391   2.609 -0.8289  0.5264  2.1024
 3680SOL     OW22498   1.012   1.825   3.101 -0.0310  0.5506 -0.0102
 3680SOL    HW122499   1.098   1.784   3.098 -0.0429  0.5918 -0.9742
 3680SOL    HW222500   0.957   1.752   3.070  1.1759 -0.5407  0.4136
 3681SOL     OW22501   2.145   1.285   6.900  0.5786  0.0588  0.0927
 3681SOL    HW122502   2.164   1.248   6.986  1.6273 -1.7074 -0.9058
 3681SOL    HW222503   2.234   1.304   6.870  0.4161  0.8960  0.1208
 3682SOL     OW22504   3.267   1.473   3.386 -0.5050  0.1697 -0.1215
 3682SOL    HW122505   3.317   1.419   3.324 -1.8128 -2.3122  0.9988
 3682SOL    HW222506   3.303   1.439   3.468 -3.0684 -1.3027  0.3966
 3683SOL     OW22507   0.922   3.047  16.181 -0.0878 -0.2729  0.6115
 3683SOL    HW122508   0.881   3.122  16.225 -0.7044  1.2912 -2.6633
 3683SOL    HW222509   0.979   3.004  16.245  0.5706 -0.0481  0.1781
 3684SOL     OW22510   3.230   2.908   4.488 -0.5610  0.1008 -0.3779
 3684SOL    HW122511   3.145   2.865   4.497 -0.6776  0.5342  0.6761
 3684SOL    HW222512   3.279   2.873   4.563 -1.6030 -2.2921 -0.8197
 3685SOL     OW22513   0.483   2.346   6.351 -0.1691 -0.2398  0.4730
 3685SOL    HW122514   0.508   2.431   6.386  0.2813 -0.5499  0.9133
 3685SOL    HW222515   0.392   2.364   6.327 -0.2106 -1.5830 -0.4135
 3686SOL     OW22516   0.463   3.802   5.922 -0.5607  0.4358 -0.2820
 3686SOL    HW122517   0.518   3.842   5.854 -0.6134  0.7011 -0.1663
 3686SOL    HW222518   0.430   3.722   5.881 -1.1252  0.1953  0.6550
 3687SOL     OW22519   3.553   1.960   6.580 -0.2847  0.0677 -0.1528
 3687SOL    HW122520   3.572   2.045   6.539 -2.5820  1.6310  1.9684
 3687SOL    HW222521   3.593   1.969   6.666 -0.5883 -2.4426  0.2514
 3688SOL     OW22522   2.612   1.871  17.385 -0.1961  0.3743  0.3045
 3688SOL    HW122523   2.542   1.839  17.327  2.0959 -0.5250 -1.9341
 3688SOL    HW222524   2.673   1.798  17.371 -0.7921 -0.3921  1.6397
 3689SOL     OW22525   3.228   0.378   3.298 -0.5823  0.2912 -0.2425
 3689SOL    HW122526   3.307   0.344   3.255 -1.0708 -3.9556  2.2509
 3689SOL    HW222527   3.224   0.309   3.364 -0.9141 -0.2263 -0.8023
 3690SOL     OW22528   3.581   0.572   7.192  0.2133 -0.1552  0.6006
 3690SOL    HW122529   3.574   0.657   7.235  1.2805 -0.7519  1.9481
 3690SOL    HW222530   3.667   0.575   7.152  0.3351 -0.3840  0.8444
 3691SOL     OW22531   2.827   2.753   7.541 -0.6338 -0.3210  0.6131
 3691SOL    HW122532   2.894   2.807   7.498  0.6099 -1.0941  1.5722
 3691SOL    HW222533   2.789   2.699   7.471  2.0452 -0.1489 -0.9732
 3692SOL     OW22534   3.052   0.371   7.299  0.4176  0.2134 -0.0790
 3692SOL    HW122535   3.049   0.291   7.246 -1.1650 -0.8331  1.5624
 3692SOL    HW222536   3.045   0.331   7.386  2.0063 -1.2531 -0.6254
 3693SOL     OW22537   3.900   2.270  10.895  0.1969 -0.9597 -0.4918
 3693SOL    HW122538   3.979   2.234  10.854  1.8886  2.1269  0.0662
 3693SOL    HW222539   3.832   2.263  10.828 -1.9534 -3.6502  2.0134
 3694SOL     OW22540   2.970   2.886   2.935 -0.1718  0.1578  0.0482
 3694SOL    HW122541   3.038   2.819   2.923 -0.2156  0.2841 -0.9614
 3694SOL    HW222542   2.884   2.844   2.943 -0.3990  1.0944  2.3360
 3695SOL     OW22543   2.960   4.369   3.982  0.0986 -0.0204  0.4761
 3695SOL    HW122544   2.889   4.368   3.918  1.3465 -0.8698 -0.8902
 3695SOL    HW222545   2.908   4.405   4.055 -0.2342  1.4917 -0.5134
 3696SOL     OW22546   1.037   4.530   7.292 -0.0738  1.0975  0.7302
 3696SOL    HW122547   0.945   4.526   7.318 -0.2681  1.2657  0.0657
 3696SOL    HW222548   1.068   4.443   7.316 -0.7386  0.5471 -0.3966
 3697SOL     OW22549   4.187   4.406  10.986  0.4326  0.2215  0.6469
 3697SOL    HW122550   4.198   4.500  10.972  1.5580  0.0588  0.4277
 3697SOL    HW222551   4.276   4.379  10.961  0.7727 -0.0136  2.0814
 3698SOL     OW22552   3.510   0.226   5.306 -0.1797  0.1374 -1.0209
 3698SOL    HW122553   3.434   0.278   5.333 -0.3891 -0.4416 -0.4938
 3698SOL    HW222554   3.565   0.237   5.383 -0.9397  1.6968 -0.7014
 3699SOL     OW22555   0.955   1.074   0.136  0.8106  0.0296 -0.0312
 3699SOL    HW122556   0.963   1.157   0.089 -0.1888  1.7185  2.7770
 3699SOL    HW222557   0.869   1.049   0.102  1.0082 -0.3208 -0.2778
 3700SOL     OW22558   1.769   1.805  17.562 -0.0232 -0.1387 -0.0519
 3700SOL    HW122559   1.787   1.782  17.653 -0.6005 -1.0246 -0.1680
 3700SOL    HW222560   1.815   1.887  17.543  0.9244 -0.4653  0.8045
 3701SOL     OW22561   1.286   2.423   5.943  0.0190 -0.2902  0.1948
 3701SOL    HW122562   1.278   2.517   5.930  1.3359 -0.0573  1.1316
 3701SOL    HW222563   1.312   2.404   5.853  0.3408  0.3407  0.1607
 3702SOL     OW22564   2.298   1.383  17.577 -0.4797  0.6555 -0.8794
 3702SOL    HW122565   2.210   1.419  17.573  0.4318  3.1467  1.3666
 3702SOL    HW222566   2.312   1.350  17.488  1.1062  3.8028 -1.8045
 3703SOL     OW22567   2.341   3.574   5.260  0.2113  0.0340 -0.1127
 3703SOL    HW122568   2.400   3.501   5.240  0.7334  0.5159 -0.3143
 3703SOL    HW222569   2.274   3.521   5.303 -0.1285  0.0277 -0.6390
 3704SOL     OW22570   3.377   1.693   3.649  0.7851 -0.2837 -0.7545
 3704SOL    HW122571   3.305   1.649   3.603  0.5079  0.2539 -0.8350
 3704SOL    HW222572   3.349   1.784   3.638  0.1288 -0.6594 -2.1797
 3705SOL     OW22573   0.633   2.379  15.879 -0.1098 -0.1184 -0.2339
 3705SOL    HW122574   0.707   2.345  15.930  0.5169  0.4821 -0.7420
 3705SOL    HW222575   0.674   2.356  15.796 -2.1202 -2.7815 -0.5009
 3706SOL     OW22576   3.574   1.674   3.035 -0.0087  0.1784  0.0551
 3706SOL    HW122577   3.605   1.587   3.059  0.2305  0.3375  0.3206
 3706SOL    HW222578   3.532   1.693   3.119  0.4968 -0.5705  0.4788
 3707SOL     OW22579   3.344   3.638   2.526 -0.3463  0.8714  0.1563
 3707SOL    HW122580   3.380   3.549   2.527  0.8112  1.3251 -1.3502
 3707SOL    HW222581   3.415   3.699   2.506  0.8060 -0.3095  0.6544
 3708SOL     OW22582   2.013   3.110  11.291  0.7295  0.4035 -0.8241
 3708SOL    HW122583   1.959   3.032  11.285 -0.0193  0.5687  3.8422
 3708SOL    HW222584   2.076   3.086  11.358  0.4369  0.8244 -0.3956
 3709SOL     OW22585   1.614   3.705   7.667 -0.0198 -0.0056  0.2186
 3709SOL    HW122586   1.649   3.638   7.609  0.7008 -0.0183  0.6705
 3709SOL    HW222587   1.533   3.732   7.624  0.3109 -0.7963 -0.8814
 3710SOL     OW22588   3.616   4.178   4.275 -0.0206  0.5637 -0.0257
 3710SOL    HW122589   3.553   4.108   4.292 -0.3274  0.9690  0.5017
 3710SOL    HW222590   3.694   4.128   4.251  0.7603  0.6463  2.3174
 3711SOL     OW22591   2.639   2.546   1.514  0.0283  0.2437 -0.3676
 3711SOL    HW122592   2.631   2.496   1.433 -0.4705  1.6417 -1.1828
 3711SOL    HW222593   2.734   2.551   1.527  0.1186  1.6724 -1.4529
 3712SOL     OW22594   2.575   4.016   7.983 -0.1460 -0.2156  0.5087
 3712SOL    HW122595   2.623   3.940   7.949 -1.9452 -0.2105 -1.9951
 3712SOL    HW222596   2.632   4.027   8.059 -0.2119  1.8143  0.2525
 3713SOL     OW22597   3.623   3.788  11.508 -0.1599 -0.4065 -0.9888
 3713SOL    HW122598   3.687   3.717  11.514 -0.4982 -0.5217  1.3959
 3713SOL    HW222599   3.679   3.862  11.483 -0.8098 -0.1103 -1.5441
 3714SOL     OW22600   2.639   3.547   9.070  0.2281  0.0145  0.0677
 3714SOL    HW122601   2.556   3.565   9.028  0.3342  0.8928  0.2354
 3714SOL    HW222602   2.624   3.465   9.118 -0.7281 -0.8723 -1.7654
 3715SOL     OW22603   4.172   4.691   1.421 -0.4344 -0.2551  0.3956
 3715SOL    HW122604   4.134   0.046   1.450 -2.8734 -1.2981  0.1110
 3715SOL    HW222605   4.255   4.689   1.469  0.6025  1.0301 -1.3086
 3716SOL     OW22606   1.919   0.023   3.562  0.1553 -0.4867 -0.3131
 3716SOL    HW122607   2.001   0.048   3.519  0.7051 -1.3893  0.2439
 3716SOL    HW222608   1.939   4.693   3.635 -1.8847 -1.3898 -0.4662
 3717SOL     OW22609   2.345   3.847  10.652 -0.3889  0.1729 -0.1308
 3717SOL    HW122610   2.275   3.908  10.674  2.5772  3.2961  0.6164
 3717SOL    HW222611   2.359   3.814  10.741  0.7051 -2.2116 -1.1967
 3718SOL     OW22612   1.591   2.974  17.574 -0.2538 -0.0179  0.4451
 3718SOL    HW122613   1.548   3.059  17.568 -1.3175 -0.5127  1.1029
 3718SOL    HW222614   1.685   2.993  17.564 -0.0839 -0.8501  0.4539
 3719SOL     OW22615   0.115   3.450  15.105 -0.1839  0.1647 -0.1735
 3719SOL    HW122616   0.173   3.463  15.030  0.3392  1.7383  0.5064
 3719SOL    HW222617   0.136   3.512  15.174  4.6846  1.2962 -2.6525
 3720SOL     OW22618   0.583   1.428  11.041 -0.4391  0.4127 -0.1985
 3720SOL    HW122619   0.636   1.468  11.110  0.4493 -1.2408  0.0687
 3720SOL    HW222620   0.649   1.368  11.007 -0.8721 -0.4843  0.5402
 3721SOL     OW22621   2.225   3.175   2.529  0.4455 -0.2986  0.0111
 3721SOL    HW122622   2.296   3.142   2.584  0.0483  1.6345  1.6807
 3721SOL    HW222623   2.275   3.196   2.450 -0.1955  0.5586 -0.1690
 3722SOL     OW22624   0.076   3.328  14.687 -0.3095  0.1589  0.2751
 3722SOL    HW122625   0.030   3.261  14.738 -1.4571  1.1077  0.4898
 3722SOL    HW222626   0.065   3.287  14.601 -2.0308  2.4644 -0.6052
 3723SOL     OW22627   0.775   2.485   2.359  0.8367  0.0244  0.8296
 3723SOL    HW122628   0.716   2.475   2.435 -0.2850 -0.2904 -0.0849
 3723SOL    HW222629   0.710   2.523   2.300  2.2658  2.4080  0.8023
 3724SOL     OW22630   1.104   4.449   0.415  0.3423  0.4401 -0.0764
 3724SOL    HW122631   1.091   4.354   0.413  0.9197  0.3322  1.1708
 3724SOL    HW222632   1.034   4.480   0.474  0.1612 -0.4091  0.1518
 3725SOL     OW22633   1.006   3.834  10.150  0.1609 -0.2786 -0.5334
 3725SOL    HW122634   1.024   3.829  10.056 -1.0002 -0.2310 -0.7582
 3725SOL    HW222635   1.027   3.745  10.181  0.6748  0.1438  0.3339
 3726SOL     OW22636   0.883   3.532   9.166  0.4176  0.2703  0.1013
 3726SOL    HW122637   0.801   3.566   9.129  0.2971 -0.4326 -0.2882
 3726SOL    HW222638   0.899   3.589   9.241 -1.0014  2.3187 -1.1402
 3727SOL     OW22639   0.829   0.124  10.665  0.0378  0.0271  0.1164
 3727SOL    HW122640   0.861   0.214  10.661 -1.3442  0.5349  0.5230
 3727SOL    HW222641   0.791   0.111  10.578  2.0024 -0.8917 -0.5983
 3728SOL     OW22642   1.538   4.026   1.473  0.3663  0.3972 -0.3856
 3728SOL    HW122643   1.540   3.989   1.561  0.3562 -0.1010 -0.5934
 3728SOL    HW222644   1.601   4.097   1.483 -0.4009  0.8483  1.0693
 3729SOL     OW22645   2.853   0.060   7.357  0.1043 -0.3357  0.2644
 3729SOL    HW122646   2.866   0.088   7.448  0.2208  1.5400 -0.3248
 3729SOL    HW222647   2.763   0.028   7.351 -0.7754  1.8431  1.3649
 3730SOL     OW22648   3.062   2.559  10.961 -0.2709  0.5553 -0.0859
 3730SOL    HW122649   3.089   2.475  10.924 -2.7590 -0.1101 -0.3508
 3730SOL    HW222650   3.064   2.624  10.890 -0.6817 -0.2028 -0.7980
 3731SOL     OW22651   3.875   0.357   4.738 -0.5447  0.2122  0.4282
 3731SOL    HW122652   3.800   0.416   4.746  0.7877  2.2289 -1.7707
 3731SOL    HW222653   3.858   0.318   4.652 -1.3828  3.7474 -1.0320
 3732SOL     OW22654   3.725   1.590  16.310  0.8389 -0.0003 -0.0487
 3732SOL    HW122655   3.778   1.588  16.389  1.0994 -2.3819 -0.2888
 3732SOL    HW222656   3.755   1.508  16.271 -2.3663 -1.1633 -0.0491
 3733SOL     OW22657   2.984   0.661   6.464  0.2300  0.0587  0.3952
 3733SOL    HW122658   2.917   0.618   6.411 -1.3032 -2.6748  4.6173
 3733SOL    HW222659   2.967   0.629   6.553 -1.7928 -0.4457 -0.1700
 3734SOL     OW22660   3.185   1.942   3.662  0.2821  0.3025  0.9775
 3734SOL    HW122661   3.190   1.968   3.754  0.0014 -1.0316  1.3645
 3734SOL    HW222662   3.229   2.014   3.617  0.6892  1.2303  2.8534
 3735SOL     OW22663   0.009   1.278   5.292  0.3735 -0.0881  0.2799
 3735SOL    HW122664   4.703   1.295   5.204  0.4309  0.0991  0.2924
 3735SOL    HW222665   4.665   1.225   5.325 -1.1372  2.0386  0.4202
 3736SOL     OW22666   0.311   3.556   8.956 -0.1806  0.4879  0.0194
 3736SOL    HW122667   0.232   3.508   8.931  0.7587 -1.8540  1.5790
 3736SOL    HW222668   0.368   3.480   8.952 -0.1355  0.5137  0.1708
 3737SOL     OW22669   2.983   2.849  12.097 -0.0331 -0.1669 -0.0771
 3737SOL    HW122670   3.069   2.890  12.102  0.3502 -0.6547 -2.3626
 3737SOL    HW222671   2.994   2.767  12.145 -1.6158  0.4842  1.4036
 3738SOL     OW22672   4.547   4.010   3.508 -0.5405  0.0497  0.0045
 3738SOL    HW122673   4.548   4.036   3.416 -1.8190 -0.2696 -0.1109
 3738SOL    HW222674   4.633   4.043   3.535 -0.5833  0.5275 -0.4552
 3739SOL     OW22675   4.404   1.045   8.164 -0.5767 -0.7346  0.4243
 3739SOL    HW122676   4.402   1.036   8.068 -2.0121 -1.2212  0.4986
 3739SOL    HW222677   4.490   1.004   8.174  0.0864  0.3118 -0.9581
 3740SOL     OW22678   1.681   4.458  15.390 -0.3325  0.1352 -0.2927
 3740SOL    HW122679   1.687   4.366  15.366  0.6068  0.0840  0.1452
 3740SOL    HW222680   1.676   4.467  15.485 -2.9429 -0.0360 -0.4211
 3741SOL     OW22681   0.436   2.242   5.668  0.6901  0.2642 -0.0186
 3741SOL    HW122682   0.416   2.189   5.590  1.5503  0.1833 -0.1749
 3741SOL    HW222683   0.348   2.273   5.691 -1.5116 -4.6528 -1.8778
 3742SOL     OW22684   1.714   4.268   5.465  0.2374 -0.5600  0.2881
 3742SOL    HW122685   1.663   4.230   5.537  1.2757 -1.3817  0.5788
 3742SOL    HW222686   1.646   4.304   5.408 -1.5578 -3.8791  0.3128
 3743SOL     OW22687   2.455   4.605  12.711  0.4718  0.0058  0.0415
 3743SOL    HW122688   2.529   4.599  12.772  0.6366  0.3359 -0.1211
 3743SOL    HW222689   2.486   4.669  12.647  0.1706 -0.0249 -0.1328
 3744SOL     OW22690   2.474   2.065   4.212 -0.1351  0.0788  0.2259
 3744SOL    HW122691   2.386   2.102   4.213 -0.3186 -0.3458 -0.2602
 3744SOL    HW222692   2.525   2.138   4.246  0.3501 -0.0059 -0.3338
 3745SOL     OW22693   3.662   1.725   4.383  0.1543  0.2034  0.1417
 3745SOL    HW122694   3.635   1.652   4.326 -2.6235  1.3503  0.0049
 3745SOL    HW222695   3.755   1.704   4.385  1.1533  4.3652 -2.2783
 3746SOL     OW22696   3.461   2.114   6.046 -0.3084  0.4156 -0.4348
 3746SOL    HW122697   3.519   2.189   6.057  0.1545  0.0199 -0.1949
 3746SOL    HW222698   3.428   2.106   6.136 -0.6881  0.5067 -0.5657
 3747SOL     OW22699   2.647   3.772  13.892 -0.1405  0.4384  0.2559
 3747SOL    HW122700   2.693   3.699  13.851  0.1899  1.6065 -1.4694
 3747SOL    HW222701   2.640   3.740  13.982  2.2123 -1.8179 -0.3605
 3748SOL     OW22702   3.462   1.323   2.211  0.1260 -0.6708 -0.3699
 3748SOL    HW122703   3.481   1.342   2.303 -2.3635  1.0384 -0.2002
 3748SOL    HW222704   3.447   1.229   2.199 -0.8868 -0.4492 -0.8738
 3749SOL     OW22705   1.039   0.074   4.229  0.7889 -0.5965  0.0358
 3749SOL    HW122706   0.993   4.717   4.232 -1.4391  0.6010 -0.0252
 3749SOL    HW222707   1.119   0.061   4.179  1.0374  1.6462 -0.1277
 3750SOL     OW22708   3.876   0.762   8.054 -0.5833 -0.2143  0.1237
 3750SOL    HW122709   3.835   0.752   8.140 -0.1438  1.7125  0.5404
 3750SOL    HW222710   3.865   0.852   8.023  1.6237 -0.0496 -0.1248
 3751SOL     OW22711   2.307   3.855   6.751  0.3959 -0.5126 -0.2467
 3751SOL    HW122712   2.366   3.860   6.675 -0.0231 -1.9951 -0.6774
 3751SOL    HW222713   2.301   3.949   6.766  1.4656 -0.7602  1.6596
 3752SOL     OW22714   2.517   0.149   3.540  0.2127  0.1061  0.2453
 3752SOL    HW122715   2.512   0.100   3.459 -1.0522 -0.8476  0.8920
 3752SOL    HW222716   2.536   0.233   3.499  0.8469  0.2310  0.7918
 3753SOL     OW22717   0.921   3.836   4.312 -0.2610 -0.1459 -0.2564
 3753SOL    HW122718   0.929   3.931   4.298  0.6221 -0.2108 -0.2116
 3753SOL    HW222719   1.013   3.812   4.302  0.1875  1.7925 -0.7772
 3754SOL     OW22720   0.799   4.199   4.485  0.5621  0.2030  0.4962
 3754SOL    HW122721   0.748   4.119   4.477  1.5413 -0.2093 -1.4755
 3754SOL    HW222722   0.745   4.263   4.438  2.1080  0.1932 -1.2869
 3755SOL     OW22723   1.934   1.560   3.647  0.0132  0.1920 -0.0037
 3755SOL    HW122724   1.858   1.595   3.693 -0.5615 -2.4264  1.0292
 3755SOL    HW222725   1.962   1.625   3.583  0.7962 -1.7286 -1.6081
 3756SOL     OW22726   2.128   1.702  14.602 -0.4514 -0.1001  0.8051
 3756SOL    HW122727   2.109   1.685  14.510  1.8498 -0.8766  0.4858
 3756SOL    HW222728   2.218   1.675  14.616  0.0845  1.8082  1.0878
 3757SOL     OW22729   3.356   1.154  14.450 -0.2718  0.3311  0.1028
 3757SOL    HW122730   3.440   1.157  14.495 -0.4101 -1.9173  0.5024
 3757SOL    HW222731   3.338   1.248  14.454 -2.7819 -0.0138 -2.8363
 3758SOL     OW22732   3.819   0.248   0.775  0.3233  0.7294 -0.1516
 3758SOL    HW122733   3.899   0.239   0.827 -1.6036 -1.4355  2.4634
 3758SOL    HW222734   3.831   0.173   0.716  0.1371 -0.7791  1.7357
 3759SOL     OW22735   1.868   0.404  17.291  0.2100 -0.3143 -0.6391
 3759SOL    HW122736   1.843   0.312  17.296 -1.5137  0.1651 -0.3437
 3759SOL    HW222737   1.788   0.438  17.252 -0.0611 -0.5959 -0.3258
 3760SOL     OW22738   1.601   3.147   7.647 -0.0545 -0.3239  0.3452
 3760SOL    HW122739   1.547   3.226   7.647 -0.1800 -0.4034  1.3937
 3760SOL    HW222740   1.558   3.103   7.573  2.6147  0.0137 -1.3748
 3761SOL     OW22741   1.940   1.602  15.555  0.1481 -0.5612 -0.0100
 3761SOL    HW122742   1.887   1.673  15.518 -0.4084 -1.0236 -0.0972
 3761SOL    HW222743   2.017   1.652  15.581 -1.2917  1.6403  0.0771
 3762SOL     OW22744   2.005   3.672   3.817  0.1491  0.1626  0.1860
 3762SOL    HW122745   2.033   3.761   3.840 -0.3429  0.4067 -0.1678
 3762SOL    HW222746   1.915   3.687   3.788 -0.4526 -1.8052  1.0263
 3763SOL     OW22747   0.108   2.925   4.866 -0.2669 -0.1384  0.1353
 3763SOL    HW122748   0.069   2.982   4.799 -0.3348 -1.6189 -1.1105
 3763SOL    HW222749   0.112   2.981   4.943 -1.0289 -0.5340  0.4670
 3764SOL     OW22750   1.795   3.792   3.696 -0.4110  0.1680  0.2798
 3764SOL    HW122751   1.750   3.876   3.693  2.4078  1.7069  0.7200
 3764SOL    HW222752   1.741   3.744   3.633 -0.9657  0.0188  0.8746
 3765SOL     OW22753   1.542   3.201   3.589  0.0865  0.1358 -0.0473
 3765SOL    HW122754   1.494   3.204   3.672  0.9507  2.5246  0.3857
 3765SOL    HW222755   1.589   3.284   3.596  0.5741 -0.2388  1.1392
 3766SOL     OW22756   0.660   2.878   3.581 -0.5048  0.4380 -0.3941
 3766SOL    HW122757   0.606   2.813   3.536 -0.7423 -0.3419  1.0097
 3766SOL    HW222758   0.592   2.917   3.637  1.2443  2.1967  0.4914
 3767SOL     OW22759   1.770   2.134   6.763  0.1476  0.5218  0.2030
 3767SOL    HW122760   1.838   2.097   6.707 -0.6770  0.2517 -0.6282
 3767SOL    HW222761   1.709   2.060   6.768 -0.4212  1.0141  0.5639
 3768SOL     OW22762   2.784   1.484   3.547 -0.2436  0.6293 -0.1559
 3768SOL    HW122763   2.699   1.528   3.549 -1.4581 -1.8111  1.6902
 3768SOL    HW222764   2.808   1.502   3.456 -0.2632 -1.5518 -0.5822
 3769SOL     OW22765   4.592   3.871   5.469  0.1821 -0.6365 -0.3393
 3769SOL    HW122766   4.641   3.942   5.426 -0.5044 -0.7816 -1.3767
 3769SOL    HW222767   4.513   3.921   5.486 -0.4274 -1.1575 -1.6125
 3770SOL     OW22768   1.782   3.263  16.269 -0.9160 -0.0323  0.7126
 3770SOL    HW122769   1.804   3.264  16.362  0.2916  0.3816  0.4220
 3770SOL    HW222770   1.687   3.259  16.281 -0.8278 -1.4669  0.9057
 3771SOL     OW22771   0.931   2.264   1.840 -0.1583 -0.2985 -0.2187
 3771SOL    HW122772   0.987   2.195   1.875 -0.3210 -2.2047 -3.7455
 3771SOL    HW222773   0.958   2.272   1.748  2.2665 -0.0268  0.5025
 3772SOL     OW22774   1.399   1.161   3.146  0.0834  0.2203 -0.3741
 3772SOL    HW122775   1.438   1.078   3.119  2.8087  1.2001  0.5688
 3772SOL    HW222776   1.472   1.223   3.142 -1.6721  2.3494  0.3906
 3773SOL     OW22777   0.790   3.213  12.342  0.3066  0.3735 -0.0953
 3773SOL    HW122778   0.873   3.167  12.329  0.2570  0.5167 -0.9053
 3773SOL    HW222779   0.812   3.279  12.408  0.7801  1.2382 -1.1205
 3774SOL     OW22780   3.103   1.365  16.385  0.1105  0.2884 -0.0638
 3774SOL    HW122781   3.094   1.287  16.440 -0.0246 -0.6078 -1.3530
 3774SOL    HW222782   3.096   1.324  16.299 -0.5349  2.0322 -0.8469
 3775SOL     OW22783   1.708   4.129  14.852 -0.3273  0.3844  0.3650
 3775SOL    HW122784   1.742   4.156  14.937  0.6841 -0.3690  0.1960
 3775SOL    HW222785   1.779   4.175  14.808 -0.5509 -0.9681 -1.4144
 3776SOL     OW22786   3.911   3.560   9.516 -0.5029  0.1219  0.2084
 3776SOL    HW122787   3.906   3.527   9.605  0.8499 -1.3345 -0.2498
 3776SOL    HW222788   3.833   3.616   9.518 -0.8815 -0.4301  0.9974
 3777SOL     OW22789   1.843   1.561   4.798  0.0761 -0.0224 -0.0047
 3777SOL    HW122790   1.778   1.498   4.767  0.0927  0.9091 -1.9652
 3777SOL    HW222791   1.835   1.582   4.891  0.1405  0.2658 -0.0652
 3778SOL     OW22792   2.883   3.773   3.491  0.2675  0.4609 -0.0133
 3778SOL    HW122793   2.834   3.822   3.426 -0.7350 -0.5102  0.0016
 3778SOL    HW222794   2.971   3.801   3.467  0.1746  0.8853  0.1347
 3779SOL     OW22795   0.813   3.952  12.953  0.1971 -0.0947 -0.2121
 3779SOL    HW122796   0.823   3.900  13.033  0.8873  1.4681  0.7091
 3779SOL    HW222797   0.728   3.995  12.956  0.4007  0.2073  1.2971
 3780SOL     OW22798   2.727   3.854   4.876  0.7463 -0.2077  0.2549
 3780SOL    HW122799   2.793   3.919   4.899  0.9018  0.1022 -1.0301
 3780SOL    HW222800   2.773   3.801   4.811 -0.5070  1.3522 -1.9185
 3781SOL     OW22801   1.849   2.587  15.070  0.7003  0.2598 -0.5182
 3781SOL    HW122802   1.924   2.528  15.079  1.8836  2.1725  2.3855
 3781SOL    HW222803   1.775   2.533  15.097  1.1749 -0.6810 -1.0931
 3782SOL     OW22804   3.214   0.629   2.962  0.1264 -0.2699 -0.4141
 3782SOL    HW122805   3.224   0.651   2.870  1.6844  0.5475 -0.0417
 3782SOL    HW222806   3.251   0.540   2.963  0.8872  0.0412 -1.2725
 3783SOL     OW22807   1.999   1.274   2.854 -0.1652 -0.3903  0.1305
 3783SOL    HW122808   2.053   1.195   2.852  0.4963  0.2179 -6.5104
 3783SOL    HW222809   1.917   1.243   2.892 -0.0842 -2.5526 -1.4908
 3784SOL     OW22810   1.233   3.876   3.148 -0.2699  0.1654 -0.6040
 3784SOL    HW122811   1.263   3.965   3.166  2.9799 -1.0483  0.1631
 3784SOL    HW222812   1.255   3.859   3.057  2.5517 -1.7950  0.4292
 3785SOL     OW22813   4.475   2.223   7.594  0.1128 -1.4440  0.0363
 3785SOL    HW122814   4.561   2.193   7.622  1.3494  1.5778 -0.5054
 3785SOL    HW222815   4.458   2.153   7.530 -1.1386 -2.2583  1.2714
 3786SOL     OW22816   4.097   0.989   8.710 -0.1437  0.5757 -0.2318
 3786SOL    HW122817   4.107   1.077   8.744  0.2194  0.0691  0.9632
 3786SOL    HW222818   4.107   0.998   8.615 -0.6417  1.8121 -0.1621
 3787SOL     OW22819   0.833   0.563   1.882 -0.1703 -0.1856  0.4898
 3787SOL    HW122820   0.804   0.624   1.814  0.2171  1.1591  1.5333
 3787SOL    HW222821   0.893   0.505   1.834 -0.9464 -1.3845  0.9845
 3788SOL     OW22822   0.557   3.124   1.164 -0.6229 -0.7341  0.4294
 3788SOL    HW122823   0.553   3.032   1.139  2.1085 -0.6522 -0.2903
 3788SOL    HW222824   0.594   3.108   1.251 -0.0777  1.6187  0.6275
 3789SOL     OW22825   3.403   0.158   3.994 -0.4428 -0.5548  0.1990
 3789SOL    HW122826   3.316   0.129   3.966  0.5986 -3.0701 -0.3852
 3789SOL    HW222827   3.429   0.087   4.052  1.5790 -0.0423 -0.0682
 3790SOL     OW22828   3.105   2.419  12.794  0.2308 -0.3994  0.1465
 3790SOL    HW122829   3.146   2.500  12.824 -0.9715 -0.9156  3.1188
 3790SOL    HW222830   3.144   2.405  12.707  0.5398  1.2274  0.0239
 3791SOL     OW22831   3.074   2.185   6.479  0.0954  0.2744 -0.4926
 3791SOL    HW122832   3.164   2.184   6.512  0.9557 -0.8583 -2.8935
 3791SOL    HW222833   3.033   2.109   6.521  0.1580  0.3891 -0.2257
 3792SOL     OW22834   4.169   0.926  11.906 -0.0468  0.5152  0.1216
 3792SOL    HW122835   4.155   0.884  11.821 -1.1071 -1.4818  1.2820
 3792SOL    HW222836   4.224   1.003  11.888  0.7319  0.1111  0.7424
 3793SOL     OW22837   1.215   4.302  17.471 -0.5349  0.4814 -0.3174
 3793SOL    HW122838   1.275   4.377  17.472  0.6051 -0.3674 -2.9069
 3793SOL    HW222839   1.272   4.235  17.510 -0.8352  0.8959  0.8280
 3794SOL     OW22840   3.118   0.427   4.004 -0.4038 -0.4959 -0.5164
 3794SOL    HW122841   3.158   0.424   4.091  0.6939 -1.4618 -1.0552
 3794SOL    HW222842   3.047   0.365   4.019 -0.7330  0.1231  0.4893
 3795SOL     OW22843   0.675   3.113   3.329  1.0392  0.0289  0.8854
 3795SOL    HW122844   0.757   3.077   3.364  0.7631 -0.8214  0.6657
 3795SOL    HW222845   0.691   3.083   3.240 -1.3734  1.1034  0.1124
 3796SOL     OW22846   2.422   2.623   4.402 -0.3955  0.1765 -0.4714
 3796SOL    HW122847   2.456   2.561   4.338 -0.0506 -0.5667  0.4473
 3796SOL    HW222848   2.342   2.642   4.351  0.7012  1.1259 -1.8374
 3797SOL     OW22849   1.757   4.275   7.445 -0.0706  0.2117  0.3442
 3797SOL    HW122850   1.775   4.366   7.467 -0.3241  1.0577 -2.8653
 3797SOL    HW222851   1.680   4.293   7.391 -0.8550 -0.1785  1.3269
 3798SOL     OW22852   3.675   0.815   1.709  0.0801 -0.1600 -0.2383
 3798SOL    HW122853   3.618   0.747   1.675 -2.0033  0.3921  2.1862
 3798SOL    HW222854   3.707   0.776   1.790  1.6399  1.5972  0.0138
 3799SOL     OW22855   0.520   4.142   1.958 -0.1141 -0.2732  0.3028
 3799SOL    HW122856   0.495   4.191   1.879 -1.6447 -0.6437  0.5451
 3799SOL    HW222857   0.535   4.213   2.019  0.7640  1.7313 -2.2526
 3800SOL     OW22858   3.145   0.766   5.965  0.4432  0.0992  0.4547
 3800SOL    HW122859   3.211   0.701   5.943  0.4902  0.7957 -1.4267
 3800SOL    HW222860   3.107   0.739   6.048 -0.3408  1.5591  0.5818
 3801SOL     OW22861   4.326   3.643   3.950 -0.6929  0.4800 -0.6411
 3801SOL    HW122862   4.327   3.555   3.989  0.0327  0.2050 -1.2820
 3801SOL    HW222863   4.414   3.646   3.913  0.2253  2.3257  1.6893
 3802SOL     OW22864   3.456   4.310   3.342  0.5129 -0.5797 -0.3721
 3802SOL    HW122865   3.424   4.264   3.265  1.5442 -0.2495 -1.0009
 3802SOL    HW222866   3.370   4.338   3.373  1.9865  4.3599 -0.7841
 3803SOL     OW22867   4.067   0.009  14.893  0.4775 -0.0630  0.3198
 3803SOL    HW122868   4.027   0.094  14.911  0.5571 -0.2330  1.2773
 3803SOL    HW222869   4.014   4.683  14.951  1.2784 -0.6953  0.4521
 3804SOL     OW22870   3.377   2.831   8.416 -0.0182 -0.0806  0.2012
 3804SOL    HW122871   3.359   2.892   8.344  1.5713  0.3943  0.2080
 3804SOL    HW222872   3.450   2.872   8.462 -0.0742  0.2899 -0.0370
 3805SOL     OW22873   3.928   0.244   3.256  0.3286 -0.4788  0.6886
 3805SOL    HW122874   3.904   0.190   3.332  3.5549 -1.7561  0.8150
 3805SOL    HW222875   3.845   0.278   3.224 -0.3277 -1.9214  0.8255
 3806SOL     OW22876   4.150   1.657  14.812 -0.2389 -0.2772  0.3048
 3806SOL    HW122877   4.055   1.643  14.810 -0.1858 -0.5326 -0.3986
 3806SOL    HW222878   4.187   1.600  14.745 -0.6264 -1.6617  1.2574
 3807SOL     OW22879   1.394   0.136   5.702  0.5537 -0.0740  0.1714
 3807SOL    HW122880   1.444   0.192   5.643  0.9351 -0.0405  0.5263
 3807SOL    HW222881   1.403   0.174   5.790  1.8694  0.3132 -0.1251
 3808SOL     OW22882   0.157   3.143   5.090 -1.0631 -0.4734  0.5449
 3808SOL    HW122883   0.222   3.113   5.154  0.8042  0.2883 -0.9973
 3808SOL    HW222884   0.212   3.194   5.030  0.1721 -1.7182  0.5918
 3809SOL     OW22885   3.030   3.802  12.911 -0.4718 -0.1609 -0.2678
 3809SOL    HW122886   2.986   3.849  12.981  2.9293 -0.1667  1.8814
 3809SOL    HW222887   2.964   3.783  12.844  0.4009  0.9033 -1.4105
 3810SOL     OW22888   4.050   4.251   8.268  0.1887  0.1132 -0.1914
 3810SOL    HW122889   3.966   4.206   8.271 -0.6912  1.7325 -0.3461
 3810SOL    HW222890   4.038   4.329   8.323  0.5757  0.1733 -0.1878
 3811SOL     OW22891   0.958   3.712   8.751 -0.0142 -0.6039  0.0206
 3811SOL    HW122892   0.936   3.624   8.720  1.1527 -1.4642  1.6556
 3811SOL    HW222893   1.048   3.735   8.729  0.1129 -1.3936 -0.2863
 3812SOL     OW22894   0.370   3.296   2.791  0.2712 -0.1684  0.9099
 3812SOL    HW122895   0.415   3.224   2.748 -1.5985  0.1299 -1.5369
 3812SOL    HW222896   0.378   3.364   2.725  2.4092 -0.7217  0.6025
 3813SOL     OW22897   0.549   3.832   0.141 -0.1063 -0.2711  0.3717
 3813SOL    HW122898   0.469   3.847   0.090  0.5477  1.4530 -0.1492
 3813SOL    HW222899   0.607   3.812   0.067  0.6544  1.0967  0.6001
 3814SOL     OW22900   0.302   1.738  12.064  0.0650  0.1638  0.1048
 3814SOL    HW122901   0.216   1.778  12.051  0.7002  1.4783 -0.0946
 3814SOL    HW222902   0.360   1.814  12.052  2.6345 -1.7397  0.4586
 3815SOL     OW22903   0.504   1.036  14.607  0.3606  0.5792 -0.6061
 3815SOL    HW122904   0.516   0.944  14.629 -1.1619  0.6314  0.4009
 3815SOL    HW222905   0.593   1.047  14.574  1.4648  0.5419  2.2993
 3816SOL     OW22906   4.660   1.064  10.313  0.5399  0.2203 -0.0039
 3816SOL    HW122907   4.685   1.151  10.280 -1.3615  0.8538  0.2404
 3816SOL    HW222908   0.015   1.039  10.355  0.5782 -0.3174 -0.3992
 3817SOL     OW22909   0.924   3.651  12.887  0.4442 -0.0821  0.6533
 3817SOL    HW122910   0.854   3.586  12.897  0.8618 -0.8227 -1.1183
 3817SOL    HW222911   0.982   3.609  12.950  1.6253  0.0810 -0.3163
 3818SOL     OW22912   4.215   1.591  14.531  0.0335 -0.4442  0.4137
 3818SOL    HW122913   4.170   1.621  14.452 -0.9575  0.3025  1.2626
 3818SOL    HW222914   4.295   1.644  14.523 -1.9505  2.5370  0.3251
 3819SOL     OW22915   2.911   3.968   2.714  0.4012 -0.1027 -0.0422
 3819SOL    HW122916   2.873   3.892   2.758  0.3075  0.3258  0.6083
 3819SOL    HW222917   2.839   4.023   2.685  0.4869 -0.2776 -0.5976
 3820SOL     OW22918   3.572   4.097   2.258  0.6938 -0.1320  0.5483
 3820SOL    HW122919   3.637   4.069   2.323  0.8601 -1.0011 -0.0043
 3820SOL    HW222920   3.582   4.033   2.188 -1.2054 -0.5119  0.6235
 3821SOL     OW22921   1.964   1.419   2.603  0.1433 -0.1846  0.4175
 3821SOL    HW122922   1.945   1.374   2.685 -1.0612  1.6120  1.1271
 3821SOL    HW222923   1.999   1.344   2.554  0.0722 -1.6445  2.5848
 3822SOL     OW22924   4.596   4.695   9.221 -0.5318 -0.1763 -0.1885
 3822SOL    HW122925   4.603   0.023   9.299 -2.6589  0.1593 -0.2468
 3822SOL    HW222926   4.605   4.609   9.262  0.7647  0.8709  1.7469
 3823SOL     OW22927   4.001   3.675   3.253  0.1614  0.5732  0.0234
 3823SOL    HW122928   4.020   3.583   3.269  0.0643  0.3758 -0.9891
 3823SOL    HW222929   4.017   3.711   3.340  1.0511 -0.0817  0.1292
 3824SOL     OW22930   0.701   3.881   3.254  0.1506 -0.7266 -0.0484
 3824SOL    HW122931   0.683   3.807   3.196  0.6680 -0.2307 -0.8221
 3824SOL    HW222932   0.667   3.858   3.341  0.0763 -1.3552 -0.2428
 3825SOL     OW22933   0.443   4.606   6.692 -0.6376  0.2166  0.0151
 3825SOL    HW122934   0.424   4.661   6.768 -0.4014  0.3392 -0.0174
 3825SOL    HW222935   0.512   4.657   6.649 -0.2636  0.9752  1.5424
 3826SOL     OW22936   0.650   4.302   5.536  0.1283  0.6208 -0.5401
 3826SOL    HW122937   0.636   4.253   5.455  0.8466 -0.2989 -0.1024
 3826SOL    HW222938   0.741   4.326   5.518  0.5684 -0.3563  0.3705
 3827SOL     OW22939   0.581   1.112   8.329 -0.9084 -0.0931  0.0329
 3827SOL    HW122940   0.633   1.091   8.252 -1.6137 -2.0774  0.0961
 3827SOL    HW222941   0.626   1.061   8.396 -0.5510 -0.5573 -0.5648
 3828SOL     OW22942   0.814   1.433   8.951 -0.0566 -0.3248  0.0819
 3828SOL    HW122943   0.800   1.351   8.998 -1.1257  0.1849  0.6691
 3828SOL    HW222944   0.745   1.417   8.886  0.5567  0.3035 -0.7272
 3829SOL     OW22945   3.156   0.280   8.549 -0.2389 -0.1075  0.0844
 3829SOL    HW122946   3.201   0.247   8.471  2.0510  1.0493  0.9133
 3829SOL    HW222947   3.101   0.205   8.570 -2.0127  0.0828 -3.7742
 3830SOL     OW22948   3.133   2.471   2.250 -0.1952 -0.0878 -0.5263
 3830SOL    HW122949   3.066   2.403   2.257  1.6688 -2.1725 -2.5683
 3830SOL    HW222950   3.193   2.434   2.184 -1.7884  2.0650 -3.1859
 3831SOL     OW22951   0.966   4.461  10.173 -0.1238  0.0768 -0.0130
 3831SOL    HW122952   0.978   4.367  10.180  1.4281  0.3534  1.0198
 3831SOL    HW222953   0.968   4.468  10.077  0.5358 -0.4204 -0.0324
 3832SOL     OW22954   3.614   3.697   2.990 -0.2459 -0.5660  0.1486
 3832SOL    HW122955   3.643   3.709   2.900  0.5608 -2.0771  0.2006
 3832SOL    HW222956   3.649   3.775   3.033  0.3600 -0.7855  0.0554
 3833SOL     OW22957   3.968   1.659   5.810  0.0559 -0.3145 -0.1455
 3833SOL    HW122958   3.997   1.616   5.891 -2.4686 -0.6509  0.6094
 3833SOL    HW222959   3.878   1.627   5.801 -0.0859  0.0978 -0.1796
 3834SOL     OW22960   1.262   2.367  11.321  0.0065 -0.5748  0.0661
 3834SOL    HW122961   1.353   2.397  11.319 -0.5628  1.1609  0.6529
 3834SOL    HW222962   1.259   2.316  11.402 -2.5273 -0.8781 -0.2029
 3835SOL     OW22963   1.885   4.050   1.720  0.2528 -0.0599  0.4644
 3835SOL    HW122964   1.796   4.016   1.730 -0.2833  1.1504 -0.1103
 3835SOL    HW222965   1.881   4.133   1.768  0.3533  0.6338 -0.7281
 3836SOL     OW22966   0.996   0.602   9.284 -0.0449 -0.0599  0.3673
 3836SOL    HW122967   1.076   0.571   9.326  1.1012  2.3284 -0.0330
 3836SOL    HW222968   1.035   0.663   9.220 -0.0631 -0.7472 -0.3054
 3837SOL     OW22969   4.622   1.297   8.811  0.4903  0.0636 -0.0010
 3837SOL    HW122970   4.640   1.390   8.827  0.2637  0.1806 -0.4201
 3837SOL    HW222971   4.704   1.275   8.767  0.8326 -0.4502  0.8934
 3838SOL     OW22972   2.218   0.321   1.023 -0.6470  0.0761 -0.0198
 3838SOL    HW122973   2.195   0.233   0.993  1.4142  0.4336 -2.6162
 3838SOL    HW222974   2.157   0.333   1.096 -1.1145 -0.2464 -0.3594
 3839SOL     OW22975   4.583   0.986   1.981  0.0247  0.0761  0.3953
 3839SOL    HW122976   4.571   1.074   2.015 -1.2693  0.0437  0.0240
 3839SOL    HW222977   4.632   0.999   1.900  1.4010 -1.0659  1.0353
 3840SOL     OW22978   1.477   4.491   6.349  0.0632  0.5814 -0.6911
 3840SOL    HW122979   1.465   4.499   6.444  2.8688 -0.1932 -0.2668
 3840SOL    HW222980   1.546   4.426   6.342  0.3029  0.5249  2.1125
 3841SOL     OW22981   1.632   1.756   1.865 -0.4099  0.1283 -0.4451
 3841SOL    HW122982   1.565   1.687   1.862 -0.9535  0.6268  0.1641
 3841SOL    HW222983   1.694   1.712   1.923  0.6001  0.9313 -0.9404
 3842SOL     OW22984   1.774   0.251  15.475 -0.1981 -0.3655  0.5153
 3842SOL    HW122985   1.844   0.275  15.413 -3.7035 -0.0873 -3.3436
 3842SOL    HW222986   1.817   0.177  15.518 -0.7461 -0.7140  0.4520
 3843SOL     OW22987   1.762   0.405   0.064  0.4519  0.5008 -0.1771
 3843SOL    HW122988   1.714   0.346   0.122  0.7411  0.7769  0.3447
 3843SOL    HW222989   1.706   0.382  17.702 -1.0202 -1.8899  1.6672
 3844SOL     OW22990   0.924   1.390   5.240  0.9434 -0.4096 -0.2395
 3844SOL    HW122991   0.969   1.449   5.301 -0.5141  2.1273 -1.6266
 3844SOL    HW222992   0.977   1.390   5.160 -2.4113 -1.9272 -2.4692
 3845SOL     OW22993   3.349   4.590   4.804 -0.1926 -0.2039  0.0649
 3845SOL    HW122994   3.387   4.609   4.890  0.8061 -0.5560 -0.2965
 3845SOL    HW222995   3.266   4.552   4.834 -0.4080 -1.0916 -1.6581
 3846SOL     OW22996   1.866   3.374   5.000  0.2589 -0.3627 -0.2477
 3846SOL    HW122997   1.954   3.378   4.962  1.3824 -2.0467  2.1261
 3846SOL    HW222998   1.875   3.447   5.062  3.8063 -1.7366  0.8549
 3847SOL     OW22999   2.180   2.094   0.339  0.0032  0.3309 -0.3276
 3847SOL    HW123000   2.275   2.106   0.350  0.0055 -1.7709  2.0452
 3847SOL    HW223001   2.173   2.016   0.285  0.9467 -0.8166  1.2084
 3848SOL     OW23002   0.187   0.577   5.122 -0.6746 -0.2549 -0.4582
 3848SOL    HW123003   0.113   0.519   5.138 -0.5604 -0.2351  0.1460
 3848SOL    HW223004   0.217   0.609   5.207 -2.1397  0.3335 -0.1447
 3849SOL     OW23005   4.352   2.737   3.016 -0.8261  0.1956  0.2454
 3849SOL    HW123006   4.442   2.737   2.985 -0.6401 -2.3571  0.7273
 3849SOL    HW223007   4.321   2.824   2.992  2.2006  0.5567 -2.2990
 3850SOL     OW23008   3.623   0.562   3.099 -0.1445  0.1651  0.3958
 3850SOL    HW123009   3.542   0.608   3.076  0.3956  0.2538 -1.3692
 3850SOL    HW223010   3.666   0.611   3.169  0.6016  1.5041 -0.9901
 3851SOL     OW23011   0.392   3.514   0.599  0.1019 -0.0097  0.1016
 3851SOL    HW123012   0.335   3.485   0.669 -3.1962  1.4402 -2.0066
 3851SOL    HW223013   0.463   3.450   0.606  0.1006 -0.2676 -2.1195
 3852SOL     OW23014   0.475   1.429  16.877 -0.5632 -0.0799 -0.0567
 3852SOL    HW123015   0.562   1.423  16.838 -0.7085  0.8788 -0.5157
 3852SOL    HW223016   0.427   1.457  16.800 -0.3721 -0.8663 -0.4591
 3853SOL     OW23017   1.464   4.421   4.710  0.2212 -0.1706  0.0633
 3853SOL    HW123018   1.518   4.386   4.640 -1.4138 -2.5691  0.0268
 3853SOL    HW223019   1.379   4.419   4.666  0.5703 -0.2184 -0.5973
 3854SOL     OW23020   2.207   4.261   2.777  0.2787 -0.0363 -0.6388
 3854SOL    HW123021   2.204   4.246   2.872 -1.2153  1.6135 -0.4329
 3854SOL    HW223022   2.302   4.256   2.762  0.4910 -0.8369  0.9261
 3855SOL     OW23023   0.614   2.936  11.467  0.2703  0.0974 -0.0975
 3855SOL    HW123024   0.540   2.983  11.504 -0.5506 -1.3633  0.1418
 3855SOL    HW223025   0.593   2.843  11.479  0.5978  0.0458  0.0755
 3856SOL     OW23026   3.022   4.108   3.913  0.2414 -0.2073 -0.0317
 3856SOL    HW123027   3.115   4.087   3.906  0.8413  2.3828  0.0158
 3856SOL    HW223028   3.030   4.201   3.937  0.6886 -0.4777  0.8495
 3857SOL     OW23029   3.069   3.172  17.467  0.1254 -0.0048  0.7961
 3857SOL    HW123030   3.049   3.079  17.458 -1.6770  0.2987  1.7429
 3857SOL    HW223031   3.089   3.182  17.560 -3.0920  1.3247  1.3177
 3858SOL     OW23032   0.950   3.073   3.400 -0.1347 -0.2392 -0.1790
 3858SOL    HW123033   0.960   3.028   3.317 -0.8663  0.0532 -0.4240
 3858SOL    HW223034   1.024   3.045   3.454  1.0798 -1.6307 -2.5846
 3859SOL     OW23035   1.972   3.262  16.071  0.2439 -0.6788 -0.3461
 3859SOL    HW123036   1.924   3.283  15.992  1.5994  0.3338 -0.8992
 3859SOL    HW223037   1.901   3.273  16.135 -1.4396 -1.4735 -2.0991
 3860SOL     OW23038   1.566   4.379   1.206  0.1618 -0.6550 -0.3132
 3860SOL    HW123039   1.656   4.347   1.205  1.2988  2.6543 -2.5535
 3860SOL    HW223040   1.509   4.302   1.211  0.2111 -0.7256 -0.8194
 3861SOL     OW23041   4.453   2.558  17.396 -0.4285  0.2990 -0.1913
 3861SOL    HW123042   4.383   2.496  17.378 -0.6048  0.7641 -1.0929
 3861SOL    HW223043   4.501   2.511  17.464 -2.3822 -1.1775  0.1786
 3862SOL     OW23044   2.853   4.436  11.954  0.8218 -0.5533 -1.0070
 3862SOL    HW123045   2.840   4.347  11.988  0.5795 -0.6276 -1.2934
 3862SOL    HW223046   2.947   4.444  11.939  0.6419  0.0722 -1.8218
 3863SOL     OW23047   3.612   4.618  11.645 -0.5119 -0.1426 -0.1513
 3863SOL    HW123048   3.666   4.618  11.566  0.9195 -1.3532  0.8253
 3863SOL    HW223049   3.674   4.646  11.712 -1.0079  1.4910 -0.3743
 3864SOL     OW23050   2.115   4.198   3.042  0.5416  0.5005 -0.2041
 3864SOL    HW123051   2.138   4.105   3.052 -2.0791 -0.0564  0.8335
 3864SOL    HW223052   2.058   4.207   3.118 -1.2601  0.7768 -1.5782
 3865SOL     OW23053   1.732   1.053  16.438  0.5589 -0.8951  0.1766
 3865SOL    HW123054   1.696   1.137  16.410  0.6929 -0.8560  0.1257
 3865SOL    HW223055   1.773   1.067  16.523 -0.0222 -0.5988  0.4058
 3866SOL     OW23056   2.149   0.178  13.563 -0.5730 -0.2678  1.3756
 3866SOL    HW123057   2.209   0.171  13.637 -1.0763 -1.7548  1.6348
 3866SOL    HW223058   2.098   0.099  13.578  0.6208 -1.5034 -1.1825
 3867SOL     OW23059   1.861   2.184   4.693  0.4006 -0.0549 -0.1284
 3867SOL    HW123060   1.942   2.171   4.743  0.5472  0.8417 -0.1317
 3867SOL    HW223061   1.804   2.153   4.764 -1.9706  0.3596 -1.8518
 3868SOL     OW23062   2.778   1.268  16.871  0.2325 -0.4049 -0.1870
 3868SOL    HW123063   2.838   1.302  16.805  1.8683 -0.4984  1.2345
 3868SOL    HW223064   2.825   1.281  16.954  0.7967 -0.4703 -0.4943
 3869SOL     OW23065   1.431   4.168   8.929  0.4419  0.1284 -0.1948
 3869SOL    HW123066   1.452   4.254   8.893  1.0524 -0.6314 -1.6985
 3869SOL    HW223067   1.340   4.169   8.958  1.0766  1.2498  1.7219
 3870SOL     OW23068   2.919   1.758   0.814 -0.3293  0.3205 -0.3371
 3870SOL    HW123069   2.990   1.718   0.764 -0.5983  1.4819 -1.6419
 3870SOL    HW223070   2.953   1.734   0.900 -2.4560  2.1694  1.0097
 3871SOL     OW23071   0.797   3.251   7.705 -0.3476  0.0181  0.0116
 3871SOL    HW123072   0.825   3.190   7.637 -2.9884  0.3751 -1.4008
 3871SOL    HW223073   0.714   3.215   7.739 -0.6485  0.8140  0.1365
 3872SOL     OW23074   3.645   1.811  14.231  0.0521 -0.2651  0.0560
 3872SOL    HW123075   3.631   1.717  14.246  0.3267 -0.1798  0.8443
 3872SOL    HW223076   3.572   1.856  14.273  2.0050  0.7954  2.3409
 3873SOL     OW23077   2.225   1.085  17.463 -0.0661  0.0152 -0.7795
 3873SOL    HW123078   2.262   1.161  17.418  0.4408 -0.2424 -0.7955
 3873SOL    HW223079   2.169   1.051  17.393 -0.8927  0.7728 -0.4932
 3874SOL     OW23080   0.100   4.645  16.291 -0.2863  0.3477  0.2816
 3874SOL    HW123081   0.083   4.634  16.198 -1.2349  1.1240  0.3626
 3874SOL    HW223082   0.177   4.589  16.298 -1.0236 -0.4910  1.8574
 3875SOL     OW23083   0.612   2.587   2.146  0.2986  0.2306 -0.2520
 3875SOL    HW123084   0.617   2.553   2.056 -1.1998  0.0581 -0.2711
 3875SOL    HW223085   0.649   2.675   2.139 -0.4483  0.5605 -0.0332
 3876SOL     OW23086   3.138   4.327   7.648 -0.1954  0.0449  0.5066
 3876SOL    HW123087   3.092   4.255   7.690  1.6088 -0.2948  1.9121
 3876SOL    HW223088   3.120   4.405   7.701  1.9695 -0.6007  2.2242
 3877SOL     OW23089   4.020   3.391   3.314 -0.5437 -0.1577 -0.5793
 3877SOL    HW123090   4.096   3.333   3.309  0.2744  0.7783  1.3481
 3877SOL    HW223091   3.994   3.397   3.222 -1.4166 -1.9595 -0.4532
 3878SOL     OW23092   2.449   1.797  15.731  0.2270  0.2997 -0.2012
 3878SOL    HW123093   2.441   1.762  15.820  1.3837 -0.1734 -0.2864
 3878SOL    HW223094   2.516   1.734  15.706  0.7844  0.8853 -0.1849
 3879SOL     OW23095   0.469   4.726   5.255 -0.1812  0.0331  0.2265
 3879SOL    HW123096   0.401   4.659   5.246 -0.6009  0.4662  0.1596
 3879SOL    HW223097   0.503   4.715   5.166  1.6937 -0.3129  0.9898
 3880SOL     OW23098   4.044   2.853   5.383 -0.2524 -0.0426  0.6698
 3880SOL    HW123099   4.136   2.869   5.405  0.8784 -2.1468 -2.6241
 3880SOL    HW223100   4.048   2.890   5.295 -1.0590 -2.3661 -0.3381
 3881SOL     OW23101   2.607   2.414  15.259 -0.1276 -0.0223  0.0713
 3881SOL    HW123102   2.649   2.473  15.322 -2.6536  1.3742  0.4608
 3881SOL    HW223103   2.653   2.331  15.274  0.3917  0.3695  0.6567
 3882SOL     OW23104   0.266   2.005   1.547  0.7724  0.1826  0.7619
 3882SOL    HW123105   0.242   1.942   1.479 -0.8178  1.1341  0.4317
 3882SOL    HW223106   0.359   2.015   1.528  0.3245 -0.5941 -1.8668
 3883SOL     OW23107   1.698   4.060   9.384  0.7290  0.0081  0.0092
 3883SOL    HW123108   1.693   3.994   9.315 -0.2643 -0.5387  0.6083
 3883SOL    HW223109   1.682   4.007   9.462 -1.7607  0.3834 -0.2249
 3884SOL     OW23110   4.065   4.193   2.582  0.4218  0.1156 -0.4148
 3884SOL    HW123111   4.042   4.167   2.672  2.2431 -0.2109 -0.0389
 3884SOL    HW223112   3.991   4.251   2.563  0.4722  0.0345 -0.8652
 3885SOL     OW23113   3.078   4.514   4.585 -0.1253  0.3724 -0.5588
 3885SOL    HW123114   2.983   4.509   4.571 -0.3833  0.3557  1.1890
 3885SOL    HW223115   3.089   4.598   4.630  2.5802 -0.9804  1.2740
 3886SOL     OW23116   0.126   2.642   3.936 -0.0331  0.3718 -0.0981
 3886SOL    HW123117   0.192   2.575   3.922  2.5110  2.5833  1.2769
 3886SOL    HW223118   0.072   2.596   4.000 -0.0347 -3.5230 -2.9604
 3887SOL     OW23119   1.868   1.977  15.233 -0.3450 -0.0487 -0.3450
 3887SOL    HW123120   1.898   2.053  15.183  1.9137 -0.8635 -0.2003
 3887SOL    HW223121   1.778   2.008  15.242 -0.6149 -0.7537 -0.6572
 3888SOL     OW23122   0.231   2.703   9.177 -0.2819 -0.5281 -0.1255
 3888SOL    HW123123   0.159   2.646   9.203  0.7738 -1.0323  1.6934
 3888SOL    HW223124   0.190   2.788   9.193 -1.5557 -1.5844  2.0485
 3889SOL     OW23125   3.214   3.692   5.098  0.5604 -0.3920  0.4168
 3889SOL    HW123126   3.182   3.613   5.142  1.2730 -0.4093  0.8998
 3889SOL    HW223127   3.158   3.766   5.123 -1.1048 -1.2988 -0.5846
 3890SOL     OW23128   1.784   1.695   5.098  0.1624  0.6063 -0.4722
 3890SOL    HW123129   1.767   1.713   5.190 -1.7740  0.7187 -0.8534
 3890SOL    HW223130   1.699   1.706   5.054  0.0094  0.8842 -0.1038
 3891SOL     OW23131   3.508   1.864  13.496  0.0176  0.0409 -0.2627
 3891SOL    HW123132   3.440   1.923  13.529  0.1664 -1.2240  2.2583
 3891SOL    HW223133   3.490   1.781  13.540  3.4216 -0.3137  0.4379
 3892SOL     OW23134   0.812   2.208   1.529 -0.2866 -0.2570 -0.3281
 3892SOL    HW123135   0.803   2.208   1.433 -1.3231 -4.0810 -0.2440
 3892SOL    HW223136   0.907   2.213   1.539 -0.5298 -0.1707  1.8683
 3893SOL     OW23137   1.436   3.668   3.130  0.1715  0.0233 -0.1223
 3893SOL    HW123138   1.466   3.744   3.080  0.2002 -0.0522 -0.2210
 3893SOL    HW223139   1.499   3.597   3.115 -0.1924 -0.1816 -0.6637
 3894SOL     OW23140   3.470   0.610   3.732 -0.0860  0.0869 -0.5338
 3894SOL    HW123141   3.479   0.685   3.791 -1.8796 -0.8637  0.9257
 3894SOL    HW223142   3.425   0.544   3.784 -1.2377  1.0169 -0.3620
 3895SOL     OW23143   0.192   0.200   3.193  0.2219 -0.7131 -0.7146
 3895SOL    HW123144   0.235   0.279   3.225 -2.2153  0.4822 -0.4232
 3895SOL    HW223145   0.265   0.159   3.146 -0.2409 -0.5071 -1.6184
 3896SOL     OW23146   3.506   2.154  10.271  0.4113 -0.7525 -0.6557
 3896SOL    HW123147   3.538   2.081  10.323  0.4664 -1.7226 -2.0595
 3896SOL    HW223148   3.586   2.204  10.254  0.7553 -0.5473  1.5931
 3897SOL     OW23149   3.404   3.571   3.321 -0.4542  0.5608 -0.2587
 3897SOL    HW123150   3.360   3.536   3.398 -0.3362  0.2942 -0.3135
 3897SOL    HW223151   3.478   3.512   3.308 -2.9639 -2.4539 -0.7100
 3898SOL     OW23152   1.936   0.968  12.459  0.3331  0.2400 -0.8591
 3898SOL    HW123153   1.892   1.048  12.430  1.0629  0.4593 -1.3645
 3898SOL    HW223154   1.911   0.910  12.387  0.5844  0.6630 -1.2843
 3899SOL     OW23155   2.915   3.486   4.858  0.8720  0.3558 -0.8207
 3899SOL    HW123156   3.003   3.458   4.880  0.3895 -1.2910 -0.9258
 3899SOL    HW223157   2.930   3.573   4.822 -0.8894  0.7555 -0.5952
 3900SOL     OW23158   4.054   4.609  12.509  0.2240 -0.4660 -0.1318
 3900SOL    HW123159   4.041   4.655  12.592 -0.6232  2.1450 -1.7301
 3900SOL    HW223160   4.110   4.668  12.458 -1.9561  0.5708 -1.3173
 3901SOL     OW23161   2.302   1.752   1.821 -0.2212  0.1995  0.5763
 3901SOL    HW123162   2.276   1.723   1.733  0.8979 -1.1405  0.7028
 3901SOL    HW223163   2.351   1.678   1.856 -2.0986 -1.2791  0.1120
 3902SOL     OW23164   2.217   4.404  15.844  0.0574 -0.6548 -0.4813
 3902SOL    HW123165   2.304   4.438  15.827  0.1795 -0.4131  0.6062
 3902SOL    HW223166   2.168   4.395  15.763 -0.0980 -0.6342 -0.3898
 3903SOL     OW23167   1.335   4.169  12.913  1.0585  0.4967 -0.3361
 3903SOL    HW123168   1.428   4.190  12.912  1.4416 -1.2863 -1.2096
 3903SOL    HW223169   1.301   4.248  12.955  0.2253  0.5281 -1.0713
 3904SOL     OW23170   3.956   4.607   4.101 -0.1307  0.6982  0.4185
 3904SOL    HW123171   3.933   4.576   4.014  1.2120  2.5159 -0.5587
 3904SOL    HW223172   3.889   4.673   4.121 -0.4772  0.7300 -0.8455
 3905SOL     OW23173   1.372   3.903   8.946  0.3325  0.5010  0.0127
 3905SOL    HW123174   1.434   3.859   8.888 -0.4695 -0.0314 -0.4455
 3905SOL    HW223175   1.409   3.991   8.944  2.1983 -0.2698  0.4982
 3906SOL     OW23176   2.925   3.395   8.395 -0.2670 -0.3319  0.6179
 3906SOL    HW123177   2.887   3.428   8.313 -0.3351 -0.9315  0.4080
 3906SOL    HW223178   2.843   3.398   8.445 -1.2518 -1.8338 -0.9062
 3907SOL     OW23179   4.308   4.147   6.885  0.0123 -0.3049  0.1672
 3907SOL    HW123180   4.396   4.131   6.853  0.1225 -0.0954  0.3645
 3907SOL    HW223181   4.303   4.068   6.939  0.2046 -0.2350  0.2864
 3908SOL     OW23182   4.147   1.144   8.205 -0.2351  0.0512 -0.1375
 3908SOL    HW123183   4.230   1.097   8.212  0.3819  1.5685  2.5786
 3908SOL    HW223184   4.093   1.086   8.150  0.0636  0.2154 -0.6085
 3909SOL     OW23185   4.331   1.079   7.879  0.1293 -0.2178  0.0520
 3909SOL    HW123186   4.328   0.983   7.874 -1.5198 -0.1814  0.3827
 3909SOL    HW223187   4.281   1.100   7.800 -1.2927 -0.1012  0.9812
 3910SOL     OW23188   1.844   3.902   6.132 -0.2084  0.2517  0.0276
 3910SOL    HW123189   1.788   3.830   6.161  1.9324 -1.1126  0.8144
 3910SOL    HW223190   1.887   3.863   6.056  0.5143  0.5991  0.2567
 3911SOL     OW23191   3.276   4.172   2.686 -0.6272  0.1821 -0.3783
 3911SOL    HW123192   3.261   4.263   2.711 -0.2569  0.0559  0.2931
 3911SOL    HW223193   3.335   4.180   2.611 -0.5038  1.1292 -0.1769
 3912SOL     OW23194   3.247   2.186   5.335 -0.1581  0.0309 -0.5525
 3912SOL    HW123195   3.272   2.277   5.319 -1.0905  0.4875  0.5235
 3912SOL    HW223196   3.311   2.149   5.275  1.3854  1.2726  0.3564
 3913SOL     OW23197   3.381   4.354   2.974 -0.5765 -0.2615 -0.0477
 3913SOL    HW123198   3.476   4.345   2.966 -0.3287  1.4982  0.9713
 3913SOL    HW223199   3.341   4.282   3.022  0.6002  0.0391  1.3566
 3914SOL     OW23200   4.719   0.854   1.454 -0.3492 -0.5080  0.0243
 3914SOL    HW123201   4.695   0.874   1.545 -0.5506 -0.5316 -0.0243
 3914SOL    HW223202   4.683   0.766   1.447 -2.2267  0.2089  0.7624
 3915SOL     OW23203   0.906   3.923   2.414  0.2560  0.4877 -0.2288
 3915SOL    HW123204   0.885   4.006   2.372 -0.4912 -0.5533 -1.8779
 3915SOL    HW223205   0.934   3.872   2.338 -0.6756  1.8873 -1.5079
 3916SOL     OW23206   0.816   0.055   8.441  0.4113  0.3106 -0.1135
 3916SOL    HW123207   0.792   4.691   8.451  0.4112  0.4665  1.4137
 3916SOL    HW223208   0.889   0.060   8.502  1.2788 -1.9418 -0.9743
 3917SOL     OW23209   3.754   2.234  11.938 -0.0173 -0.0456  0.1255
 3917SOL    HW123210   3.850   2.228  11.936 -0.1361 -0.4992 -3.8085
 3917SOL    HW223211   3.734   2.192  11.854 -1.9372 -2.6185  1.8632
 3918SOL     OW23212   3.731   4.493  12.043 -0.2832 -0.5162 -0.1124
 3918SOL    HW123213   3.650   4.534  12.013  0.5799  1.1908 -0.1319
 3918SOL    HW223214   3.798   4.524  11.982  0.9440 -0.4789  1.2468
 3919SOL     OW23215   2.525   0.382  10.147 -0.3614  0.1350  0.2401
 3919SOL    HW123216   2.554   0.311  10.203 -0.0936 -0.9660 -1.3024
 3919SOL    HW223217   2.504   0.456  10.205  0.1551  0.5291 -0.0737
 3920SOL     OW23218   0.490   2.135   7.506 -0.2174 -0.0333 -0.0052
 3920SOL    HW123219   0.532   2.178   7.431  0.8974  1.6780  1.5776
 3920SOL    HW223220   0.562   2.138   7.569  0.8200 -0.7063 -1.1595
 3921SOL     OW23221   0.312   4.302  10.523  0.1584  0.0242  0.0956
 3921SOL    HW123222   0.321   4.374  10.584 -0.1896 -0.1526  0.3564
 3921SOL    HW223223   0.234   4.321  10.469 -0.3499  1.0424  1.1969
 3922SOL     OW23224   0.361   2.577   0.372 -0.1712 -0.1360  0.3824
 3922SOL    HW123225   0.384   2.485   0.360  1.4518  0.2724  0.3975
 3922SOL    HW223226   0.285   2.580   0.431 -1.8078  1.5500 -1.8257
 3923SOL     OW23227   1.190   4.104  15.951 -0.1836 -1.1109 -0.0103
 3923SOL    HW123228   1.240   4.138  15.877  1.0490  0.0193  1.3580
 3923SOL    HW223229   1.132   4.175  15.979  1.9795  1.7342 -2.7807
 3924SOL     OW23230   3.806   4.264   8.055 -0.3695  0.0469 -0.1031
 3924SOL    HW123231   3.814   4.199   8.125  1.2639 -1.9049 -2.0809
 3924SOL    HW223232   3.833   4.203   7.986 -0.4061 -2.1907  1.8834
 3925SOL     OW23233   0.392   2.875  14.994  0.4917  0.2222 -0.0143
 3925SOL    HW123234   0.363   2.919  15.074 -0.0143 -0.6355  0.2688
 3925SOL    HW223235   0.309   2.844  14.959  0.1082  0.9608  0.2385
 3926SOL     OW23236   4.292   3.825   9.853  0.4660 -0.1932  0.1871
 3926SOL    HW123237   4.280   3.735   9.824 -0.4244  0.3148 -1.0345
 3926SOL    HW223238   4.213   3.870   9.824  0.1013  0.5332  2.2968
 3927SOL     OW23239   2.135   3.497   9.473  0.8222 -0.0656 -0.9311
 3927SOL    HW123240   2.072   3.476   9.404  0.7188  1.7324 -1.3778
 3927SOL    HW223241   2.116   3.429   9.538 -0.1099  1.1019 -0.0020
 3928SOL     OW23242   0.472   3.700   4.170 -0.8112  0.4552  0.1515
 3928SOL    HW123243   0.528   3.767   4.130 -2.7371  2.1582  0.2708
 3928SOL    HW223244   0.430   3.761   4.230 -0.7831 -1.1683  1.8090
 3929SOL     OW23245   3.055   3.238   3.718  0.2834  0.0497 -0.3935
 3929SOL    HW123246   3.039   3.263   3.626  0.5237 -1.2969 -0.8002
 3929SOL    HW223247   3.077   3.145   3.717 -0.4026 -0.1135  1.0611
 3930SOL     OW23248   2.058   2.988   2.795 -0.0497 -0.1220  0.2473
 3930SOL    HW123249   2.013   2.908   2.823 -0.9239  0.4049  0.3273
 3930SOL    HW223250   2.149   2.967   2.818 -0.6563 -1.4143  1.4546
 3931SOL     OW23251   3.775   2.800   4.749  0.4638  0.6037 -0.3848
 3931SOL    HW123252   3.687   2.782   4.782  0.9623  1.4462  1.4131
 3931SOL    HW223253   3.769   2.803   4.654 -3.5748 -1.3128 -0.2016
 3932SOL     OW23254   3.199   2.339   7.764 -0.4159  0.0696 -0.5953
 3932SOL    HW123255   3.236   2.347   7.852  0.1084 -1.7858 -0.6429
 3932SOL    HW223256   3.272   2.379   7.717 -0.8426  0.1542 -1.1911
 3933SOL     OW23257   3.458   1.875   5.514 -0.3134  0.0766 -0.2521
 3933SOL    HW123258   3.513   1.953   5.511  0.1439 -0.1915  1.5142
 3933SOL    HW223259   3.471   1.847   5.604 -2.4768 -0.9071 -0.2497
 3934SOL     OW23260   1.562   4.182   4.243  0.0575  0.0356 -0.4997
 3934SOL    HW123261   1.635   4.226   4.199  0.7716 -0.0386  0.6364
 3934SOL    HW223262   1.598   4.131   4.314  0.1972  1.3709  0.3950
 3935SOL     OW23263   2.431   2.438   7.672 -0.1799 -0.0297  1.0081
 3935SOL    HW123264   2.522   2.468   7.681 -0.5322  1.8437 -1.6767
 3935SOL    HW223265   2.426   2.371   7.605 -2.0074 -1.5143  2.6446
 3936SOL     OW23266   0.012   2.349   6.425  0.7771  0.1947 -0.3349
 3936SOL    HW123267   4.710   2.387   6.342  0.5965 -0.7835 -0.7215
 3936SOL    HW223268   4.663   2.366   6.480  2.9021 -2.0391  3.2644
 3937SOL     OW23269   4.426   0.702   3.391  0.1755  0.3324 -0.0826
 3937SOL    HW123270   4.507   0.748   3.371  1.4550 -0.9327  2.1407
 3937SOL    HW223271   4.458   0.642   3.458  0.5330  0.6289  0.0133
 3938SOL     OW23272   1.423   1.800   4.161  0.0862 -0.5374  0.5893
 3938SOL    HW123273   1.374   1.782   4.082  0.9403 -0.1413 -0.0306
 3938SOL    HW223274   1.448   1.892   4.152 -2.3663  0.1137  0.5558
 3939SOL     OW23275   0.242   3.352   6.159  0.1713  0.1436 -0.1018
 3939SOL    HW123276   0.290   3.339   6.077 -0.8732 -0.5225 -0.5989
 3939SOL    HW223277   0.258   3.271   6.208  1.2174  0.0281 -0.6313
 3940SOL     OW23278   1.840   3.934   2.793 -0.2366  0.4566  0.2275
 3940SOL    HW123279   1.902   3.997   2.755 -0.3480 -0.8416 -2.1101
 3940SOL    HW223280   1.769   3.944   2.729  1.2622  0.6360 -1.4060
 3941SOL     OW23281   3.975   0.489   4.273  0.1975  0.1913  0.0340
 3941SOL    HW123282   3.938   0.475   4.186 -2.1997  1.9004  0.7671
 3941SOL    HW223283   4.069   0.471   4.268  0.6851  2.3480  1.4608
 3942SOL     OW23284   2.029   1.548   2.354  0.3002 -0.2024 -0.0897
 3942SOL    HW123285   1.979   1.511   2.427 -0.3173  0.2880 -0.2659
 3942SOL    HW223286   2.059   1.469   2.309 -1.5872  1.2308 -3.8720
 3943SOL     OW23287   2.094   0.589   5.080 -0.0106  0.5503 -1.0400
 3943SOL    HW123288   2.030   0.554   5.018 -0.6224  0.1680 -0.1967
 3943SOL    HW223289   2.037   0.602   5.156 -0.6614  1.3260 -1.6454
 3944SOL     OW23290   3.095   3.405  14.519 -0.4580  0.4763  0.2873
 3944SOL    HW123291   3.012   3.358  14.508 -0.6693  0.7005  0.9875
 3944SOL    HW223292   3.146   3.392  14.438 -1.3417 -0.1385 -0.1795
 3945SOL     OW23293   2.042   1.953  14.843 -0.8312  0.0810  0.3399
 3945SOL    HW123294   1.985   2.011  14.794 -0.4202  0.2965  0.1194
 3945SOL    HW223295   2.100   2.023  14.873 -1.4513  0.4421  0.7028
 3946SOL     OW23296   2.179   2.895  17.027  0.3517 -0.4545  0.2294
 3946SOL    HW123297   2.205   2.875  16.937  1.9751 -0.0119  0.6072
 3946SOL    HW223298   2.171   2.990  17.020 -1.4066 -0.7785 -2.1169
 3947SOL     OW23299   3.210   4.066   5.313 -0.1528 -0.2333 -0.0959
 3947SOL    HW123300   3.237   4.126   5.382  1.0695 -0.4425 -0.3975
 3947SOL    HW223301   3.291   4.057   5.263  0.6082  1.2346  0.8822
 3948SOL     OW23302   3.061   3.885  15.293  1.0226 -0.2141 -0.1061
 3948SOL    HW123303   3.107   3.843  15.365 -0.5413 -0.1108  0.9398
 3948SOL    HW223304   3.043   3.808  15.239  1.8448  0.1070 -0.8249
 3949SOL     OW23305   2.348   2.295  15.875  0.2698  0.5104 -0.0614
 3949SOL    HW123306   2.302   2.345  15.943 -0.7920  0.2294 -0.5840
 3949SOL    HW223307   2.282   2.226  15.867 -1.0029  1.8461 -0.8946
 3950SOL     OW23308   3.418   1.894  10.599 -0.1752 -0.2780 -0.0990
 3950SOL    HW123309   3.344   1.873  10.656 -0.9458  1.6045 -0.4383
 3950SOL    HW223310   3.425   1.989  10.605 -1.3615 -0.2979  1.4541
 3951SOL     OW23311   2.393   3.869  13.892 -0.3158 -0.3082 -0.5487
 3951SOL    HW123312   2.482   3.835  13.882 -0.6683 -0.9932 -1.3473
 3951SOL    HW223313   2.348   3.837  13.815 -0.5207 -1.9421  0.2517
 3952SOL     OW23314   3.190   4.190  16.214  0.3224 -0.1759  0.6768
 3952SOL    HW123315   3.139   4.185  16.133  0.4621 -2.0017  0.7149
 3952SOL    HW223316   3.277   4.170  16.180  0.0288 -0.2113 -0.0361
 3953SOL     OW23317   4.310   3.935  10.474  0.6673  0.5339  0.4602
 3953SOL    HW123318   4.330   3.878  10.399 -1.4864  1.7666 -1.0588
 3953SOL    HW223319   4.382   3.911  10.532  0.0897  0.5180  1.1623
 3954SOL     OW23320   1.533   4.359  14.004 -0.1214  0.2909 -0.6524
 3954SOL    HW123321   1.451   4.404  14.024 -1.1280 -1.0647 -1.7566
 3954SOL    HW223322   1.599   4.427  14.023 -0.4045  0.6403 -0.9107
 3955SOL     OW23323   1.308   3.761  15.546 -0.0720 -0.3719  0.1861
 3955SOL    HW123324   1.252   3.719  15.481  2.6782 -1.4054 -1.4848
 3955SOL    HW223325   1.290   3.714  15.627 -0.0019 -2.0598 -0.7969
 3956SOL     OW23326   3.631   3.814   6.154  0.7674  0.5390  0.3394
 3956SOL    HW123327   3.545   3.847   6.180  1.2730  0.3666  2.2659
 3956SOL    HW223328   3.689   3.858   6.217  1.0659 -0.1041  0.5181
 3957SOL     OW23329   0.235   0.745   3.565  0.4637  0.8331 -0.1364
 3957SOL    HW123330   0.146   0.723   3.594  1.3250  1.5758  3.0035
 3957SOL    HW223331   0.282   0.698   3.634 -1.7364 -0.0344  0.7786
 3958SOL     OW23332   0.679   0.408  10.861 -0.2188  0.1598  0.3139
 3958SOL    HW123333   0.719   0.363  10.936 -0.6301  1.2594  1.1750
 3958SOL    HW223334   0.627   0.337  10.824  1.1983 -0.6600 -0.1318
 3959SOL     OW23335   3.739   3.611   7.555 -0.3118  0.2325  0.2615
 3959SOL    HW123336   3.674   3.681   7.562  0.8408  1.5238 -1.7562
 3959SOL    HW223337   3.691   3.541   7.599  0.5101  1.0680  2.4955
 3960SOL     OW23338   3.278   4.285   9.022 -0.2422  0.3639 -1.0389
 3960SOL    HW123339   3.196   4.251   8.986 -0.5173  0.1048 -0.1638
 3960SOL    HW223340   3.308   4.327   8.941 -0.7852  3.5645  0.3939
 3961SOL     OW23341   0.073   2.393   2.398 -0.8473 -0.0120 -1.4039
 3961SOL    HW123342   0.033   2.412   2.313 -1.1850 -0.1437 -1.2736
 3961SOL    HW223343   0.070   2.484   2.427  0.3409 -0.1829 -0.7480
 3962SOL     OW23344   0.284   0.878   5.287  0.6145 -0.3085  0.1507
 3962SOL    HW123345   0.338   0.930   5.347 -2.4693  1.8590  1.0709
 3962SOL    HW223346   0.201   0.901   5.329  0.3874 -3.7764  1.6709
 3963SOL     OW23347   2.762   0.033   6.866 -0.5093  0.3438 -0.1760
 3963SOL    HW123348   2.720   0.025   6.780  0.0038  2.5080 -0.6201
 3963SOL    HW223349   2.777   0.127   6.868 -0.6475  0.4036 -2.1522
 3964SOL     OW23350   4.337   4.723  14.899 -0.1404 -0.2446 -0.1209
 3964SOL    HW123351   4.243   0.004  14.880 -0.1640  3.0207  1.4192
 3964SOL    HW223352   4.367   0.083  14.875  1.0090 -0.6079 -0.0046
 3965SOL     OW23353   2.767   0.611  10.861 -0.1880  0.3256  0.5441
 3965SOL    HW123354   2.767   0.689  10.804  0.7435  0.9122  1.3496
 3965SOL    HW223355   2.723   0.652  10.936 -0.3403 -0.6662  0.9968
 3966SOL     OW23356   1.096   3.806   6.709  0.3549  0.0170 -0.1841
 3966SOL    HW123357   1.098   3.901   6.695  1.4849  0.1270  0.7625
 3966SOL    HW223358   1.002   3.790   6.696 -0.1059  2.5828 -0.1449
 3967SOL     OW23359   4.325   3.057  16.714 -0.3070 -0.2710 -0.1813
 3967SOL    HW123360   4.327   3.139  16.665  0.6185 -1.6422 -2.4496
 3967SOL    HW223361   4.398   3.010  16.672 -0.0127 -0.5236  0.6241
 3968SOL     OW23362   1.896   2.182   1.652  0.1541 -0.0323 -0.0301
 3968SOL    HW123363   1.954   2.202   1.725  0.2253 -0.4454  0.0302
 3968SOL    HW223364   1.858   2.100   1.684 -0.0708 -0.1176 -0.5133
 3969SOL     OW23365   3.529   3.811  11.754 -0.2991 -0.1026 -0.2947
 3969SOL    HW123366   3.546   3.836  11.663 -2.5965 -0.7139 -0.9017
 3969SOL    HW223367   3.462   3.744  11.741 -0.4816 -0.1104  0.7011
 3970SOL     OW23368   1.217   0.062   9.498 -0.0652  0.2319 -0.3027
 3970SOL    HW123369   1.279   0.132   9.477  3.0597 -2.9542 -1.8084
 3970SOL    HW223370   1.141   0.116   9.478  0.0001 -0.1898 -1.7147
 3971SOL     OW23371   2.749   3.174   3.566  0.1285 -0.3997 -0.1338
 3971SOL    HW123372   2.771   3.083   3.588 -1.9645 -0.2369  2.6110
 3971SOL    HW223373   2.654   3.173   3.572  0.0852 -1.4500 -0.9982
 3972SOL     OW23374   2.861   3.010   9.007 -0.3436 -0.8051  0.0918
 3972SOL    HW123375   2.778   3.038   8.969 -0.3647 -0.1217  0.6299
 3972SOL    HW223376   2.911   3.086   8.977 -1.5019  1.1280  3.0573
 3973SOL     OW23377   4.048   4.436   8.926 -0.0665 -0.1392 -0.2312
 3973SOL    HW123378   4.067   4.488   9.004  1.1757 -0.0990 -0.5493
 3973SOL    HW223379   4.095   4.490   8.863 -0.7570 -1.2022 -1.6544
 3974SOL     OW23380   3.464   2.942   6.581 -0.0082 -0.0545 -0.2897
 3974SOL    HW123381   3.405   2.869   6.601 -0.2537  0.6980  1.6853
 3974SOL    HW223382   3.404   3.000   6.535 -0.2193  0.2590  0.3819
 3975SOL     OW23383   2.093   3.426   4.854  0.1261 -0.1450 -0.4828
 3975SOL    HW123384   2.082   3.515   4.888 -1.4015 -1.1906  1.7346
 3975SOL    HW223385   2.120   3.446   4.764  0.0900  1.2839 -0.1805
 3976SOL     OW23386   3.041   1.157   6.933 -0.0203  0.3022 -0.2069
 3976SOL    HW123387   2.979   1.218   6.973 -1.4633 -1.5774  0.4159
 3976SOL    HW223388   3.126   1.177   6.971 -0.2242  3.2097 -1.3045
 3977SOL     OW23389   1.886   0.376   0.512  0.4116  0.1159 -0.1295
 3977SOL    HW123390   1.892   0.410   0.422  1.5775  0.4518  0.0747
 3977SOL    HW223391   1.939   0.297   0.512  2.6609  1.5925  1.0053
 3978SOL     OW23392   1.165   2.474   3.466 -0.0052  0.1917 -0.0609
 3978SOL    HW123393   1.156   2.554   3.415  2.4960  1.1288  0.9520
 3978SOL    HW223394   1.074   2.447   3.459 -0.0688  0.3814  0.0437
 3979SOL     OW23395   3.504   0.035   6.428  0.5941 -0.7432  0.2130
 3979SOL    HW123396   3.562   0.007   6.357 -1.1683  0.6478 -1.7645
 3979SOL    HW223397   3.524   0.129   6.433 -0.6650 -0.4579 -0.1717
 3980SOL     OW23398   2.416   4.270  16.081 -0.2948  0.2179 -0.7194
 3980SOL    HW123399   2.331   4.241  16.048  0.8834  0.8134 -4.2395
 3980SOL    HW223400   2.412   4.365  16.086  0.3222  0.1705  0.8308
 3981SOL     OW23401   1.956   0.467   8.582 -0.3094 -0.1393 -0.1370
 3981SOL    HW123402   1.961   0.499   8.672  0.4332  0.6775 -0.4592
 3981SOL    HW223403   1.961   0.546   8.528  0.2599  0.2680  0.5214
 3982SOL     OW23404   3.039   0.119  15.923 -0.5934  0.1099 -0.8424
 3982SOL    HW123405   3.101   0.083  15.859 -1.3932 -1.7233 -0.5797
 3982SOL    HW223406   3.097   0.140  15.996  1.0246  2.0113 -2.6536
 3983SOL     OW23407   2.845   2.361   9.874 -0.1902  0.2315 -0.2491
 3983SOL    HW123408   2.883   2.394   9.955 -1.1068 -3.3060  1.6000
 3983SOL    HW223409   2.756   2.338   9.903 -0.8097 -0.0982 -2.4195
 3984SOL     OW23410   1.725   1.882   8.313 -0.1859  0.4455 -0.0799
 3984SOL    HW123411   1.779   1.953   8.348 -0.4711  0.4268  0.3861
 3984SOL    HW223412   1.651   1.894   8.372 -1.6269 -0.7032 -1.6598
 3985SOL     OW23413   0.380   0.220   2.235 -0.5983  0.5195  0.2382
 3985SOL    HW123414   0.417   0.165   2.166 -0.4180 -2.5940  2.7931
 3985SOL    HW223415   0.356   0.145   2.291 -0.8521 -0.0303 -0.6063
 3986SOL     OW23416   3.355   4.650   8.966 -0.2750  0.1688  0.2016
 3986SOL    HW123417   3.300   4.726   8.946 -1.5230 -0.7474  0.1791
 3986SOL    HW223418   3.414   4.695   9.027  0.3644  1.5931 -1.4494
 3987SOL     OW23419   0.054   3.614   1.674  0.1533  0.2275  0.3616
 3987SOL    HW123420   4.694   3.651   1.667 -0.2676 -1.3371 -2.4265
 3987SOL    HW223421   0.106   3.681   1.629 -0.0933  0.5855  0.6106
 3988SOL     OW23422   4.592   2.585   6.230  0.3603 -0.0069  0.2611
 3988SOL    HW123423   4.503   2.572   6.264  0.8575 -0.4549  1.3563
 3988SOL    HW223424   4.612   2.678   6.240 -0.3729  0.2228 -0.3156
 3989SOL     OW23425   3.222   3.847   6.074 -0.1029  0.3969 -0.3646
 3989SOL    HW123426   3.176   3.920   6.033 -0.9718 -0.0799 -0.2513
 3989SOL    HW223427   3.235   3.791   5.998 -0.4138 -0.7838  0.4399
 3990SOL     OW23428   3.297   0.294   5.481  0.6157 -0.2901  0.6015
 3990SOL    HW123429   3.217   0.262   5.523 -0.2245  1.7247  0.5418
 3990SOL    HW223430   3.366   0.238   5.516  0.6689 -1.0173 -0.6715
 3991SOL     OW23431   3.041   1.464   2.118  0.3123 -0.1931 -0.1124
 3991SOL    HW123432   2.992   1.535   2.159 -0.8065 -0.7086 -0.5756
 3991SOL    HW223433   3.065   1.401   2.186  1.6002  1.8311  1.3153
 3992SOL     OW23434   4.440   2.647   5.793  0.3078 -0.0404 -0.2122
 3992SOL    HW123435   4.359   2.600   5.812 -0.2860  1.1141  0.1176
 3992SOL    HW223436   4.469   2.666   5.882 -3.9794  1.4449  0.8711
 3993SOL     OW23437   0.361   0.989   7.536  0.7670  0.2115  0.3569
 3993SOL    HW123438   0.340   0.996   7.443 -1.1920 -0.1131  0.7827
 3993SOL    HW223439   0.322   0.903   7.553  0.4477  0.1524 -0.6762
 3994SOL     OW23440   2.819   0.216   5.512  0.7415  0.4461  0.1962
 3994SOL    HW123441   2.766   0.265   5.448 -0.5170 -2.1792 -0.7791
 3994SOL    HW223442   2.820   0.287   5.576  0.2536 -0.9767  1.7662
 3995SOL     OW23443   0.242   0.790   2.087  0.4281 -0.3964  0.3488
 3995SOL    HW123444   0.330   0.810   2.118 -0.1618  2.8049 -0.0568
 3995SOL    HW223445   0.250   0.812   1.994  0.6902 -0.4015  0.3700
 3996SOL     OW23446   1.133   1.039   0.951  0.2259 -0.8409  0.1756
 3996SOL    HW123447   1.199   1.087   1.001  0.9559 -1.1334 -0.5110
 3996SOL    HW223448   1.158   1.074   0.866  1.6272 -2.4178 -0.0598
 3997SOL     OW23449   3.172   1.938   4.608 -0.4068  0.2890 -0.2612
 3997SOL    HW123450   3.227   1.871   4.567  0.0549  1.2098 -1.1460
 3997SOL    HW223451   3.089   1.905   4.574 -1.1714  0.6270  1.2472
 3998SOL     OW23452   2.040   0.979   8.544  1.4806 -0.2843  0.1554
 3998SOL    HW123453   2.074   1.029   8.617  0.0438 -0.7727  1.1673
 3998SOL    HW223454   2.091   1.004   8.467 -0.4826  1.2249 -0.6557
 3999SOL     OW23455   2.442   1.222  13.609 -0.1156  0.2653 -0.5081
 3999SOL    HW123456   2.361   1.189  13.648  1.3285 -0.8926  1.4764
 3999SOL    HW223457   2.499   1.177  13.671  0.6362  1.4143 -0.3764
 4000SOL     OW23458   0.355   1.384   2.354 -0.3019  0.5070  0.2367
 4000SOL    HW123459   0.263   1.380   2.328  0.3832  1.3942 -2.2870
 4000SOL    HW223460   0.353   1.356   2.445 -0.9192 -0.1280  0.0304
 4001SOL     OW23461   4.320   3.977  13.162 -0.3054  0.1631 -0.0700
 4001SOL    HW123462   4.319   4.065  13.123 -1.2079  1.3209  2.5486
 4001SOL    HW223463   4.242   3.938  13.121  0.0818 -0.9799  0.2963
 4002SOL     OW23464   0.472   1.665   2.656  0.6212  0.7731 -0.5038
 4002SOL    HW123465   0.518   1.738   2.614  0.1163  0.4506 -1.6116
 4002SOL    HW223466   0.381   1.684   2.634  0.7109  2.6199  0.7551
 4003SOL     OW23467   1.955   2.165   2.617 -0.1961 -0.0469 -0.1663
 4003SOL    HW123468   2.013   2.116   2.558 -1.9375 -0.9430 -1.1150
 4003SOL    HW223469   1.936   2.234   2.555 -0.9626 -0.8940 -0.8661
 4004SOL     OW23470   0.894   4.222   8.391  0.4445 -0.3986 -0.1074
 4004SOL    HW123471   0.881   4.311   8.356  0.4722 -0.1744  0.4513
 4004SOL    HW223472   0.926   4.251   8.476 -0.2483  0.0703 -0.0039
 4005SOL     OW23473   4.472   1.502   3.886 -0.0852  0.6973  0.4899
 4005SOL    HW123474   4.386   1.545   3.890 -0.7886 -0.5635 -1.0651
 4005SOL    HW223475   4.526   1.558   3.941 -0.0275  0.3751  0.7616
 4006SOL     OW23476   0.855   0.287   9.706 -0.2366  0.5550  0.4500
 4006SOL    HW123477   0.821   0.375   9.686 -0.7233 -0.0270 -1.2629
 4006SOL    HW223478   0.774   0.250   9.742  0.6909 -0.4984  1.4326
 4007SOL     OW23479   1.779   2.747   7.077  0.3777  0.1722  0.5738
 4007SOL    HW123480   1.764   2.735   6.983 -1.7070 -1.1294  1.0754
 4007SOL    HW223481   1.692   2.777   7.105 -0.9241 -2.0694 -1.0473
 4008SOL     OW23482   3.470   2.565   2.785  0.0870  0.1222 -0.1082
 4008SOL    HW123483   3.494   2.505   2.855  0.7501 -0.0088 -0.4425
 4008SOL    HW223484   3.560   2.592   2.766  1.3586 -4.2645 -0.2886
 4009SOL     OW23485   2.288   1.612   3.417  0.3902 -0.2884  0.0730
 4009SOL    HW123486   2.197   1.642   3.417  0.3631 -0.4254 -2.2586
 4009SOL    HW223487   2.283   1.527   3.373 -1.9768 -0.5352  0.8057
 4010SOL     OW23488   3.029   2.412   5.136 -0.4207  0.0329  0.0986
 4010SOL    HW123489   3.060   2.407   5.227  0.7601 -0.6089 -0.3430
 4010SOL    HW223490   2.934   2.423   5.145 -0.4875 -1.3494  1.0456
 4011SOL     OW23491   4.073   1.477  11.431 -0.2815  0.2133 -0.4823
 4011SOL    HW123492   4.064   1.412  11.361  0.8982 -1.2175  0.7069
 4011SOL    HW223493   4.166   1.463  11.449 -0.1839  2.7168  0.9473
 4012SOL     OW23494   4.517   1.651   2.986  0.2883  0.0730  0.0466
 4012SOL    HW123495   4.599   1.688   3.018 -0.3685  1.5074  0.0704
 4012SOL    HW223496   4.521   1.654   2.891 -0.4238  0.4961  0.0343
 4013SOL     OW23497   0.029   0.421   8.247 -0.4013  0.1785 -0.5247
 4013SOL    HW123498   0.039   0.389   8.336 -0.2565  1.6286 -0.0211
 4013SOL    HW223499   0.098   0.365   8.212 -0.4901  1.3560 -2.5798
 4014SOL     OW23500   2.876   2.046  13.740  0.3747 -0.4992  0.8534
 4014SOL    HW123501   2.855   2.138  13.752 -1.1019 -0.4757 -1.9085
 4014SOL    HW223502   2.948   2.032  13.802  0.2879  1.3727  1.3653
 4015SOL     OW23503   3.451   3.317   5.112  0.0991 -0.2430 -0.4920
 4015SOL    HW123504   3.439   3.302   5.018  0.8938 -0.8811 -0.4911
 4015SOL    HW223505   3.486   3.235   5.146 -0.4347 -0.1370  0.3305
 4016SOL     OW23506   4.334   1.778  12.595  0.5992  0.0816 -0.5355
 4016SOL    HW123507   4.350   1.726  12.674 -3.1175 -0.4666 -0.1292
 4016SOL    HW223508   4.316   1.864  12.633  2.2240 -0.4970  1.5212
 4017SOL     OW23509   4.462   1.446   7.206  0.7063 -0.0371  0.2234
 4017SOL    HW123510   4.552   1.437   7.174  0.2472 -0.1465 -1.0091
 4017SOL    HW223511   4.421   1.474   7.124  1.0502 -0.3390 -0.0511
 4018SOL     OW23512   1.938   4.697   7.696  0.2065  0.2701  0.3388
 4018SOL    HW123513   1.855   4.658   7.668  0.2009 -2.2376  3.8402
 4018SOL    HW223514   2.011   4.653   7.651  0.3999  0.7973  0.1391
 4019SOL     OW23515   2.156   3.459   4.598 -0.1480 -0.1578  0.6052
 4019SOL    HW123516   2.118   3.513   4.529 -0.5620 -0.4350  0.6173
 4019SOL    HW223517   2.199   3.388   4.549  2.7550  0.7526  1.8131
 4020SOL     OW23518   0.980   3.707   5.365 -0.1947  0.3204 -0.2978
 4020SOL    HW123519   0.978   3.798   5.335 -1.0567  0.2869 -0.3379
 4020SOL    HW223520   0.885   3.694   5.360  0.3419 -3.4811 -0.3105
 4021SOL     OW23521   2.647   3.841   4.196  0.1267 -0.2225  0.1777
 4021SOL    HW123522   2.622   3.778   4.129  0.1890 -1.5566  1.3998
 4021SOL    HW223523   2.726   3.879   4.158 -0.7861  0.5747 -0.9487
 4022SOL     OW23524   0.887   2.441   3.433  0.4448  0.1398 -0.0037
 4022SOL    HW123525   0.849   2.467   3.349 -1.2602 -2.4699 -0.0187
 4022SOL    HW223526   0.863   2.524   3.474 -0.9750 -0.3782  0.1898
 4023SOL     OW23527   0.889   2.708   4.792  0.3973  0.1758  0.2724
 4023SOL    HW123528   0.863   2.735   4.880  3.7625  0.8023  1.0839
 4023SOL    HW223529   0.984   2.699   4.806  0.9346  2.6949 -1.8002
 4024SOL     OW23530   3.584   1.296   6.816 -0.4287 -0.4510 -0.0386
 4024SOL    HW123531   3.599   1.342   6.734  1.9997 -2.0298 -0.4869
 4024SOL    HW223532   3.580   1.204   6.790  1.2375 -0.4543 -0.2937
 4025SOL     OW23533   0.003   0.878  15.446  0.1580  0.8052  0.1579
 4025SOL    HW123534   4.719   0.946  15.380  1.7199  0.9014 -0.0405
 4025SOL    HW223535   0.024   0.806  15.386 -3.9402  1.1946 -1.6737
 4026SOL     OW23536   2.026   1.589   9.620 -0.2555  0.0264  0.2057
 4026SOL    HW123537   2.094   1.530   9.586  1.7896  1.8115  1.1731
 4026SOL    HW223538   2.052   1.677   9.594 -0.4246  0.4557  1.4934
 4027SOL     OW23539   1.277   2.993  11.917  0.1453 -0.2944 -0.0153
 4027SOL    HW123540   1.227   3.060  11.963  3.1871  2.1301 -0.2141
 4027SOL    HW223541   1.247   3.010  11.828 -1.1142 -1.9614  0.1066
 4028SOL     OW23542   1.776   3.531   4.552  0.8125 -0.5375 -0.1831
 4028SOL    HW123543   1.699   3.474   4.550  0.0054  0.5180  0.9078
 4028SOL    HW223544   1.751   3.601   4.491 -0.6788  0.8718  1.9987
 4029SOL     OW23545   0.999   1.030   6.762 -0.6136  0.3708 -0.7833
 4029SOL    HW123546   0.990   1.090   6.837  0.2373  0.1768 -0.5237
 4029SOL    HW223547   1.093   1.009   6.760 -0.6381  0.2191 -0.3496
 4030SOL     OW23548   0.294   3.976  12.918 -0.1401  0.0536 -0.5211
 4030SOL    HW123549   0.263   3.892  12.882 -0.1140 -0.2707  0.2216
 4030SOL    HW223550   0.310   4.022  12.836  1.4944  0.2111 -0.0999
 4031SOL     OW23551   3.061   4.151   9.695  0.4802 -0.2342 -0.2885
 4031SOL    HW123552   3.120   4.194   9.633  1.2263 -0.1627  0.4720
 4031SOL    HW223553   3.060   4.058   9.671  0.2656 -0.5247  0.8783
 4032SOL     OW23554   3.737   4.237   7.295 -0.6631 -0.5035  0.8218
 4032SOL    HW123555   3.699   4.258   7.209 -0.1903  0.9172  0.9590
 4032SOL    HW223556   3.671   4.277   7.352 -1.8558  0.2138 -1.0636
 4033SOL     OW23557   2.831   4.033   4.095 -0.5925 -0.0695 -0.1108
 4033SOL    HW123558   2.877   4.099   4.043  1.2003 -1.5482 -0.3909
 4033SOL    HW223559   2.906   3.978   4.118  0.0978  1.4516  1.2258
 4034SOL     OW23560   0.889   0.512  14.824  0.0069  0.1501 -0.3506
 4034SOL    HW123561   0.856   0.594  14.790 -3.2506  0.2574  3.0816
 4034SOL    HW223562   0.821   0.450  14.797 -2.4211  1.4978  2.6089
 4035SOL     OW23563   2.593   0.906  15.749 -0.2236  0.3579  0.3945
 4035SOL    HW123564   2.650   0.877  15.678  0.1734  1.7576  0.1415
 4035SOL    HW223565   2.653   0.912  15.824 -1.1100  2.1799  0.9567
 4036SOL     OW23566   2.567   4.552   9.932  0.0303 -0.1525 -0.1610
 4036SOL    HW123567   2.560   4.587   9.843  2.2638  0.3585 -0.1216
 4036SOL    HW223568   2.542   4.460   9.924 -1.3682  0.3682 -1.6019
 4037SOL     OW23569   3.209   1.047   2.644 -0.3950  0.2918  0.1625
 4037SOL    HW123570   3.119   1.076   2.635 -1.2088 -1.4144  2.7478
 4037SOL    HW223571   3.212   0.975   2.582  1.0655 -0.2944  0.8970
 4038SOL     OW23572   4.086   2.537   9.327  0.3618 -0.2135 -0.2368
 4038SOL    HW123573   4.154   2.485   9.370  1.4182  1.0537 -0.3919
 4038SOL    HW223574   4.130   2.605   9.276 -1.9825  0.2833 -1.5763
 4039SOL     OW23575   0.722   1.263  17.493  0.0834  0.0336 -0.6942
 4039SOL    HW123576   0.633   1.272  17.457  0.1248 -2.8371 -1.4605
 4039SOL    HW223577   0.768   1.329  17.440  0.2554  1.2915  1.0295
 4040SOL     OW23578   4.233   4.531  11.661  0.2446 -0.3776  0.4928
 4040SOL    HW123579   4.319   4.488  11.663  1.3975  1.8976 -0.4442
 4040SOL    HW223580   4.215   4.511  11.569  0.1445  2.1914 -0.0458
 4041SOL     OW23581   2.746   2.703   8.583 -0.1372 -1.2837 -0.4944
 4041SOL    HW123582   2.811   2.633   8.585  0.4185 -0.7757 -0.8979
 4041SOL    HW223583   2.690   2.682   8.658 -1.3623 -1.9405 -1.5756
 4042SOL     OW23584   4.694   0.972   5.184  0.1359 -0.7213 -0.5836
 4042SOL    HW123585   4.725   1.004   5.100 -0.8869  0.5762 -0.4591
 4042SOL    HW223586   4.601   0.956   5.167 -0.4493  1.3608  0.7335
 4043SOL     OW23587   2.453   3.030  15.221  0.1833  0.1546  0.3531
 4043SOL    HW123588   2.429   2.965  15.155 -1.4768  0.7142  0.4170
 4043SOL    HW223589   2.519   3.076  15.169  1.6311 -0.2789  1.8004
 4044SOL     OW23590   0.184   0.129  17.488 -0.0611  0.1890 -0.2180
 4044SOL    HW123591   0.268   0.163  17.518  0.8715 -2.0804 -0.2360
 4044SOL    HW223592   0.195   0.117  17.394 -0.5732  0.8063 -0.3560
 4045SOL     OW23593   1.717   4.054   2.263  0.4334 -0.0283  0.1430
 4045SOL    HW123594   1.753   4.050   2.174 -1.2405 -1.0943 -0.4911
 4045SOL    HW223595   1.735   4.146   2.281 -2.9644  1.0152 -1.9378
 4046SOL     OW23596   4.208   0.869   4.602  0.2277  0.2685 -0.3405
 4046SOL    HW123597   4.225   0.870   4.696 -0.3461  1.1734 -0.2448
 4046SOL    HW223598   4.192   0.776   4.587  2.4429 -0.1329 -0.2432
 4047SOL     OW23599   3.634   1.955   0.003 -0.1482 -0.1179  0.3694
 4047SOL    HW123600   3.560   1.990   0.053 -0.7869 -2.4873  1.0880
 4047SOL    HW223601   3.596   1.962  17.627  1.7011 -1.1133 -0.5013
 4048SOL     OW23602   3.744   1.117   8.363  0.5031  0.4180 -0.3750
 4048SOL    HW123603   3.701   1.181   8.419  0.4752  0.5931 -0.5976
 4048SOL    HW223604   3.733   1.174   8.287  1.5043  1.1975  0.0630
 4049SOL     OW23605   2.847   0.899   5.998 -0.2127  0.4477 -0.3294
 4049SOL    HW123606   2.846   0.958   5.923 -2.1898  0.9257  0.0671
 4049SOL    HW223607   2.881   0.951   6.071 -0.8812  0.5600 -0.0957
 4050SOL     OW23608   3.620   3.038   7.059 -0.4871  0.5401  0.2468
 4050SOL    HW123609   3.715   3.051   7.054 -0.0873 -2.0540  1.2852
 4050SOL    HW223610   3.616   3.031   6.964 -2.0421  1.1276  0.2668
 4051SOL     OW23611   4.261   3.955   7.068 -0.0713  0.2567 -0.3267
 4051SOL    HW123612   4.191   3.997   7.118  1.3907  0.0013  1.9190
 4051SOL    HW223613   4.335   3.944   7.128  1.4962 -1.4654 -2.5804
 4052SOL     OW23614   4.374   0.434   5.817 -0.4048 -0.0135  0.2591
 4052SOL    HW123615   4.400   0.421   5.908  2.4396  1.5198 -0.3511
 4052SOL    HW223616   4.344   0.525   5.825 -1.6659 -0.0602 -3.6584
 4053SOL     OW23617   3.533   2.175   5.123  0.0985  0.1503  0.0332
 4053SOL    HW123618   3.483   2.175   5.042  1.6490 -0.1569 -0.9135
 4053SOL    HW223619   3.557   2.266   5.141  1.0986  0.0286 -0.7182
 4054SOL     OW23620   2.621   0.447   7.030  0.4597 -0.3309  0.3208
 4054SOL    HW123621   2.602   0.378   7.094  0.7601 -1.0878 -0.4169
 4054SOL    HW223622   2.528   0.471   7.022  1.9057  4.1794 -2.7229
 4055SOL     OW23623   0.760   0.113   8.178  0.0860 -0.1908  0.3601
 4055SOL    HW123624   0.778   0.076   8.264 -2.6218 -0.9170  0.6149
 4055SOL    HW223625   0.831   0.177   8.170  0.0007  0.0026  1.1359
 4056SOL     OW23626   4.338   4.621   5.324  0.4048 -0.2645  0.3774
 4056SOL    HW123627   4.363   4.634   5.232  1.4825 -0.7749  0.5997
 4056SOL    HW223628   4.255   4.578   5.305  1.5921 -2.0844 -0.7623
 4057SOL     OW23629   0.271   2.245  15.143  0.0774  0.1833  0.1352
 4057SOL    HW123630   0.260   2.150  15.151  0.0084  0.0208 -1.7973
 4057SOL    HW223631   0.212   2.271  15.213 -0.9944 -1.1327 -0.2855
 4058SOL     OW23632   1.713   4.058   8.937  0.3070 -0.3008  0.7556
 4058SOL    HW123633   1.630   4.106   8.941  0.7535  0.3924  1.5885
 4058SOL    HW223634   1.743   4.090   8.852 -1.7833 -2.1227 -0.6724
 4059SOL     OW23635   3.584   1.087   5.576  0.1376  0.0019  0.2167
 4059SOL    HW123636   3.496   1.050   5.566 -0.5902  1.4802  1.1032
 4059SOL    HW223637   3.558   1.179   5.586  0.3435  0.3193 -2.1530
 4060SOL     OW23638   3.337   2.097  12.596 -0.0394  0.3812 -0.3085
 4060SOL    HW123639   3.316   2.074  12.686  0.1280 -0.3251 -0.4498
 4060SOL    HW223640   3.365   2.009  12.570 -1.7488  0.5615 -2.7785
 4061SOL     OW23641   2.056   0.131   5.822  0.1855 -0.1235  0.6061
 4061SOL    HW123642   2.102   0.055   5.858 -0.4139 -0.3747  0.8475
 4061SOL    HW223643   1.975   0.093   5.788 -0.7578  1.1556  1.4391
 4062SOL     OW23644   4.494   0.021   2.576 -0.2702  0.4329  0.1502
 4062SOL    HW123645   4.400   0.010   2.561 -0.1493  0.2993 -0.5187
 4062SOL    HW223646   4.508   4.665   2.619 -0.6999 -0.2371 -0.9981
 4063SOL     OW23647   3.134   4.318  12.712 -0.1843  0.0034 -0.0574
 4063SOL    HW123648   3.197   4.267  12.762 -0.0041 -0.5470 -0.8450
 4063SOL    HW223649   3.101   4.250  12.654 -1.8018 -0.8458  1.8714
 4064SOL     OW23650   4.401   3.997   9.394  0.2034 -0.3528 -0.2394
 4064SOL    HW123651   4.322   3.970   9.441 -0.8032  2.1437 -0.4854
 4064SOL    HW223652   4.413   3.937   9.320 -0.4618 -1.3486  0.4732
 4065SOL     OW23653   0.049   2.466  10.760  0.0070  0.6274 -0.0370
 4065SOL    HW123654   0.143   2.456  10.745  0.1433  0.2868  1.0760
 4065SOL    HW223655   0.029   2.554  10.729  2.9623  1.8744  1.6131
 4066SOL     OW23656   0.244   3.134   6.607  0.5129 -0.5048 -0.3899
 4066SOL    HW123657   0.279   3.209   6.560 -1.2972  0.7790  0.3471
 4066SOL    HW223658   0.219   3.173   6.691 -0.5438  0.3407 -1.1011
 4067SOL     OW23659   1.229   2.039   0.028 -0.2292 -1.0018 -0.0759
 4067SOL    HW123660   1.260   2.112  17.688 -2.0104 -0.5876 -0.5464
 4067SOL    HW223661   1.302   1.977   0.024  0.8201  0.2363  0.2826
 4068SOL     OW23662   0.010   3.154  11.659 -0.6350  0.2272  0.1552
 4068SOL    HW123663   0.023   3.109  11.575  1.6435 -0.4811  0.8954
 4068SOL    HW223664   4.642   3.152  11.666 -0.5794  4.1084  1.9595
 4069SOL     OW23665   1.016   3.204  11.476  0.0915 -0.3794 -0.2260
 4069SOL    HW123666   0.928   3.175  11.453 -0.3116  2.1833 -1.9146
 4069SOL    HW223667   1.071   3.214  11.399  2.3844 -1.0855  1.3040
 4070SOL     OW23668   3.695   0.070   6.656  0.5284  1.0058  0.2628
 4070SOL    HW123669   3.640   4.725   6.628  1.1612  1.1274 -1.3072
 4070SOL    HW223670   3.728   0.110   6.575  1.0539  0.9909  0.4719
 4071SOL     OW23671   2.040   4.365  10.319  0.2376 -0.0733  0.1417
 4071SOL    HW123672   1.990   4.439  10.285  0.2755  0.2520  0.8011
 4071SOL    HW223673   2.056   4.402  10.405  0.6744  1.6993 -0.7057
 4072SOL     OW23674   3.532   2.065   8.767 -0.1979 -0.0968  0.1992
 4072SOL    HW123675   3.567   1.976   8.773 -1.9770 -0.8350 -0.4044
 4072SOL    HW223676   3.441   2.049   8.788 -0.4962  2.3625  0.8234
 4073SOL     OW23677   2.954   3.406   9.651 -0.5475  0.1093 -0.0028
 4073SOL    HW123678   2.881   3.413   9.712  0.9349  2.4405  1.4427
 4073SOL    HW223679   2.994   3.490   9.670  1.1907 -0.6209 -0.3608
 4074SOL     OW23680   1.840   2.756   2.447 -0.3732 -0.0681  0.1454
 4074SOL    HW123681   1.904   2.827   2.434 -0.6364 -0.1684 -1.7367
 4074SOL    HW223682   1.874   2.700   2.377  2.9784 -0.0221  1.7445
 4075SOL     OW23683   0.259   3.220   1.417  0.1901 -0.4612 -0.0117
 4075SOL    HW123684   0.208   3.206   1.338 -0.1444  1.6207 -0.1630
 4075SOL    HW223685   0.272   3.315   1.418 -1.4541 -0.2337 -0.1471
 4076SOL     OW23686   4.625   3.729   8.373  0.1277 -0.2289 -0.2098
 4076SOL    HW123687   4.583   3.801   8.423  0.8179 -0.0767  0.1479
 4076SOL    HW223688   4.625   3.654   8.433 -1.3488 -1.3813 -1.6758
 4077SOL     OW23689   2.168   4.530  16.091  0.1032 -0.0384 -1.1737
 4077SOL    HW123690   2.080   4.509  16.122  0.1908  3.0271  1.1001
 4077SOL    HW223691   2.173   4.479  16.010 -1.3923 -0.8597 -0.7637
 4078SOL     OW23692   0.883   0.858   2.394  0.7459  0.3372  0.3977
 4078SOL    HW123693   0.822   0.913   2.444  1.8084  2.4437 -0.6397
 4078SOL    HW223694   0.934   0.924   2.348  1.5118 -0.5478 -0.0175
 4079SOL     OW23695   1.128   1.462   0.068 -0.7285 -0.0828 -0.2636
 4079SOL    HW123696   1.138   1.555   0.048  1.0693  0.2624  2.2234
 4079SOL    HW223697   1.042   1.439   0.033 -0.2287 -1.4119 -0.6181
 4080SOL     OW23698   3.484   0.819   2.703  0.5003 -0.6571 -0.2888
 4080SOL    HW123699   3.562   0.803   2.757 -1.4647 -0.6734  2.5287
 4080SOL    HW223700   3.493   0.909   2.671  2.3202 -0.2165  1.4073
 4081SOL     OW23701   1.189   2.238   3.720  0.3370 -0.1160 -0.3459
 4081SOL    HW123702   1.179   2.154   3.765  0.1634  0.6728  1.0846
 4081SOL    HW223703   1.284   2.247   3.719  0.2614  0.5780 -1.5578
 4082SOL     OW23704   0.313   1.877   4.554 -0.1853 -0.1937 -0.1322
 4082SOL    HW123705   0.290   1.906   4.642  2.1572 -1.3284  0.8433
 4082SOL    HW223706   0.250   1.805   4.545  2.3520 -2.7527  3.0053
 4083SOL     OW23707   2.459   0.317   4.302 -0.0600  0.0974 -0.0984
 4083SOL    HW123708   2.439   0.396   4.252 -2.3361 -0.7477 -0.5030
 4083SOL    HW223709   2.451   0.242   4.244 -0.4856 -0.6443  0.9074
 4084SOL     OW23710   4.255   4.189   0.058 -0.1650  0.1369 -0.5050
 4084SOL    HW123711   4.218   4.229  17.692  0.0539  2.5343  0.6345
 4084SOL    HW223712   4.287   4.262   0.111 -1.8661 -0.2412  1.0454
 4085SOL     OW23713   1.718   0.132   5.467  0.2789  0.0506 -0.0363
 4085SOL    HW123714   1.713   0.211   5.521  1.0625 -0.7047  1.1559
 4085SOL    HW223715   1.755   0.069   5.529 -1.7875 -1.6027 -0.4821
 4086SOL     OW23716   4.357   3.950  13.951 -0.1841  0.5069  0.3902
 4086SOL    HW123717   4.412   4.028  13.958 -1.1374  1.2222 -0.1100
 4086SOL    HW223718   4.418   3.884  13.985  0.0592  1.5135  1.8886
 4087SOL     OW23719   4.466   2.588  16.701  0.1038 -0.3527  0.3822
 4087SOL    HW123720   4.406   2.644  16.652  0.2904 -0.8266 -0.3940
 4087SOL    HW223721   4.533   2.575  16.634  0.8564  3.1122  0.4613
 4088SOL     OW23722   4.602   1.362   5.070 -0.0717 -0.0923  0.2289
 4088SOL    HW123723   4.588   1.437   5.129  1.8502 -0.6688  1.4287
 4088SOL    HW223724   4.516   1.323   5.087 -0.2923 -0.0510 -0.8141
 4089SOL     OW23725   1.843   2.369   3.414 -0.0618  0.2802 -0.0499
 4089SOL    HW123726   1.800   2.291   3.448  3.1192 -1.1010  0.8118
 4089SOL    HW223727   1.821   2.358   3.321  1.3112 -1.4550 -0.1691
 4090SOL     OW23728   4.522   0.820   3.858 -0.4391  0.2128  0.3597
 4090SOL    HW123729   4.430   0.795   3.851 -0.2606 -0.1190 -0.7868
 4090SOL    HW223730   4.528   0.815   3.954  3.0191  0.8655  0.1967
 4091SOL     OW23731   1.154   3.828  11.613  0.9839  0.2888  0.3179
 4091SOL    HW123732   1.238   3.861  11.581  0.1555  1.3181 -0.7977
 4091SOL    HW223733   1.137   3.905  11.667 -0.7903 -0.8466  1.3880
 4092SOL     OW23734   4.546   4.336  17.630 -0.1837 -0.7099 -0.6053
 4092SOL    HW123735   4.487   4.406  17.600  0.8003  1.1974  1.8466
 4092SOL    HW223736   4.492   4.305  17.702 -0.2697  0.3736 -0.1972
 4093SOL     OW23737   3.553   1.875   7.634  0.5472 -0.3446 -0.0492
 4093SOL    HW123738   3.489   1.812   7.669  1.9716 -1.7611 -0.0214
 4093SOL    HW223739   3.532   1.950   7.690 -0.7755 -0.3266 -0.5522
 4094SOL     OW23740   1.647   3.855   8.721 -0.2674 -0.0952 -0.4031
 4094SOL    HW123741   1.713   3.912   8.761  1.5183 -2.6210  0.2653
 4094SOL    HW223742   1.700   3.832   8.645 -2.0380  0.7928 -1.8923
 4095SOL     OW23743   0.104   3.580   7.375  0.6641 -0.3478  0.1940
 4095SOL    HW123744   0.186   3.622   7.403  1.9809 -1.1761 -2.4795
 4095SOL    HW223745   0.085   3.538   7.459  2.2579 -2.6599 -0.6058
 4096SOL     OW23746   4.110   1.856   6.248 -0.3483 -0.5209  0.2833
 4096SOL    HW123747   4.122   1.799   6.172  1.8810  1.9188 -1.2262
 4096SOL    HW223748   4.119   1.940   6.202  1.8371 -1.8280 -1.7171
 4097SOL     OW23749   3.259   4.282   7.400 -0.7255 -0.4926  0.3695
 4097SOL    HW123750   3.314   4.360   7.389  1.3209 -1.9900  0.0162
 4097SOL    HW223751   3.236   4.298   7.492 -1.5941  0.9401 -0.0990
 4098SOL     OW23752   0.355   0.648   1.046  0.6697 -0.2805 -0.3568
 4098SOL    HW123753   0.374   0.628   0.954  2.2454 -2.7863  0.5034
 4098SOL    HW223754   0.275   0.700   1.033  1.4425  1.0370  0.2134
 4099SOL     OW23755   2.874   4.693   6.537 -0.2500  0.3762 -0.4772
 4099SOL    HW123756   2.849   0.051   6.504 -1.3671  1.4772  3.2690
 4099SOL    HW223757   2.935   4.715   6.607 -3.5024  0.5139  2.3025
 4100SOL     OW23758   4.458   2.527   7.677 -0.0733 -0.2941 -0.5683
 4100SOL    HW123759   4.486   2.573   7.599 -0.3340  3.9775  1.8683
 4100SOL    HW223760   4.490   2.437   7.674  3.7497  0.9988  2.0567
 4101SOL     OW23761   4.193   2.737  12.979 -0.5352  0.3234  0.0402
 4101SOL    HW123762   4.156   2.691  12.904  0.1143 -0.3313  0.1275
 4101SOL    HW223763   4.205   2.825  12.942 -0.8707 -0.0756 -1.0363
 4102SOL     OW23764   1.935   4.166   5.073  0.0919 -0.3346  0.4769
 4102SOL    HW123765   2.017   4.118   5.060  0.3771  0.9029 -2.2425
 4102SOL    HW223766   1.895   4.114   5.143 -1.8722 -2.5695 -2.2932
 4103SOL     OW23767   2.396   0.034   7.708 -0.0807  0.7431 -0.4872
 4103SOL    HW123768   2.446   0.101   7.754  2.7884 -1.0959 -0.9607
 4103SOL    HW223769   2.316   0.045   7.760  0.1040  2.1082 -0.4903
 4104SOL     OW23770   1.528   3.207  10.895 -0.2669  0.2793  0.2549
 4104SOL    HW123771   1.522   3.133  10.956 -0.5739  0.8962  0.9588
 4104SOL    HW223772   1.587   3.262  10.945 -1.1817 -0.8412  2.5487
 4105SOL     OW23773   4.274   0.527   9.567 -0.1995 -0.3283  0.0434
 4105SOL    HW123774   4.265   0.605   9.511 -0.9904 -0.9482 -0.6888
 4105SOL    HW223775   4.344   0.554   9.626 -0.5668  1.4598 -0.3147
 4106SOL     OW23776   0.868   0.265   0.152 -0.2088 -0.3328  0.0151
 4106SOL    HW123777   0.849   0.358   0.142  0.0837 -0.2158  0.5308
 4106SOL    HW223778   0.785   0.236   0.190 -0.8122  0.5161 -0.6552
 4107SOL     OW23779   1.151   0.603   5.711  0.0185 -0.5137  0.3453
 4107SOL    HW123780   1.157   0.527   5.769 -0.4966 -0.2102  0.8023
 4107SOL    HW223781   1.236   0.627   5.673  0.1089 -3.5317 -1.3136
 4108SOL     OW23782   3.632   3.756   5.609  0.2520  0.2804  0.4222
 4108SOL    HW123783   3.611   3.671   5.647 -0.4602  0.3368  0.1496
 4108SOL    HW223784   3.629   3.810   5.688 -1.2723  0.8906 -0.0504
 4109SOL     OW23785   2.021   4.551   3.717  0.3313  0.7335  0.4415
 4109SOL    HW123786   1.945   4.493   3.712  1.0266 -0.0375 -1.1833
 4109SOL    HW223787   2.093   4.499   3.682 -0.3461  0.1679 -0.1135
 4110SOL     OW23788   2.876   1.175   6.559  0.0103 -0.3857  0.8033
 4110SOL    HW123789   2.867   1.117   6.635  1.1562 -2.6229 -0.7634
 4110SOL    HW223790   2.939   1.116   6.516 -0.7863  0.2291 -1.2176
 4111SOL     OW23791   4.296   3.064   1.905 -0.4466 -0.3910 -0.2629
 4111SOL    HW123792   4.321   3.041   1.995  0.1694  0.5246 -0.2120
 4111SOL    HW223793   4.291   3.159   1.907  0.0954 -0.3671 -0.0466
 4112SOL     OW23794   1.179   4.507   1.059  0.2665 -0.5080  0.0311
 4112SOL    HW123795   1.259   4.522   1.007 -0.2324 -1.2067 -0.9476
 4112SOL    HW223796   1.126   4.564   1.003  0.5840  1.9853  2.2576
 4113SOL     OW23797   4.171   4.342   8.613 -0.7492 -0.3188  0.1113
 4113SOL    HW123798   4.102   4.319   8.675 -1.5563  0.4146 -0.5245
 4113SOL    HW223799   4.206   4.428   8.637 -1.6997 -0.4053  1.8773
 4114SOL     OW23800   0.100   3.831   7.963  0.2229 -0.0479  0.6423
 4114SOL    HW123801   0.024   3.864   8.012 -0.7961 -0.4161 -0.6786
 4114SOL    HW223802   0.157   3.905   7.947 -0.3310  0.4483  0.9648
 4115SOL     OW23803   0.168   2.056  15.652 -0.2280 -0.5602 -0.6612
 4115SOL    HW123804   0.086   2.079  15.608 -0.3967 -0.3362 -0.2342
 4115SOL    HW223805   0.213   2.137  15.627  1.1744 -1.5054 -1.1717
 4116SOL     OW23806   1.766   0.925   8.799 -0.5065 -0.1674 -0.4258
 4116SOL    HW123807   1.729   0.867   8.733 -2.3315  1.4244 -0.7998
 4116SOL    HW223808   1.709   0.916   8.876 -1.3421 -0.2135 -1.0496
 4117SOL     OW23809   4.032   0.890   2.756  1.0613 -0.5006  0.1136
 4117SOL    HW123810   4.054   0.801   2.784  2.2070 -0.2465  0.0092
 4117SOL    HW223811   4.047   0.880   2.662 -0.6625 -3.8924  0.1933
 4118SOL     OW23812   1.488   0.499   2.677 -0.1808  0.0042 -0.3397
 4118SOL    HW123813   1.411   0.531   2.724 -0.5129 -0.3041 -0.6816
 4118SOL    HW223814   1.489   0.573   2.618  2.2549 -0.5798 -1.0266
 4119SOL     OW23815   1.202   2.342   4.035  0.6932 -0.6050  0.0136
 4119SOL    HW123816   1.285   2.296   4.026  1.9385  1.3290  1.6895
 4119SOL    HW223817   1.237   2.424   4.069 -1.1954 -0.1667  0.9352
 4120SOL     OW23818   1.682   2.284   2.576 -0.0740 -0.3037 -0.0246
 4120SOL    HW123819   1.729   2.221   2.631  0.9329 -0.2270 -0.7975
 4120SOL    HW223820   1.677   2.349   2.646 -1.1235  1.8986 -2.1772
 4121SOL     OW23821   0.723   1.623   0.343 -0.1599 -0.1165 -0.2278
 4121SOL    HW123822   0.719   1.530   0.324 -1.1437  0.3352 -2.1431
 4121SOL    HW223823   0.650   1.630   0.405  0.8074 -2.7293  1.1794
 4122SOL     OW23824   3.962   0.710   1.416  0.1344  0.4162  0.2581
 4122SOL    HW123825   3.912   0.740   1.341  0.1629  0.0263  0.0852
 4122SOL    HW223826   4.054   0.721   1.391 -0.3580  0.3088 -1.5625
 4123SOL     OW23827   2.652   1.460   2.655 -0.3990 -0.6308  0.0625
 4123SOL    HW123828   2.688   1.526   2.715 -1.1737 -0.6869  0.5840
 4123SOL    HW223829   2.730   1.435   2.604  0.5791  2.6536 -0.0964
 4124SOL     OW23830   3.089   2.732   5.462 -0.0208  0.4352  0.0686
 4124SOL    HW123831   3.051   2.726   5.550 -1.0766  1.8221 -0.3093
 4124SOL    HW223832   3.081   2.823   5.435  2.9606  0.8577  0.5736
 4125SOL     OW23833   2.703   0.857  10.694  0.2208  0.0471 -0.4068
 4125SOL    HW123834   2.705   0.875  10.788  2.1793 -1.1410 -0.2205
 4125SOL    HW223835   2.626   0.902  10.661  0.5821  0.4518 -0.7043
 4126SOL     OW23836   3.325   1.829  17.294  0.1092  0.4890  0.3121
 4126SOL    HW123837   3.304   1.743  17.330 -1.5962  1.1557  0.8976
 4126SOL    HW223838   3.274   1.819  17.214  0.2193  0.4604  0.2447
 4127SOL     OW23839   4.023   0.393   9.670  0.0938  0.6150  0.3718
 4127SOL    HW123840   4.090   0.455   9.643  0.1380 -0.2060 -1.4128
 4127SOL    HW223841   3.953   0.452   9.699  0.1942 -0.3842  2.6191
 4128SOL     OW23842   1.353   2.126   2.690 -0.2362  0.2184  0.4221
 4128SOL    HW123843   1.406   2.174   2.626 -0.0006  1.2882  1.4246
 4128SOL    HW223844   1.390   2.038   2.682 -2.8949 -0.8352 -0.1303
 4129SOL     OW23845   1.305   1.905   5.770  0.0310 -0.0378  0.0608
 4129SOL    HW123846   1.385   1.900   5.718 -0.5354 -1.8846 -0.6294
 4129SOL    HW223847   1.279   1.997   5.761 -3.3630 -1.0107 -0.1229
 4130SOL     OW23848   4.713   1.314  11.933  0.3450  0.2152  0.2375
 4130SOL    HW123849   0.073   1.340  11.903  0.6983 -1.5658 -0.2502
 4130SOL    HW223850   0.000   1.221  11.949  0.6257 -0.1867 -2.4805
 4131SOL     OW23851   1.698   1.913  10.897  0.0301  0.5031 -0.1062
 4131SOL    HW123852   1.665   2.003  10.904  0.6634  0.7491 -0.3249
 4131SOL    HW223853   1.761   1.900  10.968 -1.7863  1.0226  1.6125
 4132SOL     OW23854   1.461   4.290  12.345 -0.5484  0.1114 -0.1766
 4132SOL    HW123855   1.492   4.352  12.280  0.1946  0.7507  0.7892
 4132SOL    HW223856   1.384   4.249  12.306  0.4937 -1.1120 -0.9229
 4133SOL     OW23857   0.155   4.663   5.976  0.1120 -0.2991  0.4087
 4133SOL    HW123858   0.061   4.644   5.985 -0.0220  0.1182 -0.0997
 4133SOL    HW223859   0.161   0.030   5.985 -1.1886 -0.0993 -0.8296
 4134SOL     OW23860   2.489   4.187   8.312 -0.0470  0.2302  0.1150
 4134SOL    HW123861   2.554   4.125   8.279  0.3835  1.6354 -1.7101
 4134SOL    HW223862   2.488   4.249   8.238  2.8740 -0.0600 -0.1702
 4135SOL     OW23863   3.043   0.878   4.256 -0.1120 -0.3565  0.1911
 4135SOL    HW123864   3.079   0.895   4.168  1.0885  2.1035  1.1651
 4135SOL    HW223865   3.089   0.798   4.284  0.9853  0.2956  0.2682
 4136SOL     OW23866   3.718   3.954   7.317 -0.3931 -0.3006 -0.3023
 4136SOL    HW123867   3.739   4.046   7.301 -1.1668  0.3003  2.1480
 4136SOL    HW223868   3.668   3.936   7.237  0.5641 -1.5624 -0.6079
 4137SOL     OW23869   0.038   0.911   6.592  0.0934 -0.3061  0.2486
 4137SOL    HW123870   0.090   0.842   6.633  1.1180  0.3260 -0.0060
 4137SOL    HW223871   4.677   0.892   6.625 -0.7509  1.2026 -1.1606
 4138SOL     OW23872   1.828   1.186   3.289  0.1413  0.0141  0.4852
 4138SOL    HW123873   1.779   1.175   3.371  0.8806  0.2647  0.9589
 4138SOL    HW223874   1.828   1.094   3.263 -0.1628 -0.1396  1.0216
 4139SOL     OW23875   2.805   2.430   2.355 -0.0825 -0.0205 -0.1996
 4139SOL    HW123876   2.760   2.346   2.363 -3.7094  2.1224  2.3248
 4139SOL    HW223877   2.754   2.472   2.285 -0.4690  2.5889  1.6306
 4140SOL     OW23878   2.617   0.384   3.450  0.2522 -0.0968  0.0785
 4140SOL    HW123879   2.698   0.372   3.400  1.1911 -1.4357  1.9285
 4140SOL    HW223880   2.617   0.479   3.437 -1.9202 -0.0802  0.1212
 4141SOL     OW23881   0.449   2.947   6.617  0.1752  0.2569 -0.0652
 4141SOL    HW123882   0.384   3.012   6.643  0.6649  0.8968 -0.4146
 4141SOL    HW223883   0.503   3.000   6.558 -0.4138  0.7599 -0.1505
 4142SOL     OW23884   0.573   2.096   2.172  0.7263 -0.3622 -0.7448
 4142SOL    HW123885   0.649   2.151   2.152  2.3907 -2.1982  0.5756
 4142SOL    HW223886   0.506   2.147   2.127  0.2521 -1.3489 -1.1669
 4143SOL     OW23887   1.145   3.334   5.273  0.2651  0.1404  0.2974
 4143SOL    HW123888   1.193   3.273   5.328 -0.3954 -1.7573 -1.2111
 4143SOL    HW223889   1.093   3.268   5.226  0.6145  1.6085 -2.1228
 4144SOL     OW23890   3.405   2.123   0.772 -0.3189 -0.1955  0.1802
 4144SOL    HW123891   3.350   2.050   0.801 -2.1323  0.7549 -0.8938
 4144SOL    HW223892   3.436   2.162   0.854 -1.3906 -1.6996  1.3187
 4145SOL     OW23893   0.494   4.329  10.309 -0.2187  0.1563  1.0245
 4145SOL    HW123894   0.443   4.319  10.389 -1.2704  1.5463  0.5181
 4145SOL    HW223895   0.458   4.257  10.256  1.2707  0.8050 -0.8747
 4146SOL     OW23896   0.351   3.533   5.863 -0.5309 -0.0075  1.0171
 4146SOL    HW123897   0.312   3.606   5.816 -0.5108 -0.8248 -0.2726
 4146SOL    HW223898   0.271   3.480   5.866 -1.6114  1.5752 -0.2839
 4147SOL     OW23899   2.959   3.320  10.748  0.8166  0.1240  0.1355
 4147SOL    HW123900   2.988   3.410  10.766 -0.1514  0.8806 -2.0659
 4147SOL    HW223901   2.961   3.332  10.653  1.1412  0.2189  0.1561
 4148SOL     OW23902   4.237   4.234   5.374 -0.1540  0.1624 -0.3981
 4148SOL    HW123903   4.180   4.305   5.404  0.9196  1.0028 -0.3814
 4148SOL    HW223904   4.252   4.261   5.284  1.2400  0.8668  0.0451
 4149SOL     OW23905   0.035   4.515  17.363 -0.5354 -0.1596 -0.3204
 4149SOL    HW123906   4.667   4.521  17.364 -0.5054  0.1183  0.6304
 4149SOL    HW223907   0.042   4.545  17.273 -0.1800  0.3114 -0.1315
 4150SOL     OW23908   0.372   0.724   3.330 -0.0035  0.0770 -0.2107
 4150SOL    HW123909   0.452   0.698   3.375 -0.7443 -1.6184  0.1174
 4150SOL    HW223910   0.311   0.734   3.403  0.2592  0.0087  0.0170
 4151SOL     OW23911   0.769   2.938   7.234 -0.6486  0.3118  0.3022
 4151SOL    HW123912   0.814   2.988   7.166 -2.1474  2.7931  1.1283
 4151SOL    HW223913   0.843   2.922   7.294 -0.7810 -1.2983  0.0341
 4152SOL     OW23914   0.391   1.207   0.809 -0.3729  0.5632 -0.0638
 4152SOL    HW123915   0.323   1.141   0.803  0.1267  0.1518 -1.3565
 4152SOL    HW223916   0.366   1.264   0.736 -1.0287  1.1164  0.5997
 4153SOL     OW23917   3.230   0.298  17.564 -1.2967  0.1575  0.0814
 4153SOL    HW123918   3.143   0.278  17.530 -1.4026  0.6218  0.0800
 4153SOL    HW223919   3.271   0.212  17.569  0.4762  0.9032 -1.5123
 4154SOL     OW23920   3.069   1.584   1.623  0.4974  0.7986  0.0266
 4154SOL    HW123921   3.075   1.518   1.692  4.3791  0.9239 -0.2020
 4154SOL    HW223922   2.975   1.572   1.606  0.4693  1.5467 -0.3450
 4155SOL     OW23923   1.646   2.431  15.202 -0.3052  0.2406 -0.4198
 4155SOL    HW123924   1.555   2.431  15.173 -0.5652  0.4233  0.3881
 4155SOL    HW223925   1.647   2.445  15.297 -0.7305 -0.7740 -0.2601
 4156SOL     OW23926   1.556   2.283   9.726 -0.2346  0.1216  0.1956
 4156SOL    HW123927   1.586   2.192   9.719  0.9335  0.5895 -0.9108
 4156SOL    HW223928   1.630   2.339   9.704  0.5225 -2.2982 -3.3921
 4157SOL     OW23929   1.693   0.766   3.570  0.3037  0.2112 -0.0905
 4157SOL    HW123930   1.727   0.725   3.650  1.2104 -0.1968 -0.6829
 4157SOL    HW223931   1.711   0.858   3.588  1.1138  0.4298 -2.0632
 4158SOL     OW23932   4.327   3.146   3.499 -0.4693  0.1520 -0.2259
 4158SOL    HW123933   4.414   3.186   3.499 -0.4075  0.0185 -2.7236
 4158SOL    HW223934   4.342   3.051   3.501 -0.3026  0.2346  2.0447
 4159SOL     OW23935   4.445   3.577   9.784  0.2204  0.2903 -0.3761
 4159SOL    HW123936   4.508   3.648   9.794  0.4961 -0.0946  0.6524
 4159SOL    HW223937   4.508   3.505   9.775  0.5620  0.4314  0.8256
 4160SOL     OW23938   3.534   3.784   2.399 -0.3935  0.8803  0.1806
 4160SOL    HW123939   3.599   3.714   2.389 -1.4744  0.2751 -2.4651
 4160SOL    HW223940   3.501   3.796   2.311  1.2566  0.9017 -0.4426
 4161SOL     OW23941   1.267   2.018   3.929 -0.5229 -0.0201 -0.0644
 4161SOL    HW123942   1.195   1.958   3.910 -1.3479  1.0617 -0.3752
 4161SOL    HW223943   1.241   2.062   4.010 -3.1859 -2.1587  0.2096
 4162SOL     OW23944   2.492   1.221   5.395 -0.3423 -0.0053 -0.2418
 4162SOL    HW123945   2.459   1.150   5.341 -2.2868 -1.2723  2.6010
 4162SOL    HW223946   2.497   1.294   5.332 -2.6926 -2.2260 -2.9515
 4163SOL     OW23947   0.749   3.907   3.650 -0.4045  0.1333 -0.4420
 4163SOL    HW123948   0.785   3.973   3.592 -2.7951  0.4347 -1.5786
 4163SOL    HW223949   0.814   3.917   3.720 -0.0485  1.4964 -0.9680
 4164SOL     OW23950   3.334   0.924   5.540 -0.4012 -0.1915 -0.4196
 4164SOL    HW123951   3.246   0.901   5.569 -1.3065  0.5134 -2.6969
 4164SOL    HW223952   3.339   0.887   5.452 -2.8612 -1.8311  0.1569
 4165SOL     OW23953   2.756   3.431   9.844  0.3396  0.3106 -0.4072
 4165SOL    HW123954   2.673   3.399   9.880  1.7655 -1.6009  1.1455
 4165SOL    HW223955   2.792   3.458   9.929 -0.4125 -1.9511  0.6296
 4166SOL     OW23956   3.507   4.287   5.199 -0.0101  0.1796  0.2814
 4166SOL    HW123957   3.599   4.268   5.184  0.4519  0.1685  3.0755
 4166SOL    HW223958   3.470   4.201   5.184 -0.5450  0.2459  1.2050
 4167SOL     OW23959   2.164   0.017   9.538 -0.0117  0.1571  0.5545
 4167SOL    HW123960   2.243   0.015   9.485  1.3625 -2.3409  2.7024
 4167SOL    HW223961   2.122   4.660   9.518  1.0005  0.5391 -3.2112
 4168SOL     OW23962   0.563   0.671   3.075 -0.2398  0.0089 -0.1427
 4168SOL    HW123963   0.636   0.683   3.136  1.1014 -0.5701 -1.6567
 4168SOL    HW223964   0.554   0.764   3.055  1.3037  0.3573  0.8229
 4169SOL     OW23965   0.365   1.037   5.839  0.3047  0.1384  0.3009
 4169SOL    HW123966   0.432   1.079   5.784  0.1173 -1.1144 -0.8903
 4169SOL    HW223967   0.395   0.948   5.857 -1.6039 -0.8638 -1.3464
 4170SOL     OW23968   4.327   3.980  10.159 -0.1862 -0.1144  0.1503
 4170SOL    HW123969   4.283   4.053  10.202 -0.0049 -0.8829  1.6107
 4170SOL    HW223970   4.269   3.982  10.083  0.8661  0.5327 -0.6524
 4171SOL     OW23971   3.525   2.945   2.569  0.1059 -0.0720  0.1632
 4171SOL    HW123972   3.605   2.931   2.518  0.6478  0.7372  0.7686
 4171SOL    HW223973   3.478   3.009   2.516  1.5410  0.2910 -0.6894
 4172SOL     OW23974   1.966   1.279   1.876 -0.4787 -0.2491 -0.8930
 4172SOL    HW123975   1.970   1.288   1.781  0.8919  0.5679 -0.7671
 4172SOL    HW223976   2.047   1.326   1.896 -0.2085 -1.2985  0.4873
 4173SOL     OW23977   4.282   3.925   5.721  0.3352  0.1504 -0.1654
 4173SOL    HW123978   4.240   3.880   5.795 -1.2376 -1.7594 -2.1881
 4173SOL    HW223979   4.330   4.000   5.755  0.3361 -0.0601  0.2951
 4174SOL     OW23980   0.167   4.300   3.922  0.4379 -0.1410  0.3442
 4174SOL    HW123981   0.102   4.254   3.868 -0.6361  2.0330 -0.2260
 4174SOL    HW223982   0.123   4.383   3.937 -2.7725 -1.4624 -1.6675
 4175SOL     OW23983   4.281   3.356   3.663 -0.4411  0.0701  0.1686
 4175SOL    HW123984   4.261   3.280   3.607  2.8906 -0.6921  0.0152
 4175SOL    HW223985   4.197   3.399   3.679 -0.0495  0.5809  0.8386
 4176SOL     OW23986   0.007   0.207   0.935  0.0672 -0.0808  0.6300
 4176SOL    HW123987   0.050   0.183   1.017  0.5447 -0.3792  0.2950
 4176SOL    HW223988   4.666   0.272   0.950  0.5377  0.2477  1.3791
 4177SOL     OW23989   4.155   0.145   8.971 -0.0820  0.2025 -0.1685
 4177SOL    HW123990   4.240   0.128   8.931 -0.4140  0.6211 -1.0548
 4177SOL    HW223991   4.179   0.210   9.037  1.2037  0.3959 -0.8359
 4178SOL     OW23992   1.707   2.687   6.818  0.1835 -0.0402  0.3947
 4178SOL    HW123993   1.739   2.598   6.832  2.1588  0.5402 -0.4415
 4178SOL    HW223994   1.632   2.667   6.761  0.0086  0.0917  0.5805
 4179SOL     OW23995   1.855   4.178   6.115  0.5049 -0.1956 -0.8023
 4179SOL    HW123996   1.862   4.084   6.132 -0.3338 -0.0866  0.1130
 4179SOL    HW223997   1.767   4.166   6.080 -0.0844 -2.2842  1.3972
 4180SOL     OW23998   0.445   1.111   7.100  0.2116  0.6796 -0.3231
 4180SOL    HW123999   0.492   1.071   7.172  1.3079 -1.2812 -2.1196
 4180SOL    HW224000   0.432   1.039   7.038 -1.1208  0.2169  0.5180
 4181SOL     OW24001   3.241   2.217   4.458 -0.4242  0.2982  0.1358
 4181SOL    HW124002   3.151   2.186   4.467  0.2473 -1.4470  0.7032
 4181SOL    HW224003   3.293   2.172   4.524 -0.1270  2.2402  1.2298
 4182SOL     OW24004   4.598   2.353   5.927  0.4779 -0.0216 -0.0081
 4182SOL    HW124005   4.578   2.320   5.839 -0.8027  0.1693  0.2149
 4182SOL    HW224006   4.620   2.443   5.902 -0.6776 -0.0006 -0.9421
 4183SOL     OW24007   4.003   4.073   8.896  0.5137  0.2409  0.2624
 4183SOL    HW124008   4.098   4.068   8.887  0.2241  2.3492 -3.6415
 4183SOL    HW224009   3.990   4.153   8.846  2.0252  0.1005 -0.3499
 4184SOL     OW24010   4.001   1.091   4.764  0.3399 -0.1742 -0.5190
 4184SOL    HW124011   4.055   1.014   4.749  1.3950  0.3799  0.4840
 4184SOL    HW224012   3.910   1.062   4.770  0.2148  0.0510 -1.3113
 4185SOL     OW24013   2.988   0.800   6.942 -0.1784 -0.4244 -0.5879
 4185SOL    HW124014   3.051   0.767   7.006  1.1566  0.9521 -1.1805
 4185SOL    HW224015   2.906   0.779   6.986 -0.6083  2.5002  0.0580
 4186SOL     OW24016   3.801   0.158   7.497 -0.4316  0.6045 -0.1013
 4186SOL    HW124017   3.750   0.083   7.528  1.3812 -0.2269  0.9270
 4186SOL    HW224018   3.891   0.126   7.510 -0.3812  0.9690  0.4527
 4187SOL     OW24019   3.291   3.189   5.893  0.1588  0.1037 -0.7936
 4187SOL    HW124020   3.276   3.105   5.934 -1.8637  0.9242  0.1635
 4187SOL    HW224021   3.206   3.230   5.914  1.1220  0.9866  1.3951
 4188SOL     OW24022   1.205   4.281   4.630 -0.2644 -0.1041 -0.3848
 4188SOL    HW124023   1.111   4.298   4.630 -0.5939 -2.0403  1.7067
 4188SOL    HW224024   1.218   4.215   4.697 -1.2288 -0.6026 -0.6888
 4189SOL     OW24025   1.540   3.217   8.333  0.8134 -0.3586 -0.5934
 4189SOL    HW124026   1.539   3.297   8.281 -4.2669  0.0124  0.0367
 4189SOL    HW224027   1.494   3.235   8.416  1.6459  0.2802 -0.2705
 4190SOL     OW24028   4.223   4.639  16.201  0.4274  0.1059  0.0355
 4190SOL    HW124029   4.185   4.690  16.272 -0.1402 -1.0892  0.5869
 4190SOL    HW224030   4.316   4.663  16.201  1.5115 -3.9889  0.8865
 4191SOL     OW24031   0.532   2.115  15.769  0.6735 -0.0120  0.1404
 4191SOL    HW124032   0.468   2.181  15.742 -1.0734 -2.0517 -0.7073
 4191SOL    HW224033   0.614   2.159  15.747  0.0865  1.4483  0.8940
 4192SOL     OW24034   0.927   1.770   0.988 -0.0025 -0.1615 -0.3309
 4192SOL    HW124035   0.984   1.723   1.049  0.2674  0.8073  0.1546
 4192SOL    HW224036   0.877   1.829   1.044  0.4377  0.3632 -0.4910
 4193SOL     OW24037   3.322   1.170   6.549 -0.6061 -0.1069  0.0767
 4193SOL    HW124038   3.323   1.264   6.569 -2.7632 -0.1354  0.3344
 4193SOL    HW224039   3.332   1.125   6.633  0.1102  0.3203  0.2181
 4194SOL     OW24040   3.731   2.254   7.016  0.3394 -0.1601  0.0154
 4194SOL    HW124041   3.681   2.304   7.081 -1.8462 -0.8958 -1.0787
 4194SOL    HW224042   3.780   2.200   7.077  0.8418 -1.2186 -1.3248
 4195SOL     OW24043   1.759   0.812   0.242  0.1139  0.0243 -0.9863
 4195SOL    HW124044   1.830   0.873   0.223 -0.2364  0.1582 -1.8655
 4195SOL    HW224045   1.807   0.770   0.313 -0.7779  0.0161 -0.3931
 4196SOL     OW24046   2.674   3.318  10.541 -0.3375 -0.2648  0.2018
 4196SOL    HW124047   2.655   3.404  10.504  0.6451 -0.0100  0.2852
 4196SOL    HW224048   2.764   3.336  10.568 -0.5228  1.7031 -0.4776
 4197SOL     OW24049   0.020   4.199   8.216 -0.4504  0.6537 -0.3007
 4197SOL    HW124050   0.043   4.198   8.123  1.6227  1.4959  0.1978
 4197SOL    HW224051   4.694   4.120   8.226  1.8132 -1.0877 -2.0901
 4198SOL     OW24052   2.982   1.047   6.213 -0.1011 -0.3654 -0.0175
 4198SOL    HW124053   2.990   1.141   6.231 -0.1686 -0.0734 -1.4771
 4198SOL    HW224054   2.981   1.008   6.300 -0.8277 -1.4049 -0.4945
 4199SOL     OW24055   2.985   1.345   4.324 -0.1208 -0.1432  0.4502
 4199SOL    HW124056   3.038   1.326   4.401  3.1965  0.2571 -1.7442
 4199SOL    HW224057   2.926   1.270   4.322  0.3212 -0.4449 -0.8848
 4200SOL     OW24058   2.069   2.293   7.733 -0.1644  0.4581  0.5033
 4200SOL    HW124059   2.128   2.223   7.706 -0.8916 -1.0930  2.9614
 4200SOL    HW224060   2.098   2.365   7.676  0.7957 -0.4970 -0.1952
 4201SOL     OW24061   0.261   3.633   9.249 -0.1022  0.1401 -0.2607
 4201SOL    HW124062   0.202   3.695   9.205 -1.2084 -0.2423  0.6669
 4201SOL    HW224063   0.213   3.552   9.233  2.2671 -1.2167 -0.4946
 4202SOL     OW24064   2.881   2.092   5.652  0.0096 -0.0876 -0.1764
 4202SOL    HW124065   2.941   2.025   5.686  0.6437 -1.1605 -3.3907
 4202SOL    HW224066   2.923   2.106   5.568 -0.5603 -1.2676 -0.6663
 4203SOL     OW24067   1.688   1.153   2.526 -0.0824  0.2730  0.4489
 4203SOL    HW124068   1.733   1.152   2.442 -1.6842  1.8808 -0.4315
 4203SOL    HW224069   1.595   1.151   2.501  0.0289 -0.9844  0.1487
 4204SOL     OW24070   4.557   1.770  13.232  0.0944 -0.0673  0.0245
 4204SOL    HW124071   4.467   1.801  13.245  0.3552  1.1887 -1.0835
 4204SOL    HW224072   4.596   1.830  13.169 -0.8651  1.7892  1.1826
 4205SOL     OW24073   3.321   0.406   8.186 -0.1309 -0.3902 -0.1876
 4205SOL    HW124074   3.294   0.331   8.133  0.7105 -1.9821  1.6273
 4205SOL    HW224075   3.396   0.369   8.233 -0.3504 -1.8558 -0.9678
 4206SOL     OW24076   1.025   3.031   2.382 -0.1255  0.6644  0.2712
 4206SOL    HW124077   0.951   2.991   2.427 -1.4735  1.2144 -1.4545
 4206SOL    HW224078   0.987   3.028   2.294 -0.1488 -1.4109  0.3505
 4207SOL     OW24079   4.533   1.960   0.445  0.0973 -0.1551 -0.4453
 4207SOL    HW124080   4.608   1.986   0.498  0.1938 -1.7460  0.1928
 4207SOL    HW224081   4.477   2.037   0.456  0.7401  0.1795  0.4814
 4208SOL     OW24082   2.265   0.146  13.806  0.0244  0.2263  0.1848
 4208SOL    HW124083   2.309   0.230  13.799  0.7116 -0.0436  1.2948
 4208SOL    HW224084   2.345   0.099  13.828 -0.5216 -0.4475  0.7648
 4209SOL     OW24085   1.640   3.529   5.575 -0.0881  0.1190 -0.3055
 4209SOL    HW124086   1.666   3.440   5.596  2.0250  0.6045 -0.8953
 4209SOL    HW224087   1.641   3.516   5.480 -0.1356  0.9658 -0.4213
 4210SOL     OW24088   3.402   0.985   6.059 -0.1338 -0.4972 -0.2652
 4210SOL    HW124089   3.316   0.980   6.018 -0.2557  0.5805 -0.1431
 4210SOL    HW224090   3.386   1.034   6.140 -0.3290 -2.1306  0.6974
 4211SOL     OW24091   2.322   3.618  14.995  0.7245 -0.3852  0.0398
 4211SOL    HW124092   2.300   3.527  15.018 -0.3569 -0.3537 -0.8845
 4211SOL    HW224093   2.308   3.625  14.901  0.3459 -0.5948  0.0799
 4212SOL     OW24094   0.699   1.012  11.436  1.0320  0.3307  0.0402
 4212SOL    HW124095   0.670   1.075  11.502 -0.2434 -0.1859 -0.0351
 4212SOL    HW224096   0.619   0.989  11.389  0.6622 -0.9414  1.3022
 4213SOL     OW24097   0.097   0.579  14.460 -0.2843  0.1284  0.0973
 4213SOL    HW124098   0.171   0.616  14.508 -2.4536  3.1407  1.0991
 4213SOL    HW224099   0.040   0.549  14.532 -0.1219 -0.3527  0.0256
 4214SOL     OW24100   1.992   2.218   6.134 -0.0664 -0.2846 -0.1010
 4214SOL    HW124101   2.062   2.153   6.124  1.4479  1.1814  0.9133
 4214SOL    HW224102   1.933   2.161   6.182  0.0113 -1.9159 -1.9375
 4215SOL     OW24103   2.579   4.170   7.324 -0.1342  0.2922  0.2361
 4215SOL    HW124104   2.539   4.187   7.238  0.8324 -0.5722 -0.3948
 4215SOL    HW224105   2.532   4.100   7.369 -0.4291  1.8030  2.2778
 4216SOL     OW24106   4.060   0.481  14.129 -0.2137 -0.1264 -0.0421
 4216SOL    HW124107   4.070   0.574  14.151  1.8560 -0.1930 -0.7406
 4216SOL    HW224108   4.051   0.440  14.215  1.5976 -0.5187 -0.0306
 4217SOL     OW24109   1.478   0.949   2.336 -0.4893  0.0365  0.3945
 4217SOL    HW124110   1.447   0.941   2.246 -0.4550  1.9639  0.2147
 4217SOL    HW224111   1.484   1.044   2.340  0.4443  0.0293 -0.8461
 4218SOL     OW24112   2.897   0.598   2.799  0.1383 -0.4232  0.4929
 4218SOL    HW124113   2.828   0.585   2.864 -0.6863 -0.3860 -0.3696
 4218SOL    HW224114   2.941   0.677   2.831 -1.1406 -0.5854  2.6600
 4219SOL     OW24115   3.483   1.435  16.356  0.7917 -0.0208  0.1924
 4219SOL    HW124116   3.557   1.495  16.343 -1.0556  1.9722 -1.0609
 4219SOL    HW224117   3.515   1.408  16.442 -1.5818 -2.2092  0.3831
 4220SOL     OW24118   3.656   0.507   4.493  0.4634  0.1520 -0.1514
 4220SOL    HW124119   3.568   0.539   4.477  0.8953  0.6777 -1.4477
 4220SOL    HW224120   3.706   0.589   4.493 -0.4305  0.6817 -1.7267
 4221SOL     OW24121   3.747   0.435   6.315 -0.0757 -0.0105  0.2469
 4221SOL    HW124122   3.706   0.418   6.230 -1.6756  0.9101  0.8331
 4221SOL    HW224123   3.756   0.530   6.314  0.4784 -0.0873 -3.9680
 4222SOL     OW24124   3.184   2.635  12.143  0.0406  0.4367  0.1222
 4222SOL    HW124125   3.206   2.608  12.231  0.9478  0.1449 -0.1995
 4222SOL    HW224126   3.119   2.568  12.121  2.4047 -1.2188 -1.8220
 4223SOL     OW24127   0.980   0.608   1.560 -0.0338  0.1864 -0.5714
 4223SOL    HW124128   1.012   0.570   1.478  0.3842  1.4947 -1.0131
 4223SOL    HW224129   0.890   0.619   1.528 -0.2240 -0.7353 -0.3418
 4224SOL     OW24130   1.339   0.291   2.321 -0.8373  0.1994 -0.1785
 4224SOL    HW124131   1.299   0.351   2.257  0.2701  0.7106 -0.3901
 4224SOL    HW224132   1.269   0.293   2.386 -0.5995  2.3042  0.0352
 4225SOL     OW24133   4.319   1.769   4.579  0.1787  0.4962 -0.8212
 4225SOL    HW124134   4.414   1.767   4.563  0.4428  0.6551  0.6707
 4225SOL    HW224135   4.303   1.692   4.635  2.5361  0.6391  0.0789
 4226SOL     OW24136   2.510   2.883  13.989 -0.4577  0.3506 -0.1258
 4226SOL    HW124137   2.432   2.922  14.029 -0.6681 -0.1109 -0.0859
 4226SOL    HW224138   2.484   2.792  14.008 -0.5313  0.1405 -1.2729
 4227SOL     OW24139   3.012   1.448   4.694 -0.2643 -1.3035 -0.0353
 4227SOL    HW124140   3.041   1.386   4.627  0.8431 -1.8837  0.9901
 4227SOL    HW224141   3.061   1.415   4.768 -1.7041 -1.5179  0.8179
 4228SOL     OW24142   3.795   3.052   0.349  0.1502 -0.6774 -0.3942
 4228SOL    HW124143   3.787   3.137   0.394  1.4087  0.3150 -2.0406
 4228SOL    HW224144   3.708   3.045   0.310  0.1578 -1.2931 -0.2967
 4229SOL     OW24145   0.649   1.309   6.147  0.1639 -0.1876 -0.2248
 4229SOL    HW124146   0.637   1.255   6.225 -1.2807  0.0626 -0.2745
 4229SOL    HW224147   0.559   1.331   6.122  0.6641 -0.9658 -2.7732
 4230SOL     OW24148   0.529   2.236   3.678  0.2490  0.0082 -0.4086
 4230SOL    HW124149   0.615   2.246   3.637 -0.3781  0.9360 -1.4919
 4230SOL    HW224150   0.560   2.227   3.768 -2.7636 -1.3731  0.4870
 4231SOL     OW24151   0.514   2.035   1.464  0.1117 -0.1363  0.6392
 4231SOL    HW124152   0.575   2.005   1.532 -0.8265 -2.2556  0.5517
 4231SOL    HW224153   0.570   2.020   1.388  0.2089 -0.9303  0.8738
 4232SOL     OW24154   3.307   0.772   5.030  0.3056 -0.0967 -0.1029
 4232SOL    HW124155   3.363   0.694   5.027 -0.1422 -0.5335  2.9600
 4232SOL    HW224156   3.308   0.807   4.941  1.5756  1.9710  0.7175
 4233SOL     OW24157   2.004   0.154  11.421 -0.0033 -0.2709 -0.2947
 4233SOL    HW124158   1.977   0.087  11.484  1.6439 -0.0566  0.6276
 4233SOL    HW224159   2.028   0.217  11.490  1.7007  0.8719 -1.9439
 4234SOL     OW24160   2.325   1.106  13.363  0.4967  0.2989  1.1652
 4234SOL    HW124161   2.271   1.159  13.305  0.9333  3.7744  3.8986
 4234SOL    HW224162   2.356   1.168  13.429  3.5916 -0.2111  0.2359
 4235SOL     OW24163   3.594   2.699   6.070  0.0419  0.1225 -0.1345
 4235SOL    HW124164   3.590   2.624   6.012  2.3181 -1.1148  1.2794
 4235SOL    HW224165   3.677   2.745   6.053  0.5438 -1.2415 -1.3423
 4236SOL     OW24166   1.900   1.752  17.132 -0.1968 -0.0693  0.1014
 4236SOL    HW124167   1.837   1.718  17.195 -1.1894  0.2451 -0.7226
 4236SOL    HW224168   1.919   1.676  17.076  3.3516  0.0508  1.1387
 4237SOL     OW24169   0.927   1.138   1.618 -0.7339 -0.0856  0.0709
 4237SOL    HW124170   0.863   1.152   1.548 -0.1243  0.1986 -0.4344
 4237SOL    HW224171   0.976   1.071   1.571  2.4898  0.9814  1.9357
 4238SOL     OW24172   0.076   1.788   4.280  0.3717 -0.4178  0.3689
 4238SOL    HW124173   0.090   1.869   4.232 -1.4592  0.7066  1.7405
 4238SOL    HW224174   0.157   1.738   4.265 -0.3041 -1.2648 -0.4437
 4239SOL     OW24175   2.601   0.403   3.730 -0.5113  0.1185  0.0667
 4239SOL    HW124176   2.521   0.453   3.717 -0.5153  0.1393  0.1769
 4239SOL    HW224177   2.622   0.385   3.638  1.4546 -1.6951  0.8677
 4240SOL     OW24178   2.403   2.178   7.194  0.0770  0.7103  0.0258
 4240SOL    HW124179   2.469   2.245   7.175  2.7744 -1.9018  0.1809
 4240SOL    HW224180   2.353   2.223   7.262  0.3662  0.4735  0.3975
 4241SOL     OW24181   1.801   0.825   2.920  0.2465 -0.0321  0.5107
 4241SOL    HW124182   1.838   0.868   2.843 -0.8683  0.7900  0.4353
 4241SOL    HW224183   1.799   0.734   2.891  0.0172 -0.2866  1.3290
 4242SOL     OW24184   2.389   2.428   6.820 -0.0398 -0.0866 -0.2700
 4242SOL    HW124185   2.421   2.518   6.811 -0.1231 -0.1174 -0.8753
 4242SOL    HW224186   2.294   2.436   6.824 -0.0441  0.0809 -0.6833
 4243SOL     OW24187   3.897   0.896   0.448  0.0417  0.6650 -0.0568
 4243SOL    HW124188   3.818   0.951   0.455 -0.2712  0.3131 -0.8767
 4243SOL    HW224189   3.879   0.843   0.371  0.6099 -1.8783  1.5688
 4244SOL     OW24190   4.132   1.376  12.809 -0.0581 -0.2709 -0.6247
 4244SOL    HW124191   4.092   1.463  12.802 -1.4395 -0.7130  1.5913
 4244SOL    HW224192   4.140   1.362  12.904  0.6284  2.5172 -0.2644
 4245SOL     OW24193   3.085   1.899   5.649  0.2312 -0.0657  0.0413
 4245SOL    HW124194   3.026   1.835   5.688  0.3341 -2.1903 -3.2985
 4245SOL    HW224195   3.103   1.858   5.564  1.1397  3.1439 -1.3354
 4246SOL     OW24196   1.360   0.460   3.423  0.3609  0.0749  0.8603
 4246SOL    HW124197   1.430   0.420   3.372  0.0342  1.1655 -0.4480
 4246SOL    HW224198   1.395   0.542   3.460 -2.0223  0.5082  2.1558
 4247SOL     OW24199   3.811   2.383   4.930 -0.2414 -0.6621  0.0091
 4247SOL    HW124200   3.852   2.307   4.888  0.2991 -0.1185 -0.4376
 4247SOL    HW224201   3.856   2.462   4.901  1.4011 -1.2693  0.8975
 4248SOL     OW24202   1.895   0.820  11.842 -0.3855 -0.4141 -0.2380
 4248SOL    HW124203   1.875   0.914  11.843 -1.1076 -0.5536 -1.0156
 4248SOL    HW224204   1.986   0.824  11.869 -0.3658  0.3966 -0.4274
 4249SOL     OW24205   0.751   0.854  11.222 -0.7724  0.2389 -0.1134
 4249SOL    HW124206   0.838   0.830  11.189 -1.7101 -0.6072 -1.9611
 4249SOL    HW224207   0.765   0.916  11.293  0.6092  0.8875 -0.9385
 4250SOL     OW24208   0.781   0.077   7.218  0.5005  0.1205 -0.5538
 4250SOL    HW124209   0.790   0.049   7.309 -1.3259  0.2056 -0.3333
 4250SOL    HW224210   0.747   0.166   7.224  0.3150 -0.0091  0.3731
 4251SOL     OW24211   2.366   0.319   5.147 -0.1769  0.3673 -0.2507
 4251SOL    HW124212   2.344   0.386   5.211 -2.6716 -0.3665 -0.3590
 4251SOL    HW224213   2.300   0.253   5.169 -0.3423  0.8004  0.5546
 4252SOL     OW24214   0.334   3.493   1.403  0.4230  0.1377  0.0978
 4252SOL    HW124215   0.279   3.568   1.428  0.6177  0.7445 -1.3308
 4252SOL    HW224216   0.383   3.480   1.485  0.2571 -1.9683 -0.1468
 4253SOL     OW24217   3.543   2.002  17.485  0.3094 -0.1362 -0.6366
 4253SOL    HW124218   3.617   2.007  17.425  0.1094 -0.3453 -0.8959
 4253SOL    HW224219   3.502   2.087  17.468 -0.2363 -0.2110  0.3028
 4254SOL     OW24220   2.923   1.617  14.214 -0.1779 -0.6612  0.0653
 4254SOL    HW124221   2.916   1.618  14.119  1.0498  0.7938 -0.0075
 4254SOL    HW224222   2.961   1.704  14.230 -3.1100  0.5389  0.4323
 4255SOL     OW24223   2.055   2.040  10.454 -0.4866 -0.3586 -0.4084
 4255SOL    HW124224   1.976   2.002  10.492  0.6102 -1.4208  0.8300
 4255SOL    HW224225   2.050   2.132  10.480  1.6913 -0.2596 -0.3353
 4256SOL     OW24226   1.565   4.473   5.626  0.2850 -0.1519 -0.1549
 4256SOL    HW124227   1.491   4.437   5.576 -0.9213  1.5957  0.3479
 4256SOL    HW224228   1.518   4.556   5.633  1.2814  0.2813  1.3775
 4257SOL     OW24229   2.899   1.284  15.625 -0.1837  0.5417 -0.3492
 4257SOL    HW124230   2.907   1.239  15.709 -2.1741 -0.9225 -0.9485
 4257SOL    HW224231   2.814   1.325  15.638 -0.3979  0.7151 -2.3214
 4258SOL     OW24232   2.384   1.027  14.487  0.5427 -0.1529  0.5259
 4258SOL    HW124233   2.388   0.966  14.414 -1.4978 -0.1609  0.4106
 4258SOL    HW224234   2.311   0.987  14.534  0.0798  1.9114  1.5603
 4259SOL     OW24235   3.491   0.533   4.166  0.0637  0.1743  0.3523
 4259SOL    HW124236   3.528   0.615   4.197 -2.5590  1.3817  0.2663
 4259SOL    HW224237   3.554   0.462   4.180 -0.2520 -0.3745 -0.9454
 4260SOL     OW24238   2.839   4.388   2.230 -0.1419 -0.5843 -0.3037
 4260SOL    HW124239   2.751   4.418   2.255  0.3491  2.0062 -1.7615
 4260SOL    HW224240   2.812   4.303   2.195  0.0461 -0.0753 -1.6557
 4261SOL     OW24241   1.234   2.374   5.649  0.6185 -0.3093 -0.1896
 4261SOL    HW124242   1.267   2.444   5.594 -1.9720 -0.9256 -2.5380
 4261SOL    HW224243   1.142   2.397   5.661  1.3084  1.1992  2.1127
 4262SOL     OW24244   2.689   2.608   6.066 -0.1115 -0.2014 -0.4005
 4262SOL    HW124245   2.765   2.580   6.116  0.0313 -1.9850 -1.6070
 4262SOL    HW224246   2.652   2.665   6.134  0.3222  1.0678 -1.2159
 4263SOL     OW24247   0.613   1.567   3.465 -0.0661 -0.2203  0.1777
 4263SOL    HW124248   0.548   1.623   3.423  0.0298 -0.1638  0.1049
 4263SOL    HW224249   0.643   1.633   3.528 -0.1247  0.0212 -0.0482
 4264SOL     OW24250   4.268   3.628   7.352 -0.8538  0.4507  0.2561
 4264SOL    HW124251   4.252   3.698   7.415  3.5429 -0.6830  2.6220
 4264SOL    HW224252   4.221   3.552   7.386 -1.7601 -0.2128 -2.4783
 4265SOL     OW24253   3.957   0.792   4.915 -0.1155 -0.4458 -0.5485
 4265SOL    HW124254   3.983   0.705   4.887  0.3475 -0.6219  0.4367
 4265SOL    HW224255   3.965   0.783   5.010  0.1838 -2.8921 -0.7998
 4266SOL     OW24256   0.260   0.388   3.509 -0.2612  0.2178 -0.1498
 4266SOL    HW124257   0.202   0.313   3.495  1.3404 -0.7229 -1.8207
 4266SOL    HW224258   0.255   0.438   3.428 -0.3970  0.6634  0.1372
 4267SOL     OW24259   1.597   1.025   7.574  0.3494 -0.0417  0.1079
 4267SOL    HW124260   1.561   0.998   7.489 -0.7537  0.2804  0.4763
 4267SOL    HW224261   1.552   1.106   7.596  1.7767  1.1988 -1.4959
 4268SOL     OW24262   1.420   0.685   3.546 -0.1952  0.5002  0.9441
 4268SOL    HW124263   1.374   0.690   3.630 -1.6421  0.8880  0.1254
 4268SOL    HW224264   1.502   0.728   3.569  0.4948 -1.3439  1.8912
 4269SOL     OW24265   1.941   0.658   7.262 -0.6601 -0.2035  0.4559
 4269SOL    HW124266   1.887   0.717   7.210  0.0473  1.4260  1.5513
 4269SOL    HW224267   1.999   0.719   7.308  2.2227 -1.9276 -0.9123
 4270SOL     OW24268   2.725   0.002   9.092 -0.0189 -0.2050  0.4121
 4270SOL    HW124269   2.765   4.646   9.116 -0.9918 -0.7325  0.1875
 4270SOL    HW224270   2.632   4.710   9.095 -0.4139  1.2873 -2.2436
 4271SOL     OW24271   0.512   4.021   5.561  0.0196 -0.1863  0.4846
 4271SOL    HW124272   0.534   4.032   5.654 -1.7908 -0.0666  0.9008
 4271SOL    HW224273   0.454   4.097   5.556  2.7204  1.8611  0.4751
 4272SOL     OW24274   0.088   4.261  15.620  0.0546 -0.1038 -0.6698
 4272SOL    HW124275   0.152   4.265  15.549 -1.0869 -2.0508 -1.8140
 4272SOL    HW224276   0.023   4.198  15.588  2.5088 -2.3746 -1.2060
 4273SOL     OW24277   1.594   2.495   5.411 -0.4101  0.3484 -0.0106
 4273SOL    HW124278   1.625   2.446   5.486 -2.7028  1.3389  1.5971
 4273SOL    HW224279   1.505   2.460   5.402  0.5590 -1.9938 -0.3376
 4274SOL     OW24280   4.627   4.352   5.310  0.3353 -0.3755 -1.0601
 4274SOL    HW124281   4.539   4.342   5.275  0.0667  1.2553 -0.8111
 4274SOL    HW224282   4.654   4.435   5.271  0.8166 -0.1208 -0.2026
 4275SOL     OW24283   3.212   3.384   9.783  0.3079  0.3474 -0.3789
 4275SOL    HW124284   3.120   3.379   9.755 -0.4481  0.9482  1.9483
 4275SOL    HW224285   3.218   3.312   9.847 -1.9379  0.8743  0.4339
 4276SOL     OW24286   3.594   2.084   1.257  0.2227 -0.0396 -0.0371
 4276SOL    HW124287   3.560   2.125   1.337  3.5678  0.6537  1.0289
 4276SOL    HW224288   3.683   2.117   1.251  0.0627  0.2172 -0.9787
 4277SOL     OW24289   0.724   4.423   1.898  0.1926 -0.2016  0.1462
 4277SOL    HW124290   0.684   4.501   1.858 -0.2933 -1.0742 -1.0758
 4277SOL    HW224291   0.803   4.415   1.844  0.2078  1.0956 -0.0290
 4278SOL     OW24292   0.019   2.221   8.731  0.5469  0.4963 -0.4674
 4278SOL    HW124293   4.708   2.308   8.729 -1.6000 -0.4337  1.0480
 4278SOL    HW224294   4.683   2.174   8.784  0.1421 -0.1369 -1.5138
 4279SOL     OW24295   1.199   4.156   8.658  0.3423  0.3979 -0.0429
 4279SOL    HW124296   1.210   4.171   8.751  0.5889  0.3684 -0.0679
 4279SOL    HW224297   1.247   4.074   8.650 -1.1695 -0.7162  2.7596
 4280SOL     OW24298   2.629   3.148   8.942  0.2795 -0.3150  0.2004
 4280SOL    HW124299   2.678   3.225   8.913 -2.7195  1.3058 -0.5881
 4280SOL    HW224300   2.549   3.162   8.892  1.6270 -2.4476 -2.6036
 4281SOL     OW24301   3.468   4.533   6.626 -0.2001  0.0059 -0.1984
 4281SOL    HW124302   3.493   4.543   6.534  0.4079  0.9904  0.0729
 4281SOL    HW224303   3.437   4.443   6.619  0.5625 -0.3371  0.9459
 4282SOL     OW24304   4.471   0.218   8.109 -0.0441 -0.3101 -0.2983
 4282SOL    HW124305   4.414   0.209   8.186 -0.2553  1.6152 -0.2348
 4282SOL    HW224306   4.451   0.148   8.047  1.6734 -0.5855 -0.5433
 4283SOL     OW24307   2.286   4.027   8.499  0.1858  0.0536 -0.7941
 4283SOL    HW124308   2.207   4.069   8.532 -0.0254 -0.5589 -0.5400
 4283SOL    HW224309   2.353   4.094   8.515 -1.4762  1.6995 -0.6597
 4284SOL     OW24310   2.464   3.220   4.975  0.2666  0.0985 -0.7987
 4284SOL    HW124311   2.424   3.250   4.893  1.2522  1.5307 -0.7457
 4284SOL    HW224312   2.556   3.239   4.958  0.3922  0.1511 -0.0429
 4285SOL     OW24313   4.633   3.823   4.903  0.4398 -0.0374 -0.3444
 4285SOL    HW124314   4.675   3.809   4.818  0.4388  0.5909 -0.4526
 4285SOL    HW224315   4.677   3.745   4.937 -0.1185 -0.1312  0.1556
 4286SOL     OW24316   3.808   4.521   1.610  0.1872 -0.7215  0.0483
 4286SOL    HW124317   3.794   4.428   1.630  0.6276 -1.5421 -3.4850
 4286SOL    HW224318   3.795   4.515   1.515  1.8853 -0.4923 -0.1906
 4287SOL     OW24319   1.591   4.514   9.156 -0.9486  0.5024 -0.3382
 4287SOL    HW124320   1.637   4.453   9.213  0.4523 -1.3204 -3.4345
 4287SOL    HW224321   1.583   4.464   9.075  1.4786 -0.4880  0.0244
 4288SOL     OW24322   3.336   3.934   7.198  0.8297  0.3813  0.0692
 4288SOL    HW124323   3.284   4.013   7.181 -1.1469 -0.8162  0.5694
 4288SOL    HW224324   3.415   3.955   7.148  0.9016  1.0532  0.4721
 4289SOL     OW24325   2.484   3.199   2.358 -0.2323 -0.0009  0.4050
 4289SOL    HW124326   2.474   3.224   2.266  1.8669  2.5912  0.8820
 4289SOL    HW224327   2.517   3.278   2.399 -0.1097  0.5297 -0.7153
 4290SOL     OW24328   3.897   3.766   5.062 -0.0829  0.0857  0.6163
 4290SOL    HW124329   3.961   3.709   5.104 -0.6001 -1.1446 -0.2519
 4290SOL    HW224330   3.834   3.697   5.040 -0.9272  1.4842 -1.3367
 4291SOL     OW24331   2.957   2.622   6.244 -0.1251 -0.3744 -0.4715
 4291SOL    HW124332   2.941   2.713   6.271  1.6875 -0.5141  1.0341
 4291SOL    HW224333   2.994   2.582   6.322 -2.1038  0.0578  0.6817
 4292SOL     OW24334   2.279   2.191  14.157 -0.3323  0.1134  0.2747
 4292SOL    HW124335   2.286   2.098  14.179 -1.4746 -0.1542 -0.4997
 4292SOL    HW224336   2.252   2.232  14.240  0.2612 -0.7759  0.9132
 4293SOL     OW24337   2.979   2.250  10.197 -0.2654  0.1485  0.4085
 4293SOL    HW124338   3.069   2.243  10.229 -0.3958  0.1076  0.7626
 4293SOL    HW224339   2.969   2.170  10.146 -1.3428  2.0261 -2.3701
 4294SOL     OW24340   1.327   2.836  16.242  0.2079  0.2017 -0.3273
 4294SOL    HW124341   1.261   2.846  16.311 -2.0184 -1.5112 -2.2340
 4294SOL    HW224342   1.293   2.878  16.163 -0.9864  0.4855  0.3370
 4295SOL     OW24343   1.890   2.975   0.016 -0.4111  0.1690  0.0787
 4295SOL    HW124344   1.892   3.040  17.658  0.3321  2.4510  2.2467
 4295SOL    HW224345   1.870   2.896  17.677 -0.2868  0.8019 -0.9355
 4296SOL     OW24346   1.262   3.306   2.138  0.0186  0.4803  0.0873
 4296SOL    HW124347   1.332   3.368   2.119  1.1000 -1.1267 -1.1982
 4296SOL    HW224348   1.301   3.232   2.091  0.6323 -0.6005  2.3047
 4297SOL     OW24349   2.965   4.359   3.539 -0.6760 -0.3025  0.3106
 4297SOL    HW124350   2.968   4.265   3.520 -1.7600 -0.1715 -0.5019
 4297SOL    HW224351   3.025   4.400   3.477 -1.4125  0.9068  0.3948
 4298SOL     OW24352   4.175   4.030   3.796 -0.6606 -0.2037  0.3771
 4298SOL    HW124353   4.137   4.044   3.709 -0.1898  0.9914  0.3663
 4298SOL    HW224354   4.148   3.939   3.810  0.0923 -0.2544  1.4781
 4299SOL     OW24355   2.167   0.104   4.353  0.1476  0.1101  0.1032
 4299SOL    HW124356   2.156   0.176   4.414  0.1158 -0.6033  0.9394
 4299SOL    HW224357   2.122   0.127   4.271  1.1083 -1.4027 -0.8630
 4300SOL     OW24358   2.807   4.509  11.327 -0.0956 -0.3828  0.0090
 4300SOL    HW124359   2.889   4.537  11.369  0.5005  0.4922 -1.7653
 4300SOL    HW224360   2.747   4.580  11.351 -1.4775 -1.8611  0.9642
 4301SOL     OW24361   0.482   1.431   2.782 -0.2290 -0.0301  0.1171
 4301SOL    HW124362   0.521   1.391   2.704 -1.6980  0.2291 -0.7437
 4301SOL    HW224363   0.477   1.516   2.739  2.2091  0.6438  1.1819
 4302SOL     OW24364   1.059   1.887   5.902  0.3799 -0.0630 -0.1209
 4302SOL    HW124365   1.145   1.907   5.865  0.2987  1.2019  0.3637
 4302SOL    HW224366   1.091   1.864   5.989  2.6059  2.7725 -0.1984
 4303SOL     OW24367   0.907   0.604  12.667 -0.0320 -0.1048 -0.5045
 4303SOL    HW124368   0.927   0.579  12.758  2.2529 -1.5975 -1.4122
 4303SOL    HW224369   0.913   0.699  12.676 -0.3601 -0.2149  0.8470
 4304SOL     OW24370   4.107   3.909   1.644 -0.0084 -0.2321 -0.1595
 4304SOL    HW124371   4.024   3.921   1.689  0.2084  1.3753 -0.2044
 4304SOL    HW224372   4.093   3.985   1.588  2.6645  1.3947  1.3955
 4305SOL     OW24373   4.630   0.426   7.480  0.1058  0.0377 -0.6681
 4305SOL    HW124374   4.613   0.371   7.404 -0.8641 -1.3974  0.5889
 4305SOL    HW224375   4.697   0.373   7.524  1.1685  1.7422 -0.2225
 4306SOL     OW24376   2.426   0.996   9.113 -0.4127 -0.5932  0.1354
 4306SOL    HW124377   2.488   1.001   9.186 -0.1998 -0.1765 -0.0763
 4306SOL    HW224378   2.381   1.078   9.133  0.4934 -0.1927  0.5517
 4307SOL     OW24379   0.678   2.980  10.111 -0.0929 -0.7048  0.7331
 4307SOL    HW124380   0.763   3.022  10.125 -1.5716  3.2101 -2.2497
 4307SOL    HW224381   0.688   2.962  10.018 -0.3293 -0.2201  0.6138
 4308SOL     OW24382   0.333   3.319   1.763  0.6099  0.1347  0.4782
 4308SOL    HW124383   0.390   3.246   1.739 -1.1460 -1.0681 -0.0825
 4308SOL    HW224384   0.389   3.389   1.730 -0.8733  1.1972  0.2020
 4309SOL     OW24385   1.890   2.043   6.330  0.2361 -0.0223  0.4955
 4309SOL    HW124386   1.795   2.056   6.338  0.4232  0.4923  2.0056
 4309SOL    HW224387   1.913   1.973   6.391 -0.2954 -0.3007  0.3813
 4310SOL     OW24388   1.299   1.862   8.180  0.3188 -0.2719  0.7474
 4310SOL    HW124389   1.322   1.886   8.270  1.9618 -1.9652  0.7870
 4310SOL    HW224390   1.205   1.847   8.193  0.5530  0.2329  3.0418
 4311SOL     OW24391   0.876   0.298   3.309 -0.1147  0.2979  0.3330
 4311SOL    HW124392   0.846   0.384   3.339  0.5523  0.7072 -0.1773
 4311SOL    HW224393   0.950   0.332   3.260 -0.9876  0.2905 -0.9958
 4312SOL     OW24394   4.088   0.487   3.321 -0.1773  0.6049  0.5694
 4312SOL    HW124395   4.008   0.531   3.291  0.1050 -0.5976 -1.9819
 4312SOL    HW224396   4.054   0.399   3.306  0.3204  0.4755  0.1958
 4313SOL     OW24397   1.648   3.091   5.760  0.0049  0.6044  0.2503
 4313SOL    HW124398   1.591   3.065   5.833  0.4002 -1.3090 -0.1264
 4313SOL    HW224399   1.734   3.106   5.801 -0.4844  0.3135  1.3929
 4314SOL     OW24400   3.771   1.143  16.868  0.3816  0.0938 -0.4755
 4314SOL    HW124401   3.827   1.216  16.893 -1.9665  2.8628 -3.3161
 4314SOL    HW224402   3.796   1.138  16.775 -2.1629  1.8903 -1.2298
 4315SOL     OW24403   1.936   2.589   1.498 -0.1917 -0.3072  0.1285
 4315SOL    HW124404   1.940   2.501   1.459  0.3486 -0.0907 -0.3108
 4315SOL    HW224405   1.850   2.625   1.478 -0.6274 -0.8883  0.9502
 4316SOL     OW24406   4.181   2.072   6.100 -0.2460  0.6231  0.0584
 4316SOL    HW124407   4.186   2.152   6.152 -0.4573 -0.8123  2.2663
 4316SOL    HW224408   4.264   2.080   6.052 -0.4087  2.3040  0.0859
 4317SOL     OW24409   0.061   4.178   1.917  0.3523 -0.0362  0.0247
 4317SOL    HW124410   0.029   4.097   1.958  0.3369  0.3983  0.8831
 4317SOL    HW224411   0.140   4.191   1.968 -0.1434 -0.0844  0.8143
 4318SOL     OW24412   3.953   2.346   1.833  0.2570  0.5125 -0.7232
 4318SOL    HW124413   3.949   2.423   1.776  0.6675 -0.0671 -1.5305
 4318SOL    HW224414   4.042   2.312   1.841 -0.0009  0.1437  0.6162
 4319SOL     OW24415   2.914   4.188   5.405  0.2694  0.4087 -0.7369
 4319SOL    HW124416   2.922   4.095   5.386 -1.4145  0.3514 -1.1178
 4319SOL    HW224417   2.819   4.200   5.402  0.2974  0.8033 -0.1547
 4320SOL     OW24418   4.712   3.641   5.214  0.5819 -0.5889  0.3182
 4320SOL    HW124419   4.643   3.580   5.239 -1.2379  0.6813 -1.5721
 4320SOL    HW224420   4.727   3.607   5.126  0.4145  1.7619 -0.6240
 4321SOL     OW24421   1.678   1.372   6.872  0.3493  0.6171  0.0882
 4321SOL    HW124422   1.695   1.466   6.869  1.0220  0.5192  0.8487
 4321SOL    HW224423   1.615   1.364   6.944  1.0329  2.6027  0.9055
 4322SOL     OW24424   2.024   0.995   5.730  0.2988 -0.2999 -1.2407
 4322SOL    HW124425   2.052   0.907   5.705  0.5238 -0.7619  0.6943
 4322SOL    HW224426   1.959   1.021   5.665  0.5734 -0.0477 -1.4160
 4323SOL     OW24427   0.583   2.804   2.569  0.5491 -0.3809 -0.2469
 4323SOL    HW124428   0.677   2.819   2.579  0.0850  1.4944  1.1032
 4323SOL    HW224429   0.573   2.793   2.474  1.4221 -1.5747 -0.2051
 4324SOL     OW24430   2.586   2.595  17.562  0.7321 -0.0927 -0.8025
 4324SOL    HW124431   2.573   2.550  17.479 -1.3148  0.2127 -0.6324
 4324SOL    HW224432   2.496   2.606  17.591  1.6604  1.2492  1.5756
 4325SOL     OW24433   2.767   0.959   3.084  0.2319 -0.0047  0.4084
 4325SOL    HW124434   2.719   0.996   3.010  1.0187  0.2603  0.0264
 4325SOL    HW224435   2.858   0.970   3.056  0.1701 -0.6070 -0.0328
 4326SOL     OW24436   3.258   4.684   3.196 -0.4229 -0.0149  0.4310
 4326SOL    HW124437   3.250   0.015   3.271  1.5331  0.2311  0.4287
 4326SOL    HW224438   3.166   4.677   3.170 -0.1481 -0.0545 -0.5422
 4327SOL     OW24439   0.094   3.033   2.838 -0.5606  0.0682 -0.6808
 4327SOL    HW124440   0.116   3.010   2.929 -0.4770  0.1309 -0.6842
 4327SOL    HW224441   0.157   3.105   2.830 -0.7069  0.1008 -1.5118
 4328SOL     OW24442   3.101   0.161   9.237 -0.4949  0.2688 -0.1745
 4328SOL    HW124443   3.039   0.233   9.249 -1.9969 -0.8694 -1.1934
 4328SOL    HW224444   3.144   0.163   9.322 -1.0124 -0.1930  0.0959
 4329SOL     OW24445   2.394   4.584   3.778  0.1099  0.1933 -0.1435
 4329SOL    HW124446   2.436   4.572   3.862  0.3348  0.8489 -0.1648
 4329SOL    HW224447   2.330   4.652   3.796 -0.2603  0.0218 -0.7781
 4330SOL     OW24448   0.067   4.524   8.279 -0.9372 -0.4599 -0.1482
 4330SOL    HW124449   0.053   4.603   8.331  0.7916 -0.6702  0.6569
 4330SOL    HW224450   0.063   4.450   8.339 -0.3370  1.9294  2.8358
 4331SOL     OW24451   2.351   2.590  16.828  0.4274  0.3115  0.0052
 4331SOL    HW124452   2.323   2.681  16.819  0.0198  0.2726  1.0215
 4331SOL    HW224453   2.298   2.541  16.765  0.6849  0.4133 -0.2944
 4332SOL     OW24454   4.512   3.581  13.449  0.1192  0.5164 -0.4377
 4332SOL    HW124455   4.429   3.586  13.497 -0.3638  1.9612 -1.4264
 4332SOL    HW224456   4.582   3.599  13.512 -2.5319 -0.2584  2.7508
 4333SOL     OW24457   2.086   1.002   4.339  0.8603 -0.1057  0.5559
 4333SOL    HW124458   2.073   0.935   4.405 -0.3708 -0.4109 -0.0003
 4333SOL    HW224459   2.032   0.969   4.268 -1.5770  4.8408  0.1065
 4334SOL     OW24460   1.094   0.697   0.465  1.1935 -0.2319 -0.0561
 4334SOL    HW124461   1.058   0.750   0.393 -0.6896  2.6043  2.9630
 4334SOL    HW224462   1.124   0.623   0.413 -2.1214 -0.9206 -1.0124
 4335SOL     OW24463   0.969   0.974   3.310 -0.3552 -0.6357  0.0769
 4335SOL    HW124464   0.911   1.043   3.277 -1.1773 -1.0626  0.6144
 4335SOL    HW224465   1.054   1.018   3.314 -1.0488  0.6131  0.9343
 4336SOL     OW24466   4.455   4.322   7.213  0.2751 -0.3975  0.2978
 4336SOL    HW124467   4.446   4.392   7.148  1.6577 -0.7786 -0.2857
 4336SOL    HW224468   4.547   4.299   7.207  0.0839 -1.0308 -0.1534
 4337SOL     OW24469   3.632   2.819   1.752 -0.7027  0.3383  0.0356
 4337SOL    HW124470   3.634   2.726   1.729  0.7834  0.3167  0.2460
 4337SOL    HW224471   3.538   2.831   1.737 -0.7186 -0.6779 -0.6654
 4338SOL     OW24472   1.571   4.221  16.238  1.1112 -1.0567 -0.1199
 4338SOL    HW124473   1.520   4.162  16.182  2.6778 -1.4409 -1.1411
 4338SOL    HW224474   1.661   4.192  16.225  1.8749  0.3065  2.2225
 4339SOL     OW24475   0.604   4.148   8.223  0.4807  0.2626  0.0663
 4339SOL    HW124476   0.592   4.126   8.315  0.4407  0.1603  0.0365
 4339SOL    HW224477   0.531   4.208   8.205  0.1173 -0.8110 -2.0474
 4340SOL     OW24478   3.329   3.676  13.040 -0.3376 -0.5095  0.0339
 4340SOL    HW124479   3.239   3.654  13.015 -1.1807  0.2124  2.4004
 4340SOL    HW224480   3.320   3.767  13.069  2.2269 -0.0463 -0.6624
 4341SOL     OW24481   3.432   1.815  10.332 -0.4439 -0.1136  0.2195
 4341SOL    HW124482   3.398   1.854  10.413  0.5908  0.1961  0.5068
 4341SOL    HW224483   3.513   1.863  10.311 -0.3111  0.3688  1.8261
 4342SOL     OW24484   4.076   0.595   2.806  0.5527 -0.2484 -0.1509
 4342SOL    HW124485   4.038   0.560   2.886 -1.1010  1.5214 -0.1422
 4342SOL    HW224486   4.041   0.533   2.743 -2.6303  2.3914 -0.9713
 4343SOL     OW24487   1.246   1.537   7.172  0.1533 -0.1295  0.4748
 4343SOL    HW124488   1.268   1.551   7.080  0.6119  0.3170  0.6569
 4343SOL    HW224489   1.271   1.445   7.181 -1.2977 -0.5499  0.3144
 4344SOL     OW24490   2.849   0.156   8.905  0.4388 -0.7456 -0.2721
 4344SOL    HW124491   2.820   0.122   8.821 -2.0726  0.5796  0.0786
 4344SOL    HW224492   2.798   0.108   8.971  2.4896 -1.0763  1.0783
 4345SOL     OW24493   3.504   1.735  11.740  0.0257 -0.0293 -0.2132
 4345SOL    HW124494   3.566   1.681  11.691  0.0862 -0.8454  0.7813
 4345SOL    HW224495   3.473   1.684  11.814  0.0682 -0.4511 -0.4846
 4346SOL     OW24496   1.889   1.217   0.121  0.1308  0.6004 -0.0936
 4346SOL    HW124497   1.829   1.225   0.047  0.2708 -0.4727 -0.3208
 4346SOL    HW224498   1.868   1.293   0.176  1.0660  0.4783  0.4363
 4347SOL     OW24499   1.269   4.252   9.236  0.0428  0.2866 -0.1640
 4347SOL    HW124500   1.279   4.305   9.158 -0.7768 -3.8456 -3.0634
 4347SOL    HW224501   1.215   4.317   9.281  1.3602  1.1666  0.1471
 4348SOL     OW24502   2.363   0.021  10.024  0.0333  0.1471  0.3092
 4348SOL    HW124503   2.300   0.018   9.951 -2.5026  0.1439  2.5064
 4348SOL    HW224504   2.417   4.671  10.014 -0.1976  0.1280 -0.8159
 4349SOL     OW24505   1.765   3.774   3.261  0.1497  0.2616 -0.0807
 4349SOL    HW124506   1.774   3.838   3.191 -0.6214  0.7228  0.2398
 4349SOL    HW224507   1.772   3.694   3.210  2.5309  0.9296 -0.8130
 4350SOL     OW24508   2.135   1.879   0.181 -0.0184 -0.2916 -0.7062
 4350SOL    HW124509   2.145   1.815   0.111 -0.3990 -2.6694  1.4131
 4350SOL    HW224510   2.065   1.931   0.141 -0.8950 -0.5046  0.5377
 4351SOL     OW24511   0.456   0.657  10.168 -0.3821  0.2599 -0.0708
 4351SOL    HW124512   0.397   0.733  10.169  0.5179  0.9424  0.6508
 4351SOL    HW224513   0.402   0.609  10.106  0.8593  0.0708 -0.9916
 4352SOL     OW24514   0.055   0.805   2.884  0.3549 -0.0488 -0.3399
 4352SOL    HW124515   0.101   0.889   2.891  1.8912 -0.9980  0.7157
 4352SOL    HW224516   4.691   0.828   2.899 -0.1963 -1.3358 -1.7078
 4353SOL     OW24517   1.791   2.326   1.994  0.0362 -0.2307  0.0380
 4353SOL    HW124518   1.769   2.233   1.998 -1.1272  0.0542  0.0288
 4353SOL    HW224519   1.874   2.320   1.946 -0.5465 -0.1258 -0.9940
 4354SOL     OW24520   1.203   2.799   4.039 -0.2683 -0.1679  0.1089
 4354SOL    HW124521   1.232   2.718   4.082 -0.2672  1.2069  2.7160
 4354SOL    HW224522   1.280   2.849   4.012 -1.8080  1.9316 -0.3471
 4355SOL     OW24523   4.551   4.347   0.643  0.4017 -0.5005 -0.1807
 4355SOL    HW124524   4.565   4.410   0.714  1.9277 -0.0215 -0.9104
 4355SOL    HW224525   4.513   4.396   0.570  0.8338 -1.9905 -1.4084
 4356SOL     OW24526   2.804   1.934  12.225 -1.1806  0.0371 -0.7663
 4356SOL    HW124527   2.801   1.846  12.187  1.5392 -0.5325  0.3206
 4356SOL    HW224528   2.814   1.902  12.315  1.3500 -0.2153 -1.1321
 4357SOL     OW24529   0.140   3.210  12.187 -0.2527 -0.1188  0.0419
 4357SOL    HW124530   0.176   3.296  12.163  0.9785 -0.9562 -1.1218
 4357SOL    HW224531   0.137   3.179  12.097  1.1784 -0.6387  0.1813
 4358SOL     OW24532   3.925   3.743   1.106 -0.3757  0.3158  0.0989
 4358SOL    HW124533   3.955   3.660   1.069 -0.9711  0.3053 -0.3577
 4358SOL    HW224534   3.950   3.793   1.029  0.5240 -1.2968 -0.6565
 4359SOL     OW24535   1.403   0.307   9.484 -0.5412  0.1097 -0.4662
 4359SOL    HW124536   1.418   0.253   9.562 -2.3133 -2.1473 -1.6988
 4359SOL    HW224537   1.491   0.306   9.445 -1.0760 -2.0748 -1.5754
 4360SOL     OW24538   0.482   4.384   5.995  0.2198 -0.2967 -0.4828
 4360SOL    HW124539   0.557   4.384   5.935  0.2565 -0.7140 -0.4361
 4360SOL    HW224540   0.493   4.296   6.030  0.9319  0.6522  1.6636
 4361SOL     OW24541   4.619   1.949   8.353 -0.5131 -0.0119  0.4478
 4361SOL    HW124542   4.680   2.023   8.359 -1.5745  0.8235  1.0585
 4361SOL    HW224543   4.561   1.964   8.279  0.6192 -0.4810 -0.5294
 4362SOL     OW24544   3.166   1.901   2.818 -0.6750  0.4189 -0.5885
 4362SOL    HW124545   3.177   1.891   2.723 -3.0850 -0.6189 -0.7495
 4362SOL    HW224546   3.073   1.879   2.819 -0.6491  0.5143  2.9853
 4363SOL     OW24547   4.095   3.082   2.809  0.7168  0.3734  0.4387
 4363SOL    HW124548   4.119   2.993   2.784  2.2721  1.2669 -1.2777
 4363SOL    HW224549   4.137   3.131   2.738 -2.3740  1.2656 -0.7928
 4364SOL     OW24550   3.841   3.657   8.032  0.1564 -0.1573 -0.1647
 4364SOL    HW124551   3.869   3.580   7.984  1.9187  0.1280  0.4312
 4364SOL    HW224552   3.917   3.711   8.052  0.0617 -0.3437  0.7232
 4365SOL     OW24553   1.825   2.000  17.267 -0.4467  0.1644 -0.4318
 4365SOL    HW124554   1.803   2.046  17.186 -1.4972  1.5931  0.6672
 4365SOL    HW224555   1.850   1.920  17.221  2.4834  0.7708  0.1098
 4366SOL     OW24556   1.513   3.648  14.864  0.1647 -0.5129  1.2997
 4366SOL    HW124557   1.540   3.638  14.955  3.1623  0.9671  0.5715
 4366SOL    HW224558   1.566   3.721  14.832  1.5333 -2.2259 -0.3283
 4367SOL     OW24559   1.991   3.923   8.709 -0.1696  0.4426 -0.3193
 4367SOL    HW124560   2.038   3.870   8.645 -0.8306 -0.4077 -0.1073
 4367SOL    HW224561   1.982   4.011   8.670 -0.9237  0.8213  0.7079
 4368SOL     OW24562   3.698   1.862   7.135 -0.0816 -0.3221 -0.3734
 4368SOL    HW124563   3.775   1.864   7.079 -0.4221 -3.0894 -0.9291
 4368SOL    HW224564   3.699   1.767   7.142  1.7493 -0.1666  1.1174
 4369SOL     OW24565   0.541   4.347   6.784 -0.3802 -0.0895  0.6843
 4369SOL    HW124566   0.528   4.441   6.776 -4.0194 -0.5928  0.7519
 4369SOL    HW224567   0.534   4.320   6.692  1.7497 -1.4025  0.8860
 4370SOL     OW24568   1.538   3.591  15.737 -0.0811  0.2169  0.3359
 4370SOL    HW124569   1.466   3.528  15.734  0.0631  0.0594  0.1982
 4370SOL    HW224570   1.623   3.547  15.726 -0.9822 -1.1700 -0.9465
 4371SOL     OW24571   3.872   2.426   8.462 -0.0525 -0.5704  0.5760
 4371SOL    HW124572   3.839   2.348   8.418 -0.8959 -0.6979  1.4454
 4371SOL    HW224573   3.951   2.400   8.509  0.8243  0.8492 -0.1008
 4372SOL     OW24574   3.717   4.522   8.815 -0.1378 -0.3641 -0.2351
 4372SOL    HW124575   3.723   4.561   8.728  1.8470  0.1537  0.1255
 4372SOL    HW224576   3.734   4.596   8.874 -1.7310 -1.5157  1.6885
 4373SOL     OW24577   3.389   0.253   5.929  0.2116 -0.3892 -0.0588
 4373SOL    HW124578   3.317   0.217   5.878  0.6406 -0.6798 -0.4572
 4373SOL    HW224579   3.455   0.184   5.929  0.2601 -0.3631  1.4057
 4374SOL     OW24580   4.538   0.513   3.597 -0.0190  0.0284  0.3894
 4374SOL    HW124581   4.512   0.422   3.586 -0.0967  0.1153 -0.1464
 4374SOL    HW224582   4.560   0.513   3.690 -3.6386  0.3800  1.2596
 4375SOL     OW24583   0.939   1.793   7.764 -0.0206 -0.4961  0.8552
 4375SOL    HW124584   0.972   1.829   7.846 -1.0387 -0.9618  1.4713
 4375SOL    HW224585   1.020   1.800   7.714 -1.3043  0.1894 -1.1388
 4376SOL     OW24586   0.122   4.405   5.466 -0.2270 -0.2620  0.1359
 4376SOL    HW124587   0.030   4.381   5.455 -0.2871 -0.6022  1.3731
 4376SOL    HW224588   0.124   4.451   5.550 -3.1576  1.4498 -0.7176
 4377SOL     OW24589   1.788   2.245   7.695  0.1878  0.0905  0.7523
 4377SOL    HW124590   1.728   2.319   7.693 -0.1058 -0.2223 -2.1073
 4377SOL    HW224591   1.856   2.298   7.737 -1.5153  1.4824  1.7331
 4378SOL     OW24592   0.141   2.286   5.786  0.6595  0.0403  0.1235
 4378SOL    HW124593   0.124   2.192   5.775 -0.5738  0.4168 -1.0984
 4378SOL    HW224594   0.133   2.306   5.693 -0.2681 -1.2260 -0.0658
 4379SOL     OW24595   2.747   2.369   7.425  0.3448 -0.1332  0.3905
 4379SOL    HW124596   2.680   2.421   7.382 -1.1738 -1.8818  0.6462
 4379SOL    HW224597   2.730   2.385   7.518  0.1524 -3.1368  0.8723
 4380SOL     OW24598   4.419   2.218  12.787  0.3831 -0.1488  0.0585
 4380SOL    HW124599   4.434   2.274  12.710  1.8808  0.9580  1.1495
 4380SOL    HW224600   4.405   2.289  12.850  2.5945  1.1722 -0.9200
 4381SOL     OW24601   1.178   2.936   8.988  0.1414  0.5058  0.4054
 4381SOL    HW124602   1.142   3.003   8.930 -3.7573  0.7954  3.1649
 4381SOL    HW224603   1.093   2.897   9.007  0.7102 -1.0851 -0.4113
 4382SOL     OW24604   4.025   3.218   8.548  0.1666  0.3013  0.1797
 4382SOL    HW124605   4.013   3.292   8.607 -1.8980  0.4455 -0.4093
 4382SOL    HW224606   3.984   3.252   8.469  1.2309  0.1585 -0.4378
 4383SOL     OW24607   2.451   3.678   5.751  0.1882 -0.5133  0.4393
 4383SOL    HW124608   2.484   3.760   5.715 -0.3867 -0.8070 -0.7274
 4383SOL    HW224609   2.357   3.684   5.736  0.7178  3.7391 -1.1346
 4384SOL     OW24610   0.355   1.449   7.679  0.6209 -0.1182 -0.0746
 4384SOL    HW124611   0.387   1.367   7.641  0.0212 -0.3574 -0.0626
 4384SOL    HW224612   0.429   1.504   7.656 -0.6327  1.2336 -0.8928
 4385SOL     OW24613   3.323   1.818   6.506 -0.4424  0.3016  0.4940
 4385SOL    HW124614   3.406   1.853   6.540 -0.8913  2.1984 -0.3569
 4385SOL    HW224615   3.354   1.739   6.461 -1.7679  0.3442 -0.4986
 4386SOL     OW24616   1.167   0.922  15.440  0.3550 -0.3874  0.2507
 4386SOL    HW124617   1.243   0.946  15.493  0.8869 -1.9548  0.2067
 4386SOL    HW224618   1.095   0.940  15.500  0.1570  1.9061 -0.6596
 4387SOL     OW24619   3.428   4.417   4.578  0.2729 -0.3356  0.3496
 4387SOL    HW124620   3.390   4.449   4.496  2.2374  0.4343 -0.2560
 4387SOL    HW224621   3.373   4.458   4.645  1.9543  2.5758 -0.0885
 4388SOL     OW24622   3.174   4.230  11.693 -0.5447  0.0803  0.2233
 4388SOL    HW124623   3.154   4.223  11.600 -0.7209 -0.0536  0.2719
 4388SOL    HW224624   3.178   4.326  11.700  2.5629 -0.2001  2.4635
 4389SOL     OW24625   1.832   1.979   2.736  0.1617 -0.0262  0.0616
 4389SOL    HW124626   1.871   2.050   2.686  0.7874  1.7010  3.0010
 4389SOL    HW224627   1.814   1.915   2.668  0.3125 -1.3826  1.2895
 4390SOL     OW24628   1.223   0.506   5.313 -0.4703 -0.0043 -0.1318
 4390SOL    HW124629   1.248   0.596   5.333  1.6458 -0.0852 -2.5252
 4390SOL    HW224630   1.305   0.472   5.277 -1.1587 -1.9401  0.1268
 4391SOL     OW24631   0.716   0.114  13.026 -0.6940 -0.5868  0.2093
 4391SOL    HW124632   0.692   0.022  13.014  1.9062 -0.8875 -2.6489
 4391SOL    HW224633   0.810   0.116  13.009 -0.4244 -0.1727  1.8096
 4392SOL     OW24634   3.350   3.478   2.948  0.1873  0.4061 -0.2676
 4392SOL    HW124635   3.358   3.560   2.900  0.7822 -0.0713 -0.9959
 4392SOL    HW224636   3.442   3.450   2.951 -0.3353 -1.1550  0.8921
 4393SOL     OW24637   3.391   3.912  16.004 -0.6525  0.5182  0.1263
 4393SOL    HW124638   3.435   3.965  15.937  2.1375 -0.1393  1.4355
 4393SOL    HW224639   3.372   3.982  16.067 -1.4009  1.7806 -1.5022
 4394SOL     OW24640   1.921   3.261  11.478 -0.3266  0.9223  0.6309
 4394SOL    HW124641   1.966   3.233  11.398 -1.2503 -2.9839  1.4969
 4394SOL    HW224642   1.966   3.345  11.488  0.4269  0.9257 -2.6176
 4395SOL     OW24643   0.304   2.765   8.898 -0.1647  0.3612  0.0443
 4395SOL    HW124644   0.212   2.737   8.896  0.3354 -1.3239  1.1333
 4395SOL    HW224645   0.320   2.742   8.989  2.1855  0.2066 -0.4031
 4396SOL     OW24646   1.468   4.426   1.648  0.1944 -0.6618 -0.1035
 4396SOL    HW124647   1.545   4.384   1.610  0.1474 -0.4811 -0.3997
 4396SOL    HW224648   1.418   4.435   1.567 -0.6936  0.5287  0.5681
 4397SOL     OW24649   3.063   1.151  16.569  0.1255  0.4029 -0.2902
 4397SOL    HW124650   3.023   1.065  16.557  0.6097  0.1467 -0.0905
 4397SOL    HW224651   3.155   1.133  16.589 -0.2277 -0.3751  0.6157
 4398SOL     OW24652   0.787   3.447   6.216  0.0299 -0.5091  0.9047
 4398SOL    HW124653   0.702   3.473   6.253 -1.8593 -1.5228 -2.7663
 4398SOL    HW224654   0.784   3.483   6.128  0.1504  0.8210  1.4381
 4399SOL     OW24655   3.344   0.725  15.135 -0.2528  0.0891  0.2863
 4399SOL    HW124656   3.338   0.769  15.050  0.4752 -0.4035 -0.0275
 4399SOL    HW224657   3.378   0.797  15.188 -0.7013 -0.0209  0.7248
 4400SOL     OW24658   1.476   1.929   3.807 -0.4546  0.6735  0.3341
 4400SOL    HW124659   1.493   1.991   3.736 -1.6833 -0.6399 -1.1161
 4400SOL    HW224660   1.408   1.984   3.845  1.7221  2.9983  0.8327
 4401SOL     OW24661   0.965   0.888   2.921  0.4515 -0.0589  0.0139
 4401SOL    HW124662   0.898   0.951   2.947  1.4942  1.0783 -0.0386
 4401SOL    HW224663   0.998   0.856   3.005  0.4368  0.0407  0.0577
 4402SOL     OW24664   0.700   3.528   7.324 -0.4042 -0.0769  0.7902
 4402SOL    HW124665   0.696   3.623   7.333  0.5687  0.1338 -1.0969
 4402SOL    HW224666   0.731   3.505   7.412 -0.0121  0.8282  0.8934
 4403SOL     OW24667   3.087   3.777   3.041 -0.0034 -0.3311  0.3398
 4403SOL    HW124668   3.127   3.725   3.110  0.3107 -0.6728 -0.1007
 4403SOL    HW224669   3.156   3.769   2.974  0.8753 -0.9935  1.3293
 4404SOL     OW24670   2.143   2.443   8.957  0.2051 -0.2526  0.1335
 4404SOL    HW124671   2.073   2.401   8.907 -1.2618  0.5347  1.4896
 4404SOL    HW224672   2.154   2.521   8.903 -0.5727  0.0413  0.3939
 4405SOL     OW24673   3.160   0.665  16.425 -0.2787 -0.1259 -0.0297
 4405SOL    HW124674   3.115   0.614  16.358  2.6159 -2.0944 -0.4461
 4405SOL    HW224675   3.111   0.747  16.419  0.1810  0.1234 -0.3593
 4406SOL     OW24676   4.062   3.766   9.411  0.5254  0.2284  0.4717
 4406SOL    HW124677   4.052   3.839   9.471 -2.5353 -1.4431  2.0120
 4406SOL    HW224678   4.011   3.698   9.455 -0.7167 -0.9696 -2.7906
 4407SOL     OW24679   2.463   0.881   7.606  0.1147 -0.3881 -0.3370
 4407SOL    HW124680   2.409   0.895   7.684 -0.6315 -1.9200 -0.5796
 4407SOL    HW224681   2.417   0.938   7.544  0.3094 -1.1315 -1.1588
 4408SOL     OW24682   2.177   4.361  15.308  0.0799 -0.7085 -0.3158
 4408SOL    HW124683   2.165   4.456  15.316  3.0545 -0.4586  1.2034
 4408SOL    HW224684   2.271   4.352  15.294  0.1798 -1.0065  0.5431
 4409SOL     OW24685   1.642   3.037   3.369  0.3265  0.2908  0.4767
 4409SOL    HW124686   1.614   3.091   3.443 -0.7508  1.8050 -1.0600
 4409SOL    HW224687   1.662   3.098   3.298  1.8300 -1.0610 -0.2698
 4410SOL     OW24688   0.684   4.595   0.780  0.2476  0.1757 -0.1794
 4410SOL    HW124689   0.695   4.558   0.693 -1.5546 -1.5053  0.3117
 4410SOL    HW224690   0.697   4.687   0.757 -1.2451  0.1505 -1.1043
 4411SOL     OW24691   0.035   2.161   2.786 -0.0980 -0.2867  0.4431
 4411SOL    HW124692   0.044   2.162   2.690  0.7464  0.8600  0.5313
 4411SOL    HW224693   4.695   2.094   2.797 -0.8986  0.5364  0.5656
 4412SOL     OW24694   1.184   2.029   0.291  0.7801 -0.1905 -0.0618
 4412SOL    HW124695   1.268   2.063   0.320  0.4985  1.2393 -0.8607
 4412SOL    HW224696   1.200   2.037   0.197 -0.8245  2.3366 -0.1351
 4413SOL     OW24697   1.861   0.458  11.113  0.0061  0.2162 -0.2127
 4413SOL    HW124698   1.852   0.496  11.026 -1.0000 -0.3234 -0.3528
 4413SOL    HW224699   1.923   0.516  11.157  0.2058  0.4254 -0.7671
 4414SOL     OW24700   1.780   2.702   1.788 -0.5821  0.0460  0.5678
 4414SOL    HW124701   1.752   2.783   1.830 -0.9067  0.1090  0.2297
 4414SOL    HW224702   1.700   2.655   1.765 -1.4179  1.7901 -0.0580
 4415SOL     OW24703   4.132   4.356   6.508 -0.3749 -0.2568 -0.0423
 4415SOL    HW124704   4.200   4.294   6.536  0.2353  0.0822 -0.7778
 4415SOL    HW224705   4.066   4.332   6.573  0.2614  0.8469  1.0192
 4416SOL     OW24706   3.111   0.320   7.785  0.2251 -0.2505 -0.4576
 4416SOL    HW124707   3.065   0.331   7.868  1.3695 -1.2637  0.3099
 4416SOL    HW224708   3.192   0.270   7.799  0.5140  0.4414  0.3556
 4417SOL     OW24709   2.776   0.994  12.346  0.4330  0.2357  0.2507
 4417SOL    HW124710   2.708   0.942  12.302 -0.9229  0.7442  1.7432
 4417SOL    HW224711   2.750   0.982  12.437  1.3212  0.8465  0.5844
 4418SOL     OW24712   1.910   3.158  15.551 -0.3315  0.6234  0.4465
 4418SOL    HW124713   1.876   3.134  15.465  0.6404 -1.9092  0.7839
 4418SOL    HW224714   2.005   3.151  15.543 -0.3731 -1.5704  1.9118
 4419SOL     OW24715   4.703   0.158  16.013 -0.4762 -0.1060 -0.2436
 4419SOL    HW124716   0.031   0.208  16.072 -2.2459  2.4137 -0.6751
 4419SOL    HW224717   4.697   0.203  15.929  2.6241 -0.9721 -0.9377
 4420SOL     OW24718   3.971   4.338   1.307  0.0847 -0.1254  0.0352
 4420SOL    HW124719   3.898   4.387   1.346  0.1841  0.4076 -0.4387
 4420SOL    HW224720   4.019   4.414   1.273 -2.7539  3.0112  2.9889
 4421SOL     OW24721   2.104   0.556   2.097 -0.7941 -0.0571  0.1936
 4421SOL    HW124722   2.021   0.575   2.053  1.0135 -0.9851 -3.6192
 4421SOL    HW224723   2.151   0.502   2.034  0.7139  2.0414 -0.4632
 4422SOL     OW24724   0.242   1.295   7.093  0.0155 -0.0474 -0.7855
 4422SOL    HW124725   0.248   1.345   7.174  1.1903 -0.6764 -0.4716
 4422SOL    HW224726   0.308   1.225   7.101  2.0574  1.9170 -0.4962
 4423SOL     OW24727   3.098   3.986  11.797 -0.0267  0.4832 -0.0005
 4423SOL    HW124728   3.008   3.999  11.766 -0.6027  1.2767  2.0760
 4423SOL    HW224729   3.141   4.058  11.752  1.0909 -0.1981 -0.0303
 4424SOL     OW24730   0.733   4.037   1.108 -0.6171  0.6011 -0.0206
 4424SOL    HW124731   0.664   4.088   1.066 -0.3914  0.6413 -0.3405
 4424SOL    HW224732   0.685   4.017   1.188  0.4581 -0.2013  0.4189
 4425SOL     OW24733   0.072   0.427  16.724  0.1546  0.1628  0.4253
 4425SOL    HW124734   0.017   0.490  16.771  1.8759  2.7596 -0.9714
 4425SOL    HW224735   0.070   0.350  16.780 -0.2304 -0.2503 -0.1563
 4426SOL     OW24736   3.050   1.422   1.846 -0.1593  0.2914 -0.5539
 4426SOL    HW124737   3.068   1.332   1.876  1.3253  1.3653  1.7876
 4426SOL    HW224738   3.029   1.463   1.930  0.4519 -0.2348 -0.1426
 4427SOL     OW24739   4.449   2.745  16.951 -0.2081 -0.6952 -0.3008
 4427SOL    HW124740   4.449   2.695  16.869 -0.4665 -0.4111 -0.4745
 4427SOL    HW224741   4.358   2.770  16.962  0.2045 -0.2311  2.0744
 4428SOL     OW24742   3.292   2.995   6.848  0.2422  0.4152  0.4366
 4428SOL    HW124743   3.367   3.038   6.808  0.8587 -1.1405 -0.0956
 4428SOL    HW224744   3.226   3.063   6.863  0.4108  0.8973 -1.0389
 4429SOL     OW24745   4.494   4.559   3.807  0.6885 -0.6024 -0.3029
 4429SOL    HW124746   4.513   4.521   3.893 -2.4639 -1.3188  0.0824
 4429SOL    HW224747   4.575   4.550   3.758  2.2453  0.3323  2.0756
 4430SOL     OW24748   2.190   1.365   6.547 -0.5385 -0.1929 -0.1355
 4430SOL    HW124749   2.203   1.301   6.478  0.1484 -0.4359  0.2199
 4430SOL    HW224750   2.256   1.341   6.612 -0.8114 -1.4092 -0.3178
 4431SOL     OW24751   1.207   3.915   8.142 -0.0826  0.0317  0.5916
 4431SOL    HW124752   1.177   4.004   8.161 -1.7574 -0.3395 -0.3722
 4431SOL    HW224753   1.267   3.906   8.216  2.5306  1.0232 -1.3998
 4432SOL     OW24754   0.331   1.645   0.589  0.3639  0.2794  0.8338
 4432SOL    HW124755   0.295   1.686   0.511  2.7430 -0.7140 -0.7938
 4432SOL    HW224756   0.373   1.721   0.629 -1.5349  2.2904 -0.9529
 4433SOL     OW24757   0.592   0.755   1.401 -0.1301 -0.3969  0.1088
 4433SOL    HW124758   0.640   0.784   1.479 -1.7663 -1.8153  1.6284
 4433SOL    HW224759   0.547   0.676   1.430  0.7862 -1.1121 -0.3916
 4434SOL     OW24760   0.310   4.724   2.365 -0.1030 -0.9920 -0.3375
 4434SOL    HW124761   0.266   4.721   2.450  1.7884 -0.8376  0.6487
 4434SOL    HW224762   0.297   4.638   2.324 -2.2565 -0.9046  0.1535
 4435SOL     OW24763   4.370   1.959   3.365  0.2906  0.9691  0.8709
 4435SOL    HW124764   4.368   1.997   3.453  0.6858  2.9482  0.0409
 4435SOL    HW224765   4.325   2.025   3.313  2.4006  0.6387 -1.4001
 4436SOL     OW24766   0.684   3.882   2.557 -0.3072  0.0868  0.7013
 4436SOL    HW124767   0.637   3.871   2.475  1.6030 -0.4183 -0.3241
 4436SOL    HW224768   0.768   3.909   2.520  0.7629 -0.3482  2.7951
 4437SOL     OW24769   3.458   3.960   3.742 -0.1848  0.2651  0.1171
 4437SOL    HW124770   3.482   3.871   3.766  1.1033  0.5954  0.0462
 4437SOL    HW224771   3.499   3.973   3.657  0.1927 -0.8306  0.1309
 4438SOL     OW24772   3.343   0.785   0.573 -0.3825 -0.5651 -0.1889
 4438SOL    HW124773   3.375   0.772   0.484  0.5189  1.3964 -0.1524
 4438SOL    HW224774   3.367   0.698   0.603 -1.0482  0.1367  2.3343
 4439SOL     OW24775   1.302   4.687   1.258 -1.1115  0.0979  0.8731
 4439SOL    HW124776   1.247   4.626   1.210  2.2899 -4.2622  2.5701
 4439SOL    HW224777   1.315   0.020   1.185  0.9608  0.6676  1.6954
 4440SOL     OW24778   1.936   0.487   0.266  0.7909 -0.1204  0.6107
 4440SOL    HW124779   1.864   0.499   0.205  0.4400  2.7151  1.5801
 4440SOL    HW224780   2.007   0.530   0.219 -0.6715  0.6371 -0.9055
 4441SOL     OW24781   2.131   2.116  15.808  0.3216 -0.5642  0.0852
 4441SOL    HW124782   2.048   2.164  15.804  0.7153  0.2042  1.1524
 4441SOL    HW224783   2.125   2.070  15.724  1.2418 -1.4645  0.5179
 4442SOL     OW24784   3.198   2.274   3.629 -0.2460 -0.8153  0.2872
 4442SOL    HW124785   3.195   2.274   3.533  0.6766  2.8909  0.2609
 4442SOL    HW224786   3.200   2.369   3.639  0.4988 -1.0602  2.5108
 4443SOL     OW24787   0.508   0.488   3.933  0.1805  0.3228 -0.2879
 4443SOL    HW124788   0.591   0.441   3.918  1.1404  1.5514  1.1729
 4443SOL    HW224789   0.511   0.502   4.027 -0.5283 -0.4378 -0.1534
 4444SOL     OW24790   0.280   1.413   7.368  0.0792 -0.1844  0.1727
 4444SOL    HW124791   0.306   1.381   7.454 -0.6393  2.7570  1.4863
 4444SOL    HW224792   0.306   1.505   7.373 -0.6977  0.0612 -0.4371
 4445SOL     OW24793   2.141   2.351  16.066 -0.0262  0.4727  0.2793
 4445SOL    HW124794   2.056   2.314  16.090 -0.4187  0.7950 -0.6350
 4445SOL    HW224795   2.135   2.440  16.101 -1.1122 -0.3888  2.2721
 4446SOL     OW24796   1.616   3.551   7.464  0.1756  0.7708  0.4202
 4446SOL    HW124797   1.524   3.528   7.450  0.9496 -1.2916 -1.2405
 4446SOL    HW224798   1.656   3.464   7.461  0.8270  1.0990 -0.4727
 4447SOL     OW24799   3.405   0.983  12.382  0.2969  0.0681 -0.5245
 4447SOL    HW124800   3.331   0.957  12.438  1.8192 -0.2324  1.3433
 4447SOL    HW224801   3.481   0.998  12.438 -0.7404  1.9465  0.3925
 4448SOL     OW24802   2.023   3.529   2.419  0.3346  0.1129  0.3375
 4448SOL    HW124803   2.105   3.549   2.464 -0.6678 -0.6909  2.5103
 4448SOL    HW224804   1.966   3.594   2.461 -0.4376  0.4915 -1.2821
 4449SOL     OW24805   1.142   2.589   5.329  0.1281 -0.9174 -1.1304
 4449SOL    HW124806   1.182   2.658   5.276  1.9528  0.0546  1.5549
 4449SOL    HW224807   1.207   2.520   5.340  2.9122  1.4891 -2.3459
 4450SOL     OW24808   3.486   1.023  13.825  0.7314  0.8468 -0.3965
 4450SOL    HW124809   3.569   1.067  13.806 -0.2013  2.8014  0.0052
 4450SOL    HW224810   3.426   1.093  13.799  1.4736  1.7023  0.1746
 4451SOL     OW24811   2.065   3.700   7.552 -0.6430 -0.3213  0.0450
 4451SOL    HW124812   2.099   3.625   7.504  1.5110  0.7435 -0.1047
 4451SOL    HW224813   2.147   3.747   7.570 -0.7100 -0.3627  0.4617
 4452SOL     OW24814   2.764   0.935   5.258  0.6649 -0.4189 -0.3532
 4452SOL    HW124815   2.807   0.961   5.176  1.9353 -0.9259  0.1457
 4452SOL    HW224816   2.692   0.889   5.216 -1.3254  0.9107  1.6040
 4453SOL     OW24817   4.209   3.557   4.383  0.2621  0.3703 -0.1648
 4453SOL    HW124818   4.114   3.542   4.387  0.1933  0.9487  0.3755
 4453SOL    HW224819   4.242   3.468   4.397 -0.0469  0.3834  0.6430
 4454SOL     OW24820   0.735   2.020   3.747  0.2374  0.0362  0.0517
 4454SOL    HW124821   0.754   2.087   3.681  1.5599  1.0059  1.4097
 4454SOL    HW224822   0.665   1.972   3.703  0.8753 -0.7570 -0.0993
 4455SOL     OW24823   3.516   2.740   1.043 -0.2323  0.1205 -0.1350
 4455SOL    HW124824   3.540   2.815   0.990 -0.6004 -0.2746 -0.8640
 4455SOL    HW224825   3.422   2.751   1.029 -0.4948 -0.4302  1.1996
 4456SOL     OW24826   4.284   2.812   2.420 -0.3596 -0.1065  0.0873
 4456SOL    HW124827   4.369   2.855   2.434 -0.6200  0.8276 -1.1774
 4456SOL    HW224828   4.302   2.721   2.444 -0.3511 -0.0507  0.3004
 4457SOL     OW24829   3.278   2.389   5.600  0.0863 -0.2956  0.5440
 4457SOL    HW124830   3.231   2.436   5.668 -1.4218  0.2489 -0.8666
 4457SOL    HW224831   3.251   2.298   5.611 -1.9438  0.3485  0.9191
 4458SOL     OW24832   2.135   1.728   8.689 -0.6090 -0.4421  0.1459
 4458SOL    HW124833   2.122   1.682   8.606  1.5987 -1.0179  0.1338
 4458SOL    HW224834   2.224   1.763   8.686 -0.6550 -0.3952 -0.5561
 4459SOL     OW24835   3.521   2.236   9.249 -0.1963 -0.1920  0.3303
 4459SOL    HW124836   3.525   2.209   9.340 -0.5399 -0.2950  0.3172
 4459SOL    HW224837   3.436   2.281   9.253  0.9014  1.7562  2.0031
 4460SOL     OW24838   0.734   0.646   3.287 -0.2126 -0.1617  0.2522
 4460SOL    HW124839   0.750   0.706   3.360 -0.2879  1.2491 -0.8998
 4460SOL    HW224840   0.820   0.653   3.247 -0.2780  0.2446  0.1859
 4461SOL     OW24841   1.837   2.026   7.245  0.2844  0.3095  0.0858
 4461SOL    HW124842   1.910   2.051   7.188 -1.8416  3.4139 -1.2441
 4461SOL    HW224843   1.828   1.934   7.220 -2.1741  0.6072 -0.1102
 4462SOL     OW24844   1.471   2.530   2.767 -0.7245 -0.4469 -0.2816
 4462SOL    HW124845   1.465   2.516   2.673  1.6586  2.1660 -0.8522
 4462SOL    HW224846   1.387   2.492   2.791 -0.4125 -1.1293 -0.2827
 4463SOL     OW24847   3.236   0.955  14.252 -0.4755  0.2104  0.5298
 4463SOL    HW124848   3.188   0.897  14.311 -0.3274 -0.4736 -0.0203
 4463SOL    HW224849   3.291   1.004  14.313 -0.1567  1.0457 -0.4267
 4464SOL     OW24850   1.414   4.464  16.279  0.2657 -0.2797  0.0591
 4464SOL    HW124851   1.437   4.409  16.354  0.8114  1.2131  0.9967
 4464SOL    HW224852   1.452   4.411  16.209 -2.0273  0.7085 -1.9165
 4465SOL     OW24853   1.133   2.587  14.616 -0.3786 -0.0106 -0.5059
 4465SOL    HW124854   1.107   2.529  14.688  0.7230 -0.6792 -0.6402
 4465SOL    HW224855   1.058   2.571  14.559 -1.3818 -1.1272  1.1160
 4466SOL     OW24856   3.489   2.574   6.435  0.3888 -0.4839  0.3451
 4466SOL    HW124857   3.519   2.665   6.435 -2.5171  0.4597  0.2233
 4466SOL    HW224858   3.485   2.553   6.529  1.5415  0.7966  0.6770
 4467SOL     OW24859   4.395   4.451   0.449 -0.3895 -0.9087  0.1996
 4467SOL    HW124860   4.307   4.476   0.479 -0.3335 -1.0545  0.4880
 4467SOL    HW224861   4.420   4.534   0.407 -1.7848  1.0384  3.1700
 4468SOL     OW24862   0.901   3.829   9.294  0.2387  0.0190 -0.6587
 4468SOL    HW124863   0.954   3.907   9.307  0.6466 -0.3462 -0.1750
 4468SOL    HW224864   0.821   3.850   9.343  2.1182 -0.1330  2.4460
 4469SOL     OW24865   2.585   3.580   6.572  0.3617 -0.0318 -0.2650
 4469SOL    HW124866   2.549   3.668   6.557 -0.9964 -0.9657 -2.4007
 4469SOL    HW224867   2.531   3.526   6.515  1.4438 -0.7865 -0.5716
 4470SOL     OW24868   1.150   0.807   2.193 -0.6635 -0.1469 -0.1275
 4470SOL    HW124869   1.100   0.888   2.198 -1.3839 -0.4420 -2.4127
 4470SOL    HW224870   1.135   0.791   2.100  1.9715  3.2254 -1.1269
 4471SOL     OW24871   3.244   0.640  12.078  0.2039 -0.0837  0.3443
 4471SOL    HW124872   3.269   0.732  12.091  0.3511  0.3751 -3.1932
 4471SOL    HW224873   3.192   0.660  12.000 -1.0123  0.4269  1.2862
 4472SOL     OW24874   4.083   1.784   7.624  0.4253 -0.1705  0.5886
 4472SOL    HW124875   4.111   1.766   7.714 -1.1380 -2.1924  0.6674
 4472SOL    HW224876   4.077   1.880   7.626 -0.1205 -0.2058  0.4395
 4473SOL     OW24877   4.498   0.521   6.566  0.4285  0.3116  0.5081
 4473SOL    HW124878   4.535   0.562   6.488  0.9350 -1.6526 -0.2877
 4473SOL    HW224879   4.471   0.441   6.521 -0.6610  1.1444 -0.3185
 4474SOL     OW24880   4.358   1.522  10.201 -0.1162 -0.2482 -0.3193
 4474SOL    HW124881   4.393   1.471  10.128  0.0541 -2.0463  1.0074
 4474SOL    HW224882   4.358   1.458  10.272  0.6498  2.4835  2.1407
 4475SOL     OW24883   2.741   1.645  12.619 -0.2220 -0.5554  0.0059
 4475SOL    HW124884   2.762   1.553  12.602  0.6015 -0.3755  0.0650
 4475SOL    HW224885   2.646   1.635  12.605  0.0339 -3.0217 -0.1079
 4476SOL     OW24886   0.660   3.181   7.957  0.1419  0.9069  0.8134
 4476SOL    HW124887   0.621   3.267   7.969  1.4003  1.5663  0.1582
 4476SOL    HW224888   0.716   3.181   8.035  0.8113  0.1422  0.3427
 4477SOL     OW24889   0.456   2.110   8.338 -0.4672 -0.9084  0.4520
 4477SOL    HW124890   0.414   2.049   8.276  1.4882  1.4290 -3.1813
 4477SOL    HW224891   0.381   2.144   8.386  0.7267  0.8592  1.0518
 4478SOL     OW24892   4.357   2.422  12.955  0.0489 -0.3450  0.4178
 4478SOL    HW124893   4.332   2.503  12.909 -0.7129 -0.5728  0.4379
 4478SOL    HW224894   4.347   2.458  13.043  2.7346  0.5754  0.3397
 4479SOL     OW24895   1.470   1.303  15.199  0.3379  0.0198  0.8293
 4479SOL    HW124896   1.534   1.327  15.267 -0.1999  2.2900  0.5312
 4479SOL    HW224897   1.521   1.313  15.119 -1.0991 -3.3548 -0.4900
 4480SOL     OW24898   1.649   1.417   6.004 -0.1554  0.1967 -0.1241
 4480SOL    HW124899   1.619   1.504   6.029 -0.0496  0.4412 -0.8734
 4480SOL    HW224900   1.683   1.391   6.090  0.5814 -2.3322 -1.1951
 4481SOL     OW24901   1.601   2.870  16.129  0.2668  0.1230 -0.1650
 4481SOL    HW124902   1.681   2.821  16.148  0.1383 -0.1611 -0.3649
 4481SOL    HW224903   1.539   2.808  16.169  1.6264  0.1715  2.0652
 4482SOL     OW24904   4.223   1.271  15.701 -0.1045  0.1266 -0.1977
 4482SOL    HW124905   4.157   1.252  15.767 -1.4265  1.0301 -1.2671
 4482SOL    HW224906   4.170   1.303  15.628 -1.2884  1.5866  1.3184
 4483SOL     OW24907   0.951   4.277  17.474 -0.0067  0.1424  0.5441
 4483SOL    HW124908   1.045   4.285  17.491  0.0871  1.0565 -0.4229
 4483SOL    HW224909   0.930   4.264  17.567 -0.8863 -0.6655  0.2298
 4484SOL     OW24910   0.843   0.059  16.017  0.7979  0.5557  0.0748
 4484SOL    HW124911   0.890   0.023  15.942 -1.7284  0.6519 -1.5334
 4484SOL    HW224912   0.860   4.714  16.077 -0.7119 -0.3297 -0.5830
 4485SOL     OW24913   3.853   1.594  16.540 -0.3750  0.4260  0.1144
 4485SOL    HW124914   3.936   1.552  16.564 -1.1965 -1.0798  0.3359
 4485SOL    HW224915   3.809   1.602  16.625  2.0996  1.7489  1.2570
 4486SOL     OW24916   0.001   4.178   3.735 -0.0034 -0.7495 -0.2535
 4486SOL    HW124917   4.643   4.158   3.773 -0.4821 -0.2698 -1.0941
 4486SOL    HW224918   4.698   4.254   3.686 -1.8478 -0.6965  1.0143
 4487SOL     OW24919   2.184   3.127   8.635  0.3141  0.3985  0.1670
 4487SOL    HW124920   2.214   3.194   8.574  1.5482 -1.1018 -0.8574
 4487SOL    HW224921   2.104   3.106   8.586  0.3090 -2.4816  1.4055
 4488SOL     OW24922   3.878   2.272   7.510 -0.0220  0.0844  0.0227
 4488SOL    HW124923   3.923   2.352   7.536  0.0063 -0.1030  0.5680
 4488SOL    HW224924   3.787   2.296   7.526  0.2269  2.7565 -2.7016
 4489SOL     OW24925   0.964   0.151   1.882 -0.8001  0.5960  0.2009
 4489SOL    HW124926   0.897   0.143   1.949 -0.6189 -1.9013  0.0629
 4489SOL    HW224927   0.938   0.235   1.844 -2.1443 -0.5170 -1.3445
 4490SOL     OW24928   2.676   4.164   8.855  0.6285 -0.0631  0.6223
 4490SOL    HW124929   2.683   4.173   8.760 -2.3612 -1.6654  0.2654
 4490SOL    HW224930   2.589   4.125   8.856  0.2604  0.7811  1.0261
 4491SOL     OW24931   0.557   4.342  13.016  0.3369  0.2120 -0.3944
 4491SOL    HW124932   0.576   4.253  12.986 -1.8703 -0.1431 -0.7441
 4491SOL    HW224933   0.574   4.337  13.110 -2.2836 -2.0526 -0.0294
 4492SOL     OW24934   1.603   1.520   5.394  0.6270 -0.3706  0.4027
 4492SOL    HW124935   1.597   1.485   5.483 -1.3916  0.1704  0.4826
 4492SOL    HW224936   1.639   1.451   5.338  1.4646 -0.3388  0.9120
 4493SOL     OW24937   2.316   1.825   8.390  0.5637 -0.0471 -0.5267
 4493SOL    HW124938   2.293   1.865   8.306  1.8673  0.6640 -0.5396
 4493SOL    HW224939   2.284   1.735   8.379  0.3664 -0.0461  0.0486
 4494SOL     OW24940   1.144   4.168   8.917  0.4163  0.8055  0.1012
 4494SOL    HW124941   1.122   4.250   8.961 -0.1198  0.4752  0.4566
 4494SOL    HW224942   1.094   4.107   8.972  1.1630 -1.4574 -1.6903
 4495SOL     OW24943   0.108   3.746   3.820 -0.5677  0.7337 -0.3459
 4495SOL    HW124944   0.133   3.749   3.912 -2.7360  1.1736  0.2041
 4495SOL    HW224945   0.141   3.834   3.797  0.6933  0.8036  1.7522
 4496SOL     OW24946   2.206   2.575   6.267 -0.1240 -0.7181  0.0911
 4496SOL    HW124947   2.169   2.544   6.184  1.3245 -0.9041 -0.4818
 4496SOL    HW224948   2.299   2.568   6.245  0.0332  0.9363  0.2146
 4497SOL     OW24949   3.820   0.603   0.902  0.1429  0.5642  0.4934
 4497SOL    HW124950   3.845   0.515   0.930 -0.9630  0.4620  1.1863
 4497SOL    HW224951   3.837   0.654   0.981 -0.5523 -0.4938  1.3339
 4498SOL     OW24952   4.293   1.978   4.883  0.1976 -0.1477 -0.5780
 4498SOL    HW124953   4.209   1.971   4.837 -1.3479  1.2770  2.0513
 4498SOL    HW224954   4.330   1.898   4.845  0.0249 -0.9217  0.8997
 4499SOL     OW24955   3.249   3.948   2.819 -0.3671  0.0254 -0.6836
 4499SOL    HW124956   3.262   4.031   2.773  1.7878  1.0975  1.8659
 4499SOL    HW224957   3.194   3.973   2.893 -0.2206 -0.3168 -0.4604
 4500SOL     OW24958   0.463   1.322   1.040  0.0945  0.7700  0.5183
 4500SOL    HW124959   0.519   1.392   1.006 -2.2611  2.3748 -0.0392
 4500SOL    HW224960   0.423   1.282   0.963 -2.1297 -1.4197  2.7998
 4501SOL     OW24961   0.442   3.272   0.964  0.3958  0.4194  0.1446
 4501SOL    HW124962   0.377   3.326   1.010  0.6689  0.0438  0.9775
 4501SOL    HW224963   0.488   3.245   1.043  1.6238 -1.8204 -1.3421
 4502SOL     OW24964   1.597   0.554  14.551  0.1960  0.3637 -0.7721
 4502SOL    HW124965   1.577   0.461  14.543 -2.4428  0.6851  1.8822
 4502SOL    HW224966   1.582   0.567  14.457  3.0449 -0.4198 -1.3214
 4503SOL     OW24967   3.878   1.803   6.942  0.0153  0.2202  0.2076
 4503SOL    HW124968   3.918   1.748   6.875 -1.6464  0.5005 -1.0034
 4503SOL    HW224969   3.892   1.890   6.905 -2.9218  0.9197  0.7335
 4504SOL     OW24970   2.750   3.220   7.261  0.3510 -0.0583  0.0703
 4504SOL    HW124971   2.687   3.270   7.208 -0.5479  0.1826  1.3579
 4504SOL    HW224972   2.796   3.286   7.313  0.4242 -1.6075  1.9545
 4505SOL     OW24973   4.018   0.031  15.975 -0.0427 -0.2957 -0.0952
 4505SOL    HW124974   4.088   0.056  15.915  0.0268 -1.3431 -0.4445
 4505SOL    HW224975   4.052   0.037  16.064  1.4955  3.6330 -0.9047
 4506SOL     OW24976   1.613   1.371   3.165 -0.7151 -0.4392  0.4771
 4506SOL    HW124977   1.685   1.429   3.141 -2.4453  1.8439  0.7613
 4506SOL    HW224978   1.670   1.313   3.216 -0.7187 -0.9287 -0.0840
 4507SOL     OW24979   2.298   0.586   3.662 -0.6694  0.2575 -0.2004
 4507SOL    HW124980   2.370   0.644   3.689  0.8893 -1.7697  0.0494
 4507SOL    HW224981   2.230   0.647   3.687 -0.8853 -0.3685  0.7763
 4508SOL     OW24982   0.129   2.362   1.274  0.3099  0.0092 -0.1716
 4508SOL    HW124983   0.158   2.428   1.211  0.4573  0.8482  0.7684
 4508SOL    HW224984   0.202   2.301   1.262  0.7428  0.8286 -1.6650
 4509SOL     OW24985   3.524   1.072  17.289 -0.0518 -0.2617 -0.1583
 4509SOL    HW124986   3.606   1.073  17.238  0.1916 -2.0006  0.1960
 4509SOL    HW224987   3.460   1.081  17.219 -0.7552  0.2338  0.5553
 4510SOL     OW24988   2.463   2.716   6.895  0.2615  0.2999  0.2927
 4510SOL    HW124989   2.457   2.752   6.984  0.9998  1.5549 -0.1699
 4510SOL    HW224990   2.369   2.714   6.873 -0.1806 -2.4856  2.4165
 4511SOL     OW24991   2.656   0.101   2.715 -0.0145  0.5220  0.0910
 4511SOL    HW124992   2.574   0.087   2.668  1.1999  2.0150 -2.4309
 4511SOL    HW224993   2.708   0.157   2.658  1.3482  0.3280  1.1376
 4512SOL     OW24994   3.994   2.845   7.753  0.3612  0.0284 -1.0303
 4512SOL    HW124995   4.031   2.819   7.837 -2.6882 -2.4123 -0.4322
 4512SOL    HW224996   4.073   2.888   7.718  0.7950  0.6434  0.7137
 4513SOL     OW24997   3.769   1.705   2.833  0.5324 -0.1052  0.2952
 4513SOL    HW124998   3.712   1.709   2.909 -0.8739  3.2847 -0.9740
 4513SOL    HW224999   3.858   1.712   2.869 -0.1009  0.8088  1.6612
 4514SOL     OW25000   0.354   4.515   8.308  0.0280  0.5342  0.3117
 4514SOL    HW125001   0.266   4.544   8.281  0.0364  1.3970  1.2114
 4514SOL    HW225002   0.391   4.602   8.324 -0.6963  0.9307 -0.1192
 4515SOL     OW25003   0.428   3.017   5.111  0.3825 -0.0094 -0.0924
 4515SOL    HW125004   0.415   2.966   5.031 -1.1086 -2.0144  1.4309
 4515SOL    HW225005   0.523   3.010   5.121  0.2299 -0.4151  1.0827
 4516SOL     OW25006   4.463   1.857   6.922  0.3013 -0.2358  0.1256
 4516SOL    HW125007   4.488   1.924   6.859  0.7198 -2.4877 -2.1431
 4516SOL    HW225008   4.539   1.799   6.922  1.2103  0.9842  1.2331
 4517SOL     OW25009   2.465   4.275  15.333  0.6179  0.1304 -0.5212
 4517SOL    HW125010   2.484   4.188  15.301 -0.7656 -1.2886  2.4508
 4517SOL    HW225011   2.449   4.255  15.425 -1.7736 -2.2655 -1.4532
 4518SOL     OW25012   0.377   3.913   2.060 -0.7385  0.2482  0.2170
 4518SOL    HW125013   0.423   3.985   2.018  2.9900 -1.6120  1.0680
 4518SOL    HW225014   0.338   3.866   1.986  1.4336  0.1720 -0.8629
 4519SOL     OW25015   0.755   1.243  14.786 -0.1147 -0.3565  0.2082
 4519SOL    HW125016   0.674   1.196  14.768  0.1121 -0.4080 -0.7006
 4519SOL    HW225017   0.820   1.200  14.731 -0.8537  0.9759 -1.7261
 4520SOL     OW25018   3.577   1.544   2.704  0.3082  0.0661  0.0923
 4520SOL    HW125019   3.537   1.628   2.683  1.7456  0.3206 -1.5419
 4520SOL    HW225020   3.671   1.564   2.706  0.4669 -0.8077  1.5905
 4521SOL     OW25021   4.333   1.460   1.377  0.2107  0.3477 -0.5825
 4521SOL    HW125022   4.355   1.486   1.467  0.0168  1.4662 -0.8553
 4521SOL    HW225023   4.378   1.537   1.342  0.5528 -0.7618 -2.5301
 4522SOL     OW25024   1.537   4.481   8.573 -0.6492 -1.0873 -0.6271
 4522SOL    HW125025   1.591   4.443   8.503 -0.5340  0.5752 -1.4550
 4522SOL    HW225026   1.482   4.537   8.517 -1.2019 -2.1830 -1.1908
 4523SOL     OW25027   3.156   4.339   5.297 -0.0370 -0.0564 -0.2760
 4523SOL    HW125028   3.078   4.295   5.331 -0.3605  1.8418  1.4662
 4523SOL    HW225029   3.146   4.322   5.203 -0.4033 -2.9941  0.3079
 4524SOL     OW25030   2.065   0.897   2.369  0.1329  0.2809  0.0642
 4524SOL    HW125031   2.148   0.855   2.346  0.0881 -0.0200  0.4632
 4524SOL    HW225032   2.030   0.844   2.440 -2.8830  0.6902 -1.1238
 4525SOL     OW25033   4.100   2.801   1.811  0.7555  0.1928 -0.3532
 4525SOL    HW125034   4.120   2.718   1.856  2.1468  0.5423 -0.3259
 4525SOL    HW225035   4.128   2.782   1.721 -0.9511  0.5254 -0.9422
 4526SOL     OW25036   2.780   2.351   9.275 -0.3013  0.6076 -0.2225
 4526SOL    HW125037   2.686   2.352   9.261 -0.4967  1.8300  1.3024
 4526SOL    HW225038   2.785   2.404   9.354 -0.8286 -2.8462  2.1151
 4527SOL     OW25039   2.442   4.063   9.112  0.2512  0.0683 -0.7038
 4527SOL    HW125040   2.429   4.158   9.113  0.8696  0.1608 -1.5332
 4527SOL    HW225041   2.526   4.054   9.156 -0.1548 -0.2965  0.0039
 4528SOL     OW25042   0.559   1.220   5.646  0.1861  0.2564 -0.0409
 4528SOL    HW125043   0.636   1.196   5.698 -0.9491 -0.3744  1.3384
 4528SOL    HW225044   0.599   1.250   5.564  0.7429  0.8433  0.4482
 4529SOL     OW25045   2.797   2.247   7.881 -0.1372 -0.1873  0.0746
 4529SOL    HW125046   2.758   2.187   7.946 -0.3324 -0.5477 -0.3732
 4529SOL    HW225047   2.864   2.286   7.937 -0.0670  0.9618 -0.8213
 4530SOL     OW25048   3.989   4.421   4.966 -0.4619 -0.6936  0.3942
 4530SOL    HW125049   3.942   4.499   4.996 -1.2856 -0.6633 -0.9554
 4530SOL    HW225050   3.924   4.353   4.945 -1.7420  1.7804 -3.5994
 4531SOL     OW25051   1.772   0.345   2.433 -0.0386 -0.3760  0.0421
 4531SOL    HW125052   1.684   0.366   2.404  0.4262  0.4207 -0.8053
 4531SOL    HW225053   1.824   0.411   2.387  0.9262  0.6290  2.5239
 4532SOL     OW25054   0.324   1.322   9.711 -0.0257 -0.2680  0.7628
 4532SOL    HW125055   0.266   1.384   9.756 -0.5278 -0.9381  1.0456
 4532SOL    HW225056   0.395   1.378   9.682 -0.3505  0.1058  0.6903
 4533SOL     OW25057   1.847   1.349   7.951  0.4014 -0.0142  0.2350
 4533SOL    HW125058   1.810   1.424   7.905  0.4379 -0.4616 -0.5169
 4533SOL    HW225059   1.767   1.334   8.002  0.8145  0.0205  0.8874
 4534SOL     OW25060   0.539   3.904   2.304  0.4738 -0.3435 -0.1740
 4534SOL    HW125061   0.470   3.900   2.237  0.7664  1.4802 -0.5889
 4534SOL    HW225062   0.601   3.939   2.240 -1.0557  0.2810 -1.3484
 4535SOL     OW25063   2.640   3.505   2.706  0.5376 -0.4108  0.6231
 4535SOL    HW125064   2.705   3.452   2.751  1.7046 -0.4054 -1.0556
 4535SOL    HW225065   2.699   3.549   2.645 -1.1708 -0.3055 -0.9638
 4536SOL     OW25066   3.261   1.895   0.833  0.4198 -0.4374  0.9414
 4536SOL    HW125067   3.228   1.820   0.783  1.3438  0.5069 -1.1175
 4536SOL    HW225068   3.185   1.934   0.875  0.1933  0.8370 -0.6514
 4537SOL     OW25069   1.638   3.814   6.546 -0.6000 -0.1583  0.5773
 4537SOL    HW125070   1.551   3.778   6.563 -0.6137 -0.5051 -0.2499
 4537SOL    HW225071   1.621   3.909   6.541 -0.6093 -0.2345 -0.8680
 4538SOL     OW25072   1.668   0.160  11.957  0.5245 -0.0518  0.1713
 4538SOL    HW125073   1.678   0.254  11.938 -0.2575 -0.2916 -1.3896
 4538SOL    HW225074   1.758   0.131  11.943  0.4582 -0.3002  0.2536
 4539SOL     OW25075   4.403   0.260   0.868  0.6152 -0.1031 -0.1807
 4539SOL    HW125076   4.312   0.290   0.866 -0.2158 -2.6213 -0.1347
 4539SOL    HW225077   4.449   0.306   0.938 -0.6035  2.0160 -0.7953
 4540SOL     OW25078   1.804   3.596   8.148  0.4288  0.1471 -0.4478
 4540SOL    HW125079   1.826   3.683   8.117 -0.1607  0.6769  0.6291
 4540SOL    HW225080   1.785   3.597   8.241  2.0214 -0.5621 -0.1140
 4541SOL     OW25081   2.880   3.397  12.340 -0.3078  0.4491 -0.5221
 4541SOL    HW125082   2.853   3.357  12.257 -2.0621 -1.5905  1.0187
 4541SOL    HW225083   2.943   3.465  12.318  0.5236 -0.4357 -0.8719
 4542SOL     OW25084   2.799   3.844   7.891  0.0010 -0.0907  0.3923
 4542SOL    HW125085   2.873   3.823   7.948 -0.2828  0.2950  0.8957
 4542SOL    HW225086   2.749   3.763   7.902 -0.9035  0.3503 -0.5564
 4543SOL     OW25087   0.987   2.355   3.826 -0.0864  0.2394  0.0356
 4543SOL    HW125088   1.073   2.326   3.798  0.1150  0.7056  0.1676
 4543SOL    HW225089   0.956   2.377   3.738 -0.5831 -2.2034 -0.3955
 4544SOL     OW25090   1.498   4.320  16.536  0.1989  0.7199  0.6083
 4544SOL    HW125091   1.588   4.355  16.537  0.8244 -0.8718 -0.0200
 4544SOL    HW225092   1.505   4.273  16.619 -2.8666  1.8728  1.4984
 4545SOL     OW25093   1.579   3.966   5.897 -0.3355  0.3285 -0.5653
 4545SOL    HW125094   1.501   3.935   5.945  1.1040 -1.6125  0.5073
 4545SOL    HW225095   1.596   3.889   5.843 -0.8815  1.3654 -2.1868
 4546SOL     OW25096   0.515   0.465   5.899  0.1416  0.0182 -0.2523
 4546SOL    HW125097   0.605   0.496   5.890 -0.2185  1.4460  1.1823
 4546SOL    HW225098   0.491   0.432   5.812 -3.2776  1.5577  0.1248
 4547SOL     OW25099   3.025   4.169   9.247 -0.2339  0.5147  0.2437
 4547SOL    HW125100   3.010   4.166   9.153 -2.1196  0.0724  0.5684
 4547SOL    HW225101   3.112   4.131   9.259  0.2194  1.6256  0.4779
 4548SOL     OW25102   2.884   2.132   9.181  0.2873  0.2038  0.3210
 4548SOL    HW125103   2.868   2.226   9.189  1.6013  0.3683  1.1126
 4548SOL    HW225104   2.883   2.121   9.086 -2.7311  1.1097  0.2646
 4549SOL     OW25105   2.680   1.020   2.370  0.9559  0.1273 -0.6961
 4549SOL    HW125106   2.675   0.952   2.436  0.6892 -0.4898 -1.3519
 4549SOL    HW225107   2.649   0.975   2.291  0.3977 -1.3106  0.3554
 4550SOL     OW25108   1.807   4.385   4.940 -0.2519  0.7007 -0.0539
 4550SOL    HW125109   1.758   4.402   5.021  0.4818 -1.0446  0.7582
 4550SOL    HW225110   1.852   4.305   4.967  0.4862  2.0142  2.5963
 4551SOL     OW25111   2.430   2.570   3.191  0.1924 -0.4439 -0.0269
 4551SOL    HW125112   2.423   2.543   3.283  1.3114 -3.4353 -0.8256
 4551SOL    HW225113   2.341   2.546   3.163  0.7979 -0.5510 -1.8111
 4552SOL     OW25114   3.191   3.518   2.108 -0.3633 -0.6303 -0.1922
 4552SOL    HW125115   3.171   3.428   2.084  1.9970 -1.7975  2.1990
 4552SOL    HW225116   3.284   3.521   2.087  0.0244  1.0559  1.7152
 4553SOL     OW25117   3.692   1.430   3.416 -0.4492 -0.3119  0.4089
 4553SOL    HW125118   3.661   1.376   3.489  2.4926 -1.5012  0.7405
 4553SOL    HW225119   3.783   1.439   3.441 -0.1588 -0.6790 -0.5228
 4554SOL     OW25120   2.943   1.647  13.948  0.1834 -0.1817  0.3365
 4554SOL    HW125121   2.971   1.684  13.864 -1.4176 -1.7188 -0.9088
 4554SOL    HW225122   2.847   1.655  13.942  0.0379 -1.9886  0.1722
 4555SOL     OW25123   4.671   0.036   7.170  0.9263  0.4042 -0.5284
 4555SOL    HW125124   4.685   4.699   7.101  0.1389  0.2344 -0.5300
 4555SOL    HW225125   0.030   0.022   7.209  0.6510 -1.2657 -0.5221
 4556SOL     OW25126   3.362   3.596  11.742  0.7147  0.3395  0.2903
 4556SOL    HW125127   3.297   3.527  11.756  0.4354  0.6042  0.2960
 4556SOL    HW225128   3.405   3.558  11.665 -0.6970  0.0742 -0.3785
 4557SOL     OW25129   1.995   1.103   8.139  0.0928  0.1574  0.5308
 4557SOL    HW125130   1.904   1.131   8.149 -0.4836 -0.7366 -2.3794
 4557SOL    HW225131   1.983   1.037   8.071 -0.1217  0.5175  0.2215
 4558SOL     OW25132   2.236   4.625  11.812  0.4716  0.1757  0.1548
 4558SOL    HW125133   2.228   4.713  11.775  0.8298 -1.0935 -2.8920
 4558SOL    HW225134   2.147   4.620  11.847  0.1879  1.1803 -0.4193
 4559SOL     OW25135   4.350   0.487  13.200 -0.3595  0.3706 -0.7609
 4559SOL    HW125136   4.274   0.500  13.256  0.2579  0.3383  0.0970
 4559SOL    HW225137   4.379   0.579  13.192  3.1148 -0.6268  0.2183
 4560SOL     OW25138   4.027   4.711   2.067 -0.1995  0.1125 -0.1173
 4560SOL    HW125139   3.992   4.726   1.980 -0.9836 -0.9939  0.0001
 4560SOL    HW225140   3.955   4.711   2.131  1.6201  2.7733  1.9178
 4561SOL     OW25141   1.987   2.722   2.899  0.4704 -0.0847 -0.1604
 4561SOL    HW125142   2.047   2.649   2.889 -0.3120 -0.8600  0.6958
 4561SOL    HW225143   1.913   2.692   2.846 -0.4498  1.4655  0.2561
 4562SOL     OW25144   3.644   3.398   7.711 -0.2335  0.0134 -0.1803
 4562SOL    HW125145   3.620   3.381   7.802  1.0410  1.9915  0.5300
 4562SOL    HW225146   3.564   3.420   7.663  0.1633 -0.1147 -0.9165
 4563SOL     OW25147   2.080   0.718   4.520 -0.0293  0.1228 -0.1347
 4563SOL    HW125148   2.138   0.674   4.582  3.3652  0.2001 -3.2400
 4563SOL    HW225149   2.118   0.686   4.438  0.4418  2.7669 -0.9386
 4564SOL     OW25150   3.999   1.153   5.456  0.4760 -0.1377  0.6532
 4564SOL    HW125151   3.943   1.226   5.483  0.4356  0.9095 -2.2634
 4564SOL    HW225152   3.934   1.083   5.461 -0.7297  0.8741 -0.9235
 4565SOL     OW25153   4.007   1.275   9.809  0.1064 -0.0158  0.5001
 4565SOL    HW125154   3.978   1.189   9.842 -3.1153  1.4412  1.4509
 4565SOL    HW225155   3.997   1.338   9.880 -1.9295  1.3718 -1.0312
 4566SOL     OW25156   2.246   3.953   2.526  0.2307 -0.5747 -0.2802
 4566SOL    HW125157   2.269   4.027   2.470 -0.1529 -0.4738 -0.3055
 4566SOL    HW225158   2.329   3.933   2.569 -0.4795 -0.0767  1.3292
 4567SOL     OW25159   4.129   2.622  16.869  0.6010 -0.8756 -0.3991
 4567SOL    HW125160   4.034   2.632  16.872  0.4729 -1.8477 -1.0866
 4567SOL    HW225161   4.163   2.710  16.884 -1.5591 -0.6276  3.0092
 4568SOL     OW25162   1.763   0.966   0.585 -0.1367 -0.2172  0.2613
 4568SOL    HW125163   1.850   0.953   0.624 -0.0494 -2.3042 -0.6128
 4568SOL    HW225164   1.745   0.874   0.566 -0.3307 -0.5664  2.1519
 4569SOL     OW25165   2.452   2.406   7.392 -0.2825  0.0612 -0.6760
 4569SOL    HW125166   2.357   2.406   7.398 -0.3567 -1.6040 -2.0172
 4569SOL    HW225167   2.468   2.484   7.340  1.3222 -1.1402 -1.9726
 4570SOL     OW25168   2.316   2.804   9.020 -0.3336  0.3786 -0.1728
 4570SOL    HW125169   2.276   2.769   9.099  4.4632 -3.2637  0.6160
 4570SOL    HW225170   2.255   2.874   8.994  0.1123  0.1863 -1.7593
 4571SOL     OW25171   2.291   0.766   8.004 -0.2898 -0.2928 -0.2416
 4571SOL    HW125172   2.364   0.705   7.991  0.9153  1.1832 -0.3769
 4571SOL    HW225173   2.280   0.768   8.099  0.6896  0.3069 -0.1436
 4572SOL     OW25174   3.057   1.158   2.064  0.0089  0.0081 -0.0407
 4572SOL    HW125175   3.130   1.097   2.050  0.1637  0.3300 -0.6410
 4572SOL    HW225176   3.074   1.193   2.151  0.0835  1.5342 -0.6737
 4573SOL     OW25177   0.275   4.029   8.327  0.2434 -0.5310 -0.4099
 4573SOL    HW125178   0.360   4.027   8.371 -0.0645  3.5435  0.3733
 4573SOL    HW225179   0.271   4.116   8.285  1.8893 -0.9467 -1.4189
 4574SOL     OW25180   3.398   4.614   7.709 -0.5693  0.7277  0.2359
 4574SOL    HW125181   3.404   4.519   7.707 -3.3854  0.5725 -0.4366
 4574SOL    HW225182   3.316   4.624   7.661 -0.5104 -1.1301 -0.2522
 4575SOL     OW25183   1.226   4.630  17.283 -0.0805 -0.1976 -0.4685
 4575SOL    HW125184   1.230   4.536  17.266 -2.2747 -0.6683  1.6211
 4575SOL    HW225185   1.135   4.650  17.260  0.8040  2.1052 -1.9915
 4576SOL     OW25186   4.188   0.208   4.087  0.0171  0.2806  0.4578
 4576SOL    HW125187   4.138   0.182   4.010  0.2308 -0.4528  0.5588
 4576SOL    HW225188   4.234   0.291   4.075 -0.0546  0.4035  1.0018
 4577SOL     OW25189   3.516   3.517   4.564  0.2515 -0.0035 -0.6741
 4577SOL    HW125190   3.442   3.469   4.527 -1.3194  1.5362  0.4308
 4577SOL    HW225191   3.505   3.605   4.526  2.2217  0.6444  0.2443
 4578SOL     OW25192   1.017   2.756   6.299 -0.1115 -0.4321 -0.2478
 4578SOL    HW125193   1.092   2.731   6.353  0.4805 -1.9769 -1.7764
 4578SOL    HW225194   1.004   2.689   6.232  0.1665  0.9900 -1.7360
 4579SOL     OW25195   3.225   2.738  10.744  0.3068 -0.1037 -0.1888
 4579SOL    HW125196   3.306   2.751  10.695  0.1919 -0.3430 -0.4357
 4579SOL    HW225197   3.215   2.819  10.794 -0.6396 -0.3047 -0.0572
 4580SOL     OW25198   4.051   0.166   4.835  0.0983  0.1240 -0.4020
 4580SOL    HW125199   4.000   0.089   4.808  0.2613 -0.4003  0.7992
 4580SOL    HW225200   3.986   0.231   4.807 -0.2548  0.2110  0.6421
 4581SOL     OW25201   4.104   2.396  14.402 -0.1428 -0.2786 -0.0580
 4581SOL    HW125202   4.015   2.418  14.373 -0.1615 -1.8559 -1.1939
 4581SOL    HW225203   4.119   2.317  14.350  0.8455  0.3974 -0.7839
 4582SOL     OW25204   4.626   4.658   9.887  0.3638 -0.0028  0.9911
 4582SOL    HW125205   4.541   4.690   9.857 -1.0745 -4.0589  0.7491
 4582SOL    HW225206   4.602   4.566   9.903  1.9714 -0.8888 -1.5268
 4583SOL     OW25207   4.727   2.884   5.868  0.1802  0.3582 -0.3942
 4583SOL    HW125208   4.688   2.802   5.898 -0.1758  0.2149 -1.2618
 4583SOL    HW225209   4.645   2.931   5.849 -1.1549 -1.6847  0.2551
 4584SOL     OW25210   4.163   1.335  14.976 -0.2213 -0.4570 -0.3523
 4584SOL    HW125211   4.208   1.343  14.891  1.4839 -0.2420  0.5790
 4584SOL    HW225212   4.088   1.391  14.958  1.8204  2.0885 -0.9444
 4585SOL     OW25213   1.304   1.544   6.016 -0.3955 -0.6216 -0.2225
 4585SOL    HW125214   1.340   1.544   5.928 -0.9401  0.4708 -0.4432
 4585SOL    HW225215   1.297   1.453   6.047 -0.8026 -0.8088 -0.8767
 4586SOL     OW25216   1.547   3.143   5.275 -0.0195 -0.3480  0.1837
 4586SOL    HW125217   1.519   3.184   5.193 -1.9359 -1.8710  0.0628
 4586SOL    HW225218   1.580   3.057   5.246  0.3938 -0.6327  1.4912
 4587SOL     OW25219   0.822   0.130   6.818 -0.0999 -0.2202 -0.4140
 4587SOL    HW125220   0.897   0.188   6.825 -0.2049  0.1085 -2.0085
 4587SOL    HW225221   0.846   0.068   6.749  0.9018 -1.4138  1.0336
 4588SOL     OW25222   1.972   2.352  16.530  0.7846 -0.4264 -0.0629
 4588SOL    HW125223   1.915   2.363  16.606 -1.2389  1.1014 -1.8181
 4588SOL    HW225224   2.048   2.306  16.567 -0.2122 -0.6379  1.7341
 4589SOL     OW25225   3.801   2.711  13.271 -0.2053  0.3921 -0.3696
 4589SOL    HW125226   3.750   2.630  13.266 -0.3218  0.5342 -1.3664
 4589SOL    HW225227   3.892   2.682  13.261 -1.0712 -3.1453  1.9004
 4590SOL     OW25228   3.308   1.382   2.002  0.2701 -0.7974 -0.5162
 4590SOL    HW125229   3.369   1.364   2.073 -0.6825  0.3209  0.5985
 4590SOL    HW225230   3.228   1.341   2.032  0.9570 -0.8533  1.2172
 4591SOL     OW25231   3.777   0.993   2.764  0.1762 -0.1163 -0.1835
 4591SOL    HW125232   3.852   0.934   2.757  0.1719  0.0480 -1.5618
 4591SOL    HW225233   3.820   1.065   2.808  1.3823 -0.0720 -1.4451
 4592SOL     OW25234   0.350   1.980   6.825  0.4447 -0.6145 -0.6006
 4592SOL    HW125235   0.309   2.051   6.775  0.1464 -0.4413 -0.1043
 4592SOL    HW225236   0.374   2.013   6.911 -1.1367 -1.0314  0.0031
 4593SOL     OW25237   3.758   4.526   1.321 -0.1160 -0.3596 -0.9779
 4593SOL    HW125238   3.758   4.578   1.240  1.6667  0.3640 -0.5199
 4593SOL    HW225239   3.693   4.458   1.305  1.6894 -2.6769  1.7334
 4594SOL     OW25240   0.654   2.443   7.063 -0.4053 -0.3428  0.3381
 4594SOL    HW125241   0.708   2.521   7.079 -0.2694 -0.5812  1.0518
 4594SOL    HW225242   0.665   2.418   6.971  1.5721 -1.7691  0.9654
 4595SOL     OW25243   2.759   3.171  14.200 -0.2058  0.2471  0.4777
 4595SOL    HW125244   2.827   3.178  14.132 -1.4859 -0.2845 -0.8657
 4595SOL    HW225245   2.777   3.083  14.233 -1.5936 -0.1463  0.1833
 4596SOL     OW25246   0.601   2.501   5.187  0.1925  0.1688 -0.2224
 4596SOL    HW125247   0.637   2.414   5.198  0.5987  0.2472 -0.9482
 4596SOL    HW225248   0.684   2.549   5.195  0.2036  0.3495 -1.4672
 4597SOL     OW25249   2.922   1.219   8.057  0.1887 -0.2044 -0.2762
 4597SOL    HW125250   2.889   1.222   7.967 -0.8916  1.2949  0.1707
 4597SOL    HW225251   2.889   1.134   8.086  0.2140  0.0928  0.6171
 4598SOL     OW25252   4.205   4.604   0.069 -0.0030 -0.2094  0.3886
 4598SOL    HW125253   4.124   4.654   0.065 -0.6609 -1.1678  1.5945
 4598SOL    HW225254   4.245   4.639   0.149  2.5855  0.3677 -1.1556
 4599SOL     OW25255   2.649   4.019   6.505 -0.4177  0.4388 -0.0483
 4599SOL    HW125256   2.671   4.099   6.457  1.3164 -0.1891 -0.2992
 4599SOL    HW225257   2.722   3.965   6.475 -0.2732  0.1895  0.7669
 4600SOL     OW25258   1.710   2.515   0.863 -0.0094  0.0722 -0.2566
 4600SOL    HW125259   1.803   2.509   0.885 -0.5840  2.3455  2.6846
 4600SOL    HW225260   1.676   2.517   0.952 -0.6407 -1.0599 -0.4590
 4601SOL     OW25261   1.843   0.719   9.676  0.1874 -0.2194 -0.8855
 4601SOL    HW125262   1.759   0.747   9.639  2.0040  1.9142 -3.4044
 4601SOL    HW225263   1.858   0.643   9.620  0.5176 -1.8205  1.4055
 4602SOL     OW25264   1.720   2.299   8.005 -0.3664  0.3375 -0.0946
 4602SOL    HW125265   1.743   2.216   8.046 -0.8535 -0.4390 -1.4115
 4602SOL    HW225266   1.627   2.302   7.986 -0.0825 -0.2454 -1.5663
 4603SOL     OW25267   3.407   1.674   3.924  0.0122  0.7786  0.1016
 4603SOL    HW125268   3.404   1.682   3.829 -2.0600  1.0982  0.1965
 4603SOL    HW225269   3.338   1.607   3.933  0.7320  0.1691  1.1588
 4604SOL     OW25270   2.761   3.328   3.883 -0.0359  0.4012 -0.3680
 4604SOL    HW125271   2.771   3.379   3.802 -1.9549 -0.3248 -1.0600
 4604SOL    HW225272   2.717   3.247   3.860  0.5127  0.3283 -1.1654
 4605SOL     OW25273   0.042   1.927   2.286 -0.2753  0.5244 -0.5179
 4605SOL    HW125274   0.045   1.834   2.262  2.4091  0.0571  1.7446
 4605SOL    HW225275   0.136   1.944   2.278  0.1693 -2.5471 -1.5854
 4606SOL     OW25276   1.720   0.209  11.313  0.4011  0.0630 -0.9580
 4606SOL    HW125277   1.630   0.239  11.325  0.4412 -0.1001 -0.2622
 4606SOL    HW225278   1.740   0.184  11.403  0.5150 -1.7731 -1.4909
 4607SOL     OW25279   2.426   3.504  17.527 -0.1034 -0.2551 -0.2408
 4607SOL    HW125280   2.401   3.423  17.482  0.6040 -1.3978  1.4482
 4607SOL    HW225281   2.488   3.463  17.587 -0.8564 -0.5424  0.3366
 4608SOL     OW25282   1.939   3.114   6.567 -0.4368  0.4022 -0.0955
 4608SOL    HW125283   2.023   3.109   6.614 -0.2116 -0.4332 -0.5979
 4608SOL    HW225284   1.895   3.053   6.625 -2.0514  1.0821 -0.5991
 4609SOL     OW25285   3.207   3.132   5.552  0.4673  0.2870 -0.0063
 4609SOL    HW125286   3.147   3.174   5.613  2.1969  0.5390  1.5531
 4609SOL    HW225287   3.259   3.209   5.529 -1.8233  1.6604 -0.5541
 4610SOL     OW25288   4.434   3.641   8.013 -0.2903 -0.0748 -0.3671
 4610SOL    HW125289   4.376   3.718   8.007 -0.9469 -0.6131 -0.9625
 4610SOL    HW225290   4.391   3.596   8.086  0.8395  0.2949  0.5171
 4611SOL     OW25291   4.188   0.834   5.184  0.0081 -0.4150  0.4727
 4611SOL    HW125292   4.142   0.912   5.153  1.5929  0.8212  1.2073
 4611SOL    HW225293   4.108   0.788   5.209  0.7847 -1.5720  0.8243
 4612SOL     OW25294   1.145   4.683   0.878 -0.1993 -0.0190 -0.2484
 4612SOL    HW125295   1.132   4.653   0.788  0.3990 -2.3493  0.4306
 4612SOL    HW225296   1.100   0.039   0.877  0.2740  0.2554  1.1470
 4613SOL     OW25297   3.745   1.221   9.695  0.2882 -0.3429 -0.2234
 4613SOL    HW125298   3.832   1.258   9.686  0.4424  0.1955  3.2442
 4613SOL    HW225299   3.742   1.234   9.790 -0.4759  2.3855 -0.6180
 4614SOL     OW25300   2.276   0.377   6.161 -0.2231 -0.3006  0.1356
 4614SOL    HW125301   2.324   0.294   6.167 -1.1336 -0.9977 -2.1589
 4614SOL    HW225302   2.285   0.408   6.251 -1.5919 -0.2308  0.2531
 4615SOL     OW25303   3.468   0.790   3.506  0.1207  0.2034 -0.0504
 4615SOL    HW125304   3.443   0.723   3.569 -0.8826  1.7272  1.1633
 4615SOL    HW225305   3.466   0.870   3.559  1.7341  0.5469 -0.5020
 4616SOL     OW25306   4.209   1.057   4.166 -0.2511  0.2328 -0.7029
 4616SOL    HW125307   4.221   1.150   4.148  0.5399  0.0427 -1.1634
 4616SOL    HW225308   4.204   1.037   4.073  0.6742 -0.9164 -0.5135
 4617SOL     OW25309   3.008   1.420   3.680  0.2052  0.1926  0.2426
 4617SOL    HW125310   3.048   1.498   3.643 -0.8830  0.5615 -0.1614
 4617SOL    HW225311   2.915   1.441   3.676  0.1669  0.2544  1.6663
 4618SOL     OW25312   0.685   1.928  13.139  0.4610  0.3558  0.1694
 4618SOL    HW125313   0.595   1.939  13.172  0.0471  2.1245 -1.5756
 4618SOL    HW225314   0.692   1.834  13.122 -0.3432  0.0767  1.2989
 4619SOL     OW25315   4.673   2.118   7.287 -0.4885  0.0084 -0.1566
 4619SOL    HW125316   4.676   2.061   7.363  2.4441  1.6011  0.9135
 4619SOL    HW225317   4.646   2.066   7.211 -2.8982 -0.1367  0.7855
 4620SOL     OW25318   0.326   0.985   6.631 -0.2619 -0.5968  0.2473
 4620SOL    HW125319   0.356   1.075   6.613 -1.8434  0.2014  1.6016
 4620SOL    HW225320   0.231   0.986   6.624 -0.3374  1.3057  1.4174
 4621SOL     OW25321   3.906   0.750   4.221  0.1193  0.0833  0.3915
 4621SOL    HW125322   3.926   0.664   4.257 -0.4180 -0.1182  0.2057
 4621SOL    HW225323   3.948   0.735   4.137  2.5187 -0.9503  1.7666
 4622SOL     OW25324   2.469   3.826   7.625 -0.3957  0.0025 -0.5600
 4622SOL    HW125325   2.388   3.826   7.677  0.7409  0.6332  1.2232
 4622SOL    HW225326   2.478   3.921   7.619  0.5245  0.0362  1.2256
 4623SOL     OW25327   0.653   1.868   9.988 -0.3470  0.4698 -0.0543
 4623SOL    HW125328   0.621   1.875   9.898 -2.9584 -1.9994  0.7074
 4623SOL    HW225329   0.747   1.851   9.978 -0.6746 -1.3762  0.0202
 4624SOL     OW25330   2.839   2.765   5.631  0.0905 -0.2499  0.0769
 4624SOL    HW125331   2.765   2.745   5.573 -2.3252  2.6743  2.1702
 4624SOL    HW225332   2.827   2.705   5.704 -2.0176 -0.6996 -0.6400
 4625SOL     OW25333   2.495   2.034   3.519 -0.2218 -0.1650 -0.0238
 4625SOL    HW125334   2.509   2.128   3.514 -0.0797 -0.1495  0.6604
 4625SOL    HW225335   2.526   2.005   3.433  0.6212 -0.2583  0.3111
 4626SOL     OW25336   0.121   3.094  15.050 -0.1659  0.1956 -0.0881
 4626SOL    HW125337   0.093   3.183  15.026 -1.6934 -0.2765 -0.0740
 4626SOL    HW225338   0.110   3.049  14.966 -3.1008 -1.1740  1.0536
 4627SOL     OW25339   1.572   1.006  17.676 -0.3138  0.5154  0.0098
 4627SOL    HW125340   1.568   0.913  17.697 -1.6900  0.5412 -0.0903
 4627SOL    HW225341   1.493   1.026  17.625  0.7690  0.9328 -1.4992
 4628SOL     OW25342   1.280   2.129   6.723 -0.7064 -0.7172  0.1309
 4628SOL    HW125343   1.295   2.119   6.817  1.0841 -0.9742 -0.1915
 4628SOL    HW225344   1.197   2.177   6.717 -1.1760 -1.4946  0.3028
 4629SOL     OW25345   0.679   1.712   3.708  0.4743  0.1987 -0.5223
 4629SOL    HW125346   0.677   1.733   3.801 -0.1204 -0.1990 -0.4447
 4629SOL    HW225347   0.753   1.764   3.679  0.7729 -0.1919 -0.4637
 4630SOL     OW25348   2.942   1.619   6.416  0.1793  0.0129 -0.0209
 4630SOL    HW125349   2.874   1.557   6.390 -1.0272  0.9123  0.9797
 4630SOL    HW225350   2.979   1.567   6.488 -1.6332  0.4028  1.1769
 4631SOL     OW25351   4.627   2.625   5.162  0.0766  0.5759 -0.3123
 4631SOL    HW125352   4.642   2.564   5.090  0.9528 -0.8696  1.0929
 4631SOL    HW225353   4.718   2.646   5.180  0.9612 -1.2622 -2.7313
 4632SOL     OW25354   2.181   1.363   4.871  0.4072  0.2257  0.4193
 4632SOL    HW125355   2.119   1.303   4.912  1.1546 -0.7016  0.2148
 4632SOL    HW225356   2.184   1.429   4.940 -0.4879 -0.0035  0.6771
 4633SOL     OW25357   2.074   2.394   6.873 -0.1229  0.3719  0.3251
 4633SOL    HW125358   2.053   2.474   6.922 -0.0022  0.3757  0.3707
 4633SOL    HW225359   2.047   2.419   6.784 -0.5830 -2.3617 -0.3014
 4634SOL     OW25360   1.421   2.706   7.279 -0.9906  0.2145  0.3645
 4634SOL    HW125361   1.354   2.727   7.344 -0.7801  0.5187  0.4818
 4634SOL    HW225362   1.371   2.720   7.198 -0.7507  0.6057  0.2850
 4635SOL     OW25363   3.265   4.045   4.994  0.8842  0.0605  0.2943
 4635SOL    HW125364   3.347   4.001   5.016 -0.2667 -0.1133  4.1072
 4635SOL    HW225365   3.283   4.096   4.914 -0.1248 -1.0754 -0.6651
 4636SOL     OW25366   1.545   2.432   1.879  0.6194  0.3557 -0.0068
 4636SOL    HW125367   1.568   2.404   1.790 -0.0992  3.7959 -1.2934
 4636SOL    HW225368   1.613   2.388   1.930  1.6881 -0.1030 -1.7930
 4637SOL     OW25369   4.481   3.018   3.743 -0.3465  0.1817  0.1530
 4637SOL    HW125370   4.429   2.984   3.670  0.9642  0.6565 -0.9902
 4637SOL    HW225371   4.531   3.085   3.697  0.4907  0.2047  1.1017
 4638SOL     OW25372   3.694   4.400   6.812  0.2261 -0.3574 -0.2373
 4638SOL    HW125373   3.752   4.430   6.742 -1.4256 -1.2459 -1.9751
 4638SOL    HW225374   3.607   4.411   6.773  0.1172  0.4811  0.2488
 4639SOL     OW25375   4.703   3.292   2.810 -0.1850 -0.2361 -0.3577
 4639SOL    HW125376   4.707   3.197   2.801  0.5008 -0.1252 -1.2237
 4639SOL    HW225377   4.687   3.314   2.718  2.0681  1.5104 -0.3351
 4640SOL     OW25378   0.701   0.636   4.281  0.0500  0.2818 -0.1472
 4640SOL    HW125379   0.714   0.679   4.365  1.8490  1.9093 -1.2504
 4640SOL    HW225380   0.790   0.652   4.248  0.2210  2.6209  1.4736
 4641SOL     OW25381   0.902   1.020  15.563 -0.2366  0.3507 -0.0802
 4641SOL    HW125382   0.858   1.071  15.495 -0.2355 -0.5581 -0.7670
 4641SOL    HW225383   0.833   1.009  15.628 -0.6704 -2.5708 -1.0264
 4642SOL     OW25384   1.684   3.144   6.270  0.1620  0.9595  0.2825
 4642SOL    HW125385   1.746   3.073   6.255 -0.8354 -0.6240  3.6705
 4642SOL    HW225386   1.638   3.140   6.186  1.3567 -1.1310 -0.2553
 4643SOL     OW25387   3.032   3.879  10.521  0.1951  0.4428 -0.3983
 4643SOL    HW125388   2.965   3.836  10.467 -0.5831  0.7657  0.3213
 4643SOL    HW225389   3.017   3.829  10.601  1.9055 -1.5386 -1.2919
 4644SOL     OW25390   3.889   2.175   4.755  0.2569 -0.0723 -0.7557
 4644SOL    HW125391   3.945   2.098   4.749  0.0221 -0.0897 -2.5711
 4644SOL    HW225392   3.923   2.225   4.681  2.8845  0.8168  1.0496
 4645SOL     OW25393   1.491   3.307  15.997 -0.2087 -0.3926  0.0932
 4645SOL    HW125394   1.527   3.301  16.085 -0.8471  3.0963  0.5995
 4645SOL    HW225395   1.549   3.244  15.956  1.2805  2.4215 -2.1323
 4646SOL     OW25396   1.674   4.289   1.549  0.5506  0.1160  0.6668
 4646SOL    HW125397   1.705   4.259   1.634 -1.0089  2.0213  1.8916
 4646SOL    HW225398   1.763   4.297   1.514  0.8460  3.5901  2.2523
 4647SOL     OW25399   2.827   0.916   8.050  0.2165  0.5047  0.5895
 4647SOL    HW125400   2.744   0.905   8.096  2.6080 -2.6456  4.1493
 4647SOL    HW225401   2.879   0.882   8.123 -0.6697  1.2703  1.5704
 4648SOL     OW25402   0.173   1.186   1.010 -0.5270  0.0847 -0.2044
 4648SOL    HW125403   0.126   1.109   0.979 -0.8152  0.7513 -1.4366
 4648SOL    HW225404   0.200   1.159   1.098 -1.7218 -1.7290 -0.3940
 4649SOL     OW25405   2.477   4.636   5.706 -0.3364 -0.2108  0.1169
 4649SOL    HW125406   2.546   4.688   5.666 -0.7683  1.1498  1.1305
 4649SOL    HW225407   2.527   4.572   5.757 -0.3411  0.4767  0.9799
 4650SOL     OW25408   2.474   0.619  13.220  0.0984 -0.0101  0.2831
 4650SOL    HW125409   2.405   0.573  13.172  0.7100  0.2819 -0.8889
 4650SOL    HW225410   2.450   0.711  13.219 -4.7792 -1.3047 -0.3056
 4651SOL     OW25411   1.220   2.242   4.712 -0.4023 -0.2816  0.0639
 4651SOL    HW125412   1.169   2.177   4.761 -0.8622  0.6106  0.7788
 4651SOL    HW225413   1.299   2.239   4.766 -0.4518  2.0372  0.2835
 4652SOL     OW25414   3.302   2.664   8.644 -0.0469  0.1425  0.0695
 4652SOL    HW125415   3.351   2.746   8.638  1.7913 -1.0615 -1.2616
 4652SOL    HW225416   3.268   2.653   8.555 -1.1275  1.1041  0.3585
 4653SOL     OW25417   0.277   4.356   2.067 -0.4568 -0.2175  0.0238
 4653SOL    HW125418   0.339   4.296   2.109 -0.2738 -1.2415 -1.7158
 4653SOL    HW225419   0.208   4.372   2.131 -1.2763 -1.2784 -0.5906
 4654SOL     OW25420   3.146   1.234   0.166 -0.4434  0.0749 -0.3493
 4654SOL    HW125421   3.099   1.288   0.103  0.2196  1.3070  0.2249
 4654SOL    HW225422   3.152   1.158   0.108  2.4473 -0.7365  1.0122
 4655SOL     OW25423   0.471   2.402  16.982 -0.1633 -0.6581 -0.3480
 4655SOL    HW125424   0.518   2.485  16.992 -2.0462  0.3334  0.2765
 4655SOL    HW225425   0.380   2.431  16.980 -0.7700 -2.5314  0.5018
 4656SOL     OW25426   4.140   4.100  10.337 -0.1786 -0.0998  0.0184
 4656SOL    HW125427   4.069   4.090  10.400 -2.0168  1.1679 -1.8825
 4656SOL    HW225428   4.208   4.063  10.395  1.0014 -0.5450 -1.6534
 4657SOL     OW25429   2.545   2.668   8.907  0.2363 -0.4824 -0.1404
 4657SOL    HW125430   2.624   2.705   8.946 -0.4722 -1.2681  2.0171
 4657SOL    HW225431   2.490   2.747   8.913  0.2396 -0.7489  3.3211
 4658SOL     OW25432   4.095   1.320  14.109  0.2017 -0.3065  0.2711
 4658SOL    HW125433   4.129   1.406  14.136 -0.5766 -0.1782  0.8319
 4658SOL    HW225434   4.049   1.302  14.191 -0.3247 -0.1217  0.0203
 4659SOL     OW25435   2.458   4.395   6.116  0.1276  0.6756  0.8768
 4659SOL    HW125436   2.501   4.390   6.031  1.4955  0.5438  1.5794
 4659SOL    HW225437   2.446   4.302   6.134 -0.7170  0.2726 -1.7468
 4660SOL     OW25438   0.361   1.039  13.246 -0.4858  0.1291  0.0242
 4660SOL    HW125439   0.292   0.999  13.193  0.5699  0.1747 -1.3888
 4660SOL    HW225440   0.308   1.061  13.322 -1.9843 -0.9407 -0.7314
 4661SOL     OW25441   3.799   1.815   5.546  0.2297  0.2687  0.2676
 4661SOL    HW125442   3.811   1.909   5.534 -0.6805  0.1434 -1.5282
 4661SOL    HW225443   3.781   1.809   5.640 -0.5122  1.1499  0.1869
 4662SOL     OW25444   0.516   1.923  14.362 -0.4282  0.4566 -0.1646
 4662SOL    HW125445   0.610   1.933  14.348 -0.2469 -0.1557  0.5832
 4662SOL    HW225446   0.500   1.852  14.300  0.3611  1.3817 -1.4323
 4663SOL     OW25447   3.597   4.407  11.313 -0.4336 -0.0028 -0.3231
 4663SOL    HW125448   3.661   4.460  11.362  0.4828 -0.1862 -1.3170
 4663SOL    HW225449   3.520   4.415  11.369  1.4088  0.6122  2.1305
 4664SOL     OW25450   3.999   4.124   2.861 -0.2623  0.0549  0.1581
 4664SOL    HW125451   4.008   4.125   2.956  0.1193  0.7924  0.1163
 4664SOL    HW225452   4.019   4.032   2.845  0.5087  0.5762 -1.8886
 4665SOL     OW25453   1.398   1.039   2.092  0.4540  0.4019  0.7718
 4665SOL    HW125454   1.361   0.995   2.016  0.3433  0.2695  0.9032
 4665SOL    HW225455   1.389   1.133   2.075 -0.6958  0.6960  2.9880
 4666SOL     OW25456   4.150   4.074   9.521 -0.7139 -0.8566  0.2123
 4666SOL    HW125457   4.138   4.138   9.451 -1.0636 -0.8267  0.3003
 4666SOL    HW225458   4.231   4.098   9.566  0.2723  0.6234 -2.3634
 4667SOL     OW25459   2.393   1.278   6.728 -0.4357 -0.5597 -0.7131
 4667SOL    HW125460   2.402   1.183   6.726  0.9705 -0.4417  0.3066
 4667SOL    HW225461   2.476   1.301   6.770 -0.9169  0.3136 -0.2302
 4668SOL     OW25462   2.514   3.156   5.516 -0.6528  0.7181  0.0756
 4668SOL    HW125463   2.588   3.198   5.473  0.4476 -1.8605 -0.5550
 4668SOL    HW225464   2.474   3.224   5.571  0.4422  1.0803  0.4256
 4669SOL     OW25465   1.546   3.495   2.787  0.9420 -0.3783  0.0564
 4669SOL    HW125466   1.501   3.561   2.736 -2.2077 -0.9150  2.1494
 4669SOL    HW225467   1.518   3.418   2.737 -1.4681  1.4919 -1.4690
 4670SOL     OW25468   0.523   0.886   6.462  0.1784 -0.2008  0.1360
 4670SOL    HW125469   0.445   0.900   6.515 -0.3102 -1.7057 -0.1701
 4670SOL    HW225470   0.551   0.801   6.498 -0.4982  0.2189  1.6476
 4671SOL     OW25471   0.208   4.400  16.797 -0.0989 -0.5982  0.1840
 4671SOL    HW125472   0.227   4.451  16.876 -1.0802  0.9837 -0.5782
 4671SOL    HW225473   0.220   4.307  16.814 -1.7905 -0.4373  2.2361
 4672SOL     OW25474   3.870   2.951   1.595  0.3434  0.1404  0.2300
 4672SOL    HW125475   3.890   3.025   1.653  1.3189  1.4717 -1.8017
 4672SOL    HW225476   3.818   2.892   1.649 -0.3144  0.8089  0.3352
 4673SOL     OW25477   2.972   1.263   3.176  0.2404  0.1467  0.8197
 4673SOL    HW125478   3.039   1.332   3.176  0.7878 -0.3835  0.7460
 4673SOL    HW225479   2.941   1.272   3.266  2.8774  0.9097  1.6529
 4674SOL     OW25480   1.012   4.330  15.967 -0.1684  0.0231 -0.3159
 4674SOL    HW125481   0.953   4.327  16.042 -0.7209  0.2096 -0.7485
 4674SOL    HW225482   1.070   4.405  15.986 -1.6381  0.3834  2.7446
 4675SOL     OW25483   1.333   3.504   7.397  0.3250  0.1276 -0.0419
 4675SOL    HW125484   1.305   3.587   7.436  0.4671 -1.0252  2.5053
 4675SOL    HW225485   1.309   3.512   7.305 -1.6186  1.5750  0.5833
 4676SOL     OW25486   1.213   0.342  13.789 -0.1233 -0.0515  0.1360
 4676SOL    HW125487   1.291   0.369  13.836 -2.0501  1.5782  2.3818
 4676SOL    HW225488   1.212   0.416  13.729  1.0969 -1.0246 -1.0896
 4677SOL     OW25489   2.325   0.858   5.515  0.2047  0.5121  0.3203
 4677SOL    HW125490   2.380   0.785   5.489 -0.6075 -0.4667  1.3353
 4677SOL    HW225491   2.376   0.897   5.586  0.2213  1.0711  0.0025
 4678SOL     OW25492   0.805   1.255   2.138  0.7777 -0.5629 -0.2349
 4678SOL    HW125493   0.727   1.266   2.192  2.0076 -0.8819  1.6050
 4678SOL    HW225494   0.796   1.179   2.081 -0.7769  0.7757 -1.7724
 4679SOL     OW25495   0.988   0.375   6.211 -0.3216 -0.5183 -0.0247
 4679SOL    HW125496   0.952   0.292   6.244  0.1376 -0.8335 -0.3035
 4679SOL    HW225497   1.015   0.336   6.127  2.2549 -0.2522  0.6883
 4680SOL     OW25498   2.987   3.114  10.915  0.4566  0.2604  0.1791
 4680SOL    HW125499   2.980   3.160  10.998  1.3445  0.8467 -0.0685
 4680SOL    HW225500   2.994   3.194  10.863 -0.3907  0.6568  0.6921
 4681SOL     OW25501   1.093   2.364   1.132  0.2298  0.5382  0.3665
 4681SOL    HW125502   1.092   2.434   1.067 -2.3814  1.2209  1.1316
 4681SOL    HW225503   1.142   2.295   1.088  1.9382  3.1177 -1.7753
 4682SOL     OW25504   2.665   4.511   5.877  0.0571 -0.4537 -1.1326
 4682SOL    HW125505   2.738   4.573   5.874 -1.3796  1.3238  0.9129
 4682SOL    HW225506   2.713   4.444   5.924  2.4467  0.9168 -1.6191
 4683SOL     OW25507   0.320   4.215   5.558  0.2211 -0.1782  0.4462
 4683SOL    HW125508   0.307   4.197   5.465 -3.2062  1.4219  0.6452
 4683SOL    HW225509   0.232   4.241   5.585  1.1991 -1.1205  4.6191
 4684SOL     OW25510   4.310   3.280  16.541  0.2021 -0.0697  0.2829
 4684SOL    HW125511   4.393   3.309  16.579 -1.1622  2.6608  1.2177
 4684SOL    HW225512   4.324   3.305  16.449 -1.5790  0.0635  0.0538
 4685SOL     OW25513   3.631   0.790   5.123  0.1116  0.2729  0.3238
 4685SOL    HW125514   3.610   0.866   5.069 -2.2291 -1.0085 -0.5559
 4685SOL    HW225515   3.608   0.713   5.071  1.2874  0.6084 -0.6791
 4686SOL     OW25516   3.653   3.272  13.229 -0.0722  0.4150  0.2222
 4686SOL    HW125517   3.607   3.222  13.296  0.4405 -0.9892 -0.4769
 4686SOL    HW225518   3.584   3.330  13.195 -1.1806  0.5719  2.7187
 4687SOL     OW25519   0.571   1.763   7.458  0.4478  0.2445  0.8233
 4687SOL    HW125520   0.595   1.813   7.380 -1.3240 -0.4032 -0.1261
 4687SOL    HW225521   0.626   1.806   7.525  2.0037  0.0446 -0.3312
 4688SOL     OW25522   1.511   1.301   7.586 -0.2047  0.2948  0.2356
 4688SOL    HW125523   1.484   1.359   7.658  1.3635  1.4403 -0.1019
 4688SOL    HW225524   1.421   1.295   7.554  0.7198  0.3428 -2.3522
 4689SOL     OW25525   4.100   0.210  10.243  0.2541 -0.4179  0.1274
 4689SOL    HW125526   4.181   0.177  10.281  1.0479  1.4768  0.0998
 4689SOL    HW225527   4.112   0.304  10.256 -1.2031 -0.2856  0.5359
 4690SOL     OW25528   0.616   0.776   8.937  0.5005 -0.3364  0.0148
 4690SOL    HW125529   0.576   0.802   9.020  0.5410  0.5140 -0.2395
 4690SOL    HW225530   0.696   0.735   8.970 -0.6043 -1.9285  0.7301
 4691SOL     OW25531   1.278   3.140   5.373 -0.3271 -0.1727  0.0284
 4691SOL    HW125532   1.369   3.144   5.341 -1.0622  0.6497 -1.9853
 4691SOL    HW225533   1.294   3.075   5.440 -1.8448 -3.0588 -2.4379
 4692SOL     OW25534   3.904   4.668   5.885  0.4309 -0.0175 -0.3323
 4692SOL    HW125535   3.824   4.649   5.837 -0.5522  0.8322  0.9501
 4692SOL    HW225536   3.915   4.594   5.945 -2.3010 -1.4682 -1.6180
 4693SOL     OW25537   2.292   4.285  13.393 -0.2044  0.4580 -0.5927
 4693SOL    HW125538   2.260   4.235  13.468  0.5069 -0.3136 -0.7906
 4693SOL    HW225539   2.249   4.369  13.404  1.2259  1.1604 -0.4076
 4694SOL     OW25540   4.697   2.345   3.508  0.5041  0.3826 -0.2999
 4694SOL    HW125541   0.042   2.367   3.566  0.3976  1.6984 -0.6612
 4694SOL    HW225542   0.016   2.274   3.464  1.6805  1.3603 -0.6381
 4695SOL     OW25543   3.739   3.112   3.512 -0.6412 -0.1863 -1.1045
 4695SOL    HW125544   3.732   3.119   3.417 -1.4779  0.1257 -1.0231
 4695SOL    HW225545   3.672   3.050   3.543 -1.0406  0.3205 -0.9489
 4696SOL     OW25546   2.349   2.850   3.625  0.1750  0.3720 -0.2603
 4696SOL    HW125547   2.310   2.936   3.642  1.4444  0.7193  0.9190
 4696SOL    HW225548   2.305   2.827   3.543 -0.7269  0.2035  0.2620
 4697SOL     OW25549   0.443   3.452   4.670 -0.0316 -0.4650 -0.0913
 4697SOL    HW125550   0.390   3.407   4.604  1.1859 -2.3399  0.2062
 4697SOL    HW225551   0.387   3.479   4.742 -0.3569 -2.5483  0.4353
 4698SOL     OW25552   1.002   3.511  15.451 -0.8816 -0.0670  0.3200
 4698SOL    HW125553   0.982   3.532  15.542 -0.4165 -2.0885  0.9019
 4698SOL    HW225554   1.001   3.415  15.451  3.1457 -0.0930 -1.1280
 4699SOL     OW25555   2.319   0.967   4.763 -0.2899  0.2208 -0.4488
 4699SOL    HW125556   2.315   0.918   4.846  0.8577  0.8160 -0.0440
 4699SOL    HW225557   2.412   0.960   4.745 -0.3737  1.7064 -1.4113
 4700SOL     OW25558   2.909   1.805   2.788  0.2712  0.6977 -0.3843
 4700SOL    HW125559   2.839   1.741   2.805 -0.5500  2.4909  2.8906
 4700SOL    HW225560   2.872   1.873   2.732 -2.2376  0.3049  0.8136
 4701SOL     OW25561   1.578   1.630   8.107  0.0843 -0.3700  0.1633
 4701SOL    HW125562   1.534   1.642   8.191 -0.2175 -0.9448  0.0904
 4701SOL    HW225563   1.560   1.713   8.064  3.0371 -0.5963 -1.4958
 4702SOL     OW25564   3.574   0.188   3.344 -0.3797  0.3570 -0.2953
 4702SOL    HW125565   3.498   0.185   3.287  0.4209  1.8145 -1.4373
 4702SOL    HW225566   3.636   0.221   3.278  1.8311  0.8430  1.9962
 4703SOL     OW25567   1.795   2.800   3.388  0.6246 -0.2077 -0.7282
 4703SOL    HW125568   1.760   2.884   3.359  0.4606  0.2674  0.8624
 4703SOL    HW225569   1.829   2.764   3.306  1.3543 -0.3382 -0.3628
 4704SOL     OW25570   2.328   1.053   5.966 -0.2482 -0.7508 -0.0143
 4704SOL    HW125571   2.399   1.107   6.000 -0.0288 -2.2297  1.8705
 4704SOL    HW225572   2.303   1.102   5.888 -1.8833 -2.1409 -0.3786
 4705SOL     OW25573   1.882   2.716   3.146 -0.3017 -0.0027 -0.1109
 4705SOL    HW125574   1.968   2.684   3.175 -1.2118 -3.0896 -0.8304
 4705SOL    HW225575   1.905   2.726   3.054  2.6470 -2.4767  0.3498
 4706SOL     OW25576   1.736   3.816   4.850 -0.7405 -0.3472 -0.0341
 4706SOL    HW125577   1.676   3.765   4.795 -2.0915 -0.0970  1.2006
 4706SOL    HW225578   1.690   3.833   4.933 -1.4529 -2.0003 -0.0836
 4707SOL     OW25579   2.513   4.606  16.447  0.2437  0.4307 -0.0677
 4707SOL    HW125580   2.460   4.649  16.514 -1.3767 -1.2380 -0.2719
 4707SOL    HW225581   2.464   4.527  16.423 -1.1900  0.6322  2.2568
 4708SOL     OW25582   0.658   3.485   4.325 -0.6320  0.5198  0.0360
 4708SOL    HW125583   0.627   3.527   4.244  0.1325 -1.2242 -1.1742
 4708SOL    HW225584   0.674   3.555   4.388 -0.1642  0.2029  0.2697
 4709SOL     OW25585   3.044   1.952   7.025 -0.5150  0.3979  0.0357
 4709SOL    HW125586   3.107   1.882   7.041  0.6184  1.3058 -0.4157
 4709SOL    HW225587   3.006   1.953   7.113  1.6078 -3.0450  0.9642
 4710SOL     OW25588   3.178   1.227   7.940 -0.2365  0.2173 -0.0683
 4710SOL    HW125589   3.174   1.154   7.878  0.4906 -0.9210  1.2323
 4710SOL    HW225590   3.095   1.242   7.984 -0.8687  1.9162 -1.8072
 4711SOL     OW25591   2.676   2.321   1.746 -0.0625 -0.4204  0.8508
 4711SOL    HW125592   2.649   2.413   1.755 -1.3020 -0.7922  0.9528
 4711SOL    HW225593   2.741   2.317   1.816  0.4868 -0.0932  0.3621
 4712SOL     OW25594   2.649   2.364   4.140 -0.2043 -0.2749 -0.5549
 4712SOL    HW125595   2.722   2.307   4.163 -0.4691 -0.3587  0.0843
 4712SOL    HW225596   2.703   2.428   4.093 -0.1612 -1.5655 -2.2544
 4713SOL     OW25597   0.807   0.786   6.085  0.8855  0.0157 -0.0920
 4713SOL    HW125598   0.825   0.865   6.034  0.0163 -0.1744 -0.7032
 4713SOL    HW225599   0.894   0.747   6.082  0.2022 -1.5052 -0.0112
 4714SOL     OW25600   3.770   3.338  11.369  0.4283 -0.5738 -0.0285
 4714SOL    HW125601   3.744   3.247  11.355 -0.3801 -0.1796 -1.0789
 4714SOL    HW225602   3.850   3.354  11.319 -1.1349 -1.0456 -2.6778
 4715SOL     OW25603   0.320   2.698   6.495  0.7476 -0.1971  0.7823
 4715SOL    HW125604   0.376   2.772   6.518 -1.5684  0.9156  2.8615
 4715SOL    HW225605   0.386   2.645   6.450  0.2662 -1.2607  1.3531
 4716SOL     OW25606   3.458   0.039   4.629  0.4002 -0.2685 -0.4780
 4716SOL    HW125607   3.399   4.706   4.674  2.2111  0.2500  2.6383
 4716SOL    HW225608   3.532   4.708   4.617 -0.6411 -1.7024  0.1258
 4717SOL     OW25609   1.715   0.036   3.765 -0.4712  0.6916 -0.0313
 4717SOL    HW125610   1.654   0.109   3.765  1.2919  2.1526  0.8678
 4717SOL    HW225611   1.721   0.023   3.670  0.0550 -1.1334  0.2594
 4718SOL     OW25612   2.941   3.012   3.921  0.6802  0.1316  0.0326
 4718SOL    HW125613   2.865   3.059   3.956  0.1019 -1.1361  0.4934
 4718SOL    HW225614   2.935   3.024   3.826 -2.0922  2.7719  0.5609
 4719SOL     OW25615   3.226   4.036  10.442 -0.3970 -1.0905  0.5611
 4719SOL    HW125616   3.147   3.992  10.473  0.2479 -2.8348 -0.2229
 4719SOL    HW225617   3.273   4.040  10.525  1.4713 -0.8497 -0.5040
 4720SOL     OW25618   1.687   0.012   5.988  0.4082  0.0458  0.4075
 4720SOL    HW125619   1.658   4.649   5.990 -0.9715  0.4549 -1.0840
 4720SOL    HW225620   1.618   0.046   6.045 -0.5463  1.4911 -1.6282
 4721SOL     OW25621   2.180   1.050  13.986  0.4691 -0.3049 -0.3188
 4721SOL    HW125622   2.233   0.987  14.036 -0.4697 -0.3507  0.6151
 4721SOL    HW225623   2.101   1.027  14.034  1.7292 -1.7289  1.0935
 4722SOL     OW25624   2.638   0.833   4.530 -0.0976  0.3842  0.0998
 4722SOL    HW125625   2.617   0.922   4.500  0.2439  0.7935  1.0830
 4722SOL    HW225626   2.732   0.832   4.549  0.2315 -0.2006 -1.5180
 4723SOL     OW25627   0.454   0.533   1.571  0.1742 -0.0259  0.1098
 4723SOL    HW125628   0.406   0.578   1.640 -0.5449  0.3731 -0.6483
 4723SOL    HW225629   0.383   0.475   1.543 -1.8433  0.6408  3.7534
 4724SOL     OW25630   2.331   4.366   5.234 -0.2773  0.3901  0.4001
 4724SOL    HW125631   2.272   4.401   5.168 -1.3349  0.7137  1.5091
 4724SOL    HW225632   2.288   4.393   5.315  0.2735 -0.1235  0.8643
 4725SOL     OW25633   2.702   0.681   4.935 -0.1405  0.0661 -0.1046
 4725SOL    HW125634   2.711   0.585   4.931 -2.3884 -0.1215 -1.1728
 4725SOL    HW225635   2.795   0.701   4.931 -0.4251  1.4758  0.5255
 4726SOL     OW25636   3.339   1.779  15.367 -0.0706 -0.4670 -0.2880
 4726SOL    HW125637   3.264   1.838  15.370  1.0489  1.0185 -1.1635
 4726SOL    HW225638   3.294   1.706  15.325 -0.0688 -0.0687 -0.9806
 4727SOL     OW25639   3.528   2.289   6.786 -0.4282  0.8652  0.1034
 4727SOL    HW125640   3.609   2.275   6.834 -1.4867 -2.1886  1.0265
 4727SOL    HW225641   3.475   2.224   6.833 -0.9126  2.2636  1.4827
 4728SOL     OW25642   4.307   3.882   8.040  0.4961 -0.5274 -0.0189
 4728SOL    HW125643   4.311   3.936   8.119  0.3398 -1.6073  0.7165
 4728SOL    HW225644   4.293   3.952   7.975 -1.1994 -1.1036 -0.2840
 4729SOL     OW25645   1.444   0.019   2.218  0.2654  0.1145 -0.5423
 4729SOL    HW125646   1.392   0.090   2.255  0.4016 -1.2864  2.3646
 4729SOL    HW225647   1.441   4.679   2.285  1.8046  0.3997 -0.1975
 4730SOL     OW25648   0.198   2.445  16.974  0.1376  0.3952  0.5826
 4730SOL    HW125649   0.171   2.372  17.031  2.7832 -0.1701  1.1072
 4730SOL    HW225650   0.110   2.478  16.955 -0.1691 -0.7081  0.0827
 4731SOL     OW25651   2.454   2.986  16.186 -0.3953  0.1625  0.5233
 4731SOL    HW125652   2.374   3.039  16.194  0.9274  2.0358  1.6160
 4731SOL    HW225653   2.511   3.036  16.245 -0.7175  0.4373  0.6034
 4732SOL     OW25654   4.386   4.516  16.441 -0.2059  0.2471 -0.0802
 4732SOL    HW125655   4.316   4.566  16.483 -2.2430 -1.3670 -1.5691
 4732SOL    HW225656   4.462   4.563  16.478 -0.2069  0.0181  0.2081
 4733SOL     OW25657   4.682   2.052   9.969 -0.4532 -0.0944 -0.3942
 4733SOL    HW125658   4.621   2.044   9.896 -1.0717  1.1456 -0.0247
 4733SOL    HW225659   4.668   2.143   9.996 -1.4379 -0.5589  0.7067
 4734SOL     OW25660   2.580   4.060   6.791  0.0752 -0.2251 -0.1557
 4734SOL    HW125661   2.493   4.094   6.771  0.7012  0.9506 -0.8584
 4734SOL    HW225662   2.611   4.054   6.701 -0.6262  0.9246 -0.4758
 4735SOL     OW25663   0.171   0.866  13.149 -0.6167 -0.3695 -0.6531
 4735SOL    HW125664   0.186   0.772  13.159 -1.7580 -0.1241  3.2452
 4735SOL    HW225665   0.079   0.889  13.137 -0.1407  0.8723 -1.9809
 4736SOL     OW25666   3.006   3.822   4.153 -0.0698 -0.1388  0.2794
 4736SOL    HW125667   3.096   3.830   4.184 -0.1892 -1.1478  0.8741
 4736SOL    HW225668   2.981   3.738   4.192  1.0062 -1.2709 -1.4697
 4737SOL     OW25669   4.068   1.644   6.795  0.1511 -0.1538  0.2968
 4737SOL    HW125670   4.133   1.684   6.737  0.5957  1.9406  2.2856
 4737SOL    HW225671   4.045   1.560   6.755 -0.3055  0.2225 -0.2516
 4738SOL     OW25672   0.520   4.290   6.520 -0.0911 -0.0443 -0.3627
 4738SOL    HW125673   0.449   4.355   6.516  0.7144  0.9233  1.1251
 4738SOL    HW225674   0.575   4.323   6.449 -2.0127 -0.6791 -2.1512
 4739SOL     OW25675   4.126   0.527   3.629 -0.0091  0.4442 -0.6756
 4739SOL    HW125676   4.101   0.435   3.619  1.2025  0.1726 -1.1991
 4739SOL    HW225677   4.137   0.549   3.536 -0.1028 -2.0273 -1.2668
 4740SOL     OW25678   2.969   1.936   7.497 -0.0760 -0.2036 -0.1009
 4740SOL    HW125679   2.962   2.010   7.558  0.7847  0.1594 -0.4324
 4740SOL    HW225680   3.065   1.930   7.496 -0.1199 -0.8311 -0.3253
 4741SOL     OW25681   2.318   1.499  13.528 -0.4732 -0.3010 -0.2723
 4741SOL    HW125682   2.374   1.575  13.511 -0.0326 -1.0628 -2.2771
 4741SOL    HW225683   2.388   1.434  13.532 -0.4438 -0.2891 -0.5445
 4742SOL     OW25684   3.609   2.263   1.479  0.6431 -0.5266 -0.1332
 4742SOL    HW125685   3.626   2.237   1.569  0.1031 -0.0817  0.0955
 4742SOL    HW225686   3.558   2.343   1.493 -0.2699 -1.1478  0.0399
 4743SOL     OW25687   0.469   1.980   0.309 -0.0491 -0.0830  0.3717
 4743SOL    HW125688   0.552   1.972   0.357 -1.1501  0.4288  2.3364
 4743SOL    HW225689   0.441   2.068   0.332  0.7275  0.1976  0.2484
 4744SOL     OW25690   3.268   2.657   6.905 -0.5818  0.7136  0.0269
 4744SOL    HW125691   3.277   2.598   6.980  1.4653 -1.6812 -2.0804
 4744SOL    HW225692   3.186   2.694   6.935  0.2948  2.1417  0.6524
 4745SOL     OW25693   2.533   2.551  12.552 -0.6282  0.7275 -0.2312
 4745SOL    HW125694   2.468   2.491  12.515  1.4553 -1.3522 -0.4891
 4745SOL    HW225695   2.523   2.547  12.647  0.6825 -1.0128 -0.1534
 4746SOL     OW25696   2.285   2.452   1.725  0.1620  0.3006 -0.3633
 4746SOL    HW125697   2.206   2.505   1.739 -0.5476 -0.8996  0.1074
 4746SOL    HW225698   2.284   2.431   1.632 -0.8558  0.1992 -0.3296
 4747SOL     OW25699   2.433   0.922   6.195 -0.6439  0.2783  0.6530
 4747SOL    HW125700   2.368   0.928   6.125  0.6671  2.0566 -0.3978
 4747SOL    HW225701   2.368   0.890   6.258  2.1496 -1.5710  2.6216
 4748SOL     OW25702   4.535   3.879   0.619 -0.5226 -0.2729 -0.3048
 4748SOL    HW125703   4.523   3.967   0.582  0.1349 -0.5927 -1.2551
 4748SOL    HW225704   4.516   3.889   0.713  1.6301 -0.4477  0.1432
 4749SOL     OW25705   4.469   3.078  11.658  0.0331 -0.1752 -0.2737
 4749SOL    HW125706   4.395   3.054  11.602 -1.1943 -1.8344  2.0959
 4749SOL    HW225707   4.444   3.168  11.678 -1.9083 -0.8887  0.4662
 4750SOL     OW25708   1.905   2.154   0.941  0.1184  0.2942 -1.0671
 4750SOL    HW125709   1.912   2.230   0.997 -0.2647  0.3814 -1.1329
 4750SOL    HW225710   1.946   2.091   1.001 -2.6457  0.8318  1.3776
 4751SOL     OW25711   0.860   2.563   1.911 -0.3316  0.0384  0.0923
 4751SOL    HW125712   0.886   2.498   1.976  0.0494  0.0004 -0.0967
 4751SOL    HW225713   0.944   2.607   1.898  1.4229 -2.8636  1.6562
 4752SOL     OW25714   3.233   2.126   5.627  0.3528 -0.6051  0.5066
 4752SOL    HW125715   3.239   2.106   5.533  2.3081 -1.3076  0.7855
 4752SOL    HW225716   3.185   2.048   5.656 -1.0173 -0.0806 -0.3503
 4753SOL     OW25717   1.618   0.860  14.572  0.3158 -0.0202  0.3143
 4753SOL    HW125718   1.610   0.909  14.491  1.9976  1.0489  0.7895
 4753SOL    HW225719   1.614   0.927  14.640  1.2019  0.9552 -0.6001
 4754SOL     OW25720   3.593   4.538   8.215 -0.2329  0.4341  0.2824
 4754SOL    HW125721   3.674   4.580   8.243  0.5861  0.1613 -1.7249
 4754SOL    HW225722   3.597   4.460   8.270 -4.1228  0.0590  0.0567
 4755SOL     OW25723   0.699   3.304   6.519  0.4978 -0.2170  0.1349
 4755SOL    HW125724   0.769   3.359   6.483 -0.1835 -0.5345 -1.6729
 4755SOL    HW225725   0.746   3.251   6.584 -0.6927  0.2355  1.3851
 4756SOL     OW25726   2.191   0.914  12.562 -0.8055  0.3906  0.1053
 4756SOL    HW125727   2.107   0.926  12.606  0.0806 -0.3873  1.9953
 4756SOL    HW225728   2.190   0.989  12.503 -1.1123 -0.2261 -0.6868
 4757SOL     OW25729   1.087   2.867  10.859  0.1863  0.2041 -0.2922
 4757SOL    HW125730   1.022   2.819  10.808 -0.0994 -0.3066  0.5435
 4757SOL    HW225731   1.096   2.815  10.939 -1.0620  0.2591 -0.1274
 4758SOL     OW25732   2.391   0.431  15.378  0.7506 -0.1221 -0.4574
 4758SOL    HW125733   2.396   0.422  15.283  0.7554  2.6918 -0.7208
 4758SOL    HW225734   2.424   0.521  15.383 -1.6804  0.7979 -0.7684
 4759SOL     OW25735   0.602   0.992   1.604  1.1066  0.1648  0.6846
 4759SOL    HW125736   0.538   1.062   1.595  0.4445 -0.6189 -0.7056
 4759SOL    HW225737   0.677   1.038   1.569 -0.4477  0.6319 -2.0111
 4760SOL     OW25738   4.076   1.158  15.883  0.3907  0.1849 -0.5983
 4760SOL    HW125739   4.075   1.186  15.974 -2.1097  2.4140 -1.3206
 4760SOL    HW225740   4.092   1.064  15.894  2.0534  0.5079 -0.2695
 4761SOL     OW25741   2.223   3.740  12.474  0.6692  0.1252  0.3579
 4761SOL    HW125742   2.286   3.735  12.546  2.1867 -0.9570 -1.0650
 4761SOL    HW225743   2.180   3.826  12.480 -0.0094 -0.2728  1.2746
 4762SOL     OW25744   2.304   1.415  15.755  0.1750  0.1317  0.5401
 4762SOL    HW125745   2.318   1.475  15.682 -1.4340 -0.5126 -0.2960
 4762SOL    HW225746   2.211   1.392  15.755 -0.1035  1.2748  0.3366
 4763SOL     OW25747   0.447   2.480   8.118  0.3015  0.2856 -0.7006
 4763SOL    HW125748   0.403   2.561   8.145  0.1235  0.2360 -0.8469
 4763SOL    HW225749   0.376   2.437   8.070  0.0716 -0.0733 -0.0358
 4764SOL     OW25750   4.372   3.592  10.055  0.0580 -0.5405 -0.4038
 4764SOL    HW125751   4.382   3.634   9.970  2.4014  2.2475  1.2078
 4764SOL    HW225752   4.375   3.498  10.041  0.4833 -0.4821 -0.7024
 4765SOL     OW25753   4.451   0.979   8.540 -0.4996 -0.0158 -0.3551
 4765SOL    HW125754   4.542   1.002   8.558 -0.0887 -0.5699 -1.7628
 4765SOL    HW225755   4.426   1.040   8.471 -0.0231  0.8181  0.2028
 4766SOL     OW25756   2.926   4.486   1.938  0.2529 -0.3906  0.1526
 4766SOL    HW125757   2.836   4.457   1.950 -0.0313  0.6132  0.4572
 4766SOL    HW225758   2.974   4.408   1.909 -2.7518 -2.0345 -0.4525
 4767SOL     OW25759   1.946   4.143  17.605 -1.0955  0.5188 -0.1260
 4767SOL    HW125760   1.932   4.172  17.695  2.2665  0.3078  0.4508
 4767SOL    HW225761   1.952   4.048  17.620  2.2975  0.6856 -0.4472
 4768SOL     OW25762   3.063   4.264   1.876 -0.3354 -0.0678 -0.4816
 4768SOL    HW125763   3.127   4.206   1.833 -3.6360 -2.6070 -1.9559
 4768SOL    HW225764   3.012   4.193   1.915 -1.5483  0.6452 -0.7665
 4769SOL     OW25765   3.298   0.361   2.908  0.5966 -0.8777  0.4347
 4769SOL    HW125766   3.246   0.294   2.863  0.3242  1.4181 -2.6787
 4769SOL    HW225767   3.366   0.370   2.841  0.5536 -1.7571  0.2712
 4770SOL     OW25768   2.034   2.608   1.756 -0.1159 -0.4733  0.2651
 4770SOL    HW125769   2.004   2.592   1.666 -1.2915  2.4819  0.1017
 4770SOL    HW225770   1.947   2.619   1.795 -1.1379 -0.9704 -1.8951
 4771SOL     OW25771   2.477   2.779   1.445 -0.5138  0.3271 -0.4734
 4771SOL    HW125772   2.387   2.755   1.466  0.5770 -0.0746  3.7184
 4771SOL    HW225773   2.520   2.694   1.450 -1.0926  0.0473 -0.3128
 4772SOL     OW25774   1.566   3.440   5.277 -0.2027 -0.1307  0.0945
 4772SOL    HW125775   1.648   3.392   5.288  1.0615  1.6591 -1.4166
 4772SOL    HW225776   1.547   3.410   5.188 -0.7755 -1.4454  0.6584
 4773SOL     OW25777   0.475   2.544  13.744  0.0816  0.0802  0.2031
 4773SOL    HW125778   0.411   2.518  13.810 -0.5593  0.2386 -0.3599
 4773SOL    HW225779   0.552   2.541  13.800  1.1487 -2.9118 -1.4269
 4774SOL     OW25780   0.605   0.401   6.879 -0.8103 -0.0070 -0.1122
 4774SOL    HW125781   0.596   0.430   6.788  2.8277  0.2713 -0.3835
 4774SOL    HW225782   0.694   0.435   6.889 -0.4966 -1.2841  1.4660
 4775SOL     OW25783   0.307   1.798   1.953  0.8257 -0.0273  0.0622
 4775SOL    HW125784   0.296   1.886   1.918  2.3274  1.0712  2.2812
 4775SOL    HW225785   0.394   1.817   1.988  0.8597  0.3337 -0.2211
 4776SOL     OW25786   0.227   1.530   1.849 -0.4767 -0.1417  0.2073
 4776SOL    HW125787   0.145   1.532   1.898  0.7831  0.5052  2.3129
 4776SOL    HW225788   0.286   1.591   1.895  1.3232 -2.8800  1.5328
 4777SOL     OW25789   4.416   2.417  17.010 -0.5203 -0.1633  0.0839
 4777SOL    HW125790   4.369   2.437  16.929 -1.3264  2.4558  1.2075
 4777SOL    HW225791   4.377   2.331  17.029  0.1324 -0.5951 -0.5117
 4778SOL     OW25792   2.792   3.421  13.370 -0.0441 -0.2766 -0.0537
 4778SOL    HW125793   2.769   3.405  13.461 -0.7607  1.6133  0.1174
 4778SOL    HW225794   2.859   3.357  13.347 -0.0343  0.3431 -1.7712
 4779SOL     OW25795   4.574   4.374   4.189  0.4206  0.3023  0.6027
 4779SOL    HW125796   4.602   4.282   4.195 -0.0349  0.0741 -0.9384
 4779SOL    HW225797   4.479   4.370   4.199  0.3463  2.6696  0.8975
 4780SOL     OW25798   2.980   2.098   5.374 -0.1272 -0.1224 -0.5867
 4780SOL    HW125799   3.070   2.129   5.362  0.3206 -1.2020  0.0190
 4780SOL    HW225800   2.974   2.016   5.326 -0.8234  0.7226 -1.9439
 4781SOL     OW25801   4.433   3.419   6.438  0.7802  0.5514 -0.3906
 4781SOL    HW125802   4.400   3.399   6.351 -0.5647 -1.6662  0.6309
 4781SOL    HW225803   4.522   3.384   6.426  0.3448 -0.1680 -1.5859
 4782SOL     OW25804   0.542   3.255  16.353  0.3405 -0.0292  0.2726
 4782SOL    HW125805   0.636   3.264  16.367  0.4350 -0.9372  0.1992
 4782SOL    HW225806   0.530   3.173  16.401 -1.1011  0.8101  1.3709
 4783SOL     OW25807   0.910   1.011   8.942 -0.1754  0.3604  0.0802
 4783SOL    HW125808   0.859   1.062   9.005  2.5451  1.3280  1.5397
 4783SOL    HW225809   0.956   1.081   8.896  1.6153 -1.5431 -1.0201
 4784SOL     OW25810   2.445   1.010   6.767  0.6162  0.0220  0.3357
 4784SOL    HW125811   2.483   0.959   6.695  1.7049  0.0239  0.9140
 4784SOL    HW225812   2.401   0.939   6.814  1.3849 -0.0003  1.0215
 4785SOL     OW25813   4.292   2.721  16.554  0.4539 -0.4223 -0.3529
 4785SOL    HW125814   4.224   2.787  16.540  1.6233  0.3148 -2.5214
 4785SOL    HW225815   4.246   2.646  16.517  0.0804 -0.0161 -0.7153
 4786SOL     OW25816   4.112   1.418   7.819 -0.4724  0.2888  0.3471
 4786SOL    HW125817   4.144   1.341   7.771 -1.9262 -1.5248  2.2746
 4786SOL    HW225818   4.099   1.484   7.751 -2.9269 -0.2519  0.2797
 4787SOL     OW25819   3.950   4.016  10.512  0.0679 -0.3859 -0.2348
 4787SOL    HW125820   3.976   4.068  10.589  2.2956 -2.1422  0.1779
 4787SOL    HW225821   3.855   4.004  10.513  0.0706 -0.3950 -0.1249
 4788SOL     OW25822   2.879   1.804   6.015 -0.3760  0.1539  0.5118
 4788SOL    HW125823   2.789   1.828   6.035 -0.5958  1.2242 -1.7607
 4788SOL    HW225824   2.909   1.895   6.014 -1.1483  0.3752 -2.1314
 4789SOL     OW25825   4.231   2.635  11.746 -0.1906 -0.2993  0.0346
 4789SOL    HW125826   4.256   2.726  11.763 -1.1961 -0.0661  0.2502
 4789SOL    HW225827   4.135   2.638  11.748 -0.0398  2.3395  3.0419
 4790SOL     OW25828   1.409   0.379  13.528 -0.2741 -0.0349  0.0772
 4790SOL    HW125829   1.503   0.371  13.541 -0.4826  0.0235  1.6205
 4790SOL    HW225830   1.376   0.293  13.555 -1.0533  0.6271  1.2967
 4791SOL     OW25831   3.115   0.416   6.020 -0.1164  0.0921 -0.5553
 4791SOL    HW125832   3.152   0.466   5.947 -2.6400  4.6992  1.3286
 4791SOL    HW225833   3.075   0.349   5.965 -2.6632  0.9668  0.2323
 4792SOL     OW25834   1.721   2.767   1.123 -0.2106  0.5905 -0.3493
 4792SOL    HW125835   1.778   2.787   1.048 -0.9282  0.5964 -0.8934
 4792SOL    HW225836   1.776   2.799   1.194 -0.8076 -0.6992  0.6888
 4793SOL     OW25837   2.197   3.909   3.049 -0.3875 -0.1908  0.2722
 4793SOL    HW125838   2.127   3.891   2.987  2.1414 -1.9294 -2.0776
 4793SOL    HW225839   2.195   3.833   3.107 -3.0174 -0.0693  0.3587
 4794SOL     OW25840   0.508   4.633   9.585  0.0369  0.5342 -0.2588
 4794SOL    HW125841   0.479   4.724   9.575  2.3610  1.2358 -0.4411
 4794SOL    HW225842   0.581   4.642   9.645  0.8648  0.2580 -1.2301
 4795SOL     OW25843   1.613   1.604   3.469 -0.9097  0.0455 -0.4370
 4795SOL    HW125844   1.612   1.699   3.480  2.0027 -0.1063  1.2107
 4795SOL    HW225845   1.700   1.584   3.435 -1.1591 -1.1517 -0.3672
 4796SOL     OW25846   0.918   2.109  14.600 -0.4370  0.5097  0.0270
 4796SOL    HW125847   0.865   2.174  14.644 -1.0489 -2.1305  3.1589
 4796SOL    HW225848   0.969   2.170  14.547  2.1322 -0.2753  1.5608
 4797SOL     OW25849   1.536   1.035   7.888  0.4818  0.6638  0.3643
 4797SOL    HW125850   1.591   1.114   7.889  1.8061 -0.2404 -0.4824
 4797SOL    HW225851   1.458   1.058   7.837  0.0714  0.0120  0.7071
 4798SOL     OW25852   1.887   0.396   3.987 -0.4911  0.1515  0.3761
 4798SOL    HW125853   1.961   0.414   3.929  0.1299  1.5508  1.6135
 4798SOL    HW225854   1.816   0.409   3.924  0.5008  2.3092 -0.3305
 4799SOL     OW25855   3.348   0.356   6.436 -0.5837  0.4972  0.4525
 4799SOL    HW125856   3.355   0.381   6.343  1.0380  0.8431  0.6665
 4799SOL    HW225857   3.405   0.420   6.478  1.6778 -1.2463  0.0884
 4800SOL     OW25858   4.252   1.046   5.574 -0.1223 -0.0643  0.9524
 4800SOL    HW125859   4.172   1.069   5.526  0.1136 -1.4166 -0.1050
 4800SOL    HW225860   4.277   0.977   5.512 -2.4667 -0.3871  0.3554
 4801SOL     OW25861   0.117   2.276  12.033 -0.2543  0.1518 -0.0314
 4801SOL    HW125862   0.194   2.332  12.035 -1.5600  1.9286  0.1026
 4801SOL    HW225863   0.124   2.231  12.117  0.4838  0.0961 -0.1294
 4802SOL     OW25864   2.815   3.458  14.235  0.0629 -0.1506 -0.1405
 4802SOL    HW125865   2.821   3.424  14.325 -1.0624  0.8035  0.3059
 4802SOL    HW225866   2.906   3.455  14.207  0.1462 -2.0397  0.3303
 4803SOL     OW25867   2.773   0.557   8.613  0.3149  0.2317  0.4756
 4803SOL    HW125868   2.802   0.491   8.676 -0.5101 -1.6122 -1.0872
 4803SOL    HW225869   2.845   0.620   8.616 -0.2394  0.9667 -1.6180
 4804SOL     OW25870   0.229   4.157  15.179  0.5331  0.3971 -0.5886
 4804SOL    HW125871   0.145   4.111  15.181 -0.6118  2.4145 -0.9195
 4804SOL    HW225872   0.213   4.201  15.095 -0.8889  0.5723 -0.2365
 4805SOL     OW25873   2.855   4.656   3.435  0.5482 -0.3007  0.8778
 4805SOL    HW125874   2.922   4.716   3.402  0.3339 -0.2281  0.5761
 4805SOL    HW225875   2.776   4.709   3.423  0.6345 -0.2070  0.7195
 4806SOL     OW25876   1.694   0.315   0.708 -0.0107 -0.2824  0.4092
 4806SOL    HW125877   1.769   0.326   0.650 -0.2380 -1.6449 -0.1384
 4806SOL    HW225878   1.653   0.241   0.663  1.0899 -0.9180  0.4774
 4807SOL     OW25879   1.836   3.649   0.048 -0.6813 -0.3951 -0.5789
 4807SOL    HW125880   1.811   3.602   0.128  2.1726 -0.7292  0.1382
 4807SOL    HW225881   1.900   3.584   0.017 -0.8893 -0.3751 -1.0558
 4808SOL     OW25882   2.043   4.154   7.999  0.2748 -0.0368 -0.3257
 4808SOL    HW125883   2.035   4.223   7.932 -0.2862  1.7749  1.5918
 4808SOL    HW225884   2.132   4.127   7.980  0.8288  0.5491  1.4966
 4809SOL     OW25885   2.460   1.040  15.400  0.5594  0.2965  0.3735
 4809SOL    HW125886   2.529   1.094  15.362  0.3322  0.0882 -0.3237
 4809SOL    HW225887   2.373   1.076  15.380 -0.0097 -1.2603  0.0676
 4810SOL     OW25888   1.300   0.970   5.889 -0.2419  0.4043 -0.2156
 4810SOL    HW125889   1.210   0.957   5.860 -0.5742 -0.9544  1.3647
 4810SOL    HW225890   1.338   0.882   5.878 -0.8025 -0.0275  1.2932
 4811SOL     OW25891   2.222   1.561   7.604  0.0731  0.2436  0.1827
 4811SOL    HW125892   2.225   1.556   7.700  0.4790  1.3214  0.2225
 4811SOL    HW225893   2.293   1.622   7.585  1.6038 -2.0914 -1.5039
 4812SOL     OW25894   2.238   1.969   4.839 -0.1460 -0.3101 -0.7184
 4812SOL    HW125895   2.154   1.925   4.852 -0.1983  0.0059  0.0027
 4812SOL    HW225896   2.228   2.048   4.893 -3.1573  0.3225 -2.1638
 4813SOL     OW25897   1.365   4.516  17.504  0.3654 -0.2310 -0.0880
 4813SOL    HW125898   1.330   4.586  17.449  0.8283 -0.5680 -0.7975
 4813SOL    HW225899   1.444   4.490  17.457 -0.0197  0.6932 -1.2235
 4814SOL     OW25900   1.307   1.206   1.083  0.1499  0.0761  0.7465
 4814SOL    HW125901   1.398   1.176   1.078 -0.1098 -0.5480 -0.2490
 4814SOL    HW225902   1.323   1.300   1.086 -1.4562  0.3750  0.2567
 4815SOL     OW25903   0.730   0.394   5.377 -0.0755  0.3575 -0.3382
 4815SOL    HW125904   0.784   0.326   5.337  0.1038  0.9137 -1.0346
 4815SOL    HW225905   0.782   0.423   5.452  2.0231 -2.2180 -0.8181
 4816SOL     OW25906   3.149   2.172   2.903 -0.5410 -0.4025 -0.0912
 4816SOL    HW125907   3.166   2.203   2.814 -0.3856 -0.2303 -0.0022
 4816SOL    HW225908   3.157   2.077   2.899  1.1654 -0.2960  0.5527
 4817SOL     OW25909   3.448   2.706   3.392  0.0778 -0.1814 -0.1367
 4817SOL    HW125910   3.540   2.703   3.418 -0.2249 -0.6792  0.8855
 4817SOL    HW225911   3.463   2.739   3.303 -1.7571 -0.6118 -0.6047
 4818SOL     OW25912   2.175   3.384  17.387  0.1162  0.5770 -0.2078
 4818SOL    HW125913   2.218   3.439  17.322  0.8105  0.5055  0.1826
 4818SOL    HW225914   2.124   3.323  17.334 -1.2892 -0.4835  2.3794
 4819SOL     OW25915   0.720   2.177   7.646  0.4596  0.8360 -0.6271
 4819SOL    HW125916   0.763   2.091   7.645 -0.4655  0.3646 -0.1312
 4819SOL    HW225917   0.794   2.237   7.650  1.4017 -0.4402  1.2605
 4820SOL     OW25918   4.490   0.127  10.205  0.0702 -0.1263 -0.2345
 4820SOL    HW125919   4.420   0.144  10.268 -0.7564 -1.7332 -0.7066
 4820SOL    HW225920   4.454   0.052  10.158 -1.4858  0.1859  0.4628
 4821SOL     OW25921   1.972   4.319   9.026  0.2944  0.3131  0.3486
 4821SOL    HW125922   1.945   4.410   9.020 -0.5977  0.1512  2.0487
 4821SOL    HW225923   1.899   4.273   8.984  0.4356 -1.0706  1.6153
 4822SOL     OW25924   1.912   3.097   5.838  0.6020  0.2687 -0.3059
 4822SOL    HW125925   1.957   3.020   5.803 -1.2437 -0.6210 -0.7205
 4822SOL    HW225926   1.981   3.164   5.832  3.2223 -2.1729  2.3975
 4823SOL     OW25927   2.690   1.797   4.239  0.0953  0.0271 -0.3954
 4823SOL    HW125928   2.700   1.854   4.163  0.7250  0.6245  0.1389
 4823SOL    HW225929   2.761   1.733   4.232 -0.4884 -0.4638 -1.7236
 4824SOL     OW25930   2.310   3.716  14.158 -0.6977  0.2081  0.5552
 4824SOL    HW125931   2.375   3.654  14.125  0.0020  0.7552  0.8995
 4824SOL    HW225932   2.328   3.794  14.106 -1.9282 -0.6785 -1.1826
 4825SOL     OW25933   3.393   4.188   1.844  0.0140 -0.5680  0.6192
 4825SOL    HW125934   3.389   4.276   1.807  1.2726 -0.9228 -0.3660
 4825SOL    HW225935   3.488   4.183   1.857 -0.1200  0.1075  1.8108
 4826SOL     OW25936   1.212   1.096   3.351  0.0937 -0.1141 -0.0707
 4826SOL    HW125937   1.290   1.083   3.298  1.1233 -1.3128  1.7415
 4826SOL    HW225938   1.228   1.187   3.376  1.9688 -0.3355 -0.4846
 4827SOL     OW25939   3.843   2.686   8.956  0.1301 -0.7953  0.2141
 4827SOL    HW125940   3.895   2.728   9.025 -0.7916  0.6300  0.0526
 4827SOL    HW225941   3.869   2.600   8.989 -1.1849 -0.8728  1.0732
 4828SOL     OW25942   3.785   0.774   4.552 -0.3564 -0.0280 -0.3227
 4828SOL    HW125943   3.759   0.854   4.506 -0.7228 -0.1378 -0.3053
 4828SOL    HW225944   3.879   0.775   4.531 -0.0979 -0.9517  0.7857
 4829SOL     OW25945   4.362   1.327   8.014 -0.5244 -0.1128  0.8411
 4829SOL    HW125946   4.356   1.244   7.968 -2.2558 -0.5928  1.9170
 4829SOL    HW225947   4.391   1.300   8.102 -0.0298 -1.3794  0.2854
 4830SOL     OW25948   0.598   2.281   6.771  0.2545 -0.3243  0.2312
 4830SOL    HW125949   0.541   2.230   6.713 -0.6809 -0.3596  1.1980
 4830SOL    HW225950   0.598   2.364   6.723 -2.6538  0.9369  2.4398
 4831SOL     OW25951   3.428   4.329   7.719  0.4423 -0.0266 -0.3267
 4831SOL    HW125952   3.446   4.267   7.790  0.6230  0.6496  0.2121
 4831SOL    HW225953   3.333   4.324   7.722  0.4545  1.8382  2.2142
 4832SOL     OW25954   1.998   0.388   9.050 -0.1124 -0.0559 -0.3413
 4832SOL    HW125955   1.964   0.416   8.965  2.0206 -1.7936 -1.7579
 4832SOL    HW225956   2.092   0.381   9.035 -0.0950  3.0942 -1.6459
 4833SOL     OW25957   1.644   4.098   6.498 -0.2410  0.3531 -0.3309
 4833SOL    HW125958   1.638   4.101   6.402  0.9621  2.0767 -0.3247
 4833SOL    HW225959   1.728   4.138   6.519 -0.4367  0.6559 -0.1245
 4834SOL     OW25960   3.387   4.388  11.518  0.3637  0.9492  0.1162
 4834SOL    HW125961   3.321   4.378  11.450  1.3279  2.4117 -1.0461
 4834SOL    HW225962   3.355   4.316  11.572  3.1854 -0.2810  0.1652
 4835SOL     OW25963   2.674   2.095   9.482  0.1726 -0.0914 -0.2813
 4835SOL    HW125964   2.638   2.089   9.570  0.9466  0.9738  0.0969
 4835SOL    HW225965   2.611   2.149   9.434  1.4424  1.6657  0.0456
 4836SOL     OW25966   0.649   1.237  10.800 -0.5206  0.3277  0.8545
 4836SOL    HW125967   0.582   1.169  10.797  0.1143 -0.1604 -2.1968
 4836SOL    HW225968   0.595   1.316  10.790 -0.0604  0.5079 -0.1423
 4837SOL     OW25969   4.643   0.754  10.153 -0.4941  0.3465  0.0122
 4837SOL    HW125970   4.615   0.826  10.210 -0.8358 -0.6982  1.1650
 4837SOL    HW225971   4.591   0.681  10.186 -1.4012  1.3274  0.8052
 4838SOL     OW25972   2.254   4.350   3.639  0.0062  0.0975 -0.2350
 4838SOL    HW125973   2.255   4.423   3.578  0.1179 -0.7017 -1.1831
 4838SOL    HW225974   2.346   4.324   3.648  0.1251  0.8062  0.6958
 4839SOL     OW25975   1.933   2.587  15.376  0.1879  0.3769 -0.0660
 4839SOL    HW125976   1.897   2.667  15.415  1.5210  0.2087  1.5098
 4839SOL    HW225977   1.851   2.536  15.376  0.5226 -0.1607 -1.0585
 4840SOL     OW25978   3.592   1.035   6.761 -0.2077  0.1048  0.2752
 4840SOL    HW125979   3.663   0.972   6.757 -0.2246  0.1649 -0.7717
 4840SOL    HW225980   3.518   0.983   6.795 -0.0903 -0.4018 -0.2533
 4841SOL     OW25981   1.580   4.117   5.648 -0.3320 -0.6795 -0.3822
 4841SOL    HW125982   1.581   4.108   5.744 -3.7553  0.0395 -0.3023
 4841SOL    HW225983   1.493   4.077   5.641 -1.0097  0.8384 -0.6677
 4842SOL     OW25984   3.491   2.410   7.691 -0.4813  0.5905  0.7261
 4842SOL    HW125985   3.427   2.430   7.623 -3.2392 -1.6748  2.6675
 4842SOL    HW225986   3.574   2.445   7.658 -0.0963 -1.4429 -0.4492
 4843SOL     OW25987   2.841   4.136   6.853 -0.4755 -0.4085 -0.1828
 4843SOL    HW125988   2.753   4.109   6.826 -0.6126 -0.3227  0.1754
 4843SOL    HW225989   2.884   4.167   6.774  1.1412  0.5952  1.0762
 4844SOL     OW25990   3.501   3.750   9.440  0.0436 -0.3335 -0.2834
 4844SOL    HW125991   3.506   3.807   9.517 -0.4868 -2.4346  1.3002
 4844SOL    HW225992   3.555   3.677   9.471  0.3736 -0.4599 -1.1738
 4845SOL     OW25993   1.435   2.800   4.877  0.4949 -0.4544 -0.1385
 4845SOL    HW125994   1.495   2.869   4.848 -1.4493  0.9106 -0.9328
 4845SOL    HW225995   1.480   2.724   4.837 -1.7181 -2.1672  0.6490
 4846SOL     OW25996   1.580   0.116   4.504  0.0511 -0.5834 -0.3694
 4846SOL    HW125997   1.637   0.042   4.521  0.7166 -0.0132 -0.1044
 4846SOL    HW225998   1.652   0.177   4.483 -1.0602  1.7633  2.6569
 4847SOL     OW25999   2.136   4.193  16.049  0.0634 -0.0548  0.6588
 4847SOL    HW126000   2.068   4.134  16.016 -0.3735 -0.0481  1.5482
 4847SOL    HW226001   2.154   4.238  15.966 -1.4283 -1.7483 -0.6086
 4848SOL     OW26002   0.586   3.800  15.769 -0.3467  1.1076  0.0069
 4848SOL    HW126003   0.583   3.895  15.779  1.9604  1.2814 -1.1461
 4848SOL    HW226004   0.597   3.784  15.675 -0.2497  2.4071 -0.2034
 4849SOL     OW26005   4.006   4.060   7.846  0.3367 -0.0457 -0.3269
 4849SOL    HW126006   3.934   3.999   7.831 -0.0481  0.3219  0.0069
 4849SOL    HW226007   3.964   4.136   7.804  0.6899  0.2681 -0.1172
 4850SOL     OW26008   4.670   2.281   1.005  0.5226  0.2776 -0.1457
 4850SOL    HW126009   4.724   2.357   0.981  0.1640  0.6368  0.1754
 4850SOL    HW226010   4.629   2.298   1.090  0.7639  0.0598  0.0102
 4851SOL     OW26011   3.219   1.948   6.704  0.2514 -0.2740 -0.0702
 4851SOL    HW126012   3.255   1.887   6.768  0.6136 -0.1517 -0.1607
 4851SOL    HW226013   3.237   1.895   6.626  0.8840  0.5613 -0.4891
 4852SOL     OW26014   3.096   0.609   7.700 -0.1946 -0.1695 -0.0376
 4852SOL    HW126015   3.148   0.540   7.658  0.8387 -1.1024  2.7686
 4852SOL    HW226016   3.148   0.607   7.780  1.8761 -0.7543 -1.3978
 4853SOL     OW26017   4.201   3.121   4.588 -0.1695 -0.4020  0.1002
 4853SOL    HW126018   4.204   3.053   4.521  1.5431  0.5382 -0.7965
 4853SOL    HW226019   4.132   3.088   4.645  0.1801  0.1667  0.8479
 4854SOL     OW26020   3.538   1.274   9.075 -0.1430 -0.8378  0.1375
 4854SOL    HW126021   3.451   1.266   9.115 -0.5929  0.5372 -0.5785
 4854SOL    HW226022   3.513   1.272   8.983  2.1498 -1.0797 -0.4765
 4855SOL     OW26023   1.987   1.852   4.369 -0.9327 -0.0313 -0.2720
 4855SOL    HW126024   1.927   1.782   4.343 -0.4517  0.0128 -1.4840
 4855SOL    HW226025   2.014   1.820   4.456  0.5448 -0.5391 -0.9113
 4856SOL     OW26026   1.420   3.960   8.623 -0.2666 -0.0672  0.3999
 4856SOL    HW126027   1.500   3.929   8.665 -1.1123 -0.6461  1.5884
 4856SOL    HW226028   1.457   4.042   8.590  0.9770  0.2683  2.6391
 4857SOL     OW26029   0.197   3.662   5.405 -0.0726 -0.3300  0.4770
 4857SOL    HW126030   0.124   3.670   5.344  0.0015  2.1015  0.7077
 4857SOL    HW226031   0.143   3.625   5.474  1.5428 -1.5320  1.0955
 4858SOL     OW26032   0.416   4.610  10.278  0.3967  0.4170 -0.1974
 4858SOL    HW126033   0.435   4.516  10.280  2.0403  0.7328 -0.7102
 4858SOL    HW226034   0.477   4.639  10.346  0.8403  1.5527 -1.0881
 4859SOL     OW26035   0.664   4.388  13.283 -0.2842  0.7528 -0.1424
 4859SOL    HW126036   0.748   4.419  13.317 -0.8332  0.6634  1.3033
 4859SOL    HW226037   0.656   4.305  13.329  1.9589  0.1067 -0.9168
 4860SOL     OW26038   0.967   1.283   3.468 -0.0047 -0.4645  0.4355
 4860SOL    HW126039   0.949   1.226   3.543 -0.3214  1.8474  2.1216
 4860SOL    HW226040   1.062   1.286   3.457  0.2352  1.7089  3.0964
 4861SOL     OW26041   1.590   0.994  12.039 -0.3890 -0.6256 -0.4627
 4861SOL    HW126042   1.632   1.009  11.955 -1.8882 -0.6462 -1.2092
 4861SOL    HW226043   1.656   1.023  12.102 -0.3903 -1.9552  0.1613
 4862SOL     OW26044   2.550   4.054  15.189 -0.3335 -0.0158  0.4182
 4862SOL    HW126045   2.495   4.021  15.118 -0.9819  0.5350  0.6604
 4862SOL    HW226046   2.634   4.062  15.143  0.0057 -0.8641  0.8892
 4863SOL     OW26047   2.739   0.427   6.101 -0.1551 -0.0780  0.4038
 4863SOL    HW126048   2.778   0.461   6.182  1.8857  1.7762 -1.3519
 4863SOL    HW226049   2.718   0.512   6.062  0.0617 -0.1729  0.0769
 4864SOL     OW26050   2.488   0.171   6.223  0.3205  0.2362  0.5658
 4864SOL    HW126051   2.507   0.096   6.280  2.0594  2.3754  2.7578
 4864SOL    HW226052   2.528   0.133   6.144  0.1177  1.4263 -0.1031
 4865SOL     OW26053   0.298   2.114   4.284 -0.1256 -0.1375 -0.1989
 4865SOL    HW126054   0.242   2.039   4.264 -0.9249  0.0192  1.3840
 4865SOL    HW226055   0.235   2.182   4.261  0.3934  0.9108  1.4324
 4866SOL     OW26056   3.826   0.698   7.614  0.1173  0.3909 -0.3593
 4866SOL    HW126057   3.755   0.751   7.579 -0.6089 -1.0220 -1.0188
 4866SOL    HW226058   3.818   0.627   7.550 -2.1262 -0.8872  1.3755
 4867SOL     OW26059   0.965   3.102   2.944 -0.2349  0.4368 -0.3013
 4867SOL    HW126060   0.905   3.140   2.880 -1.4144  0.3316  0.7554
 4867SOL    HW226061   0.972   3.184   2.994 -0.1089  1.7369 -2.4424
 4868SOL     OW26062   1.047   1.517   2.158 -0.2016  0.2939 -0.3185
 4868SOL    HW126063   1.048   1.541   2.251  3.5440  1.3122 -0.6161
 4868SOL    HW226064   0.953   1.527   2.141  0.5398  2.7150 -3.0136
 4869SOL     OW26065   0.011   0.284  12.051  0.1839 -0.7330 -0.0316
 4869SOL    HW126066   0.085   0.254  11.999 -1.0939  1.2906 -3.0393
 4869SOL    HW226067   0.001   0.210  12.112  1.0686  0.8398  2.0458
 4870SOL     OW26068   1.210   1.065   4.476  0.0257 -0.2194 -0.0927
 4870SOL    HW126069   1.279   1.002   4.454 -1.1146 -0.5259 -2.7126
 4870SOL    HW226070   1.205   1.125   4.403  0.8739 -0.9075 -0.7178
 4871SOL     OW26071   3.330   0.036   8.626  0.0391  0.1671 -0.9749
 4871SOL    HW126072   3.390   0.052   8.553 -0.5161 -1.0454 -1.7017
 4871SOL    HW226073   3.391   0.005   8.693  0.4842  1.4063 -0.8033
 4872SOL     OW26074   2.530   2.120   1.863 -0.3421 -0.1838 -0.0904
 4872SOL    HW126075   2.576   2.189   1.816  1.2143 -1.4084 -0.3607
 4872SOL    HW226076   2.579   2.041   1.838  0.9583  0.6830 -0.2660
 4873SOL     OW26077   4.229   2.241   1.922  0.3517 -0.5279  0.3058
 4873SOL    HW126078   4.225   2.149   1.949 -0.3613 -0.5471  0.1369
 4873SOL    HW226079   4.297   2.227   1.857 -0.7719  1.8622 -1.3697
 4874SOL     OW26080   1.283   1.431   3.700 -0.5666 -0.6871 -0.3259
 4874SOL    HW126081   1.262   1.418   3.607 -1.9109 -0.2387 -0.0865
 4874SOL    HW226082   1.225   1.503   3.722  1.2284  1.0146 -1.2006
 4875SOL     OW26083   0.345   0.498   6.811  0.0295 -0.3741  0.0178
 4875SOL    HW126084   0.425   0.459   6.776 -1.1767 -2.7220 -0.1000
 4875SOL    HW226085   0.297   0.416   6.818 -0.8760  0.2602  1.4251
 4876SOL     OW26086   3.703   2.821   2.336  0.2741  0.1393  0.0159
 4876SOL    HW126087   3.741   2.883   2.275 -0.3129  0.3735 -0.1115
 4876SOL    HW226088   3.641   2.777   2.278  1.3048 -0.8022 -0.3705
 4877SOL     OW26089   1.282   4.185   5.802 -0.0786  0.4184 -0.0465
 4877SOL    HW126090   1.219   4.224   5.742  1.2885 -1.2021 -2.5688
 4877SOL    HW226091   1.295   4.101   5.757  1.1650  1.1810 -1.1090
 4878SOL     OW26092   0.318   1.369  10.064 -0.5707  0.2994  0.8538
 4878SOL    HW126093   0.405   1.357  10.026 -0.1115 -1.2855  2.3965
 4878SOL    HW226094   0.321   1.455  10.106  0.9430  0.0651  1.2271
 4879SOL     OW26095   1.068   4.558   8.781  0.0353 -0.3033  0.1597
 4879SOL    HW126096   1.057   4.638   8.729 -0.5531 -0.2117  0.4280
 4879SOL    HW226097   1.023   4.490   8.733  0.4009 -2.2269  2.5483
 4880SOL     OW26098   0.685   1.884   7.657  0.3360 -0.3410  0.4430
 4880SOL    HW126099   0.655   1.847   7.740 -1.9345 -0.2767 -0.3654
 4880SOL    HW226100   0.775   1.852   7.662 -0.4458 -2.8806 -2.4406
 4881SOL     OW26101   1.796   1.636   6.813 -0.5670 -0.6902 -0.3117
 4881SOL    HW126102   1.743   1.635   6.733 -0.1629  0.0916 -0.5937
 4881SOL    HW226103   1.862   1.575   6.779 -0.7154  0.1818 -2.1833
 4882SOL     OW26104   3.185   3.126   0.546 -0.8315 -0.5485 -0.5680
 4882SOL    HW126105   3.211   3.218   0.554  1.0282 -1.2132  0.9864
 4882SOL    HW226106   3.267   3.076   0.539 -0.0242  0.5275  1.1672
 4883SOL     OW26107   3.316   2.507   3.559  0.4157 -0.2413 -0.3779
 4883SOL    HW126108   3.296   2.601   3.557 -0.4801 -0.4305  0.0527
 4883SOL    HW226109   3.356   2.507   3.472 -0.3951  0.0579 -0.7517
 4884SOL     OW26110   1.445   2.284  15.396 -0.8155  0.1725  0.5689
 4884SOL    HW126111   1.407   2.368  15.371  0.6508  0.8113  0.5041
 4884SOL    HW226112   1.367   2.232  15.379 -0.2708 -1.0343  1.7983
 4885SOL     OW26113   1.504   2.906   6.602 -0.2077 -0.7687  0.2558
 4885SOL    HW126114   1.472   2.816   6.608  1.2688 -1.2273  1.2072
 4885SOL    HW226115   1.422   2.956   6.599  0.3794  0.1507 -0.5606
 4886SOL     OW26116   1.208   1.909   0.959  0.4628  0.5945 -0.1120
 4886SOL    HW126117   1.284   1.949   1.003 -0.2053  1.2269  0.4626
 4886SOL    HW226118   1.231   1.818   0.976 -2.6015  0.2200  1.7973
 4887SOL     OW26119   1.555   1.717   6.935 -0.1351  0.1129  0.0945
 4887SOL    HW126120   1.640   1.698   6.895  0.4444  1.1215  0.8274
 4887SOL    HW226121   1.578   1.722   7.028 -0.9706 -0.9865  0.3595
 4888SOL     OW26122   0.048   3.922   5.713 -0.2922 -0.0031 -0.2061
 4888SOL    HW126123   0.117   3.962   5.662 -0.3476 -0.8400 -0.9436
 4888SOL    HW226124   4.714   3.899   5.643 -1.6711 -0.1552  1.0464
 4889SOL     OW26125   2.224   2.067  16.054  0.5045  0.6346  0.1736
 4889SOL    HW126126   2.219   2.162  16.064  2.5916  0.7901 -0.3488
 4889SOL    HW226127   2.183   2.060  15.968  1.1063  1.3215 -0.1638
 4890SOL     OW26128   0.615   1.494   0.049 -0.2224 -0.0114  0.4431
 4890SOL    HW126129   0.607   1.400   0.062  1.8159 -0.0582  1.3255
 4890SOL    HW226130   0.576   1.518   0.134 -0.1694 -0.5362  0.6112
 4891SOL     OW26131   1.416   1.703   7.708 -0.0587 -0.0450  0.2125
 4891SOL    HW126132   1.442   1.777   7.763 -2.2623 -0.0043  1.1879
 4891SOL    HW226133   1.323   1.724   7.696 -0.1745 -1.0413 -0.6027
 4892SOL     OW26134   4.412   0.672  17.068  0.1197  0.0723 -0.6922
 4892SOL    HW126135   4.390   0.765  17.059 -0.7487 -0.0664  0.0742
 4892SOL    HW226136   4.441   0.662  17.158 -0.6026 -1.5730 -0.6545
 4893SOL     OW26137   3.734   0.985  16.380  0.6083 -0.1871  0.2589
 4893SOL    HW126138   3.708   0.893  16.377  0.2484 -0.0546 -0.8998
 4893SOL    HW226139   3.668   1.032  16.328  0.1224 -3.6286 -2.2152
 4894SOL     OW26140   0.484   4.653   0.445  0.5614  0.3104 -0.0195
 4894SOL    HW126141   0.427   4.617   0.513  1.2865 -2.2501 -0.7592
 4894SOL    HW226142   0.561   4.598   0.461 -0.1205 -0.7151 -0.2487
 4895SOL     OW26143   0.122   3.489  12.981  0.5472  0.2323  0.2072
 4895SOL    HW126144   0.092   3.527  13.064  0.6932 -0.5295  0.6067
 4895SOL    HW226145   0.040   3.462  12.941  1.6349 -1.9595 -0.5404
 4896SOL     OW26146   1.454   2.763   8.455 -0.1151  0.0990 -0.3863
 4896SOL    HW126147   1.400   2.810   8.392  0.0657 -0.1823 -0.7525
 4896SOL    HW226148   1.466   2.825   8.527 -0.2821  1.5938 -1.6700
 4897SOL     OW26149   0.252   1.637   3.787  0.6479 -0.4134 -0.0098
 4897SOL    HW126150   0.196   1.625   3.710  0.5447 -0.0239  0.0052
 4897SOL    HW226151   0.245   1.549   3.823  2.5215  0.2327  1.9177
 4898SOL     OW26152   4.316   0.146   8.342 -0.1500  0.7167  0.8151
 4898SOL    HW126153   4.384   0.133   8.408 -1.2695  0.8032  1.9674
 4898SOL    HW226154   4.259   0.218   8.366 -1.4602  0.2812 -0.9801
 4899SOL     OW26155   4.264   1.078   9.385  0.7745  0.1660  0.2085
 4899SOL    HW126156   4.230   1.153   9.338 -0.2756 -0.4236  0.0183
 4899SOL    HW226157   4.228   1.076   9.474  1.4534 -0.2839  0.4814
 4900SOL     OW26158   2.727   2.802   0.006  0.1058 -0.3951  0.6758
 4900SOL    HW126159   2.668   2.807   0.081  1.7809 -0.6805  2.0007
 4900SOL    HW226160   2.685   2.735  17.664  3.1422 -0.0314 -2.1584
 4901SOL     OW26161   2.915   1.706   8.933  0.3530 -0.3235  0.3510
 4901SOL    HW126162   2.920   1.735   9.024 -1.3809 -1.9403  0.9703
 4901SOL    HW226163   2.883   1.783   8.886 -1.7446  0.3215  2.8384
 4902SOL     OW26164   4.621   0.679   7.214  0.7402  0.1798  0.0102
 4902SOL    HW126165   4.635   0.676   7.309 -0.1910 -0.8155  0.1177
 4902SOL    HW226166   4.699   0.728   7.186 -0.0744  2.2724  1.4118
 4903SOL     OW26167   1.003   3.104   6.099 -0.1133 -0.0725  0.3786
 4903SOL    HW126168   0.951   3.027   6.123 -0.5200  0.2886  0.6489
 4903SOL    HW226169   0.948   3.130   6.026  0.8164 -0.0208 -0.3041
 4904SOL     OW26170   0.561   0.263   2.884  0.0711 -0.5573  0.0104
 4904SOL    HW126171   0.559   0.281   2.790 -2.1261 -1.7247 -0.1539
 4904SOL    HW226172   0.517   0.340   2.921  0.4646 -0.2357 -0.1830
 4905SOL     OW26173   3.130   0.997   4.791  0.3162  0.0095 -0.2652
 4905SOL    HW126174   3.109   1.090   4.803 -1.0553 -0.5851  1.7950
 4905SOL    HW226175   3.222   0.990   4.765  0.5579  0.5342  0.4546
 4906SOL     OW26176   2.174   1.599  13.164  0.1834 -0.0504  0.3141
 4906SOL    HW126177   2.098   1.559  13.205 -1.3623  1.5260 -1.0115
 4906SOL    HW226178   2.161   1.579  13.072 -2.2905  0.0149  0.6489
 4907SOL     OW26179   1.387   0.835  14.854 -0.1821 -0.2452 -0.0350
 4907SOL    HW126180   1.311   0.883  14.822  0.0802  1.4028  1.7970
 4907SOL    HW226181   1.388   0.857  14.947  2.7292 -0.5616  0.0127
 4908SOL     OW26182   0.359   4.653   8.062 -0.0771 -0.3249  0.1460
 4908SOL    HW126183   0.447   4.663   8.025  0.9217 -1.9579  2.1042
 4908SOL    HW226184   0.336   4.564   8.035  0.5810 -0.0141 -1.4518
 4909SOL     OW26185   2.742   4.704   5.566 -0.2997 -0.2160  0.3745
 4909SOL    HW126186   2.774   4.656   5.490  1.8277 -1.6854  2.2172
 4909SOL    HW226187   2.745   0.066   5.534 -2.5707 -0.0236  0.6780
 4910SOL     OW26188   4.418   4.705   1.616 -0.6804 -0.3381 -0.4453
 4910SOL    HW126189   4.416   4.614   1.648 -1.6929  0.2587  1.1936
 4910SOL    HW226190   4.387   0.026   1.692  1.2786  0.2650 -0.0374
 4911SOL     OW26191   2.831   2.013   4.459  0.2452 -0.0973 -0.4875
 4911SOL    HW126192   2.747   1.982   4.424 -0.0855  0.2448  0.0127
 4911SOL    HW226193   2.811   2.041   4.548  3.4818 -0.8213  0.4855
 4912SOL     OW26194   1.488   1.464   8.539  0.2534  0.0450  0.2133
 4912SOL    HW126195   1.441   1.384   8.564  0.0910  0.5345  1.4965
 4912SOL    HW226196   1.577   1.428   8.535 -0.5641 -1.8368 -1.2586
 4913SOL     OW26197   0.007   3.153   3.288  0.0802 -0.4059 -0.6654
 4913SOL    HW126198   0.077   3.218   3.275 -0.1853 -0.1248 -0.7051
 4913SOL    HW226199   0.053   3.074   3.260  1.6109 -0.5082  2.1447
 4914SOL     OW26200   4.316   3.050   2.210 -0.1562 -0.2203  0.0553
 4914SOL    HW126201   4.379   3.121   2.222 -0.8853  0.7078 -1.4168
 4914SOL    HW226202   4.331   2.995   2.286 -1.5778  1.1096  1.3081
 4915SOL     OW26203   3.094   1.278   4.896 -0.5612  0.3805  0.0864
 4915SOL    HW126204   3.132   1.294   4.983 -1.3301  2.0624  0.1147
 4915SOL    HW226205   3.002   1.268   4.921 -0.2585 -0.4199  0.8630
 4916SOL     OW26206   2.184   3.559   9.055 -0.5754  0.1752 -0.5303
 4916SOL    HW126207   2.236   3.639   9.060  0.8637 -0.8394  0.7152
 4916SOL    HW226208   2.253   3.493   9.047 -0.6081 -0.0606  1.1314
 4917SOL     OW26209   1.275   3.376   9.353  0.0908 -0.0514  0.2736
 4917SOL    HW126210   1.304   3.329   9.431  1.2536 -0.1644 -0.2147
 4917SOL    HW226211   1.195   3.415   9.387  0.1073  1.8843 -1.9190
 4918SOL     OW26212   1.723   1.368   9.826 -0.3421 -0.7102 -0.3516
 4918SOL    HW126213   1.807   1.405   9.852 -0.7362  0.7105 -1.1059
 4918SOL    HW226214   1.729   1.370   9.730 -0.6227 -2.4357 -0.4022
 4919SOL     OW26215   1.832   0.146  14.857  0.0538 -0.5561 -0.2001
 4919SOL    HW126216   1.754   0.194  14.829 -0.2296 -1.1332 -0.4014
 4919SOL    HW226217   1.814   0.151  14.951  0.3933  2.0605 -0.2682
 4920SOL     OW26218   2.355   2.234  17.180 -0.2036  0.3022  0.2621
 4920SOL    HW126219   2.330   2.240  17.273 -2.4814  0.4644 -0.3653
 4920SOL    HW226220   2.444   2.203  17.199  1.6002  3.0488 -3.7206
 4921SOL     OW26221   1.626   3.679   3.490  0.3093 -0.1142  0.1191
 4921SOL    HW126222   1.685   3.708   3.420  0.6847 -0.9017  0.1151
 4921SOL    HW226223   1.540   3.682   3.448  1.3776 -0.4663 -2.0615
 4922SOL     OW26224   4.628   0.773  15.679  0.0840  0.7898 -0.1361
 4922SOL    HW126225   4.645   0.681  15.660 -0.8811  0.4458  0.6204
 4922SOL    HW226226   4.688   0.804  15.612  0.6571  0.7453  0.3649
 4923SOL     OW26227   2.400   0.723   3.913 -0.1142 -0.4794  0.2434
 4923SOL    HW126228   2.432   0.764   3.833  0.9260  1.3841  1.6310
 4923SOL    HW226229   2.318   0.769   3.930  0.5395  1.3550 -1.6443
 4924SOL     OW26230   2.853   2.023   8.919 -0.2457  0.0618 -0.3876
 4924SOL    HW126231   2.829   2.069   8.838 -2.9337  1.9824  1.4586
 4924SOL    HW226232   2.773   1.980   8.950  0.1958 -0.6299 -0.2228
 4925SOL     OW26233   1.963   2.188  15.102 -1.0135 -0.8621  0.0661
 4925SOL    HW126234   2.008   2.270  15.122 -3.1648  0.4810 -0.5404
 4925SOL    HW226235   2.017   2.156  15.030  0.4334  0.0947  0.7397
 4926SOL     OW26236   1.603   3.133  14.189  0.0121  0.8372 -0.1997
 4926SOL    HW126237   1.647   3.048  14.185 -3.0759 -0.7207 -1.6889
 4926SOL    HW226238   1.577   3.145  14.097 -2.8205  0.0832  0.5052
 4927SOL     OW26239   0.081   0.893   7.210 -0.3135 -0.1772 -0.1361
 4927SOL    HW126240   0.058   0.974   7.255  1.8995 -0.6184  1.8328
 4927SOL    HW226241   0.176   0.884   7.213 -0.4361 -1.2277  0.7400
 4928SOL     OW26242   1.847   1.078   7.653  0.1261 -0.2383  0.1099
 4928SOL    HW126243   1.884   0.992   7.671  2.7741  1.1230  1.0651
 4928SOL    HW226244   1.754   1.058   7.640  0.4860 -0.6904 -1.7801
 4929SOL     OW26245   2.850   1.368  13.930  0.2379 -0.5074 -0.1437
 4929SOL    HW126246   2.910   1.441  13.947  0.5107 -0.5291 -1.0209
 4929SOL    HW226247   2.896   1.299  13.882  1.6558  0.8912 -0.8005
 4930SOL     OW26248   3.907   0.969   6.054 -0.1605  0.0478 -0.8887
 4930SOL    HW126249   3.837   0.984   6.119 -1.0927  0.3929 -1.9692
 4930SOL    HW226250   3.895   0.883   6.014 -0.1130 -0.6996  0.7149
 4931SOL     OW26251   1.584   0.310  17.580 -0.5175 -0.7243 -0.6394
 4931SOL    HW126252   1.567   0.259  17.500  1.0978 -2.2053 -0.0432
 4931SOL    HW226253   1.586   0.232  17.636 -2.3976 -1.1302 -1.1250
 4932SOL     OW26254   3.893   0.574   7.876 -0.2878  0.8701  0.0047
 4932SOL    HW126255   3.888   0.639   7.946  1.3538  1.8008 -0.7496
 4932SOL    HW226256   3.844   0.609   7.802 -0.1833 -0.9488 -0.9423
 4933SOL     OW26257   2.284   4.613  15.517 -0.0856 -0.3333  0.5753
 4933SOL    HW126258   2.373   4.631  15.546 -0.1131  0.5387  0.1180
 4933SOL    HW226259   2.257   4.560  15.593  0.3706 -1.6191 -0.1653
 4934SOL     OW26260   2.468   1.580   8.010 -0.5460 -0.0367  0.6141
 4934SOL    HW126261   2.507   1.558   8.094  2.5205  1.1410 -0.4866
 4934SOL    HW226262   2.540   1.636   7.981 -1.0092  0.0154 -0.4457
 4935SOL     OW26263   2.351   0.535   7.013  0.3147  0.7138 -0.7253
 4935SOL    HW126264   2.280   0.499   7.065  1.4268  2.9623  2.3128
 4935SOL    HW226265   2.305   0.554   6.931 -1.3461 -1.2158 -0.2313
 4936SOL     OW26266   0.872   1.581   4.668 -0.2222 -0.6351  0.4991
 4936SOL    HW126267   0.955   1.618   4.637 -0.4964 -1.1025 -0.7796
 4936SOL    HW226268   0.822   1.657   4.700 -0.7118 -0.7355 -0.0156
 4937SOL     OW26269   3.223   3.841   6.916 -0.2834 -0.4270  0.0503
 4937SOL    HW126270   3.129   3.844   6.932 -0.5898 -1.6299 -1.4336
 4937SOL    HW226271   3.251   3.787   6.990 -1.7846  0.7362  1.4661
 4938SOL     OW26272   2.555   0.578  13.499 -0.4679  0.8815  0.1640
 4938SOL    HW126273   2.528   0.668  13.517 -0.4410  0.5389  1.9650
 4938SOL    HW226274   2.499   0.550  13.427 -1.2320  0.0136  1.1033
 4939SOL     OW26275   1.223   0.203   8.113  0.5185 -0.1658 -0.2102
 4939SOL    HW126276   1.246   0.278   8.058  3.5894 -0.4466  0.6483
 4939SOL    HW226277   1.313   0.169   8.114  0.5562 -0.0646  0.2242
 4940SOL     OW26278   1.969   2.811   5.473 -0.1299  0.1226 -0.1516
 4940SOL    HW126279   1.968   2.722   5.508  0.6590  0.3526  0.4590
 4940SOL    HW226280   2.036   2.804   5.405 -0.8450 -0.4409 -0.7898
 4941SOL     OW26281   1.763   0.045   4.174 -0.5651  0.2243 -0.2126
 4941SOL    HW126282   1.848   0.088   4.158 -0.5315  0.7783  1.4615
 4941SOL    HW226283   1.771   4.710   4.103  1.6985  0.2301  0.0449
 4942SOL     OW26284   2.164   4.725   2.523  0.2597  0.4312  0.6716
 4942SOL    HW126285   2.090   0.035   2.476  0.3371  1.7208  1.5888
 4942SOL    HW226286   2.118   4.659   2.574 -0.2653 -0.2932 -0.7461
 4943SOL     OW26287   1.642   3.200  13.549 -0.5128 -0.1401 -0.0643
 4943SOL    HW126288   1.645   3.108  13.576  0.5922  0.4463  1.8015
 4943SOL    HW226289   1.574   3.230  13.610  1.4910  4.3088  0.0355
 4944SOL     OW26290   2.865   0.280   8.109 -0.2204  0.5140  0.3425
 4944SOL    HW126291   2.899   0.368   8.090 -2.9265  1.4204 -0.3373
 4944SOL    HW226292   2.877   0.269   8.203  2.2113  0.7539  0.0598
 4945SOL     OW26293   1.993   1.642   2.736 -0.7226  0.2861 -0.5336
 4945SOL    HW126294   1.938   1.647   2.658 -1.2499  0.1082 -0.1727
 4945SOL    HW226295   2.019   1.550   2.730 -1.3533  0.0364  0.5939
 4946SOL     OW26296   4.116   0.592  14.499  0.4920 -0.5430  0.0564
 4946SOL    HW126297   4.072   0.532  14.439 -0.7059  0.8923 -0.5054
 4946SOL    HW226298   4.041   0.652  14.505  1.1135  0.2616 -0.2261
 4947SOL     OW26299   0.530   2.688   2.854  0.5470 -0.1330 -0.2783
 4947SOL    HW126300   0.565   2.749   2.788  2.1378  1.1122  1.7308
 4947SOL    HW226301   0.456   2.655   2.803 -1.0297  2.2475  0.4372
 4948SOL     OW26302   3.255   4.673  13.712  0.7412  0.0051  0.3605
 4948SOL    HW126303   3.211   0.030  13.716  0.4629 -0.1491  0.5119
 4948SOL    HW226304   3.266   4.676  13.617 -1.2432  0.2741  0.1450
 4949SOL     OW26305   2.278   0.927   8.885 -0.1355 -0.0074  0.1641
 4949SOL    HW126306   2.319   0.948   8.969 -0.0538  0.6085 -0.0361
 4949SOL    HW226307   2.350   0.960   8.832 -2.3936  1.7726 -1.7697
 4950SOL     OW26308   1.255   0.367  16.377  0.3011  0.3167 -0.4418
 4950SOL    HW126309   1.224   0.422  16.305  0.2128 -0.5797 -1.0781
 4950SOL    HW226310   1.227   0.419  16.453 -1.1503 -4.6278  2.3534
 4951SOL     OW26311   2.626   0.496   2.204 -0.2625  0.2256  0.0953
 4951SOL    HW126312   2.604   0.409   2.169  1.7965 -0.2227 -0.0545
 4951SOL    HW226313   2.537   0.514   2.236  0.9007 -2.8110  5.0225
 4952SOL     OW26314   0.409   3.469  16.255  0.1383  0.0963  0.1696
 4952SOL    HW126315   0.474   3.404  16.281 -1.2194 -0.9035  1.0248
 4952SOL    HW226316   0.325   3.427  16.270 -0.0503  0.7415  0.8894
 4953SOL     OW26317   3.229   2.663  12.804 -0.0283 -0.6098 -0.2370
 4953SOL    HW126318   3.256   2.691  12.717  2.4094  0.4335  0.8495
 4953SOL    HW226319   3.292   2.719  12.850  0.3003  0.2665 -1.7475
 4954SOL     OW26320   0.338   4.466   6.486  0.2500  0.9393  0.2095
 4954SOL    HW126321   0.370   4.506   6.568 -1.4222  1.4260  0.6283
 4954SOL    HW226322   0.364   4.535   6.426 -3.6113 -0.3101 -2.8814
 4955SOL     OW26323   3.947   0.560  10.637 -0.8964  0.1352  0.0668
 4955SOL    HW126324   3.942   0.525  10.726 -1.3307 -2.5082 -0.9855
 4955SOL    HW226325   3.962   0.478  10.589 -2.0579  0.0837 -0.2125
 4956SOL     OW26326   4.489   0.936  13.556  1.1255  0.5115  0.0863
 4956SOL    HW126327   4.404   0.915  13.518  0.3787  3.1454  0.3153
 4956SOL    HW226328   4.462   0.975  13.639 -1.0104 -1.3795  0.2794
 4957SOL     OW26329   0.320   3.192  14.286  0.5457 -0.7112  0.6431
 4957SOL    HW126330   0.340   3.208  14.194  0.9607  0.5958  0.9541
 4957SOL    HW226331   0.342   3.100  14.298 -1.6648 -1.3869 -0.5664
 4958SOL     OW26332   3.176   1.042   5.901  0.1452 -0.6910 -0.0620
 4958SOL    HW126333   3.127   0.962   5.924  0.8634 -1.4672 -1.2331
 4958SOL    HW226334   3.105   1.105   5.894  1.6689  0.9374 -0.6576
 4959SOL     OW26335   0.425   0.033   6.398  0.6604  0.1962 -0.2546
 4959SOL    HW126336   0.517   0.036   6.424  0.1998 -1.4091  1.5387
 4959SOL    HW226337   0.439   0.004   6.308  0.4408  3.4940 -1.3697
 4960SOL     OW26338   1.254   0.934   6.709  0.3832  0.0193 -0.4399
 4960SOL    HW126339   1.263   0.860   6.769 -1.5420 -1.2093 -1.6651
 4960SOL    HW226340   1.332   0.985   6.731 -0.9046  0.7974  2.3591
 4961SOL     OW26341   3.548   2.531   8.534  0.0686 -0.2799 -0.3024
 4961SOL    HW126342   3.588   2.553   8.618  1.5913 -0.9305 -0.8563
 4961SOL    HW226343   3.492   2.458   8.559  1.6201 -1.3144  0.1011
 4962SOL     OW26344   3.558   0.295   4.659 -0.3812  0.3524  0.0256
 4962SOL    HW126345   3.532   0.205   4.640 -0.0296 -0.1383  1.9321
 4962SOL    HW226346   3.622   0.316   4.591  1.9357 -2.8472  1.2754
 4963SOL     OW26347   4.594   2.279  10.804  0.4653 -0.0842  0.2235
 4963SOL    HW126348   4.628   2.220  10.737 -2.0533 -0.1053 -1.0695
 4963SOL    HW226349   4.667   2.340  10.792 -0.4452  0.9970  0.1520
 4964SOL     OW26350   3.632   4.572   5.783 -0.1669  0.0706 -0.0801
 4964SOL    HW126351   3.573   4.571   5.707 -0.3723  2.1095  0.0551
 4964SOL    HW226352   3.638   4.478   5.803  3.4585  1.1397  3.9199
 4965SOL     OW26353   0.988   1.943  12.739  0.4374 -0.3129 -0.1062
 4965SOL    HW126354   0.962   1.916  12.651  0.9522  0.6543 -0.5583
 4965SOL    HW226355   0.925   1.889  12.785 -0.6504  0.1059 -1.0883
 4966SOL     OW26356   4.403   2.482   8.860 -0.2356 -0.4080 -0.2844
 4966SOL    HW126357   4.404   2.432   8.941  0.4707 -0.3422 -0.2539
 4966SOL    HW226358   4.335   2.547   8.880  1.7235  1.8171 -0.9132
 4967SOL     OW26359   0.082   0.509   2.049  0.0580 -0.1534 -0.4483
 4967SOL    HW126360   0.139   0.484   1.976  0.1368  0.5421 -0.6297
 4967SOL    HW226361   0.001   0.538   2.006  0.2871  1.2395  0.0722
 4968SOL     OW26362   2.033   4.514  10.560  0.3992 -0.2564  0.1359
 4968SOL    HW126363   2.024   4.493  10.653  1.5488 -0.6841  0.1492
 4968SOL    HW226364   2.014   4.605  10.538  3.4849  0.8684  2.1264
 4969SOL     OW26365   0.107   3.974   3.328 -0.3146 -0.0489 -0.5427
 4969SOL    HW126366   0.195   3.946   3.301 -0.5175  0.2228 -1.4938
 4969SOL    HW226367   0.121   3.976   3.422 -0.2188  1.0313 -0.5777
 4970SOL     OW26368   2.390   0.717   2.612 -0.3324 -0.3998 -0.1699
 4970SOL    HW126369   2.443   0.694   2.535  0.4103  0.6156  0.0329
 4970SOL    HW226370   2.309   0.668   2.604  0.8754 -1.9288 -3.0774
 4971SOL     OW26371   0.939   2.628   4.344 -0.6685 -0.3797 -0.0525
 4971SOL    HW126372   0.968   2.646   4.254 -0.5793  0.9206  0.2406
 4971SOL    HW226373   0.971   2.539   4.361  1.8948  0.4452 -0.5177
 4972SOL     OW26374   2.403   1.411   2.585  0.4245 -0.2678 -0.0507
 4972SOL    HW126375   2.494   1.431   2.606  0.1596  2.7115 -1.6900
 4972SOL    HW226376   2.365   1.447   2.666 -1.4143  0.5308 -1.2712
 4973SOL     OW26377   0.615   0.469  13.733  1.0402 -0.2366 -0.1408
 4973SOL    HW126378   0.547   0.536  13.741 -0.8960 -1.9777 -1.7226
 4973SOL    HW226379   0.569   0.416  13.667  1.1750  1.2455 -1.4106
 4974SOL     OW26380   1.087   0.536   6.678 -0.5460  0.5089 -0.6462
 4974SOL    HW126381   1.148   0.505   6.612 -0.3594 -1.0916  0.2799
 4974SOL    HW226382   1.039   0.600   6.625 -1.6906  1.4304  1.5015
 4975SOL     OW26383   4.304   1.560   7.404  0.3368 -0.2410  0.0363
 4975SOL    HW126384   4.368   1.512   7.353 -0.6273 -0.9873 -0.4666
 4975SOL    HW226385   4.286   1.491   7.467  0.9082  0.7161  1.2528
 4976SOL     OW26386   1.112   3.377   7.861 -0.6516  0.3224 -0.0848
 4976SOL    HW126387   1.086   3.321   7.935  1.8784 -2.9774 -1.6895
 4976SOL    HW226388   1.026   3.409   7.834 -1.1759 -0.5324  0.5541
 4977SOL     OW26389   2.111   0.279   4.646  0.1511  0.0639  0.5016
 4977SOL    HW126390   2.135   0.372   4.639 -3.2778  1.0101  1.4942
 4977SOL    HW226391   2.198   0.256   4.679 -0.2073 -0.2347  1.2253
 4978SOL     OW26392   3.888   1.372  13.079  0.4282  0.1586 -0.0123
 4978SOL    HW126393   3.870   1.279  13.069 -0.9590  0.3142  1.0770
 4978SOL    HW226394   3.983   1.382  13.066  0.3880 -0.8157 -1.0384
 4979SOL     OW26395   1.876   3.097   7.697  0.3288 -0.2298  0.3883
 4979SOL    HW126396   1.789   3.119   7.664 -0.4545 -2.8619  0.7077
 4979SOL    HW226397   1.908   3.183   7.726 -2.5009 -0.0473  3.0205
 4980SOL     OW26398   2.109   1.626  16.276  0.2459  0.0696 -0.6577
 4980SOL    HW126399   2.155   1.611  16.193 -0.0286  0.7457 -0.9363
 4980SOL    HW226400   2.168   1.680  16.329  0.9035  0.9206 -2.2573
 4981SOL     OW26401   3.789   3.076   5.786  0.5243  0.0167 -0.0724
 4981SOL    HW126402   3.771   3.018   5.712  1.2641 -0.0335 -0.2129
 4981SOL    HW226403   3.697   3.086   5.809  0.3983  0.8045 -0.9221
 4982SOL     OW26404   0.697   4.226   7.932 -0.2867 -0.3780 -0.3828
 4982SOL    HW126405   0.723   4.201   8.021 -1.6454 -1.7882 -0.3825
 4982SOL    HW226406   0.774   4.198   7.883 -0.7002 -0.4322 -0.9938
 4983SOL     OW26407   3.990   1.398   6.692 -0.3605  0.0020 -0.1366
 4983SOL    HW126408   3.936   1.332   6.649 -0.5795  1.2243 -1.7150
 4983SOL    HW226409   3.993   1.354   6.777 -0.5843  1.5424  0.6914
 4984SOL     OW26410   2.303   1.046  11.036  0.5770  0.3317 -0.3858
 4984SOL    HW126411   2.385   1.018  11.077  0.8995  0.5230 -0.8972
 4984SOL    HW226412   2.329   1.040  10.944 -0.4697 -1.7231 -0.5516
 4985SOL     OW26413   2.890   0.563   1.435  0.1898  0.5919 -0.2906
 4985SOL    HW126414   2.803   0.525   1.418  0.7007 -0.5810 -0.2724
 4985SOL    HW226415   2.862   0.639   1.487 -0.0538  1.5280 -1.8141
 4986SOL     OW26416   1.683   3.769   5.757 -0.1025  0.2232 -0.4061
 4986SOL    HW126417   1.675   3.702   5.689  2.0455 -0.0510 -0.4002
 4986SOL    HW226418   1.750   3.733   5.816  0.7168  1.2399 -0.7192
 4987SOL     OW26419   3.736   0.035   4.087 -0.0023  0.6219  0.1814
 4987SOL    HW126420   3.701   0.118   4.118 -2.4087 -0.4747  0.3758
 4987SOL    HW226421   3.656   4.717   4.063  0.0236  0.0362  1.2398
 4988SOL     OW26422   2.275   2.922   4.489 -0.0597 -0.3375 -0.6079
 4988SOL    HW126423   2.306   2.834   4.466 -3.3057 -1.2710 -1.4170
 4988SOL    HW226424   2.281   2.967   4.405  0.6883  1.3985  0.3824
 4989SOL     OW26425   2.762   2.100   2.391  0.7951 -0.3184  0.2138
 4989SOL    HW126426   2.790   2.050   2.468  1.7849  1.5167  1.0701
 4989SOL    HW226427   2.705   2.167   2.430 -0.3137 -1.1529 -0.0072
 4990SOL     OW26428   2.632   4.155   3.960  0.3071 -0.5716 -0.0974
 4990SOL    HW126429   2.563   4.165   4.025  0.2551  2.6770 -0.6533
 4990SOL    HW226430   2.700   4.106   4.006  2.0318 -1.6359 -3.8235
 4991SOL     OW26431   1.852   4.721  15.555  0.4077 -0.2619  0.1896
 4991SOL    HW126432   1.918   4.714  15.624  0.4069  0.8071  0.2904
 4991SOL    HW226433   1.789   4.659  15.593 -0.3547 -0.1084 -0.8303
 4992SOL     OW26434   2.131   0.874   2.975 -0.0355 -0.0250 -0.0388
 4992SOL    HW126435   2.037   0.859   2.969 -0.0953  0.9214 -1.3759
 4992SOL    HW226436   2.165   0.785   2.981 -0.0868 -0.2033 -2.6495
 4993SOL     OW26437   3.023   3.346   3.963  0.9043  0.2364 -0.7089
 4993SOL    HW126438   2.931   3.321   3.959  0.7992  0.4693  0.1952
 4993SOL    HW226439   3.057   3.312   3.880 -0.1543 -1.2929 -0.4913
 4994SOL     OW26440   2.164   2.652   8.782  0.6870 -0.1116 -0.2787
 4994SOL    HW126441   2.148   2.704   8.703  1.6501  0.2561 -0.2318
 4994SOL    HW226442   2.190   2.725   8.838 -1.0834  2.4836 -2.8478
 4995SOL     OW26443   2.887   0.880   9.398 -0.2909  0.6768 -1.0508
 4995SOL    HW126444   2.953   0.926   9.346  0.3926  1.4320  0.4787
 4995SOL    HW226445   2.856   0.810   9.341 -2.1759  1.6607 -1.2350
 4996SOL     OW26446   4.035   3.955  12.683 -0.2068 -0.2987 -0.7568
 4996SOL    HW126447   4.026   4.020  12.613 -0.1389 -0.0434 -0.5279
 4996SOL    HW226448   4.009   3.873  12.641  1.3383 -0.9800 -0.3845
 4997SOL     OW26449   3.163   4.293   0.865  0.1329  0.1443 -0.0210
 4997SOL    HW126450   3.230   4.287   0.797  1.5126 -0.7521  1.4079
 4997SOL    HW226451   3.090   4.243   0.828  1.6792 -2.3101  0.2430
 4998SOL     OW26452   1.448   3.794   5.516  0.9832  0.1584  0.5980
 4998SOL    HW126453   1.424   3.727   5.452  0.3277  1.2772 -0.3210
 4998SOL    HW226454   1.452   3.745   5.598  0.3132  1.4926  1.4288
 4999SOL     OW26455   4.182   1.635   7.073 -0.0564  0.2729  0.3591
 4999SOL    HW126456   4.147   1.668   7.156 -2.7190 -1.7260  0.0306
 4999SOL    HW226457   4.119   1.664   7.008  0.2138 -1.3303 -0.6194
 5000SOL     OW26458   3.476   1.253   9.709  0.6485  0.1994  0.0213
 5000SOL    HW126459   3.571   1.241   9.703  0.9596  2.8281 -0.3556
 5000SOL    HW226460   3.466   1.333   9.657 -2.5077  0.2301  0.6758
 5001SOL     OW26461   4.166   1.108   2.850 -0.0533  0.7334  0.7613
 5001SOL    HW126462   4.129   1.030   2.810 -0.3259  0.8299  0.8244
 5001SOL    HW226463   4.257   1.110   2.820 -1.3230  2.6125 -3.0045
 5002SOL     OW26464   4.525   0.104   5.682 -0.2522  0.3056  0.8671
 5002SOL    HW126465   4.603   0.135   5.728  0.2063  1.9167 -0.9829
 5002SOL    HW226466   4.567   0.029   5.640 -0.1170  0.4721  0.7031
 5003SOL     OW26467   2.733   3.617   7.374  0.2736 -0.3763  0.4291
 5003SOL    HW126468   2.678   3.695   7.368  0.6381 -0.1852 -0.5270
 5003SOL    HW226469   2.681   3.567   7.437 -1.6008  0.2979 -0.5950
 5004SOL     OW26470   2.853   3.668   3.013  0.1433 -0.1453 -0.5161
 5004SOL    HW126471   2.794   3.743   2.999  2.1520  1.8530  1.7394
 5004SOL    HW226472   2.933   3.720   3.018 -0.3426  0.5279  0.2541
 5005SOL     OW26473   3.150   4.050  11.240  0.0593  0.0455 -0.7888
 5005SOL    HW126474   3.243   4.031  11.226 -0.0634  0.9300 -2.8137
 5005SOL    HW226475   3.120   3.960  11.255  2.2348 -0.4781  0.3745
 5006SOL     OW26476   2.940   2.710  10.703 -0.4050  0.3701  0.4068
 5006SOL    HW126477   3.032   2.722  10.682 -1.1119  1.6180 -1.9341
 5006SOL    HW226478   2.924   2.619  10.676  0.7782 -0.0224  1.0105
 5007SOL     OW26479   4.706   3.660   7.802 -0.1943 -0.4682  0.2239
 5007SOL    HW126480   4.619   3.698   7.805 -0.3820 -1.1040  2.3964
 5007SOL    HW226481   0.030   3.715   7.860 -0.8559 -0.0335  0.3910
 5008SOL     OW26482   0.756   0.185  11.048  0.1264 -0.2374 -0.5492
 5008SOL    HW126483   0.837   0.199  11.097 -0.1197  1.7142 -0.7084
 5008SOL    HW226484   0.723   0.105  11.089 -1.5684  1.2825  1.0065
 5009SOL     OW26485   2.482   1.662   6.954 -0.2322 -0.2176 -0.7416
 5009SOL    HW126486   2.526   1.742   6.983  0.2460 -0.0567 -1.8996
 5009SOL    HW226487   2.511   1.661   6.863  0.9535  0.3219 -0.3749
 5010SOL     OW26488   3.149   2.970   3.650 -0.4618 -0.3269  0.2885
 5010SOL    HW126489   3.066   2.924   3.637  0.1169 -0.6596 -2.2509
 5010SOL    HW226490   3.191   2.915   3.716  1.1013  0.9718  0.3559
 5011SOL     OW26491   0.617   4.438   6.301  0.4267  0.7024 -0.1337
 5011SOL    HW126492   0.564   4.495   6.245 -0.5465 -1.4384 -1.3771
 5011SOL    HW226493   0.672   4.388   6.241 -1.4763  1.5198 -2.5538
 5012SOL     OW26494   2.965   3.839   6.705  0.2880 -0.5299  0.1569
 5012SOL    HW126495   2.965   3.930   6.733 -1.2058  0.6275 -3.5304
 5012SOL    HW226496   2.931   3.791   6.780  0.1022 -2.1229 -0.9483
 5013SOL     OW26497   1.325   4.302   7.935 -0.3712 -0.6049 -0.1883
 5013SOL    HW126498   1.262   4.300   8.006 -0.7633 -0.2142 -0.5297
 5013SOL    HW226499   1.363   4.214   7.930 -1.1743 -0.9393 -0.5150
 5014SOL     OW26500   1.919   3.730   6.542 -0.6216 -0.5626 -0.4359
 5014SOL    HW126501   1.827   3.754   6.542 -0.3288  0.5439  0.6379
 5014SOL    HW226502   1.931   3.677   6.620 -1.8325  0.8487  0.7013
 5015SOL     OW26503   1.987   0.892   1.039 -0.5675 -0.1791  0.0137
 5015SOL    HW126504   2.033   0.809   1.024 -1.5259 -0.5381 -0.9620
 5015SOL    HW226505   2.051   0.947   1.084 -1.0069  1.5374 -1.4502
 5016SOL     OW26506   0.373   4.180   3.691  0.0045  1.1088  0.7778
 5016SOL    HW126507   0.432   4.152   3.761 -0.5844 -1.1478  0.3757
 5016SOL    HW226508   0.299   4.211   3.744  2.4025  2.1571  3.5058
 5017SOL     OW26509   1.409   2.111   6.104  0.3113  0.0630 -0.1320
 5017SOL    HW126510   1.348   2.070   6.043  0.7681  0.3763 -0.7971
 5017SOL    HW226511   1.494   2.110   6.059  1.7008 -1.2284  2.5164
 5018SOL     OW26512   0.807   0.338   7.631 -0.0430 -0.1069 -0.3558
 5018SOL    HW126513   0.865   0.274   7.591  1.5060 -0.8635  3.0817
 5018SOL    HW226514   0.722   0.313   7.593 -0.2060  1.6426 -1.1471
 5019SOL     OW26515   4.231   1.270   3.353 -0.3232  0.3355  0.3613
 5019SOL    HW126516   4.239   1.195   3.294  1.1753  0.9594 -0.2070
 5019SOL    HW226517   4.164   1.325   3.313  0.0147  0.7031  0.3032
 5020SOL     OW26518   4.270   0.672   3.846  0.5697  0.5573 -0.6617
 5020SOL    HW126519   4.272   0.597   3.905  1.4072 -0.2556 -1.7118
 5020SOL    HW226520   4.241   0.626   3.767 -2.0793  0.3440  0.4652
 5021SOL     OW26521   4.521   2.150   6.488 -0.0285 -0.7937  0.5345
 5021SOL    HW126522   4.464   2.173   6.414  2.0063  1.9548 -0.2064
 5021SOL    HW226523   4.574   2.229   6.495  0.3219 -1.0722  0.9879
 5022SOL     OW26524   4.628   0.687  13.041  0.1906  0.3088 -0.0743
 5022SOL    HW126525   4.605   0.739  12.964  1.1663 -0.6646 -1.0153
 5022SOL    HW226526   4.607   0.751  13.109  1.5757  0.4028  0.2626
 5023SOL     OW26527   4.485   1.066  12.114 -0.5550  0.1961  0.4621
 5023SOL    HW126528   4.555   1.070  12.048 -0.0514 -1.9725  0.8460
 5023SOL    HW226529   4.550   1.067  12.185 -2.2249 -0.3696  2.0062
 5024SOL     OW26530   1.760   4.417   7.874 -0.5844 -0.1227  0.1991
 5024SOL    HW126531   1.727   4.420   7.784 -0.6730 -0.2136  0.2276
 5024SOL    HW226532   1.833   4.356   7.881 -0.4740  0.0577  0.6543
 5025SOL     OW26533   4.385   2.705   4.558  0.0122  0.2172  0.1662
 5025SOL    HW126534   4.387   2.688   4.463  0.8894 -1.2569  0.4362
 5025SOL    HW226535   4.291   2.704   4.574 -0.4243  0.8135 -2.3491
 5026SOL     OW26536   2.953   3.760   5.616 -0.1421  0.6225  0.1633
 5026SOL    HW126537   2.865   3.796   5.612 -0.5190 -0.3939 -0.6778
 5026SOL    HW226538   2.947   3.708   5.696 -0.2906 -0.2765 -0.4335
 5027SOL     OW26539   3.625   1.256   3.607  0.0869 -0.2369 -0.2696
 5027SOL    HW126540   3.718   1.250   3.627 -0.4777  2.8574  3.2620
 5027SOL    HW226541   3.592   1.256   3.697  0.4060 -1.8305 -0.1384
 5028SOL     OW26542   0.664   0.696   6.598 -0.7016  0.3731 -0.5302
 5028SOL    HW126543   0.631   0.610   6.625  0.3242  0.0257 -0.3538
 5028SOL    HW226544   0.699   0.665   6.514 -0.3789 -0.6481 -0.0245
 5029SOL     OW26545   3.015   3.325   5.659 -0.0691  0.2877  0.5179
 5029SOL    HW126546   2.997   3.369   5.576  1.6185  1.7932  0.9463
 5029SOL    HW226547   3.015   3.409   5.705 -0.4982  0.2907  0.5089
 5030SOL     OW26548   2.066   4.240   9.572  0.1559 -0.1495  0.1819
 5030SOL    HW126549   1.990   4.198   9.611 -0.5270  1.9879  1.1221
 5030SOL    HW226550   2.115   4.170   9.529 -0.7745 -0.0913 -0.9742
 5031SOL     OW26551   3.159   1.783  17.064 -1.0515  0.0273 -0.5333
 5031SOL    HW126552   3.107   1.863  17.069 -1.0883 -0.0829  0.8142
 5031SOL    HW226553   3.093   1.715  17.051  0.6296 -1.3764 -1.9483
 5032SOL     OW26554   2.871   3.535   8.910 -0.5348 -0.1639 -0.1487
 5032SOL    HW126555   2.959   3.569   8.928 -1.1693  3.5059 -3.8111
 5032SOL    HW226556   2.811   3.562   8.979 -1.9137  0.1853 -1.4598
 5033SOL     OW26557   2.612   0.386  16.086 -0.4686 -0.0627 -0.5296
 5033SOL    HW126558   2.682   0.323  16.108 -1.5023  0.0049  2.9365
 5033SOL    HW226559   2.673   0.453  16.055  0.4284 -0.1775  0.9506
 5034SOL     OW26560   0.564   0.392   2.366  0.2275  0.7384  0.1187
 5034SOL    HW126561   0.545   0.389   2.460  2.2817  0.4849  0.5329
 5034SOL    HW226562   0.494   0.335   2.335 -0.4284  1.8415 -0.4310
 5035SOL     OW26563   3.803   1.415   2.329 -0.3126 -0.0248  0.1796
 5035SOL    HW126564   3.750   1.428   2.250  1.0898  1.6600 -0.4876
 5035SOL    HW226565   3.840   1.504   2.328  1.2016 -0.6558  1.4766
 5036SOL     OW26566   0.922   4.003  14.748 -0.2208 -0.8869 -0.0682
 5036SOL    HW126567   0.909   4.048  14.832 -1.0486  0.9738 -1.2126
 5036SOL    HW226568   1.009   3.968  14.766 -0.6630 -1.3594  1.1662
 5037SOL     OW26569   1.451   1.868   2.594  0.0279  0.1337  0.1141
 5037SOL    HW126570   1.403   1.844   2.514  1.7529  2.5844 -1.6534
 5037SOL    HW226571   1.408   1.808   2.655 -1.6495 -0.2060 -1.3840
 5038SOL     OW26572   1.879   2.230  15.424 -0.3533 -0.0875  0.0880
 5038SOL    HW126573   1.833   2.209  15.343 -0.2448  0.0017  0.0039
 5038SOL    HW226574   1.799   2.242  15.475 -0.3460 -1.0243  0.3075
 5039SOL     OW26575   1.328   0.610   2.277 -0.1332 -1.1823 -0.1218
 5039SOL    HW126576   1.262   0.555   2.234 -1.9954 -0.5583  1.8991
 5039SOL    HW226577   1.278   0.691   2.265  0.5897 -0.5068  1.4138
 5040SOL     OW26578   2.797   0.655  16.059  0.5451  0.4186 -0.7158
 5040SOL    HW126579   2.750   0.729  16.021 -1.0308  0.0773  0.5709
 5040SOL    HW226580   2.860   0.654  15.986 -0.7154 -1.4400 -1.7934
 5041SOL     OW26581   1.591   1.630   0.332  0.6092 -0.2509  0.3781
 5041SOL    HW126582   1.593   1.701   0.267 -0.5584 -0.6376 -0.0783
 5041SOL    HW226583   1.684   1.607   0.333  0.4138 -1.1330 -0.9810
 5042SOL     OW26584   4.133   1.572   8.767 -0.5397 -0.4971 -0.2393
 5042SOL    HW126585   4.159   1.612   8.850 -1.1366  0.1163 -0.3467
 5042SOL    HW226586   4.125   1.649   8.710 -0.0478  0.0511  0.4337
 5043SOL     OW26587   3.473   1.518   0.050  0.1912  0.8159  0.7333
 5043SOL    HW126588   3.478   1.589   0.114 -1.0242  0.0831  1.6373
 5043SOL    HW226589   3.395   1.546   0.001  0.7595 -0.6223 -1.0171
 5044SOL     OW26590   0.686   0.858  17.551  0.5092 -0.6238  0.3504
 5044SOL    HW126591   0.730   0.896  17.475  1.1665 -1.2883  0.4009
 5044SOL    HW226592   0.708   0.923  17.617  0.2753 -0.3840  0.1935
 5045SOL     OW26593   1.293   3.991   3.667  0.1925 -0.2984 -0.0575
 5045SOL    HW126594   1.307   4.054   3.738  0.2990 -0.3622 -0.0209
 5045SOL    HW226595   1.380   3.988   3.627  1.1916  0.5638  2.0116
 5046SOL     OW26596   1.048   3.589   3.916  0.3660 -0.3721 -0.1708
 5046SOL    HW126597   1.032   3.550   3.830  1.2110 -0.8551 -0.1077
 5046SOL    HW226598   1.107   3.661   3.894 -2.0400  1.8071  0.4944
 5047SOL     OW26599   2.077   1.148   2.511 -0.4669  0.2985 -0.2735
 5047SOL    HW126600   2.078   1.077   2.447  1.6814  2.4130 -2.5944
 5047SOL    HW226601   2.154   1.128   2.563 -1.4779  1.1174  1.5430
 5048SOL     OW26602   4.228   4.174   6.039 -0.4704  0.1164  0.5019
 5048SOL    HW126603   4.241   4.268   6.050  0.9075  0.1809 -1.8408
 5048SOL    HW226604   4.294   4.135   6.096  0.5712  1.0556 -0.0804
 5049SOL     OW26605   3.567   1.364  12.760  0.3057  0.0671 -0.1693
 5049SOL    HW126606   3.633   1.338  12.824 -1.7859 -0.3653  1.7946
 5049SOL    HW226607   3.481   1.332  12.787  0.1972  1.3564  0.9711
 5050SOL     OW26608   3.824   2.264   3.860  0.7678  0.0301  0.3953
 5050SOL    HW126609   3.819   2.323   3.935 -1.3697  0.6453 -0.2496
 5050SOL    HW226610   3.918   2.245   3.854  0.7626  0.1430 -0.0323
 5051SOL     OW26611   2.973   4.266  17.111  0.0618 -0.4750  0.3694
 5051SOL    HW126612   2.882   4.268  17.079  1.0150  3.4917 -2.0711
 5051SOL    HW226613   3.015   4.275  17.025 -0.0328 -1.9565  0.1717
 5052SOL     OW26614   0.586   1.333   1.983  0.7874 -0.7190  0.2992
 5052SOL    HW126615   0.645   1.406   2.005  1.7327 -1.3358 -0.2175
 5052SOL    HW226616   0.578   1.276   2.059 -0.6416  1.8300  2.0855
 5053SOL     OW26617   2.282   1.766  16.390 -0.5369  0.2775  0.2208
 5053SOL    HW126618   2.279   1.793  16.482  1.2632  2.0745 -0.2557
 5053SOL    HW226619   2.339   1.833  16.353 -2.1113  0.5678 -1.6695
 5054SOL     OW26620   3.382   2.983  14.226 -0.3054 -0.0353 -0.2317
 5054SOL    HW126621   3.323   2.911  14.203 -2.1816  1.5406 -0.3977
 5054SOL    HW226622   3.445   2.938  14.282 -0.7905  0.2611  0.5491
 5055SOL     OW26623   2.027   1.238   1.011  0.0092  0.2820  0.5642
 5055SOL    HW126624   2.072   1.171   1.064  0.6525  0.1180 -0.1803
 5055SOL    HW226625   2.013   1.194   0.926 -2.1916  1.4928  0.3210
 5056SOL     OW26626   3.084   1.387   4.080  0.1550  0.4018  0.0165
 5056SOL    HW126627   3.012   1.325   4.074 -1.3071  2.1393 -0.5118
 5056SOL    HW226628   3.086   1.412   4.173 -2.0208 -3.2845  1.0463
 5057SOL     OW26629   4.529   1.140   5.402 -0.0143 -0.3344  0.0901
 5057SOL    HW126630   4.461   1.182   5.351  0.6328  1.8672  1.0545
 5057SOL    HW226631   4.500   1.049   5.394 -0.4739 -0.2454  0.7513
 5058SOL     OW26632   0.697   2.176   4.958  0.3752  0.2020 -0.1143
 5058SOL    HW126633   0.774   2.230   4.942  0.6948 -0.5113 -0.9801
 5058SOL    HW226634   0.728   2.085   4.962  0.5479  0.1819 -1.9336
 5059SOL     OW26635   4.527   1.703   5.955  0.3895  0.8539 -0.1152
 5059SOL    HW126636   4.492   1.712   6.044 -0.1979 -1.8673 -0.0514
 5059SOL    HW226637   4.484   1.618   5.942  1.1044  0.2433  1.3837
 5060SOL     OW26638   3.066   0.040   8.577 -0.4308  0.2289  0.2078
 5060SOL    HW126639   3.153   0.002   8.583 -0.6642 -0.1668  1.2308
 5060SOL    HW226640   3.020   4.691   8.611  1.5309 -0.8848  0.3310
 5061SOL     OW26641   0.757   3.453   3.869  0.3342 -0.2554  0.7498
 5061SOL    HW126642   0.803   3.507   3.806  1.5698 -1.0009  1.0128
 5061SOL    HW226643   0.768   3.506   3.948  0.8592 -0.3704  0.7545
 5062SOL     OW26644   4.410   2.078   3.023  0.3489 -0.5901 -0.4190
 5062SOL    HW126645   4.332   2.030   3.050  1.3295 -1.6960  0.4598
 5062SOL    HW226646   4.463   2.096   3.101  2.2922 -2.5427 -1.2729
 5063SOL     OW26647   3.792   1.474   5.269  0.1764  0.3813  0.3560
 5063SOL    HW126648   3.715   1.443   5.317  0.4423  1.4722  1.4730
 5063SOL    HW226649   3.778   1.568   5.266  0.0578  0.3566  0.1267
 5064SOL     OW26650   2.012   2.568   5.782 -0.4776 -0.7604 -0.0471
 5064SOL    HW126651   2.038   2.659   5.800  2.9739 -2.5153  3.8495
 5064SOL    HW226652   1.985   2.562   5.690  3.1343  0.2997 -1.1474
 5065SOL     OW26653   4.526   0.760   5.049 -0.3497  0.1082 -0.2388
 5065SOL    HW126654   4.558   0.677   5.013 -1.1770  0.1631 -1.1167
 5065SOL    HW226655   4.473   0.724   5.120 -3.3486  2.0127 -1.4858
 5066SOL     OW26656   2.454   1.707   2.588 -0.0798  0.1039  0.5982
 5066SOL    HW126657   2.497   1.663   2.660 -1.7221 -1.0025  0.9119
 5066SOL    HW226658   2.364   1.731   2.613 -0.1378 -0.5864  1.0330
 5067SOL     OW26659   4.022   0.360  14.360 -0.2276  0.4923  0.2021
 5067SOL    HW126660   4.021   0.312  14.442 -0.2882 -3.3719 -2.0553
 5067SOL    HW226661   4.014   0.287  14.298  2.5822  0.4492 -0.1169
 5068SOL     OW26662   3.499   2.587  16.802 -0.6307 -0.5720  0.1391
 5068SOL    HW126663   3.550   2.523  16.754  0.7074  1.1822 -0.7783
 5068SOL    HW226664   3.561   2.654  16.773 -1.3963 -0.1814 -0.5913
 5069SOL     OW26665   3.174   3.226   8.455 -0.0330  0.0870 -0.0678
 5069SOL    HW126666   3.096   3.282   8.446 -1.1588 -1.7153 -1.3597
 5069SOL    HW226667   3.247   3.284   8.433  0.7029 -1.2316 -1.0446
 5070SOL     OW26668   1.648   0.812   8.102  0.2658  0.0952  0.0712
 5070SOL    HW126669   1.609   0.835   8.186  0.4422 -0.3802  0.2887
 5070SOL    HW226670   1.586   0.836   8.033 -2.0484 -0.4040  2.0009
 5071SOL     OW26671   4.357   0.537   9.979  0.2126 -0.2397  0.7859
 5071SOL    HW126672   4.428   0.477   9.959  1.8097  1.8667  0.2041
 5071SOL    HW226673   4.368   0.553  10.072  2.7793 -1.6582  0.7063
 5072SOL     OW26674   0.753   0.320   1.720  0.0423 -0.2056 -0.0257
 5072SOL    HW126675   0.701   0.365   1.787  1.5710 -1.8830  2.2661
 5072SOL    HW226676   0.760   0.390   1.656 -1.3226  0.3263  0.3885
 5073SOL     OW26677   3.516   0.532   1.731  0.2190 -0.1055 -0.5365
 5073SOL    HW126678   3.497   0.442   1.758  0.6791  0.2184  0.8844
 5073SOL    HW226679   3.426   0.558   1.713 -0.5119 -2.7545 -0.7246
 5074SOL     OW26680   0.099   0.115   9.760  0.2988 -0.4244 -0.2091
 5074SOL    HW126681   0.038   0.045   9.786 -0.8799  1.8238  3.0015
 5074SOL    HW226682   0.039   0.180   9.724 -0.0667 -0.3986  0.4516
 5075SOL     OW26683   2.893   2.253   6.052  0.2659  0.1419 -0.4029
 5075SOL    HW126684   2.907   2.298   6.135 -3.2521  1.7883 -0.6937
 5075SOL    HW226685   2.953   2.180   6.061  0.2115  0.0974 -0.3999
 5076SOL     OW26686   1.748   0.617  15.388  0.3377 -0.1780 -0.9862
 5076SOL    HW126687   1.671   0.666  15.417  0.5077 -1.3494  1.4048
 5076SOL    HW226688   1.729   0.590  15.298  1.3818 -1.7355 -0.7431
 5077SOL     OW26689   3.348   0.287   7.467 -0.2572  0.2709  0.3409
 5077SOL    HW126690   3.436   0.288   7.504  0.6371 -1.6841 -1.7620
 5077SOL    HW226691   3.356   0.252   7.378  0.8453 -1.2141  1.0342
 5078SOL     OW26692   3.434   3.259  13.444  0.3065 -0.0438 -1.0737
 5078SOL    HW126693   3.444   3.330  13.507  2.1873 -0.3190 -1.0579
 5078SOL    HW226694   3.342   3.271  13.421 -0.3790  1.3189  2.3672
 5079SOL     OW26695   1.419   3.021   7.462  0.2354 -0.1130 -0.3285
 5079SOL    HW126696   1.486   2.986   7.404 -1.3251  0.2970 -2.3653
 5079SOL    HW226697   1.353   3.047   7.399  0.5873 -0.8480 -0.9912
 5080SOL     OW26698   0.057   4.233  17.295  0.3600  0.3106  0.1103
 5080SOL    HW126699   0.077   4.318  17.335  2.2985  0.8436 -1.9629
 5080SOL    HW226700   0.005   4.186  17.359  1.0734 -1.2613 -0.4624
 5081SOL     OW26701   3.589   1.183   7.384  0.6156 -0.1276  0.1676
 5081SOL    HW126702   3.668   1.129   7.376  0.2692 -0.8766  1.8715
 5081SOL    HW226703   3.532   1.122   7.336  0.8648 -1.3029  1.3763
 5082SOL     OW26704   4.126   4.016   4.379  0.1178 -0.3396  0.0623
 5082SOL    HW126705   4.174   3.939   4.346 -2.2002 -1.8355  0.1700
 5082SOL    HW226706   4.156   4.017   4.470  1.0810  0.6356 -0.2621
 5083SOL     OW26707   1.124   1.583   3.494 -0.9268 -0.0799 -0.3093
 5083SOL    HW126708   1.190   1.651   3.483 -0.4945 -0.7661 -1.8981
 5083SOL    HW226709   1.089   1.613   3.578 -1.0765 -2.8339  0.5999
 5084SOL     OW26710   1.463   1.020  10.639 -0.0281 -0.2649 -0.0428
 5084SOL    HW126711   1.538   1.066  10.600 -0.9077  0.9756 -0.2426
 5084SOL    HW226712   1.483   0.931  10.609 -1.5932 -0.3484 -0.8358
 5085SOL     OW26713   3.092   1.839  17.574 -0.4759  0.3804 -0.4778
 5085SOL    HW126714   3.167   1.885  17.536 -0.4120  0.0045 -0.7975
 5085SOL    HW226715   3.018   1.888  17.536 -0.0716 -0.0602 -1.8253
 5086SOL     OW26716   2.349   0.731  14.819 -0.0248 -0.0279 -0.1106
 5086SOL    HW126717   2.338   0.638  14.840 -2.2210  0.2515  0.0089
 5086SOL    HW226718   2.325   0.777  14.900  0.5085 -0.7138  0.4248
 5087SOL     OW26719   0.155   1.412   7.976 -0.1867 -0.0732 -0.2394
 5087SOL    HW126720   0.220   1.342   7.982  0.5863  0.5571 -1.5317
 5087SOL    HW226721   0.101   1.390   8.053  0.2022  0.5463  0.2156
 5088SOL     OW26722   1.915   3.944   9.612  0.1788 -0.0838  0.2542
 5088SOL    HW126723   2.000   3.901   9.610  0.2772  0.1267 -0.0624
 5088SOL    HW226724   1.880   3.912   9.529  0.3937  1.9380 -0.6373
 5089SOL     OW26725   0.348   1.471  16.605  0.3821 -0.6013 -0.3938
 5089SOL    HW126726   0.266   1.500  16.645  1.8381  0.0874  2.1131
 5089SOL    HW226727   0.350   1.530  16.530 -2.5182  0.0811  0.0707
 5090SOL     OW26728   1.508   1.350   8.940 -0.4925  0.5076  0.2301
 5090SOL    HW126729   1.471   1.322   8.857  1.8106 -3.3877  0.5173
 5090SOL    HW226730   1.503   1.445   8.938 -0.6678  0.5263  1.4077
 5091SOL     OW26731   0.065   3.580   4.946  0.0732  0.3132 -0.1535
 5091SOL    HW126732   0.056   3.551   4.855  2.1132 -0.3314 -0.1521
 5091SOL    HW226733   0.160   3.573   4.949  0.1318  1.7515  1.9213
 5092SOL     OW26734   4.075   3.872  13.093 -0.1311 -0.0102  0.1303
 5092SOL    HW126735   4.001   3.846  13.149  0.5086 -0.3639  0.8067
 5092SOL    HW226736   4.111   3.784  13.084 -1.1141 -0.4605  0.6121
 5093SOL     OW26737   4.518   0.980   7.503 -0.1995  0.6725 -0.1926
 5093SOL    HW126738   4.532   0.952   7.594 -0.4273  1.3715  0.0556
 5093SOL    HW226739   4.600   0.950   7.464 -1.3768 -0.6822 -1.6505
 5094SOL     OW26740   2.682   2.015   0.440 -0.1183  0.3158 -0.1450
 5094SOL    HW126741   2.708   2.042   0.528 -0.8019  1.9802 -0.4564
 5094SOL    HW226742   2.618   2.084   0.423 -2.5894 -1.3959  2.1311
 5095SOL     OW26743   4.044   2.313  17.519  0.4382  0.2845  0.2991
 5095SOL    HW126744   4.060   2.374  17.591  0.7141  1.0058 -0.3649
 5095SOL    HW226745   4.021   2.238  17.574  1.7092 -0.3244 -0.0074
 5096SOL     OW26746   1.418   0.477   2.974 -0.3227 -0.3156  0.4923
 5096SOL    HW126747   1.385   0.549   3.028  1.1281  0.2507  0.6210
 5096SOL    HW226748   1.495   0.520   2.939 -0.3641  0.4100  1.2960
 5097SOL     OW26749   1.861   3.203  17.526  0.6830 -0.0940  0.5116
 5097SOL    HW126750   1.767   3.218  17.516  0.7990  1.4304  1.8075
 5097SOL    HW226751   1.886   3.145  17.454  0.0856  2.1366 -1.4901
 5098SOL     OW26752   0.453   3.292   5.007  0.1251  0.5055 -0.4737
 5098SOL    HW126753   0.435   3.265   4.916 -1.9765 -1.7508  0.5970
 5098SOL    HW226754   0.429   3.216   5.060  0.1686  0.3682 -0.6497
 5099SOL     OW26755   1.584   3.407   2.071 -0.3683 -0.5365 -0.8667
 5099SOL    HW126756   1.612   3.484   2.021  1.0891  1.1523  2.5831
 5099SOL    HW226757   1.646   3.340   2.043  1.9314  0.8415  0.9046
 5100SOL     OW26758   2.820   0.299   6.886  1.2251 -0.5236  0.1787
 5100SOL    HW126759   2.772   0.353   6.950  0.1926  0.1787 -1.1906
 5100SOL    HW226760   2.800   0.335   6.800  0.1682 -0.7461  0.3308
 5101SOL     OW26761   4.529   0.862   2.285  0.2052 -0.7224  0.3511
 5101SOL    HW126762   4.550   0.909   2.205  0.7368  0.3169  1.0998
 5101SOL    HW226763   4.434   0.858   2.277  0.2024  1.2869 -0.5331
 5102SOL     OW26764   1.918   3.536   2.932  0.1272  0.0122 -0.2037
 5102SOL    HW126765   1.977   3.605   2.901  1.2750 -1.1975 -0.7072
 5102SOL    HW226766   1.909   3.481   2.854  0.0879  1.9291 -1.5467
 5103SOL     OW26767   2.168   2.788   6.049  0.3615 -0.1828  0.6387
 5103SOL    HW126768   2.220   2.711   6.027 -0.5670 -0.6214 -0.0114
 5103SOL    HW226769   2.144   2.766   6.139 -1.6802  1.7559  0.5653
 5104SOL     OW26770   0.917   2.905   9.003  0.3432  0.1415 -0.6469
 5104SOL    HW126771   0.884   2.825   9.045 -1.2495  0.8341 -0.5616
 5104SOL    HW226772   0.833   2.951   9.003  1.1476  1.5982  0.6945
 5105SOL     OW26773   1.381   0.517  14.795 -0.2035 -0.5962 -0.7786
 5105SOL    HW126774   1.410   0.455  14.861 -1.5577  1.1536  1.4474
 5105SOL    HW226775   1.295   0.483  14.771  0.3682 -2.0676 -0.7352
 5106SOL     OW26776   1.265   1.928   4.500  0.4307  1.1678 -0.1232
 5106SOL    HW126777   1.339   1.982   4.526  1.8628 -1.7383  1.8859
 5106SOL    HW226778   1.307   1.849   4.465  0.0263  0.7816  0.2551
 5107SOL     OW26779   2.312   3.970   3.954  0.2183  0.2460 -0.1927
 5107SOL    HW126780   2.323   4.056   3.994 -1.7331  0.0494  0.7783
 5107SOL    HW226781   2.370   3.980   3.878 -0.9965  1.1681 -1.0013
 5108SOL     OW26782   4.332   4.598   9.148  0.2614  0.0006 -0.1028
 5108SOL    HW126783   4.377   4.673   9.187  0.6459 -0.0597 -0.4274
 5108SOL    HW226784   4.399   4.554   9.096  0.7750  1.6476 -0.8343
 5109SOL     OW26785   4.468   0.910   5.729 -0.0418  0.2859 -0.4633
 5109SOL    HW126786   4.493   0.853   5.656 -0.5054  1.0615 -1.2231
 5109SOL    HW226787   4.462   0.998   5.692 -1.2758  0.9725  1.3832
 5110SOL     OW26788   3.937   0.764   2.139 -0.3552 -0.2128 -0.3021
 5110SOL    HW126789   4.021   0.719   2.129 -1.4634 -2.0856 -1.1882
 5110SOL    HW226790   3.879   0.693   2.169  0.4919 -0.6265  0.3713
 5111SOL     OW26791   3.461   3.180   0.793  0.6225  0.3177  0.4273
 5111SOL    HW126792   3.500   3.181   0.705  1.8931  3.2666  1.0146
 5111SOL    HW226793   3.437   3.272   0.801  0.2111  0.3333 -0.9454
 5112SOL     OW26794   3.695   4.117   8.588  0.3571 -0.2317  0.7235
 5112SOL    HW126795   3.650   4.098   8.670  0.3579 -0.6092  0.6396
 5112SOL    HW226796   3.666   4.044   8.533  0.9561  0.0118  0.0863
 5113SOL     OW26797   1.060   4.027   9.562  0.4672 -0.1811 -0.5802
 5113SOL    HW126798   1.092   4.040   9.472  1.6029 -1.1725 -0.3085
 5113SOL    HW226799   1.118   3.962   9.601  0.6889  1.8738  2.5520
 5114SOL     OW26800   1.153   3.818   7.135  0.2761  0.3923 -0.3371
 5114SOL    HW126801   1.188   3.816   7.046 -0.1992  0.6767 -0.5314
 5114SOL    HW226802   1.231   3.844   7.184  0.5709  0.6527 -0.9506
 5115SOL     OW26803   3.105   4.204   7.937  0.1799  0.0019  0.0502
 5115SOL    HW126804   3.069   4.275   7.989 -0.0010  0.0419 -0.1290
 5115SOL    HW226805   3.189   4.199   7.982  0.2728  1.4327  0.0302
 5116SOL     OW26806   3.213   1.018  13.974 -0.6206  0.2339  0.3581
 5116SOL    HW126807   3.219   1.005  14.068 -1.2181 -0.3404  0.3140
 5116SOL    HW226808   3.122   0.992  13.959  0.0863 -1.4274 -1.0200
 5117SOL     OW26809   3.786   4.112   8.309 -0.1532 -0.0818  0.1335
 5117SOL    HW126810   3.739   4.031   8.289  0.7097 -0.0711 -1.9176
 5117SOL    HW226811   3.810   4.092   8.400  0.2892  1.1623  0.2944
 5118SOL     OW26812   3.288   2.587   1.932 -0.4748 -0.0870 -0.3396
 5118SOL    HW126813   3.205   2.562   1.891 -0.8183  1.5232 -0.6373
 5118SOL    HW226814   3.298   2.660   1.870  2.2527 -0.7937 -0.7368
 5119SOL     OW26815   1.418   3.528   8.920  0.0804  0.3751  0.8392
 5119SOL    HW126816   1.453   3.515   9.008 -0.4280  0.4002  1.0451
 5119SOL    HW226817   1.402   3.622   8.916  0.3793  0.4140  0.5994
 5120SOL     OW26818   4.297   0.170   5.794 -0.2691  0.1251 -0.0792
 5120SOL    HW126819   4.388   0.155   5.765 -0.0268 -0.3769  0.9246
 5120SOL    HW226820   4.299   0.264   5.779  0.5541  0.2359  0.7241
 5121SOL     OW26821   0.811   3.597   8.450 -0.7441 -0.6642 -0.4782
 5121SOL    HW126822   0.821   3.689   8.424 -0.9524 -1.3636 -3.0191
 5121SOL    HW226823   0.722   3.596   8.485 -0.1230  2.3863  1.1785
 5122SOL     OW26824   2.494   3.365  11.821  0.1111 -0.2297 -0.1400
 5122SOL    HW126825   2.505   3.454  11.788  0.4004  0.1362  0.9545
 5122SOL    HW226826   2.575   3.365  11.872  2.1664  2.4371 -3.4035
 5123SOL     OW26827   2.821   2.023   2.664 -0.0942  0.2421 -0.0203
 5123SOL    HW126828   2.857   2.099   2.710  0.3074  0.5363 -0.8009
 5123SOL    HW226829   2.733   2.011   2.700 -0.2130 -3.1894 -1.4402
 5124SOL     OW26830   2.067   2.529  17.269 -0.1317  0.1058 -0.4795
 5124SOL    HW126831   2.033   2.618  17.275  3.1467  1.2291  1.5961
 5124SOL    HW226832   2.127   2.529  17.194  0.2388 -1.0560 -0.1904
 5125SOL     OW26833   0.267   2.269   5.012 -0.7920  1.1260  0.6572
 5125SOL    HW126834   0.326   2.290   4.940 -0.6695  0.6905  0.6306
 5125SOL    HW226835   0.226   2.190   4.978 -1.6030  2.1433 -0.7439
 5126SOL     OW26836   3.002   3.303   8.049  0.6795  0.3027 -0.3470
 5126SOL    HW126837   3.033   3.392   8.064 -0.6164  0.7320 -0.2334
 5126SOL    HW226838   3.035   3.284   7.961  0.1792  1.4748 -0.7844
 5127SOL     OW26839   0.277   0.242   8.162  0.2367 -0.7666  0.2741
 5127SOL    HW126840   0.351   0.283   8.205  0.6394 -1.7292  0.4955
 5127SOL    HW226841   0.312   0.153   8.158  1.5445 -0.1587 -1.8877
 5128SOL     OW26842   0.120   2.773   2.495 -0.3116  0.4613  0.4619
 5128SOL    HW126843   0.044   2.730   2.534  0.0871  0.7439  1.5557
 5128SOL    HW226844   0.096   2.864   2.511 -0.4159  0.8356 -1.8525
 5129SOL     OW26845   1.602   0.013  14.948  0.3688 -0.2728 -0.1472
 5129SOL    HW126846   1.616   4.647  14.958 -0.0015 -0.0578  2.3555
 5129SOL    HW226847   1.644   0.029  14.863 -1.4803  0.3530 -0.9543
 5130SOL     OW26848   1.433   0.669   5.583  0.2048 -0.3584 -0.1473
 5130SOL    HW126849   1.499   0.736   5.600  1.1389 -2.3659  4.1942
 5130SOL    HW226850   1.395   0.691   5.498  1.1048  0.4285 -0.3373
 5131SOL     OW26851   0.728   4.065   6.718  0.2197  0.1010  0.3113
 5131SOL    HW126852   0.774   3.992   6.676 -1.0994 -1.8215  2.1612
 5131SOL    HW226853   0.643   4.024   6.733  0.1677  0.2046  0.2938
 5132SOL     OW26854   0.996   3.686   8.009  0.1698  0.0768  0.1887
 5132SOL    HW126855   0.950   3.606   7.982  0.0968 -0.7501  2.7617
 5132SOL    HW226856   1.039   3.666   8.092 -1.6537 -1.5756  0.7393
 5133SOL     OW26857   0.486   0.707   4.610 -0.1044 -0.3917  0.4328
 5133SOL    HW126858   0.517   0.777   4.667 -1.2227  1.7534 -1.5679
 5133SOL    HW226859   0.557   0.644   4.621  1.5970  0.9056 -3.1279
 5134SOL     OW26860   2.918   1.098  14.842  0.1305 -0.6227 -0.5852
 5134SOL    HW126861   2.862   1.169  14.809 -2.1996 -1.9304  0.5407
 5134SOL    HW226862   2.949   1.150  14.916 -0.2699  1.0035 -1.5401
 5135SOL     OW26863   4.524   2.821   4.892 -0.4220 -0.1972 -0.6488
 5135SOL    HW126864   4.556   2.837   4.803  1.5377 -0.2020  0.0456
 5135SOL    HW226865   4.599   2.782   4.937  0.1515  0.4751 -1.0097
 5136SOL     OW26866   2.934   0.615   6.720 -0.3141  0.1221  0.5933
 5136SOL    HW126867   3.008   0.561   6.750  1.6371  0.9010 -2.8134
 5136SOL    HW226868   2.902   0.659   6.799 -2.3087 -0.8229  0.2892
 5137SOL     OW26869   4.171   4.644   7.721 -0.0911  0.0846 -0.1943
 5137SOL    HW126870   4.230   4.596   7.780 -2.5599 -0.5268  1.7767
 5137SOL    HW226871   4.121   4.689   7.788 -1.3288 -0.3245 -0.8563
 5138SOL     OW26872   2.640   4.208   5.427  0.4403  0.1060  0.7702
 5138SOL    HW126873   2.618   4.295   5.461 -0.2519 -0.1964  1.1011
 5138SOL    HW226874   2.569   4.155   5.464 -0.3242  1.3004  1.0378
 5139SOL     OW26875   3.477   2.777   4.975 -0.2486 -0.2160  0.2198
 5139SOL    HW126876   3.525   2.743   5.051 -0.5531 -0.6630  0.2092
 5139SOL    HW226877   3.486   2.707   4.911  0.1001 -1.9441  2.1653
 5140SOL     OW26878   3.354   2.675   4.246 -0.2705 -0.4515  0.4876
 5140SOL    HW126879   3.332   2.598   4.193  0.0953 -0.6022  0.5503
 5140SOL    HW226880   3.338   2.648   4.337 -1.7142  0.2976  0.4462
 5141SOL     OW26881   2.917   4.242  17.370  0.1071 -0.2014 -0.4255
 5141SOL    HW126882   2.940   4.235  17.277  0.6036 -0.9785 -0.2414
 5141SOL    HW226883   2.875   4.159  17.389  1.1170 -0.5011  0.5166
 5142SOL     OW26884   1.363   2.918   2.586 -0.3710 -0.5601  0.4972
 5142SOL    HW126885   1.444   2.869   2.572  0.4031  0.8854 -0.1517
 5142SOL    HW226886   1.362   2.982   2.514  1.0732 -1.5053 -0.3716
 5143SOL     OW26887   3.364   2.137   9.977  0.2266 -0.1524 -0.0694
 5143SOL    HW126888   3.443   2.189   9.962  2.2136 -3.0438  0.2981
 5143SOL    HW226889   3.397   2.049   9.995  0.7065  0.3270  1.4021
 5144SOL     OW26890   2.518   2.366   8.319 -1.2554  0.2244  0.0486
 5144SOL    HW126891   2.600   2.331   8.285 -0.6063  0.9042  0.9433
 5144SOL    HW226892   2.460   2.293   8.296 -1.2836  0.8232 -1.8157
 5145SOL     OW26893   1.473   0.799   7.455  0.3159  0.1944 -0.1947
 5145SOL    HW126894   1.526   0.821   7.532 -0.1739  2.4841 -0.5100
 5145SOL    HW226895   1.418   0.731   7.496  2.1950 -2.2106 -1.6462
 5146SOL     OW26896   4.004   4.096   1.477  0.8406 -0.0789  0.2629
 5146SOL    HW126897   4.014   4.176   1.425 -1.2482 -0.2747 -0.4034
 5146SOL    HW226898   3.945   4.045   1.422  0.9188  0.5388 -0.3929
 5147SOL     OW26899   0.399   3.642   2.399 -0.3970 -0.0482  0.4129
 5147SOL    HW126900   0.335   3.712   2.411  0.9304  1.2327  0.0776
 5147SOL    HW226901   0.463   3.675   2.336  0.2371 -2.1748 -0.0484
 5148SOL     OW26902   1.798   0.023   5.743  0.1560 -0.0965 -0.0235
 5148SOL    HW126903   1.836   4.663   5.745 -2.0044 -1.0431 -0.8780
 5148SOL    HW226904   1.759   0.035   5.829  2.6478 -0.1918  1.1334
 5149SOL     OW26905   0.155   1.544   2.732  0.3549  0.0756 -0.4522
 5149SOL    HW126906   0.078   1.575   2.683  0.0017 -2.2305 -1.3275
 5149SOL    HW226907   0.229   1.579   2.682  0.9100  0.5912  0.7137
 5150SOL     OW26908   2.270   3.043   4.238  0.2636 -0.3648 -0.0666
 5150SOL    HW126909   2.203   3.052   4.170 -0.4043  0.2197  0.6645
 5150SOL    HW226910   2.282   3.132   4.270 -0.5748 -0.2187 -0.1489
 5151SOL     OW26911   3.092   1.776   3.165  0.3125 -0.1554  0.1591
 5151SOL    HW126912   3.049   1.789   3.081  0.6372 -1.7479 -0.2602
 5151SOL    HW226913   3.052   1.851   3.209 -0.0883 -0.3876  0.1925
 5152SOL     OW26914   3.543   4.006   9.152  0.2798 -0.1946  0.1422
 5152SOL    HW126915   3.634   4.004   9.181  0.2354 -0.2158  0.2793
 5152SOL    HW226916   3.548   4.060   9.073 -1.4522 -0.2726 -0.0236
 5153SOL     OW26917   3.227   1.586   7.960  0.3798  0.3336  0.0180
 5153SOL    HW126918   3.193   1.514   8.014 -0.6647  0.7361 -0.1053
 5153SOL    HW226919   3.143   1.631   7.958 -0.6780 -1.6839 -0.4213
 5154SOL     OW26920   3.780   2.297   0.329  0.3040  0.5409  0.0394
 5154SOL    HW126921   3.749   2.384   0.355 -0.3908 -0.2123  1.7507
 5154SOL    HW226922   3.853   2.319   0.272  0.2517 -0.3661 -0.3699
 5155SOL     OW26923   0.773   1.186  12.160 -0.2258  0.9034  0.0057
 5155SOL    HW126924   0.817   1.261  12.201 -2.0177  3.3309 -2.5275
 5155SOL    HW226925   0.735   1.149  12.240  2.0719  0.6313  0.9697
 5156SOL     OW26926   1.792   2.234  10.718  0.2956  0.4521  0.0472
 5156SOL    HW126927   1.776   2.305  10.656  3.0157  0.6891 -0.4159
 5156SOL    HW226928   1.806   2.159  10.660 -0.4288 -0.6146  1.2618
 5157SOL     OW26929   2.750   4.118   1.041  0.1950  0.0065 -0.5568
 5157SOL    HW126930   2.681   4.144   1.102  1.0419  0.3914  0.2300
 5157SOL    HW226931   2.818   4.185   1.050 -1.0645  0.8390  2.8401
 5158SOL     OW26932   1.879   0.522   7.723  0.8562  0.1799  0.6652
 5158SOL    HW126933   1.959   0.556   7.762  0.9780 -1.3266  1.7161
 5158SOL    HW226934   1.894   0.540   7.630  0.5831  1.9473  0.9725
 5159SOL     OW26935   2.206   4.480   8.100  0.7168  0.1234 -0.7824
 5159SOL    HW126936   2.281   4.438   8.141 -0.9762 -1.2355  0.9162
 5159SOL    HW226937   2.161   4.518   8.176  1.1456  1.9367 -1.4427
 5160SOL     OW26938   1.313   0.089   4.445  0.5612 -0.7532  0.0793
 5160SOL    HW126939   1.405   0.070   4.462  0.1524 -1.1434  1.8136
 5160SOL    HW226940   1.283   0.108   4.533  1.0818  0.3924  0.0080
 5161SOL     OW26941   0.676   4.294   2.454 -0.3509  0.8181 -0.0660
 5161SOL    HW126942   0.622   4.333   2.523  0.3233 -0.1648  1.0111
 5161SOL    HW226943   0.753   4.276   2.508 -1.3888  1.2642  1.5531
 5162SOL     OW26944   1.726   1.174   4.159  0.0462  0.2581 -0.2055
 5162SOL    HW126945   1.648   1.196   4.110 -0.4995 -0.2001  0.4542
 5162SOL    HW226946   1.723   1.083   4.127  0.2885  0.6015 -1.1999
 5163SOL     OW26947   4.418   1.470   5.965 -0.2172 -0.1849 -0.2992
 5163SOL    HW126948   4.341   1.424   5.931 -0.0792 -0.2444 -0.5329
 5163SOL    HW226949   4.469   1.398   6.001  0.3752  0.1809 -0.4021
 5164SOL     OW26950   1.147   1.214   1.365 -0.5991  0.3434 -0.1613
 5164SOL    HW126951   1.143   1.221   1.270  1.7972 -1.4146 -0.4035
 5164SOL    HW226952   1.103   1.129   1.375  0.8023 -0.1215  2.0112
 5165SOL     OW26953   4.197   3.799   2.263 -0.2555 -0.2732  0.2476
 5165SOL    HW126954   4.293   3.801   2.267 -0.2759  0.0421  0.4942
 5165SOL    HW226955   4.173   3.885   2.297 -2.9532 -0.8074 -0.3075
 5166SOL     OW26956   0.875   3.634   3.687 -0.3659 -0.2005 -0.2819
 5166SOL    HW126957   0.911   3.723   3.689  0.5227 -0.4750 -3.5093
 5166SOL    HW226958   0.915   3.599   3.608 -0.9263  0.4641 -0.8612
 5167SOL     OW26959   1.671   2.376   2.885  0.0921 -0.1520  0.2247
 5167SOL    HW126960   1.601   2.431   2.849 -0.4987  0.2980  2.0904
 5167SOL    HW226961   1.684   2.418   2.970  0.2256  2.6551 -1.2045
 5168SOL     OW26962   0.847   1.307   8.088  0.3252  0.2687  0.3399
 5168SOL    HW126963   0.777   1.371   8.081  0.4799  0.6302  2.0046
 5168SOL    HW226964   0.797   1.229   8.064  0.7054  0.5462 -1.3833
 5169SOL     OW26965   0.943   0.178  11.236  0.4286  0.5093 -0.2826
 5169SOL    HW126966   0.951   0.083  11.245  0.0236  0.5322  0.3278
 5169SOL    HW226967   1.010   0.205  11.299  0.5835 -0.8034  0.1134
 5170SOL     OW26968   2.483   0.449  16.336 -0.5685  0.5693 -0.4535
 5170SOL    HW126969   2.501   0.422  16.246  1.7805 -0.3729  0.2773
 5170SOL    HW226970   2.428   0.381  16.375 -1.8712  2.0365  0.2354
 5171SOL     OW26971   1.918   4.442   5.508 -0.1605  0.2457 -0.0795
 5171SOL    HW126972   1.854   4.489   5.562  1.1503 -1.7517  3.2588
 5171SOL    HW226973   1.866   4.362   5.506  0.0331  0.0849  1.0754
 5172SOL     OW26974   1.149   1.056  12.346  0.2935  0.1957 -0.2246
 5172SOL    HW126975   1.100   0.977  12.372  0.4683  0.4439  0.8452
 5172SOL    HW226976   1.161   1.044  12.252 -0.4864  2.5401 -0.6256
 5173SOL     OW26977   2.437   1.608   5.329 -0.0897  0.1239  0.1553
 5173SOL    HW126978   2.476   1.532   5.286  1.8513  0.5670  1.1492
 5173SOL    HW226979   2.506   1.674   5.318  1.3590 -1.7313 -1.8700
 5174SOL     OW26980   0.114   1.635   7.774 -0.0412  0.0264 -0.1327
 5174SOL    HW126981   0.093   1.650   7.682  2.1908  1.1773 -0.4414
 5174SOL    HW226982   0.031   1.637   7.822 -0.6094  0.1975 -1.1374
 5175SOL     OW26983   0.381   2.812   5.290  0.1300  0.2935  0.2849
 5175SOL    HW126984   0.414   2.874   5.225  0.9383 -1.6183 -1.1285
 5175SOL    HW226985   0.398   2.858   5.373 -0.5800 -0.2698  0.7421
 5176SOL     OW26986   1.062   2.408  14.777  0.2972 -0.2548  0.0216
 5176SOL    HW126987   0.980   2.359  14.788  0.0026  0.2606  0.1414
 5176SOL    HW226988   1.111   2.383  14.855 -0.6120 -2.2966 -0.0450
 5177SOL     OW26989   1.225   0.086   1.986 -0.1893  0.5655  0.3886
 5177SOL    HW126990   1.219   0.099   2.080 -1.3126  0.8561  0.2822
 5177SOL    HW226991   1.143   0.120   1.949 -1.5625 -1.4410  1.5669
 5178SOL     OW26992   1.021   1.075   2.296 -0.3233 -0.0397  0.0337
 5178SOL    HW126993   0.972   1.103   2.218  0.3148 -0.7778 -0.6264
 5178SOL    HW226994   1.094   1.137   2.293  0.2020 -0.6940 -0.5742
 5179SOL     OW26995   1.524   3.162   6.045 -0.8415  0.0342 -0.0722
 5179SOL    HW126996   1.435   3.129   6.045 -0.2765 -1.4735 -1.5035
 5179SOL    HW226997   1.517   3.253   6.014  1.3329  0.0008 -0.6902
 5180SOL     OW26998   4.005   4.662   0.352 -0.4253 -0.3691 -0.2824
 5180SOL    HW126999   3.942   0.006   0.348  2.4000  1.9914 -1.7732
 5180SOL    HW227000   3.967   4.610   0.281 -1.1891  0.5592 -0.5532
 5181SOL     OW27001   2.191   1.066   1.160  0.0024 -0.1818  0.1897
 5181SOL    HW127002   2.244   1.144   1.173  1.9250 -1.2920 -1.0437
 5181SOL    HW227003   2.263   1.004   1.152 -0.6193 -0.7951 -0.7217
 5182SOL     OW27004   4.276   4.520   3.029 -0.3219 -0.3720 -0.2550
 5182SOL    HW127005   4.184   4.527   3.004 -0.2686  0.1640 -0.2974
 5182SOL    HW227006   4.267   4.458   3.101  1.3373 -1.2837 -0.8429
 5183SOL     OW27007   1.501   2.689   3.683 -0.0182 -0.5132 -0.3111
 5183SOL    HW127008   1.530   2.703   3.593 -2.3022 -0.0765 -0.9853
 5183SOL    HW227009   1.408   2.670   3.674 -0.1616  0.5426 -1.0939
 5184SOL     OW27010   0.266   3.462   2.227 -0.1758 -0.0469 -0.3534
 5184SOL    HW127011   0.358   3.474   2.203 -0.2106  1.3176  0.1710
 5184SOL    HW227012   0.230   3.531   2.170  0.8844  0.1298 -0.8095
 5185SOL     OW27013   0.658   3.783   9.425  0.0604  0.1804  0.3430
 5185SOL    HW127014   0.611   3.701   9.409  0.5008  0.0184 -0.1118
 5185SOL    HW227015   0.593   3.837   9.469  0.1030  1.1824 -0.8280
 5186SOL     OW27016   0.086   3.963  13.596 -0.1142 -0.8346 -0.1630
 5186SOL    HW127017   0.145   3.996  13.527  0.0452 -2.9442 -1.0226
 5186SOL    HW227018   0.152   3.959  13.665  0.6453  0.7256 -0.7723
 5187SOL     OW27019   0.427   4.155   9.325 -0.1946 -0.2563 -0.3128
 5187SOL    HW127020   0.474   4.099   9.386  0.4451  0.1221 -0.4610
 5187SOL    HW227021   0.345   4.171   9.372  1.2503  3.8502  0.7963
 5188SOL     OW27022   2.728   4.656  10.134 -0.0250 -0.1657 -0.1296
 5188SOL    HW127023   2.798   4.637  10.072  0.2866  0.1661  0.1219
 5188SOL    HW227024   2.663   4.598  10.094  0.1896  0.7289 -1.7582
 5189SOL     OW27025   3.832   3.447  13.363 -0.4225  0.4946  0.4253
 5189SOL    HW127026   3.869   3.371  13.407 -0.1826 -0.6234 -1.6956
 5189SOL    HW227027   3.753   3.410  13.324 -0.6954  0.6373  0.8467
 5190SOL     OW27028   1.124   3.521   5.492 -0.0219  0.2182  0.4580
 5190SOL    HW127029   1.123   3.461   5.417  1.8813  0.7959 -0.0379
 5190SOL    HW227030   1.078   3.591   5.445 -0.8577 -0.7860 -0.2230
 5191SOL     OW27031   0.308   4.345   1.752  0.3479 -0.3083  0.1442
 5191SOL    HW127032   0.254   4.328   1.829  1.3120 -0.9507  0.6609
 5191SOL    HW227033   0.274   4.284   1.686 -1.8542 -1.3207  2.2011
 5192SOL     OW27034   1.021   3.483   9.479 -0.1319 -0.1345 -0.3951
 5192SOL    HW127035   0.971   3.543   9.534  0.0959 -0.5928  0.3035
 5192SOL    HW227036   0.957   3.414   9.465  0.7844 -1.3247  1.2978
 5193SOL     OW27037   3.476   3.953   7.898  0.1980 -0.0021 -0.3450
 5193SOL    HW127038   3.396   3.959   7.951  0.4715 -0.0646  0.0731
 5193SOL    HW227039   3.448   3.920   7.813 -0.6373 -2.2464  0.8210
 5194SOL     OW27040   3.430   3.776  14.234  0.1746 -0.4120 -0.8296
 5194SOL    HW127041   3.496   3.812  14.294 -0.7883  1.0464 -0.6460
 5194SOL    HW227042   3.394   3.856  14.198 -0.0897 -1.1471 -2.1984
 5195SOL     OW27043   1.597   1.043   4.642 -0.1664 -0.3348  0.0543
 5195SOL    HW127044   1.568   1.060   4.553  0.8647 -0.0002 -0.2173
 5195SOL    HW227045   1.516   1.053   4.692  0.5873  0.8446  1.0517
 5196SOL     OW27046   2.084   1.188   3.734  0.0445 -0.4632  0.1336
 5196SOL    HW127047   2.164   1.135   3.730  2.4894  3.1129  1.4767
 5196SOL    HW227048   2.078   1.220   3.824  0.6784 -1.2959  0.4687
 5197SOL     OW27049   3.534   3.300  12.880  0.5688  0.1509  0.2692
 5197SOL    HW127050   3.494   3.342  12.804 -2.8479 -0.9500  1.4527
 5197SOL    HW227051   3.517   3.368  12.945  0.7205 -0.4697  0.9674
 5198SOL     OW27052   1.620   0.206   5.088 -0.2407  0.3454 -0.1025
 5198SOL    HW127053   1.572   0.124   5.082  0.6888 -0.2753  1.0901
 5198SOL    HW227054   1.685   0.196   5.018  2.4159 -0.0705  2.4335
 5199SOL     OW27055   2.235   4.550   8.392  1.2587 -0.6035  0.1882
 5199SOL    HW127056   2.143   4.574   8.395  0.7911 -2.3729 -0.2580
 5199SOL    HW227057   2.283   4.632   8.378  0.3305 -0.3331 -1.3032
 5200SOL     OW27058   3.823   4.677   1.085  0.2811  1.0339 -0.1091
 5200SOL    HW127059   3.787   4.680   0.996 -0.3024  0.1692  0.0994
 5200SOL    HW227060   3.791   0.027   1.130 -1.8086  1.4363 -2.2670
 5201SOL     OW27061   4.616   1.386   4.523  0.3257  0.1148  0.0733
 5201SOL    HW127062   4.712   1.386   4.524  0.3420 -1.9057 -2.2960
 5201SOL    HW227063   4.596   1.357   4.612 -3.5534  0.3774 -0.7399
 5202SOL     OW27064   2.533   4.323   3.108 -0.3640  0.3284 -0.1338
 5202SOL    HW127065   2.482   4.397   3.078  0.8568  1.5914  0.8746
 5202SOL    HW227066   2.464   4.267   3.143 -0.3681 -0.6679 -1.7571
 5203SOL     OW27067   1.949   0.975   0.172 -0.0338 -0.5987 -0.6136
 5203SOL    HW127068   1.927   1.067   0.158  2.8854  0.1254 -0.3776
 5203SOL    HW227069   2.004   0.986   0.249  2.0066 -2.8053 -1.7575
 5204SOL     OW27070   0.193   4.672   2.667  0.3475  0.1034  0.0936
 5204SOL    HW127071   0.170   0.031   2.701  0.7208 -1.4012  4.1349
 5204SOL    HW227072   0.153   4.616   2.733  0.3823 -0.9034 -0.7465
 5205SOL     OW27073   4.217   3.410   9.834 -0.6650  0.0636 -0.3692
 5205SOL    HW127074   4.304   3.443   9.809 -0.3076 -0.1945  0.5229
 5205SOL    HW227075   4.206   3.353   9.758  2.6040 -1.3941  0.2337
 5206SOL     OW27076   1.995   3.892   5.621  0.1671  0.0694  0.1672
 5206SOL    HW127077   1.933   3.941   5.676  1.1767  0.5280  0.8894
 5206SOL    HW227078   1.933   3.875   5.550  0.4913 -1.0882  0.1609
 5207SOL     OW27079   1.712   3.139  12.724 -0.0449  0.2827  0.0075
 5207SOL    HW127080   1.759   3.105  12.647 -1.2069  0.8745 -0.9639
 5207SOL    HW227081   1.658   3.061  12.734 -0.0385  0.0055 -2.0428
 5208SOL     OW27082   2.241   3.760   2.303  0.5332  0.5703  0.7024
 5208SOL    HW127083   2.252   3.668   2.327  0.0002  0.6695  1.3240
 5208SOL    HW227084   2.217   3.806   2.383  0.4070 -0.6374  1.3652
 5209SOL     OW27085   3.344   4.003  11.530  0.1711  0.0013  0.2115
 5209SOL    HW127086   3.432   3.982  11.563 -0.3509 -1.7658  0.4862
 5209SOL    HW227087   3.362   3.981  11.439 -2.2258  1.1299 -0.5414
 5210SOL     OW27088   4.143   1.103   3.153 -0.3213 -0.1174  0.1279
 5210SOL    HW127089   4.056   1.141   3.160 -1.2466 -1.7972 -2.2216
 5210SOL    HW227090   4.168   1.127   3.064 -0.1079  1.7543  0.6965
 5211SOL     OW27091   0.397   2.830  10.024 -0.7489 -0.0597 -0.2329
 5211SOL    HW127092   0.465   2.895  10.005 -0.2389 -0.4905  0.1045
 5211SOL    HW227093   0.439   2.769  10.084 -1.1508  0.0053  0.1119
 5212SOL     OW27094   2.098   2.901   5.797 -0.3367 -0.4540 -1.1415
 5212SOL    HW127095   2.158   2.884   5.869  0.5554 -0.8071 -1.9754
 5212SOL    HW227096   2.165   2.910   5.730  1.4960 -1.1700  0.5801
 5213SOL     OW27097   3.274   4.021  17.377  0.6330 -0.4738 -1.0193
 5213SOL    HW127098   3.259   4.058  17.290  1.4363 -1.3760 -1.5341
 5213SOL    HW227099   3.199   4.062  17.421 -0.3132 -0.6778 -2.4625
 5214SOL     OW27100   4.134   2.105   2.454 -0.4756 -0.3153  0.0638
 5214SOL    HW127101   4.057   2.078   2.504  0.4608  0.9328  2.2139
 5214SOL    HW227102   4.095   2.149   2.379 -2.2363 -0.6216  0.7974
 5215SOL     OW27103   3.283   1.227  14.833  0.2363 -0.1237 -0.4792
 5215SOL    HW127104   3.219   1.174  14.785  0.7455 -0.1788 -1.0994
 5215SOL    HW227105   3.324   1.161  14.889 -1.0900 -0.4225  0.1479
 5216SOL     OW27106   3.401   0.006   8.267 -0.1026  0.5132 -0.3075
 5216SOL    HW127107   3.404   0.063   8.189 -1.0144 -0.4579 -1.0455
 5216SOL    HW227108   3.459   4.659   8.249  1.1865  1.4544 -0.0958
 5217SOL     OW27109   3.642   4.638   9.212  0.6880 -0.2869 -0.2233
 5217SOL    HW127110   3.596   4.554   9.216  2.0499 -1.0349 -0.3795
 5217SOL    HW227111   3.685   4.649   9.297 -1.0151  0.0850  0.5922
 5218SOL     OW27112   2.249   2.785  11.013 -0.3957  0.3119 -0.6334
 5218SOL    HW127113   2.168   2.750  11.050 -0.5614  0.1827 -1.1212
 5218SOL    HW227114   2.226   2.874  10.986 -1.7125  0.1208 -0.1341
 5219SOL     OW27115   1.740   0.641   3.865 -0.0162  0.3436  0.4509
 5219SOL    HW127116   1.822   0.669   3.824  0.6259 -0.2616  1.3223
 5219SOL    HW227117   1.740   0.550   3.834 -2.7461 -0.0916  1.6583
 5220SOL     OW27118   0.632   2.679   5.711 -0.0183  0.4309  0.4867
 5220SOL    HW127119   0.568   2.736   5.753  0.1880 -1.4880  3.3905
 5220SOL    HW227120   0.588   2.684   5.626  0.2511  1.4430  0.4053
 5221SOL     OW27121   2.332   0.248   8.733  0.0090 -0.1205 -0.7052
 5221SOL    HW127122   2.351   0.276   8.643  1.2323 -0.1237 -0.4447
 5221SOL    HW227123   2.328   0.153   8.727 -1.7799 -0.2090  2.0209
 5222SOL     OW27124   3.895   4.175  14.650  0.2231  0.2736  0.2982
 5222SOL    HW127125   3.847   4.215  14.578  0.4464 -0.5672 -0.3156
 5222SOL    HW227126   3.826   4.114  14.676 -0.7207  1.9292  1.6646
 5223SOL     OW27127   0.855   4.135   8.804  0.1786  0.1661 -0.0888
 5223SOL    HW127128   0.932   4.090   8.838 -0.4210 -1.0639 -0.3692
 5223SOL    HW227129   0.810   4.161   8.885  2.7151 -1.6501  1.9110
 5224SOL     OW27130   0.267   0.488   3.239 -0.2797 -0.0730  0.1002
 5224SOL    HW127131   0.306   0.575   3.251  0.3614 -0.2532 -0.7650
 5224SOL    HW227132   0.215   0.501   3.160  0.6331 -0.6033 -0.5843
 5225SOL     OW27133   4.628   3.892   8.125  0.1766  0.3934  0.9003
 5225SOL    HW127134   4.639   3.850   8.211 -3.3957 -0.4304  0.9572
 5225SOL    HW227135   4.574   3.967   8.146 -2.8273 -0.9751 -1.8699
 5226SOL     OW27136   2.614   4.385   5.192  0.3243 -0.1022  0.6697
 5226SOL    HW127137   2.521   4.383   5.211  0.3335 -0.3602  0.6875
 5226SOL    HW227138   2.629   4.295   5.223  0.2260 -0.4475 -0.2598
 5227SOL     OW27139   3.712   0.604   3.940  0.3452 -0.1965 -0.2811
 5227SOL    HW127140   3.778   0.543   3.974  1.1288  0.2079 -1.0858
 5227SOL    HW227141   3.687   0.558   3.860 -0.6528 -0.2531  0.0616
 5228SOL     OW27142   3.158   4.193   6.443  0.3767  0.0144  0.5332
 5228SOL    HW127143   3.243   4.151   6.450 -0.6069 -2.3333 -1.4296
 5228SOL    HW227144   3.145   4.208   6.536 -0.3058  0.6034  0.3429
 5229SOL     OW27145   1.956   0.729   3.758  0.5716 -0.2830 -0.0183
 5229SOL    HW127146   2.007   0.798   3.801 -1.0488  1.2995 -0.6567
 5229SOL    HW227147   1.980   0.750   3.667  1.1559  2.6937  0.8209
 5230SOL     OW27148   3.918   1.287   0.861 -0.2859  0.5237  0.2094
 5230SOL    HW127149   3.854   1.336   0.809 -0.0082 -0.7598 -1.3458
 5230SOL    HW227150   3.983   1.355   0.876 -1.7926  1.8332  0.8252
 5231SOL     OW27151   1.781   2.709   8.681 -0.4956  0.4180  0.1152
 5231SOL    HW127152   1.869   2.697   8.647 -0.2540  3.1908 -0.2148
 5231SOL    HW227153   1.754   2.793   8.643  1.1529  0.2960 -1.3242
 5232SOL     OW27154   4.557   3.844  10.640 -0.5260  0.1286  0.4464
 5232SOL    HW127155   4.631   3.795  10.604 -1.4106 -0.6788 -0.2810
 5232SOL    HW227156   4.607   3.912  10.686  0.2101 -1.6644  2.3044
 5233SOL     OW27157   2.655   2.368   4.671 -0.4461  0.2484 -0.3489
 5233SOL    HW127158   2.592   2.414   4.726 -2.2323 -1.3020 -1.1021
 5233SOL    HW227159   2.690   2.302   4.731  0.1252  1.7816  1.0123
 5234SOL     OW27160   2.564   2.742   7.633 -0.2028  0.5279 -0.3070
 5234SOL    HW127161   2.573   2.813   7.697  1.0256  1.9639 -2.0761
 5234SOL    HW227162   2.655   2.741   7.604 -0.4493 -1.6409 -1.0116
 5235SOL     OW27163   2.471   3.910   4.794 -0.3173 -0.3203 -0.4982
 5235SOL    HW127164   2.483   4.004   4.800  2.3485 -0.6991  0.2319
 5235SOL    HW227165   2.559   3.876   4.811 -1.1796 -1.1497  2.3319
 5236SOL     OW27166   3.752   3.636  11.839 -0.3541 -0.2468  0.2234
 5236SOL    HW127167   3.814   3.634  11.766  0.7332  1.3927  1.0877
 5236SOL    HW227168   3.676   3.677  11.797 -1.3069 -1.9284  0.3118
 5237SOL     OW27169   2.346   0.357   4.878 -0.0410  0.3302 -0.3242
 5237SOL    HW127170   2.363   0.270   4.843  0.7053 -0.7846  2.7675
 5237SOL    HW227171   2.375   0.350   4.969  1.1039 -0.2221 -0.7282
 5238SOL     OW27172   2.566   2.240   2.511 -0.3005 -0.1595 -0.6077
 5238SOL    HW127173   2.512   2.312   2.478  0.2648  0.1390 -0.8681
 5238SOL    HW227174   2.528   2.220   2.597  1.2465  0.4740  0.2051
 5239SOL     OW27175   1.716   4.118   8.420  0.0242 -0.8309  0.1079
 5239SOL    HW127176   1.767   4.038   8.404 -0.5861 -0.9132 -1.4654
 5239SOL    HW227177   1.660   4.123   8.343  0.3206  1.3918  0.0446
 5240SOL     OW27178   0.281   3.024   1.026 -0.6021  0.4644  0.5797
 5240SOL    HW127179   0.303   3.004   0.935  0.4368 -0.2598  0.9887
 5240SOL    HW227180   0.372   3.027   1.057 -0.3764 -0.7227  0.0329
 5241SOL     OW27181   4.512   1.253   6.073 -0.0032 -0.2025 -0.1951
 5241SOL    HW127182   4.491   1.263   6.166  0.5609 -0.7053 -0.0087
 5241SOL    HW227183   4.606   1.250   6.057 -0.0332  3.1067 -1.0297
 5242SOL     OW27184   1.626   0.905   6.731 -0.1924 -0.0892  0.4187
 5242SOL    HW127185   1.622   0.874   6.641 -0.1099  0.6555  0.1574
 5242SOL    HW227186   1.567   0.980   6.735 -3.1685 -2.3889 -0.2559
 5243SOL     OW27187   2.679   0.498   9.945 -0.2201 -0.0863 -0.0035
 5243SOL    HW127188   2.605   0.556   9.929  0.9513  1.2178 -0.7592
 5243SOL    HW227189   2.649   0.453  10.024  1.8290  3.8981  3.0374
 5244SOL     OW27190   0.888   2.868   5.791  0.6306  0.3521 -0.1184
 5244SOL    HW127191   0.829   2.798   5.817 -1.2857  1.1148 -2.3384
 5244SOL    HW227192   0.862   2.941   5.847 -3.0655 -1.9820  1.2003
 5245SOL     OW27193   3.922   0.286   7.864 -0.2847 -0.7475 -0.1595
 5245SOL    HW127194   4.014   0.275   7.842  0.3259  2.3824  0.8398
 5245SOL    HW227195   3.907   0.379   7.849 -0.0276 -0.7806 -0.6150
 5246SOL     OW27196   1.761   0.172   9.836 -0.5001  0.3926  0.3637
 5246SOL    HW127197   1.758   0.078   9.819  2.0735  0.6050 -1.2652
 5246SOL    HW227198   1.746   0.170   9.931  1.9726 -2.1561  0.7042
 5247SOL     OW27199   3.729   1.287   9.965 -0.4917  0.2637  0.2751
 5247SOL    HW127200   3.669   1.306  10.037  0.7210 -0.3386  1.4447
 5247SOL    HW227201   3.757   1.198   9.982 -0.7253  0.2870  0.7723
 5248SOL     OW27202   2.042   2.609   0.003 -0.3268 -0.2369 -0.4927
 5248SOL    HW127203   2.130   2.642   0.018 -0.7104  0.9753 -0.9437
 5248SOL    HW227204   2.000   2.639   0.084  0.6480  0.3351 -0.2100
 5249SOL     OW27205   3.986   4.447   8.434 -0.1708  0.5070  0.0966
 5249SOL    HW127206   4.034   4.396   8.499  0.0767 -0.2285 -0.6779
 5249SOL    HW227207   4.058   4.499   8.399  0.2642  0.5553  1.0400
 5250SOL     OW27208   4.548   2.079   4.741 -0.4006  0.4658  0.4190
 5250SOL    HW127209   4.593   2.155   4.703  0.9719 -0.3289  0.4623
 5250SOL    HW227210   4.476   2.116   4.792 -1.0452 -0.8556  0.4387
 5251SOL     OW27211   2.228   2.693   1.456 -0.5889 -0.0844 -0.2410
 5251SOL    HW127212   2.145   2.686   1.503 -0.7549  0.3018 -0.4719
 5251SOL    HW227213   2.188   2.675   1.371 -1.8653  1.1019  0.0963
 5252SOL     OW27214   1.276   0.090  17.465 -0.3623 -0.4253 -0.5555
 5252SOL    HW127215   1.290   0.039  17.386  0.2202 -0.4162 -0.4535
 5252SOL    HW227216   1.314   0.176  17.448  1.2633 -1.0025  0.1834
 5253SOL     OW27217   3.956   0.366   2.695 -0.7129  0.1649  0.0565
 5253SOL    HW127218   3.963   0.393   2.603  0.2893 -0.6936 -0.1215
 5253SOL    HW227219   3.888   0.299   2.684 -0.9769  0.9432 -3.0611
 5254SOL     OW27220   3.090   3.756   8.499  0.0974  0.1480  0.8312
 5254SOL    HW127221   3.168   3.782   8.547 -0.4599 -0.7823  2.2197
 5254SOL    HW227222   3.027   3.723   8.563  0.7761  3.1819  3.0365
 5255SOL     OW27223   2.822   1.854  12.472  0.6408 -0.1205 -0.0652
 5255SOL    HW127224   2.916   1.842  12.457  0.9992  3.1397 -0.4715
 5255SOL    HW227225   2.800   1.789  12.539  1.2866 -0.7573 -0.4639
 5256SOL     OW27226   0.478   0.210   5.442  0.4111 -0.1334 -0.2340
 5256SOL    HW127227   0.433   0.151   5.382 -3.0345  1.5129  0.7734
 5256SOL    HW227228   0.534   0.255   5.379 -0.7199 -0.6463 -1.5959
 5257SOL     OW27229   2.189   0.691   6.016 -0.8888  0.2527  0.0688
 5257SOL    HW127230   2.246   0.702   5.940  1.5395 -0.6226  1.7627
 5257SOL    HW227231   2.250   0.679   6.089 -0.1963 -1.1047 -0.7424
 5258SOL     OW27232   2.522   1.153   0.249  0.1088  0.2326 -0.4687
 5258SOL    HW127233   2.606   1.183   0.216  1.3526  0.2746  2.7434
 5258SOL    HW227234   2.465   1.199   0.188 -0.0651  0.5246 -0.0881
 5259SOL     OW27235   3.012   2.869   8.668 -0.3683  0.2807 -0.4267
 5259SOL    HW127236   3.034   2.809   8.739  0.1975 -0.0719 -0.8916
 5259SOL    HW227237   3.078   2.936   8.686  0.0498 -0.1705 -0.2641
 5260SOL     OW27238   2.906   1.611   5.025 -0.0213  0.1956 -0.6555
 5260SOL    HW127239   2.964   1.642   5.095 -0.2863 -0.4133 -0.1689
 5260SOL    HW227240   2.955   1.542   4.980 -0.3231 -0.9440  0.7543
 5261SOL     OW27241   2.068   4.708  14.411  0.2237  0.3677 -0.2001
 5261SOL    HW127242   2.088   0.073  14.398  2.1138 -0.3438 -2.4537
 5261SOL    HW227243   2.011   4.709  14.488  1.7904  1.1455  0.9635
 5262SOL     OW27244   4.408   1.749   6.204  0.2125 -0.1092  0.3056
 5262SOL    HW127245   4.431   1.826   6.256  2.3376  0.9832 -2.2983
 5262SOL    HW227246   4.317   1.740   6.233  0.5030 -0.6622  1.0645
 5263SOL     OW27247   1.730   1.837   3.721 -0.3685  0.0921  0.4352
 5263SOL    HW127248   1.726   1.854   3.627  0.2619 -0.4064  0.3166
 5263SOL    HW227249   1.637   1.823   3.736 -0.2343  0.1913  1.3647
 5264SOL     OW27250   3.364   4.701  11.564 -0.3298 -0.6133  0.5492
 5264SOL    HW127251   3.334   4.629  11.508  2.5507  0.1378 -1.9183
 5264SOL    HW227252   3.454   4.676  11.586  0.4224  0.7648 -0.9988
 5265SOL     OW27253   2.031   0.115  13.941 -0.7711 -0.0859 -0.0554
 5265SOL    HW127254   2.054   0.132  14.033  0.2977  0.4076 -0.4160
 5265SOL    HW227255   2.116   0.119  13.897  0.4373 -1.3902  2.1605
 5266SOL     OW27256   3.660   2.843   3.044 -0.3962  1.1391 -0.8535
 5266SOL    HW127257   3.661   2.891   2.962 -1.6507  2.8253  0.1292
 5266SOL    HW227258   3.569   2.860   3.068 -0.8601 -0.1265 -1.7025
 5267SOL     OW27259   2.054   3.252   6.828 -0.0758  0.5084 -0.6767
 5267SOL    HW127260   2.092   3.324   6.777 -0.8388  1.2225 -0.2343
 5267SOL    HW227261   2.112   3.179   6.806 -0.0427  1.2457 -3.0098
 5268SOL     OW27262   2.873   2.835   2.152  0.4727 -0.3657 -0.2183
 5268SOL    HW127263   2.836   2.910   2.105 -0.3235  0.6639  2.0713
 5268SOL    HW227264   2.821   2.849   2.231  1.3371  1.7621 -0.0113
 5269SOL     OW27265   1.806   0.514   4.236 -0.0423  0.0704 -0.3303
 5269SOL    HW127266   1.851   0.500   4.153 -1.1221  3.4365 -1.4767
 5269SOL    HW227267   1.717   0.529   4.204  0.1525 -0.1111 -0.9665
 5270SOL     OW27268   3.873   3.880   6.287  0.1799 -0.6063  0.0758
 5270SOL    HW127269   3.940   3.828   6.242  0.8456 -0.8167  1.3306
 5270SOL    HW227270   3.840   3.813   6.346 -1.9777  1.2077  0.9288
 5271SOL     OW27271   2.826   4.327   7.769  0.0623  0.3324  0.2282
 5271SOL    HW127272   2.874   4.386   7.826 -0.3610 -0.1034  1.0304
 5271SOL    HW227273   2.806   4.395   7.705 -1.2863 -0.2824 -0.0058
 5272SOL     OW27274   1.239   1.377   3.400 -0.6415 -0.1199 -0.4467
 5272SOL    HW127275   1.186   1.453   3.421  0.4561  0.7169 -0.6916
 5272SOL    HW227276   1.301   1.425   3.345 -0.5409  2.5323  1.9571
 5273SOL     OW27277   3.993   0.205   6.558  0.4580  0.0929 -0.0353
 5273SOL    HW127278   4.020   0.230   6.646  2.3164 -0.6266 -0.4054
 5273SOL    HW227279   4.069   0.222   6.502  1.3520  0.2494  1.2402
 5274SOL     OW27280   0.488   3.501   5.185 -0.0895 -0.1316  0.0389
 5274SOL    HW127281   0.489   3.469   5.275  1.1173 -0.6822 -0.1617
 5274SOL    HW227282   0.466   3.420   5.139 -1.0755  1.1338 -1.7251
 5275SOL     OW27283   3.258   2.788   1.009 -0.4548 -0.0749 -0.0971
 5275SOL    HW127284   3.262   2.882   0.990  0.3227 -0.0680  0.0954
 5275SOL    HW227285   3.176   2.783   1.058 -0.9376  1.4838 -0.7299
 5276SOL     OW27286   2.369   4.239  11.159 -0.8464 -0.1232  0.5469
 5276SOL    HW127287   2.403   4.319  11.118 -0.2942 -0.4610  0.3309
 5276SOL    HW227288   2.319   4.271  11.234  0.7796  1.6852  0.8580
 5277SOL     OW27289   0.906   0.570   0.755  0.0457 -0.2910 -0.1552
 5277SOL    HW127290   0.906   0.665   0.768  0.3179 -0.2461 -0.5068
 5277SOL    HW227291   0.818   0.553   0.790 -0.0525  0.1968 -0.1657
 5278SOL     OW27292   0.041   1.923  12.185 -0.1519 -0.1698 -0.2952
 5278SOL    HW127293   0.075   1.992  12.242  0.2131 -0.0232 -0.6871
 5278SOL    HW227294   4.700   1.968  12.136 -0.2614 -0.3272 -0.2845
 5279SOL     OW27295   3.133   4.363   9.424 -0.2575  0.2122 -0.6636
 5279SOL    HW127296   3.094   4.305   9.358 -0.7097  0.0829 -0.2838
 5279SOL    HW227297   3.171   4.427   9.365  1.8676 -0.2158  0.2500
 5280SOL     OW27298   0.027   1.119   4.457 -0.3623 -0.4518 -0.4740
 5280SOL    HW127299   0.072   1.060   4.396  0.8421  0.4039 -0.4142
 5280SOL    HW227300   4.670   1.120   4.414  0.8553 -2.9649 -2.9441
 5281SOL     OW27301   2.710   3.786   2.786 -0.2783  0.8245  0.2595
 5281SOL    HW127302   2.656   3.711   2.760 -2.2293  1.6161  2.0507
 5281SOL    HW227303   2.673   3.803   2.872 -0.0522  1.0273  0.3179
 5282SOL     OW27304   4.364   1.593   8.204 -0.5870 -0.0345 -0.4381
 5282SOL    HW127305   4.291   1.537   8.175 -0.5678 -0.0723 -0.4124
 5282SOL    HW227306   4.424   1.554   8.141 -1.1774 -1.5246 -0.0689
 5283SOL     OW27307   1.182   2.681   7.403 -0.1513  0.3921  0.2841
 5283SOL    HW127308   1.145   2.601   7.366 -0.6060  0.4177  0.6834
 5283SOL    HW227309   1.174   2.658   7.496  0.0238  0.1475  0.2365
 5284SOL     OW27310   1.636   1.970   5.204  1.1796 -0.3272 -0.3536
 5284SOL    HW127311   1.683   2.052   5.216  2.0599 -0.7103 -1.2305
 5284SOL    HW227312   1.680   1.910   5.265  1.4655  0.4336  0.1890
 5285SOL     OW27313   2.236   1.149   4.569 -0.2148 -0.3337 -0.1213
 5285SOL    HW127314   2.240   1.083   4.638 -0.6567  0.7100  0.9177
 5285SOL    HW227315   2.328   1.155   4.546 -0.2998 -1.1341 -0.6749
 5286SOL     OW27316   1.649   0.192  15.140  0.1438  0.1231  0.1351
 5286SOL    HW127317   1.630   0.118  15.083 -1.4200  0.3016  0.4294
 5286SOL    HW227318   1.658   0.145  15.224 -0.7303  0.0266  0.1687
 5287SOL     OW27319   3.389   0.991   3.661 -0.5937 -0.1484 -0.4245
 5287SOL    HW127320   3.413   0.978   3.752 -0.3023  0.9988 -0.3369
 5287SOL    HW227321   3.311   1.043   3.680  0.0336  0.3501  0.7765
 5288SOL     OW27322   1.253   1.240   3.904  0.2930 -0.3559 -0.1411
 5288SOL    HW127323   1.254   1.304   3.832  0.9889  0.9709  1.0399
 5288SOL    HW227324   1.172   1.196   3.881  0.4723 -1.2093  0.8953
 5289SOL     OW27325   4.716   0.357   2.893  0.0661  0.7131 -0.2077
 5289SOL    HW127326   4.655   0.355   2.819  2.3468  0.3960 -2.0550
 5289SOL    HW227327   4.656   0.360   2.968  1.2428  3.0815  0.6505
 5290SOL     OW27328   1.896   0.050   2.940  0.0915  0.1421 -0.3179
 5290SOL    HW127329   1.821   0.074   2.886  0.8714 -0.5453 -1.7202
 5290SOL    HW227330   1.891   0.115   3.010  0.6448 -0.9193  0.7058
 5291SOL     OW27331   2.821   0.200   6.437  0.0966 -0.1336 -0.5018
 5291SOL    HW127332   2.913   0.221   6.425  0.0928  0.3095  0.2315
 5291SOL    HW227333   2.808   0.260   6.510 -0.6105  0.7882 -1.3847
 5292SOL     OW27334   0.065   3.174   1.781  0.7002 -0.1491 -0.9495
 5292SOL    HW127335   0.092   3.087   1.752 -1.3269 -1.3680  0.7847
 5292SOL    HW227336   0.096   3.232   1.712  2.9562  0.0594  0.2310
 5293SOL     OW27337   1.128   4.655   6.944 -0.2648  0.3126 -0.1147
 5293SOL    HW127338   1.145   0.013   6.983 -0.3822  0.0466  0.5229
 5293SOL    HW227339   1.155   4.603   7.020 -2.3243 -0.0938  0.3194
 5294SOL     OW27340   3.006   2.012   6.168 -0.6786  0.4717  0.4944
 5294SOL    HW127341   3.035   1.935   6.216  0.4094 -1.0365 -2.5325
 5294SOL    HW227342   3.083   2.067   6.179  0.8709 -1.2368 -1.6212
 5295SOL     OW27343   4.065   1.369   4.809  0.2669  0.2916  0.0370
 5295SOL    HW127344   4.021   1.386   4.892 -1.1041 -1.5284 -0.3087
 5295SOL    HW227345   4.030   1.284   4.781  1.9167  0.0216 -1.2060
 5296SOL     OW27346   2.925   2.421   8.101 -0.4197 -0.0301 -0.7000
 5296SOL    HW127347   2.902   2.449   8.190 -1.3432  1.2078 -1.3206
 5296SOL    HW227348   3.020   2.415   8.110 -0.7618 -0.1321  2.8282
 5297SOL     OW27349   2.459   1.530   6.482 -0.2236  0.1183  0.6542
 5297SOL    HW127350   2.461   1.609   6.428  1.8791 -1.2806 -1.2661
 5297SOL    HW227351   2.479   1.569   6.567  1.7383 -0.4802  0.4745
 5298SOL     OW27352   4.607   2.752   2.937  0.1825  0.0347  0.2207
 5298SOL    HW127353   4.642   2.788   3.018  1.1030  0.3116 -0.3019
 5298SOL    HW227354   4.652   2.667   2.930 -1.3133 -0.5201 -2.8433
 5299SOL     OW27355   4.057   4.648   9.087 -0.2481 -0.7265 -0.1278
 5299SOL    HW127356   4.134   4.628   9.140  1.7903 -1.3336 -3.2915
 5299SOL    HW227357   4.073   4.721   9.028  0.3083 -1.1718 -0.5280
 5300SOL     OW27358   3.798   1.884   7.971 -0.3515  0.3873 -0.3444
 5300SOL    HW127359   3.779   1.974   7.943  0.5181  0.7030  0.0628
 5300SOL    HW227360   3.802   1.891   8.066  2.2634  2.5347 -0.5955
 5301SOL     OW27361   4.246   3.325   8.857  0.4104  0.2689 -0.1608
 5301SOL    HW127362   4.329   3.279   8.871 -0.5519 -0.0717  4.2756
 5301SOL    HW227363   4.182   3.262   8.889 -1.3741  0.4069 -3.4116
 5302SOL     OW27364   0.074   0.971  10.529  0.2363  0.0258  0.7201
 5302SOL    HW127365   0.086   0.987  10.623  0.6049  0.4682  0.5955
 5302SOL    HW227366   0.160   0.935  10.509 -0.1581 -0.5456  0.0537
 5303SOL     OW27367   1.721   2.672  17.160  0.3905  1.0459  0.2065
 5303SOL    HW127368   1.738   2.588  17.116 -0.4954  1.8991 -1.7899
 5303SOL    HW227369   1.746   2.637  17.245  0.3726 -1.6019 -0.8651
 5304SOL     OW27370   0.836   4.559   8.029 -0.7124 -0.1533  0.5073
 5304SOL    HW127371   0.805   4.532   8.115  0.4395  0.8675  1.2397
 5304SOL    HW227372   0.889   4.487   7.994  0.8132  0.4835  1.5170
 5305SOL     OW27373   4.727   1.055   4.766 -0.3195 -0.5801  0.4650
 5305SOL    HW127374   0.043   1.086   4.687 -0.6714  1.8061  1.1928
 5305SOL    HW227375   0.059   0.987   4.796  1.8656  0.3678 -1.8009
 5306SOL     OW27376   1.774   3.308   5.623  0.7707 -0.4773  0.2276
 5306SOL    HW127377   1.709   3.258   5.672 -1.2418 -0.1510 -2.1236
 5306SOL    HW227378   1.833   3.237   5.597 -0.4645 -1.8235  1.1336
 5307SOL     OW27379   2.038   2.302   0.065  0.0100  0.4203  0.2802
 5307SOL    HW127380   2.125   2.322   0.031 -0.6291  0.3403 -1.3973
 5307SOL    HW227381   2.005   2.391   0.055  1.7732  1.2682  2.0967
 5308SOL     OW27382   4.587   3.985  12.781  0.0459  0.1866  0.2184
 5308SOL    HW127383   4.625   3.983  12.693 -0.6006 -0.0782 -0.0546
 5308SOL    HW227384   4.496   3.986  12.753  0.2455 -0.3552 -0.4664
 5309SOL     OW27385   2.202   4.671   3.489  0.2512 -0.8957 -0.6157
 5309SOL    HW127386   2.256   4.602   3.451  0.7933 -0.3814 -0.7898
 5309SOL    HW227387   2.229   0.013   3.429  0.4061 -0.9782 -0.6428
 5310SOL     OW27388   4.526   4.508   5.013 -0.1909  0.5361 -0.1250
 5310SOL    HW127389   4.609   4.552   5.030 -0.3164  0.6522  0.1756
 5310SOL    HW227390   4.464   4.574   5.042 -0.8501 -0.3511  0.4640
 5311SOL     OW27391   3.919   3.169  13.216  0.1458 -0.3619  0.3071
 5311SOL    HW127392   3.859   3.226  13.168  1.6545  0.1496 -0.9822
 5311SOL    HW227393   3.868   3.088  13.208  0.6252 -0.7756  1.4171
 5312SOL     OW27394   0.003   3.145   4.725  0.1258 -0.3349  0.1960
 5312SOL    HW127395   4.726   3.239   4.705  3.8509 -0.2022 -0.1638
 5312SOL    HW227396   4.693   3.114   4.643  1.4358  0.6724 -0.7944
 5313SOL     OW27397   0.617   3.393  12.174 -0.5477 -0.2532 -0.6205
 5313SOL    HW127398   0.584   3.468  12.224 -1.6440 -0.9512 -0.3218
 5313SOL    HW227399   0.663   3.348  12.245 -0.4323 -1.2993 -1.3531
 5314SOL     OW27400   3.136   2.696   2.917  0.2983 -0.0761 -0.3576
 5314SOL    HW127401   3.154   2.603   2.928 -1.2207 -0.4255 -0.8561
 5314SOL    HW227402   3.218   2.723   2.875  0.2895  1.7606  0.7991
 5315SOL     OW27403   0.609   3.076   6.418 -0.3708 -0.0852 -0.0372
 5315SOL    HW127404   0.689   3.040   6.379 -1.7668  0.5517 -3.4581
 5315SOL    HW227405   0.649   3.159   6.445  1.9751 -1.5884  1.1958
 5316SOL     OW27406   2.610   2.882   4.355  0.0330  0.4993  0.2816
 5316SOL    HW127407   2.568   2.798   4.373  2.2186 -1.0083 -1.6722
 5316SOL    HW227408   2.702   2.855   4.351 -0.0958  0.4016 -2.1432
 5317SOL     OW27409   2.259   1.377   0.289  0.3688 -0.0746 -0.3500
 5317SOL    HW127410   2.297   1.313   0.228 -0.6343  0.7638 -1.8647
 5317SOL    HW227411   2.174   1.392   0.246  0.5162 -1.3152 -1.0632
 5318SOL     OW27412   0.811   2.943   6.266 -0.4686 -0.1835  0.2648
 5318SOL    HW127413   0.802   2.889   6.188 -1.1058  0.0778  0.1573
 5318SOL    HW227414   0.886   2.900   6.308 -0.6765 -2.8121 -2.0336
 5319SOL     OW27415   1.225   0.536   2.745  0.1094 -0.4319 -0.1776
 5319SOL    HW127416   1.180   0.604   2.695  2.1962  1.2994  0.3119
 5319SOL    HW227417   1.163   0.529   2.818 -0.2666 -0.4365 -0.4938
 5320SOL     OW27418   4.724   1.829   5.462 -0.4389 -0.4391 -0.1064
 5320SOL    HW127419   0.038   1.743   5.457  1.7634  0.6226 -0.1543
 5320SOL    HW227420   4.632   1.805   5.470 -0.2104 -1.3300 -0.1345
 5321SOL     OW27421   1.237   4.173   3.112 -0.3394  0.3987  0.0848
 5321SOL    HW127422   1.293   4.250   3.101  0.7649 -0.6093 -1.2991
 5321SOL    HW227423   1.180   4.155   3.037  0.6153 -0.4036 -0.4406
 5322SOL     OW27424   3.600   0.186  12.605 -0.5841 -0.4257 -0.2683
 5322SOL    HW127425   3.661   0.135  12.552  1.0750  1.1288  0.1722
 5322SOL    HW227426   3.591   0.261  12.546  1.4881  0.7725  0.9812
 5323SOL     OW27427   1.683   0.981   2.105 -0.1792 -0.8311 -0.3649
 5323SOL    HW127428   1.589   0.972   2.087  0.6305  0.5690 -5.1851
 5323SOL    HW227429   1.722   0.969   2.019 -1.2775 -0.9409 -0.8448
 5324SOL     OW27430   2.733   0.820  16.397 -0.1352  0.3019 -0.4967
 5324SOL    HW127431   2.744   0.727  16.378 -3.3956 -0.5475  1.7632
 5324SOL    HW227432   2.701   0.817  16.487 -1.3975 -0.2922 -0.9723
 5325SOL     OW27433   0.452   0.434   9.950  0.6168 -0.1698  0.7316
 5325SOL    HW127434   0.358   0.418   9.948  0.2598  1.7102  2.2439
 5325SOL    HW227435   0.489   0.353   9.986 -2.3117 -1.3748  1.0008
 5326SOL     OW27436   1.307   1.742  10.822  0.1408 -0.2140  0.2135
 5326SOL    HW127437   1.275   1.816  10.872 -1.3464 -1.3580  0.9522
 5326SOL    HW227438   1.234   1.680  10.825  0.6324 -0.7722  0.6182
 5327SOL     OW27439   2.223   3.950  15.474  0.2877  0.4627 -0.0943
 5327SOL    HW127440   2.271   3.898  15.410  1.6587  0.6702  0.7699
 5327SOL    HW227441   2.188   4.022  15.420 -0.4181 -0.1084 -0.3997
 5328SOL     OW27442   2.991   4.309   1.123 -0.0290 -0.2037  0.1519
 5328SOL    HW127443   3.056   4.316   1.053 -0.0518 -3.5590 -0.2036
 5328SOL    HW227444   3.038   4.285   1.203  1.7310  0.5651 -0.6446
 5329SOL     OW27445   2.053   1.491  17.453 -0.3379 -0.4914 -0.1447
 5329SOL    HW127446   1.994   1.418  17.435  0.8189 -1.8158  1.4230
 5329SOL    HW227447   2.090   1.500  17.365  1.6362  0.2587  0.7543
 5330SOL     OW27448   0.554   1.546   4.507  0.0485  0.2281 -0.1537
 5330SOL    HW127449   0.521   1.466   4.465 -1.2027 -0.4013  2.0411
 5330SOL    HW227450   0.526   1.544   4.598  0.6747 -1.1564  0.0155
 5331SOL     OW27451   2.075   2.867   9.485 -0.0648  0.0318 -0.0251
 5331SOL    HW127452   2.077   2.771   9.483 -0.6594  0.0139  0.4780
 5331SOL    HW227453   1.984   2.877   9.512 -0.0999  1.6185 -0.7438
 5332SOL     OW27454   0.060   3.394   8.817 -0.1940 -0.5279  0.1962
 5332SOL    HW127455   0.014   3.361   8.894  2.0342  1.0515  2.1826
 5332SOL    HW227456   0.021   3.340   8.748  1.3776 -0.5279 -0.6902
 5333SOL     OW27457   3.965   2.997  13.500  0.1295 -0.2082  0.1918
 5333SOL    HW127458   4.014   3.036  13.572 -0.2629 -0.1336  0.4214
 5333SOL    HW227459   3.933   3.070  13.446  0.8018 -0.7533 -0.9481
 5334SOL     OW27460   2.692   0.673   6.023  0.0841 -0.3516 -0.0879
 5334SOL    HW127461   2.625   0.696   5.959 -0.9814 -2.1639  0.3803
 5334SOL    HW227462   2.763   0.729   5.992  0.5025 -0.0350  1.4318
 5335SOL     OW27463   0.185   3.920   6.444  0.1366 -0.2249 -0.2502
 5335SOL    HW127464   0.173   4.010   6.472  3.8785 -0.0737  0.8470
 5335SOL    HW227465   0.197   3.931   6.349  1.5235  1.2013  0.1058
 5336SOL     OW27466   3.323   2.716   6.136  0.9009 -0.0758 -0.2814
 5336SOL    HW127467   3.414   2.718   6.108  1.1803 -1.3812  0.5454
 5336SOL    HW227468   3.318   2.622   6.153 -1.1752 -0.1409 -1.2888
 5337SOL     OW27469   1.475   4.087  10.195 -0.3477  0.0724  0.1672
 5337SOL    HW127470   1.412   4.036  10.144  1.6405 -2.0823 -0.1113
 5337SOL    HW227471   1.505   4.144  10.125  2.3065  0.1590  1.3939
 5338SOL     OW27472   2.763   3.296   5.396 -0.4158  0.3987 -0.6166
 5338SOL    HW127473   2.820   3.372   5.407  0.4149  0.0522 -2.5333
 5338SOL    HW227474   2.824   3.233   5.434  0.0759  1.0208 -0.3577
 5339SOL     OW27475   3.181   3.094   8.734 -0.1154  0.3995  0.3024
 5339SOL    HW127476   3.266   3.137   8.745 -0.0415  0.7692 -1.7426
 5339SOL    HW227477   3.156   3.123   8.647  1.5174  4.3364  1.1536
 5340SOL     OW27478   3.917   3.760   4.349 -0.1901  0.1402 -0.5551
 5340SOL    HW127479   3.862   3.775   4.427 -1.3041  1.9777 -1.7024
 5340SOL    HW227480   3.987   3.712   4.393  0.2109 -1.2617 -2.7588
 5341SOL     OW27481   3.958   3.727   2.413 -0.2301  0.3072  0.4942
 5341SOL    HW127482   3.905   3.725   2.333 -0.2521 -0.1527  0.5168
 5341SOL    HW227483   4.040   3.759   2.374 -0.8144  0.4670 -0.6227
 5342SOL     OW27484   1.874   4.643   9.573  0.1676 -0.1342  0.4592
 5342SOL    HW127485   1.849   4.668   9.663  0.7269  1.1992  0.2460
 5342SOL    HW227486   1.802   4.580   9.568 -2.5192  2.8878  0.6451
 5343SOL     OW27487   2.864   0.850  14.929  0.2126  0.3697 -0.2636
 5343SOL    HW127488   2.771   0.837  14.944 -0.4581  4.0024 -1.5754
 5343SOL    HW227489   2.865   0.945  14.935  2.4711  0.1196  3.5923
 5344SOL     OW27490   2.961   1.996   6.617 -0.1828  0.0558 -0.3161
 5344SOL    HW127491   3.028   1.944   6.661  0.8188  1.6456  0.0650
 5344SOL    HW227492   2.912   1.926   6.575  0.0092 -0.4038  0.2333
 5345SOL     OW27493   0.803   2.698   6.919 -0.3977  0.4096 -0.0256
 5345SOL    HW127494   0.861   2.736   6.986  0.8173 -1.3953 -0.0452
 5345SOL    HW227495   0.770   2.781   6.885 -1.7008  0.1760  0.6742
 5346SOL     OW27496   1.617   3.261   3.102  0.3164  0.0176  0.1420
 5346SOL    HW127497   1.627   3.350   3.068  0.3938 -0.2562 -0.5364
 5346SOL    HW227498   1.574   3.236   3.021  1.1650 -1.0815  0.0364
 5347SOL     OW27499   2.269   0.879   3.196 -0.0172  0.0076  0.5772
 5347SOL    HW127500   2.217   0.896   3.117 -0.5254 -0.3613  0.8399
 5347SOL    HW227501   2.280   0.784   3.187  0.3086 -0.2131  3.6003
 5348SOL     OW27502   4.381   2.320   6.810  0.1177 -0.3687 -0.3319
 5348SOL    HW127503   4.380   2.324   6.906  0.3419 -0.2913 -0.3336
 5348SOL    HW227504   4.286   2.329   6.801  0.0427 -0.5905  0.2519
 5349SOL     OW27505   0.940   0.391   3.631  0.4342 -0.6357 -0.3758
 5349SOL    HW127506   1.034   0.380   3.646 -0.0056 -2.8203  0.8442
 5349SOL    HW227507   0.904   0.304   3.612 -0.5479 -0.8074  2.2953
 5350SOL     OW27508   0.750   3.941   8.670  0.5763 -0.3549 -0.5897
 5350SOL    HW127509   0.782   4.015   8.723  0.1613 -0.7168  0.1735
 5350SOL    HW227510   0.804   3.878   8.718  1.8764 -0.1893 -1.8323
 5351SOL     OW27511   0.559   4.249   3.391  0.0731 -0.0340  0.6244
 5351SOL    HW127512   0.463   4.257   3.395  0.1437  1.6328 -0.9369
 5351SOL    HW227513   0.579   4.196   3.314 -1.0450  0.9067 -0.3161
 5352SOL     OW27514   2.698   2.104   4.675  0.8147 -0.3737  0.1910
 5352SOL    HW127515   2.636   2.103   4.602  0.1185  1.1271  0.7585
 5352SOL    HW227516   2.667   2.024   4.718 -0.0218  0.9877  2.1368
 5353SOL     OW27517   2.518   3.125   4.488  0.1186  0.3734 -0.0104
 5353SOL    HW127518   2.555   3.082   4.566 -1.0813 -0.0673  0.3103
 5353SOL    HW227519   2.535   3.061   4.419 -2.3506 -0.4861  0.1821
 5354SOL     OW27520   2.250   1.984   1.975  0.1887  0.3961 -0.1266
 5354SOL    HW127521   2.333   2.031   1.987  0.4571 -0.0998 -0.0472
 5354SOL    HW227522   2.268   1.916   1.910  0.3290  0.0388  0.2848
 5355SOL     OW27523   0.992   0.929   5.921  0.0612  0.2407  0.9238
 5355SOL    HW127524   0.984   0.983   5.843  0.0283 -1.7132 -0.4358
 5355SOL    HW227525   1.015   0.993   5.988  0.1525  0.6812  0.4680
 5356SOL     OW27526   4.424   1.101   9.819 -1.2195  0.2723 -0.6905
 5356SOL    HW127527   4.500   1.129   9.870 -0.9657 -1.8205  0.0882
 5356SOL    HW227528   4.358   1.095   9.889 -0.2650  0.9786  0.2686
 5357SOL     OW27529   1.094   1.659   1.173  0.1099 -0.3189 -0.0557
 5357SOL    HW127530   1.175   1.650   1.224  1.2518  1.1520 -1.6174
 5357SOL    HW227531   1.058   1.571   1.183  0.0404 -0.3352 -0.4822
 5358SOL     OW27532   1.063   0.085   7.180 -0.3113 -0.5291 -0.0990
 5358SOL    HW127533   0.973   0.111   7.160  0.2434  1.0109 -0.6190
 5358SOL    HW227534   1.060   4.717   7.189 -0.0041 -0.5271  0.0320
 5359SOL     OW27535   0.935   3.921   7.225 -0.3628  0.0322  0.2538
 5359SOL    HW127536   1.006   3.873   7.182  0.6295  1.0784  0.7047
 5359SOL    HW227537   0.957   4.009   7.193 -0.8037  0.4668  1.1246
 5360SOL     OW27538   3.910   3.705   6.946  0.4126 -0.0925  0.6094
 5360SOL    HW127539   3.978   3.736   7.005 -0.5991  1.0093  1.2032
 5360SOL    HW227540   3.885   3.620   6.984  1.9076 -0.9227 -0.2501
 5361SOL     OW27541   3.099   1.271  17.534 -0.0965 -0.0150 -0.0505
 5361SOL    HW127542   3.171   1.233  17.483 -1.2171  1.2978 -2.6363
 5361SOL    HW227543   3.070   1.195  17.583 -1.2089  1.1480  1.1079
 5362SOL     OW27544   1.070   1.103   5.674  0.1271 -0.6160 -0.5973
 5362SOL    HW127545   1.134   1.076   5.608  1.3073  2.7591 -0.8219
 5362SOL    HW227546   1.044   1.192   5.649 -1.4213 -1.0689 -0.5942
 5363SOL     OW27547   2.848   3.299  14.461  0.2353  0.1198  0.2358
 5363SOL    HW127548   2.818   3.241  14.531  0.1031 -2.3301 -1.8531
 5363SOL    HW227549   2.793   3.271  14.388  0.0989 -0.0084  0.3865
 5364SOL     OW27550   3.667   1.733  10.579  0.2882 -0.0823 -0.2047
 5364SOL    HW127551   3.727   1.805  10.556  0.1605  0.6235  1.7080
 5364SOL    HW227552   3.591   1.791  10.586  1.4265  1.0382  2.6000
 5365SOL     OW27553   2.644   3.718  17.478  0.0955  0.2083  0.3307
 5365SOL    HW127554   2.575   3.655  17.457  0.4484  0.2303 -0.8696
 5365SOL    HW227555   2.721   3.662  17.488  0.4744  0.8574  1.0315
 5366SOL     OW27556   4.184   4.372   5.714 -0.6712 -0.1148  0.6775
 5366SOL    HW127557   4.167   4.465   5.728  0.8267  0.2009  0.3268
 5366SOL    HW227558   4.098   4.341   5.742  0.3856 -2.6190  1.1575
 5367SOL     OW27559   3.442   3.967   3.012 -0.2001  0.3807 -0.0290
 5367SOL    HW127560   3.533   3.991   2.992 -1.0135  1.5872 -2.1993
 5367SOL    HW227561   3.407   3.940   2.928  3.1199 -0.0264 -1.2728
 5368SOL     OW27562   1.979   4.595   5.299 -0.3914  0.2811 -0.4101
 5368SOL    HW127563   1.973   4.539   5.376 -1.7428  0.0214 -0.7077
 5368SOL    HW227564   1.983   4.677   5.349  1.5781  1.3988 -2.4021
 5369SOL     OW27565   0.112   1.442   3.909  0.0262  0.3551 -0.1860
 5369SOL    HW127566   0.090   1.373   3.845  0.3141  1.1502 -1.1455
 5369SOL    HW227567   0.119   1.389   3.988 -0.7022  0.0681 -0.3172
 5370SOL     OW27568   1.329   0.092   1.028 -0.1261  0.3112 -0.1884
 5370SOL    HW127569   1.278   0.051   0.958  0.0813 -1.4952  0.7209
 5370SOL    HW227570   1.281   0.174   1.043 -0.0598  0.4102 -0.5075
 5371SOL     OW27571   3.213   3.363   6.935 -0.3949  0.5652 -0.6070
 5371SOL    HW127572   3.185   3.273   6.951 -1.1464  0.8410 -0.3671
 5371SOL    HW227573   3.150   3.409   6.991 -0.7699  1.1903 -1.5408
 5372SOL     OW27574   1.770   0.600   8.286  0.3121  0.2198 -0.2252
 5372SOL    HW127575   1.727   0.655   8.221 -0.2527  0.1364  0.0809
 5372SOL    HW227576   1.863   0.608   8.263  0.9492 -0.3068  2.1192
 5373SOL     OW27577   2.116   2.197   9.125 -0.2050 -0.5119  0.0625
 5373SOL    HW127578   2.210   2.184   9.115 -0.2592 -1.9891  1.5619
 5373SOL    HW227579   2.094   2.180   9.033  1.8227 -0.7087 -0.3966
 5374SOL     OW27580   3.814   1.404   5.826  0.5185 -0.2948  0.2041
 5374SOL    HW127581   3.752   1.465   5.867 -1.3806 -2.1982  0.1504
 5374SOL    HW227582   3.849   1.352   5.898  1.4719 -1.3999 -1.0577
 5375SOL     OW27583   3.206   1.462   3.871 -0.0804  0.2566 -0.1003
 5375SOL    HW127584   3.127   1.475   3.818  1.0016  1.1176 -1.5136
 5375SOL    HW227585   3.161   1.432   3.950 -1.4760  1.3943 -0.4513
 5376SOL     OW27586   2.524   1.840  12.705  0.1009  0.0442  0.1953
 5376SOL    HW127587   2.507   1.771  12.640  0.0560  1.0937 -0.8944
 5376SOL    HW227588   2.583   1.794  12.765 -0.7727  0.1529  1.1394
 5377SOL     OW27589   2.313   4.305   8.495  0.4540 -0.4575 -0.6530
 5377SOL    HW127590   2.277   4.389   8.466 -1.1644 -0.5080  1.2063
 5377SOL    HW227591   2.339   4.264   8.413 -0.6694 -1.8437 -0.3089
 5378SOL     OW27592   3.078   4.558  11.443 -0.1144 -0.3912  0.5678
 5378SOL    HW127593   3.081   4.621  11.370 -2.5430 -1.1005 -0.1754
 5378SOL    HW227594   3.106   4.479  11.397 -0.0750 -0.5587  0.8827
 5379SOL     OW27595   0.711   0.044   1.569 -0.4103 -0.0644  0.1387
 5379SOL    HW127596   0.753   0.118   1.613 -0.2137  1.2225 -2.1933
 5379SOL    HW227597   0.796   0.005   1.548 -0.8332 -0.0635 -1.5370
 5380SOL     OW27598   2.611   4.576  14.384 -0.0314 -0.7159  0.1537
 5380SOL    HW127599   2.617   4.669  14.405 -0.4930 -0.6895  0.1642
 5380SOL    HW227600   2.627   4.529  14.466  1.3904 -0.6338 -0.0692
 5381SOL     OW27601   1.080   3.467   9.902  0.1067 -0.4723 -0.5217
 5381SOL    HW127602   1.071   3.513   9.986  0.3495 -0.8927 -0.2614
 5381SOL    HW227603   1.010   3.404   9.917 -0.1582  0.0497  0.4201
 5382SOL     OW27604   1.448   1.111   6.732  0.1998 -0.2431 -0.0414
 5382SOL    HW127605   1.436   1.156   6.648  0.2249 -0.5434 -0.2048
 5382SOL    HW227606   1.389   1.167   6.784  0.9334  0.0408  0.4794
 5383SOL     OW27607   2.266   4.524   7.667 -0.9552  0.1404 -0.3656
 5383SOL    HW127608   2.301   4.608   7.697 -2.0364 -0.2040  1.8661
 5383SOL    HW227609   2.232   4.560   7.585  0.8694  1.8492 -0.3794
 5384SOL     OW27610   1.292   2.589  14.377 -0.3845 -0.0971 -0.3044
 5384SOL    HW127611   1.267   2.632  14.459  0.8219  0.7882 -0.4133
 5384SOL    HW227612   1.380   2.562  14.404 -2.1285 -4.6666  0.8039
 5385SOL     OW27613   0.379   2.495   7.259 -0.4207  0.4080  0.1547
 5385SOL    HW127614   0.358   2.518   7.350 -0.2490  1.3515 -0.0461
 5385SOL    HW227615   0.453   2.555   7.252 -1.4550  1.7187  0.4153
 5386SOL     OW27616   1.274   0.236   0.513  0.1158  0.4393 -0.3001
 5386SOL    HW127617   1.318   0.151   0.513 -0.0759  0.3398  0.8231
 5386SOL    HW227618   1.341   0.282   0.462  2.8464 -0.8442  2.1061
 5387SOL     OW27619   4.195   4.292  11.849  0.6956 -0.2762  0.5687
 5387SOL    HW127620   4.247   4.364  11.812  0.3062 -1.0653 -1.5552
 5387SOL    HW227621   4.117   4.289  11.793 -0.2952 -0.2027  1.9687
 5388SOL     OW27622   4.512   1.564   0.874 -0.5764  0.1169  0.0781
 5388SOL    HW127623   4.527   1.648   0.916  2.1323  0.2390 -1.1043
 5388SOL    HW227624   4.580   1.514   0.918 -1.4346 -2.8170 -1.8833
 5389SOL     OW27625   4.265   3.531   8.507 -0.1008 -0.5783  0.3321
 5389SOL    HW127626   4.192   3.593   8.509  1.2536  0.9858  0.9942
 5389SOL    HW227627   4.219   3.454   8.542 -0.8496 -0.0486  0.5281
 5390SOL     OW27628   2.275   2.835  15.406 -1.0082  0.0711  0.1246
 5390SOL    HW127629   2.344   2.884  15.361 -1.0191  0.7953  0.8831
 5390SOL    HW227630   2.220   2.827  15.328  1.5538  2.5468 -1.9306
 5391SOL     OW27631   3.867   2.639   5.170  0.4027 -0.1945  0.6154
 5391SOL    HW127632   3.959   2.622   5.188  0.3791  0.0630  0.9648
 5391SOL    HW227633   3.867   2.618   5.076 -0.8518 -0.3137  0.6369
 5392SOL     OW27634   1.596   2.180   0.559 -0.1626 -0.3275 -0.0232
 5392SOL    HW127635   1.603   2.093   0.520 -0.2678 -1.0742  1.5850
 5392SOL    HW227636   1.623   2.163   0.650 -1.7303 -0.0013  0.5040
 5393SOL     OW27637   4.405   4.693   8.017 -0.3119 -0.1003 -0.6410
 5393SOL    HW127638   4.311   4.682   8.031 -0.2789  0.8630  0.3596
 5393SOL    HW227639   4.415   4.620   7.956  0.9810  1.4946 -2.3038
 5394SOL     OW27640   2.561   3.386   7.165 -0.0862 -0.1401 -0.3899
 5394SOL    HW127641   2.516   3.433   7.235  2.1541  0.6881  0.4858
 5394SOL    HW227642   2.588   3.459   7.108  1.1869 -1.0050 -0.8888
 5395SOL     OW27643   2.162   3.595  12.236  0.6911 -0.0663 -0.1274
 5395SOL    HW127644   2.107   3.665  12.272 -1.6394 -1.7357 -0.4651
 5395SOL    HW227645   2.246   3.613  12.278  0.6850 -1.3048  0.4126
 5396SOL     OW27646   2.896   2.418   1.570 -0.2047 -0.0213 -0.0298
 5396SOL    HW127647   2.975   2.399   1.520 -1.3029 -4.8279  0.0407
 5396SOL    HW227648   2.844   2.337   1.568  0.4413 -0.4473  0.6186
 5397SOL     OW27649   1.266   0.807   8.284  0.4955 -0.1787  0.2219
 5397SOL    HW127650   1.273   0.875   8.217 -0.8640 -1.3649 -1.1488
 5397SOL    HW227651   1.174   0.811   8.311  0.9081 -0.5479  1.7136
 5398SOL     OW27652   2.203   1.010   8.329  0.6115  0.1572  0.0792
 5398SOL    HW127653   2.224   0.922   8.297  1.3905  0.2119  0.4515
 5398SOL    HW227654   2.162   1.056   8.255  1.0886  0.3600 -0.0603
 5399SOL     OW27655   4.366   3.340   3.969 -0.0641  0.0810 -0.0338
 5399SOL    HW127656   4.272   3.354   3.961  0.3274  1.0861 -3.0076
 5399SOL    HW227657   4.405   3.336   3.882  0.6531 -0.2090  0.2967
 5400SOL     OW27658   0.989   1.863   1.354  0.0127 -0.5863  0.3190
 5400SOL    HW127659   1.040   1.798   1.307 -1.3571 -1.3098 -0.1752
 5400SOL    HW227660   1.031   1.945   1.328 -3.5231  1.6304  1.5033
 5401SOL     OW27661   0.081   2.107  15.913  0.6279 -0.5093  0.3032
 5401SOL    HW127662   0.118   2.077  15.830  1.0588 -1.0345  0.6898
 5401SOL    HW227663   0.037   2.187  15.883  0.5842  0.2123  2.3133
 5402SOL     OW27664   1.897   0.707   1.961  0.5079  0.0909  0.2326
 5402SOL    HW127665   1.850   0.724   1.879  2.8093  0.1060 -1.0894
 5402SOL    HW227666   1.953   0.785   1.965  0.4118  0.2796 -1.7702
 5403SOL     OW27667   1.749   2.539  13.504  0.2371  0.6504 -0.2672
 5403SOL    HW127668   1.756   2.590  13.423 -2.1659  1.3285 -0.0502
 5403SOL    HW227669   1.762   2.449  13.476  0.3612 -0.0826  2.1337
 5404SOL     OW27670   1.435   0.182   8.395  0.2103 -0.2691  0.0531
 5404SOL    HW127671   1.498   0.254   8.389  0.3529 -0.2187  2.2076
 5404SOL    HW227672   1.357   0.236   8.394 -0.4697 -1.2561 -1.2047
 5405SOL     OW27673   0.443   3.944   1.732 -0.3461  0.4597 -0.5814
 5405SOL    HW127674   0.406   4.006   1.669  0.4502 -0.9785 -2.4663
 5405SOL    HW227675   0.533   3.955   1.701 -1.0080  3.3712 -1.5022
 5406SOL     OW27676   1.166   2.309  16.187 -0.3609 -0.5696 -0.6877
 5406SOL    HW127677   1.190   2.313  16.279  1.0606 -7.9729 -0.7883
 5406SOL    HW227678   1.205   2.228  16.154 -2.0747 -1.1194 -1.3863
 5407SOL     OW27679   2.286   3.061  11.023 -0.1223  0.2792 -0.1378
 5407SOL    HW127680   2.357   3.061  10.959 -0.4057 -2.3546 -0.4451
 5407SOL    HW227681   2.330   3.026  11.100 -1.8897  0.1805  0.8384
 5408SOL     OW27682   1.734   1.229  13.625  0.6171 -0.3112 -0.1326
 5408SOL    HW127683   1.749   1.323  13.621  0.3416 -0.3180 -1.5367
 5408SOL    HW227684   1.816   1.196  13.662 -1.1800 -1.5648  2.6366
 5409SOL     OW27685   1.840   0.313   5.289  0.5279 -0.0502 -0.1478
 5409SOL    HW127686   1.843   0.233   5.340 -2.1856 -0.4894 -0.6611
 5409SOL    HW227687   1.773   0.292   5.224  1.3506 -2.1112 -0.3367
 5410SOL     OW27688   4.342   1.469   4.741 -0.3121  0.1816 -0.2680
 5410SOL    HW127689   4.409   1.405   4.764 -2.4516 -1.4720  1.3758
 5410SOL    HW227690   4.260   1.427   4.764  0.0060 -0.3518 -0.1049
 5411SOL     OW27691   3.214   2.231   3.891  0.5155 -0.1930 -0.0487
 5411SOL    HW127692   3.209   2.227   3.796  1.1815  0.6014 -0.1133
 5411SOL    HW227693   3.296   2.184   3.908  0.1754 -1.0016 -0.6065
 5412SOL     OW27694   0.185   0.016  10.360 -0.3947  0.2595 -0.2228
 5412SOL    HW127695   0.272   4.721  10.329 -1.5663 -1.5575 -2.2366
 5412SOL    HW227696   0.134   4.681  10.309  0.7409 -2.0551  1.4749
 5413SOL     OW27697   3.033   0.188   7.060  0.0018  0.2722  0.2199
 5413SOL    HW127698   3.043   0.110   7.005  1.6648  0.0323  0.8785
 5413SOL    HW227699   2.954   0.225   7.021  0.1454  1.8245  1.4206
 5414SOL     OW27700   3.412   1.001   4.693 -0.4475  0.2503 -0.2343
 5414SOL    HW127701   3.386   0.976   4.605  2.8903 -0.9432 -0.8812
 5414SOL    HW227702   3.455   0.925   4.731 -1.6681  0.2396  1.1551
 5415SOL     OW27703   0.169   3.378   3.311  0.1423  0.2326 -0.0066
 5415SOL    HW127704   0.246   3.358   3.364  0.9982  1.5912 -0.7611
 5415SOL    HW227705   0.181   3.471   3.293 -3.3781  0.7168  0.1087
 5416SOL     OW27706   4.363   1.359   2.487 -0.1870 -0.1461 -0.0844
 5416SOL    HW127707   4.313   1.372   2.568 -0.1380 -1.4861  0.1698
 5416SOL    HW227708   4.400   1.447   2.480  0.2336 -0.3967 -1.0342
 5417SOL     OW27709   3.914   3.194  17.699 -0.1264  0.3270  0.0999
 5417SOL    HW127710   3.893   3.199   0.080 -1.9117  1.6182 -0.3591
 5417SOL    HW227711   3.823   3.175  17.675  0.2323 -1.7668  0.3518
 5418SOL     OW27712   0.316   1.650  13.743  0.2742 -0.0866 -0.5690
 5418SOL    HW127713   0.227   1.664  13.709 -0.4416 -0.2751  1.2163
 5418SOL    HW227714   0.382   1.642  13.675  2.7934  1.3217  1.7443
 5419SOL     OW27715   0.962   1.983   2.248  0.1364  0.1223 -0.7502
 5419SOL    HW127716   1.024   2.049   2.279  0.2586  0.7419 -2.3297
 5419SOL    HW227717   0.948   2.010   2.158  1.4992  0.8151 -0.7533
 5420SOL     OW27718   1.762   1.706   4.371 -0.3267  0.3542  0.3291
 5420SOL    HW127719   1.734   1.723   4.281  2.6935 -1.7822 -1.0418
 5420SOL    HW227720   1.777   1.611   4.364 -0.4364  0.4411 -1.0828
 5421SOL     OW27721   0.592   3.951   8.052 -0.5257  0.2336  0.5499
 5421SOL    HW127722   0.624   4.018   8.112 -0.7752  0.4934  0.3890
 5421SOL    HW227723   0.669   3.946   7.994 -0.1342  0.6474  1.0326
 5422SOL     OW27724   0.255   3.524   2.890 -0.2510  0.0455 -0.5872
 5422SOL    HW127725   0.165   3.529   2.923  0.3540 -0.2410  1.1406
 5422SOL    HW227726   0.282   3.434   2.906 -3.0850 -0.5128  0.8880
 5423SOL     OW27727   2.238   2.123  14.975  0.0571  0.4149 -0.2695
 5423SOL    HW127728   2.291   2.183  14.921  2.4200 -0.2506  1.3107
 5423SOL    HW227729   2.271   2.149  15.060  0.4983  0.8941 -0.5865
 5424SOL     OW27730   2.632   4.655   3.672  0.0862 -0.0902  0.4506
 5424SOL    HW127731   2.548   4.621   3.705  0.6707 -3.2932 -1.3058
 5424SOL    HW227732   2.593   0.009   3.641 -2.8362 -1.2941  0.9259
 5425SOL     OW27733   2.612   0.708  11.050 -0.3533  0.5566  0.5140
 5425SOL    HW127734   2.521   0.684  11.028  0.0762 -0.9661  0.3838
 5425SOL    HW227735   2.604   0.725  11.144 -0.3485  4.4976 -0.2157
 5426SOL     OW27736   2.448   3.813   6.517  0.1099 -0.3462 -0.5674
 5426SOL    HW127737   2.441   3.777   6.428  2.7570 -0.1585 -0.8602
 5426SOL    HW227738   2.526   3.868   6.512 -0.8729  1.1474  0.7583
 5427SOL     OW27739   3.357   2.092   6.913  0.7976 -0.0602  0.3984
 5427SOL    HW127740   3.418   2.032   6.869  1.1451 -0.1333  0.9682
 5427SOL    HW227741   3.280   2.036   6.904 -0.1646  0.9654  2.1997
 5428SOL     OW27742   0.641   2.959  15.028 -0.5629 -0.5054 -0.5608
 5428SOL    HW127743   0.637   3.045  15.069 -1.9991 -0.8301 -0.0512
 5428SOL    HW227744   0.550   2.935  15.010 -0.7579 -2.0250  2.5765
 5429SOL     OW27745   2.128   2.793   7.546  0.0888 -0.1014  0.5059
 5429SOL    HW127746   2.140   2.702   7.572 -0.6733  0.5948  3.3157
 5429SOL    HW227747   2.208   2.792   7.494 -1.3329 -0.3571 -1.6801
 5430SOL     OW27748   2.303   2.069   0.017  0.2167 -0.2501 -0.5221
 5430SOL    HW127749   2.213   2.070   0.050  0.4831  2.0914  0.0920
 5430SOL    HW227750   2.314   2.163   0.030 -1.4912 -0.1423  0.1126
 5431SOL     OW27751   2.133   2.393   8.244  0.6823  0.2515  0.1711
 5431SOL    HW127752   2.208   2.336   8.229  0.9290  0.4549  0.6590
 5431SOL    HW227753   2.082   2.372   8.165  0.3785 -2.8615  1.2163
 5432SOL     OW27754   4.248   2.851   2.715 -0.0924  0.2562 -0.2675
 5432SOL    HW127755   4.196   2.873   2.637 -0.8777 -0.8344 -0.0425
 5432SOL    HW227756   4.285   2.768   2.685  1.3231 -0.0370  2.3385
 5433SOL     OW27757   2.784   2.958   8.563 -0.1484  0.3308 -0.5972
 5433SOL    HW127758   2.763   2.864   8.565  0.7734  0.1765  1.4999
 5433SOL    HW227759   2.870   2.956   8.605 -0.7720  2.2001  0.7640
 5434SOL     OW27760   1.246   2.219  14.936  0.4304  0.2673 -0.5989
 5434SOL    HW127761   1.204   2.140  14.901 -0.2899  1.0612 -1.5319
 5434SOL    HW227762   1.205   2.235  15.021  0.0518  0.0749 -0.7453
 5435SOL     OW27763   0.253   4.396   4.275 -0.1648 -0.9178 -0.1026
 5435SOL    HW127764   0.218   4.428   4.191  0.4008 -1.1383 -0.4182
 5435SOL    HW227765   0.346   4.404   4.255  0.3111 -3.4851  1.1677
 5436SOL     OW27766   3.566   1.420   5.412  0.2626 -0.6258  0.1339
 5436SOL    HW127767   3.502   1.350   5.399  1.0413 -0.6681 -3.6407
 5436SOL    HW227768   3.507   1.490   5.441  2.0899  1.6583 -1.6827
 5437SOL     OW27769   1.465   1.391  16.758  0.0289  0.8532  0.5123
 5437SOL    HW127770   1.433   1.459  16.817  1.1397  0.4927  1.5366
 5437SOL    HW227771   1.538   1.353  16.808  1.0750  0.0733 -1.6108
 5438SOL     OW27772   2.544   0.329   4.549 -0.0706 -0.0250 -0.3146
 5438SOL    HW127773   2.511   0.326   4.459 -1.9743  0.7151  0.3603
 5438SOL    HW227774   2.509   0.411   4.584  0.3322  0.1539 -0.3227
 5439SOL     OW27775   4.247   2.892   7.656  0.0198  0.0865 -0.0065
 5439SOL    HW127776   4.287   2.832   7.719  1.1857  0.5209 -0.3334
 5439SOL    HW227777   4.255   2.850   7.570 -1.7150  1.7659 -0.9781
 5440SOL     OW27778   0.218   0.215   5.618 -0.0814  0.0111 -0.3939
 5440SOL    HW127779   0.240   0.225   5.525  3.6085 -0.9165  0.3981
 5440SOL    HW227780   0.153   0.286   5.622  0.1622  0.3089 -1.8191
 5441SOL     OW27781   2.933   3.506   5.468 -0.1011  0.4715  0.4640
 5441SOL    HW127782   2.968   3.514   5.379 -0.4357 -0.4374  0.2558
 5441SOL    HW227783   2.964   3.588   5.506 -1.9188  1.6871 -0.6735
 5442SOL     OW27784   1.595   1.985   6.337  0.0937  0.1638  0.1315
 5442SOL    HW127785   1.570   2.058   6.394 -3.8134 -0.0765 -1.2724
 5442SOL    HW227786   1.511   1.961   6.298 -0.5309 -0.6796  2.0004
 5443SOL     OW27787   0.642   1.012  11.789 -0.0508 -0.1219 -0.0814
 5443SOL    HW127788   0.598   0.935  11.753 -0.6244  0.1282  0.0834
 5443SOL    HW227789   0.640   1.066  11.709 -2.6779 -0.5326 -0.2782
 5444SOL     OW27790   4.508   0.479   8.163 -0.0198 -0.2825 -0.0312
 5444SOL    HW127791   4.474   0.393   8.137 -2.3814  0.0307  1.9943
 5444SOL    HW227792   4.601   0.458   8.173  0.2082  1.4206  1.3935
 5445SOL     OW27793   2.678   3.754  11.151 -0.3480  0.3204  0.1132
 5445SOL    HW127794   2.735   3.831  11.147  1.6654 -1.1501  0.2224
 5445SOL    HW227795   2.741   3.683  11.137  0.4350  1.4351 -2.0145
 5446SOL     OW27796   2.497   3.408   4.330  0.3457  0.0607  0.1482
 5446SOL    HW127797   2.563   3.462   4.374  0.1948  0.8225 -0.5538
 5446SOL    HW227798   2.500   3.327   4.380  3.0352 -0.6282 -1.1208
 5447SOL     OW27799   3.870   0.821   2.428  0.1034  0.1050 -0.1968
 5447SOL    HW127800   3.899   0.827   2.337 -0.9152  2.9185 -0.3592
 5447SOL    HW227801   3.864   0.915   2.448  1.9635  0.3546 -0.8277
 5448SOL     OW27802   2.480   3.579   4.982 -0.1132  0.1890 -0.8880
 5448SOL    HW127803   2.390   3.594   5.010  0.2999  0.0235  0.5445
 5448SOL    HW227804   2.498   3.488   5.005 -0.1010  0.3599 -0.2098
 5449SOL     OW27805   4.602   3.795   2.749  0.0068  0.6834 -0.0594
 5449SOL    HW127806   4.549   3.801   2.829  2.0319 -1.7997  1.4880
 5449SOL    HW227807   4.677   3.851   2.772  1.2170 -0.4088 -1.3356
 5450SOL     OW27808   0.327   4.517  15.417  0.0965  0.0608 -0.1483
 5450SOL    HW127809   0.312   4.422  15.414 -1.2717  0.2805 -0.3617
 5450SOL    HW227810   0.422   4.529  15.416  0.3626 -2.0169  1.0296
 5451SOL     OW27811   0.055   1.683   1.615  0.1305 -0.3604  0.1161
 5451SOL    HW127812   0.125   1.681   1.680 -0.3029 -0.8055  0.5750
 5451SOL    HW227813   0.011   1.598   1.613  1.1262 -0.8281 -1.2716
 5452SOL     OW27814   1.921   3.519   7.882  0.3324 -0.0207 -0.2021
 5452SOL    HW127815   1.830   3.499   7.906  0.6828 -1.5179 -0.1040
 5452SOL    HW227816   1.958   3.529   7.970 -0.5865 -1.8546  0.3960
 5453SOL     OW27817   1.710   1.228   0.872 -0.2706  0.1959 -0.1953
 5453SOL    HW127818   1.675   1.146   0.905 -0.8585  1.3400  2.0261
 5453SOL    HW227819   1.718   1.281   0.951  0.6110 -0.6759  0.2889
 5454SOL     OW27820   3.420   3.653   7.246  0.1834 -0.4597 -0.4547
 5454SOL    HW127821   3.335   3.650   7.288  0.4971  2.5650  0.3776
 5454SOL    HW227822   3.439   3.747   7.247 -1.4793 -0.1668  2.4394
 5455SOL     OW27823   1.463   3.707   9.179  0.5850 -0.2349 -0.2883
 5455SOL    HW127824   1.549   3.669   9.163  0.0265 -1.3926 -0.5489
 5455SOL    HW227825   1.478   3.798   9.154 -0.7522  0.4956  1.5027
 5456SOL     OW27826   2.872   4.001  14.866  0.4143 -0.4766  0.0589
 5456SOL    HW127827   2.966   4.006  14.852  0.3769 -2.7776 -1.1103
 5456SOL    HW227828   2.851   3.914  14.832  0.6101 -0.4503 -0.1298
 5457SOL     OW27829   3.791   0.449  14.053 -0.1737 -0.3020  0.2064
 5457SOL    HW127830   3.882   0.470  14.074  1.0480 -1.6615 -3.7006
 5457SOL    HW227831   3.769   0.499  13.974 -1.4050 -0.8447  0.2093
 5458SOL     OW27832   0.604   4.006   4.432  0.6169  0.1273  0.4713
 5458SOL    HW127833   0.636   3.916   4.429  0.4117  0.0940 -0.4238
 5458SOL    HW227834   0.513   3.997   4.460 -0.2195 -0.1894 -2.3509
 5459SOL     OW27835   0.047   1.322  11.296 -0.4773  1.0029  0.4601
 5459SOL    HW127836   0.135   1.315  11.331 -1.2753  1.9906  2.6558
 5459SOL    HW227837   0.064   1.368  11.214 -1.3220  0.6153  0.0664
 5460SOL     OW27838   1.030   2.778   7.103  0.4166  0.3097  0.1614
 5460SOL    HW127839   1.001   2.778   7.195 -1.0284 -0.6385 -0.2816
 5460SOL    HW227840   1.022   2.683   7.088 -0.5820  0.3202  0.5697
 5461SOL     OW27841   0.715   3.324   6.972 -0.2587 -0.4425 -0.6699
 5461SOL    HW127842   0.716   3.410   6.930 -0.9260  0.4512  1.1694
 5461SOL    HW227843   0.622   3.313   6.949  0.2950 -3.9744 -1.3175
 5462SOL     OW27844   3.428   2.058   4.665 -0.2979 -0.3580 -0.2947
 5462SOL    HW127845   3.342   2.023   4.690 -0.9487 -0.1142 -2.1829
 5462SOL    HW227846   3.490   2.047   4.737  1.2288 -3.9996 -2.1458
 5463SOL     OW27847   1.474   2.431   7.309  0.4337 -0.7320 -0.4101
 5463SOL    HW127848   1.551   2.450   7.257  2.4501 -1.1529  2.4172
 5463SOL    HW227849   1.436   2.518   7.320  1.6335 -0.2077 -0.4357
 5464SOL     OW27850   2.448   1.195   5.665 -0.6021  0.2399  0.0947
 5464SOL    HW127851   2.453   1.291   5.662  1.5607  0.0811 -1.5166
 5464SOL    HW227852   2.453   1.187   5.570 -1.9938  3.1622 -0.2372
 5465SOL     OW27853   3.867   3.328  10.479 -0.0147 -0.2537 -0.1014
 5465SOL    HW127854   3.820   3.409  10.461 -0.2030 -0.8594 -2.3401
 5465SOL    HW227855   3.879   3.351  10.571  0.3917  0.6389 -0.3790
 5466SOL     OW27856   4.221   4.127   7.538 -0.1679 -0.1139  0.2167
 5466SOL    HW127857   4.203   4.146   7.445  0.8888 -0.1965  0.0026
 5466SOL    HW227858   4.207   4.218   7.564  0.6596  0.0984 -0.1023
 5467SOL     OW27859   1.235   0.409   6.395 -0.2278  0.1212 -0.6259
 5467SOL    HW127860   1.267   0.319   6.386 -0.7296 -0.2014  0.8189
 5467SOL    HW227861   1.148   0.399   6.357 -0.1447 -0.4803 -0.6576
 5468SOL     OW27862   3.347   0.899   0.936 -0.4462  0.0353 -0.1430
 5468SOL    HW127863   3.325   0.990   0.957 -2.0072  0.2343 -2.7154
 5468SOL    HW227864   3.300   0.893   0.853  1.0764 -2.5988 -0.7911
 5469SOL     OW27865   1.464   1.111  13.642 -0.1448 -0.2639 -0.4830
 5469SOL    HW127866   1.449   1.183  13.704  2.1599  1.1030 -1.5287
 5469SOL    HW227867   1.549   1.139  13.609  0.3734 -0.7796  0.4069
 5470SOL     OW27868   1.972   3.041   7.125  0.8315  0.3228  0.5173
 5470SOL    HW127869   1.998   3.001   7.208  0.0078  2.5141  1.8104
 5470SOL    HW227870   1.879   3.020   7.117  1.5003 -1.8350 -1.6191
 5471SOL     OW27871   2.125   2.423   8.520  0.1462 -0.0597  0.5816
 5471SOL    HW127872   2.119   2.361   8.448 -2.5636 -0.0453  0.7691
 5471SOL    HW227873   2.133   2.504   8.469 -0.3370  0.0232  0.6312
 5472SOL     OW27874   2.098   1.960   8.205 -0.6043 -0.1993  0.5973
 5472SOL    HW127875   2.090   1.988   8.114  0.0777  0.3530  0.7035
 5472SOL    HW227876   2.072   1.868   8.209 -0.0242 -0.3593  0.6332
 5473SOL     OW27877   0.862   0.084   3.961 -0.4760 -0.1666 -0.1127
 5473SOL    HW127878   0.917   0.032   4.019  0.0420  2.4160  1.6697
 5473SOL    HW227879   0.788   0.102   4.019 -1.5684 -1.2085 -1.1756
 5474SOL     OW27880   4.160   3.923   2.764  0.1286  0.0921 -0.4520
 5474SOL    HW127881   4.208   3.993   2.719 -3.6412  3.3614  0.6355
 5474SOL    HW227882   4.238   3.883   2.802  0.6704  0.7686 -0.8551
 5475SOL     OW27883   0.719   0.769   3.951  0.1619  0.8343  1.0055
 5475SOL    HW127884   0.790   0.718   3.991 -0.2022 -0.4611 -0.0147
 5475SOL    HW227885   0.697   0.707   3.882  0.7472  0.5519  1.0746
 5476SOL     OW27886   1.211   0.144  14.303 -0.1109 -0.4487  0.6507
 5476SOL    HW127887   1.172   0.231  14.295  0.5031 -0.5333 -3.2292
 5476SOL    HW227888   1.206   0.137  14.399  0.6437 -0.5953  0.6814
 5477SOL     OW27889   4.063   0.539   4.849  0.0007 -0.4631 -0.0391
 5477SOL    HW127890   4.140   0.531   4.906 -0.5085  0.8408  0.8446
 5477SOL    HW227891   4.032   0.449   4.849 -1.5799  0.0491  3.3240
 5478SOL     OW27892   3.050   2.445   1.799  0.1475 -0.6217  0.4022
 5478SOL    HW127893   3.010   2.376   1.852  1.4888 -0.8205  1.1684
 5478SOL    HW227894   3.011   2.422   1.715  2.0906 -0.4920 -0.5285
 5479SOL     OW27895   0.102   4.360   7.670 -0.3735 -0.3251 -0.1964
 5479SOL    HW127896   0.153   4.284   7.643 -0.2186 -0.9804  1.9491
 5479SOL    HW227897   0.067   4.396   7.589  1.3038 -0.0499 -0.8119
 5480SOL     OW27898   3.837   0.391   8.875 -0.2278  0.3723  0.8109
 5480SOL    HW127899   3.810   0.462   8.934 -2.0385 -0.2454  0.7355
 5480SOL    HW227900   3.760   0.334   8.880 -2.1654  2.8347 -1.0731
 5481SOL     OW27901   3.012   3.237   6.499  0.3850 -0.4418  0.0355
 5481SOL    HW127902   2.977   3.269   6.582  0.3263 -1.9064  0.5733
 5481SOL    HW227903   2.998   3.144   6.513  0.3033 -0.3267  0.7379
 5482SOL     OW27904   0.794   2.771   6.035  1.1844 -0.2200 -0.0790
 5482SOL    HW127905   0.885   2.747   6.017  0.7148 -3.8291  2.3405
 5482SOL    HW227906   0.752   2.686   6.047  0.4175  0.1995  0.1793
 5483SOL     OW27907   2.403   3.797   4.368  0.4589  0.2611  0.4268
 5483SOL    HW127908   2.495   3.807   4.342 -0.1698  1.6481 -1.2779
 5483SOL    HW227909   2.345   3.807   4.293  0.0536 -2.0134  0.4247
 5484SOL     OW27910   1.007   1.472   4.932 -0.3143 -0.1675 -0.0656
 5484SOL    HW127911   1.035   1.475   4.841  0.8373 -0.6865  0.2614
 5484SOL    HW227912   0.966   1.385   4.932 -1.9602  0.6152  1.3814
 5485SOL     OW27913   3.544   3.916  13.267 -0.0314  0.2560  0.0045
 5485SOL    HW127914   3.544   3.899  13.172  2.5317 -2.2160  0.4503
 5485SOL    HW227915   3.483   3.989  13.271  0.1590  0.4205 -0.0707
 5486SOL     OW27916   1.014   0.871  11.147  0.1108  0.0452 -1.0580
 5486SOL    HW127917   1.102   0.853  11.178  0.3496 -0.3862 -1.9741
 5486SOL    HW227918   1.015   0.829  11.060  1.4138 -0.1092 -0.9707
 5487SOL     OW27919   0.504   0.510   5.380 -0.2564 -0.1078  0.0839
 5487SOL    HW127920   0.590   0.468   5.378  0.0130  0.2727  2.7198
 5487SOL    HW227921   0.522   0.598   5.347 -1.0692 -0.0302 -0.1571
 5488SOL     OW27922   0.561   1.532   9.852 -0.3410 -0.6269  0.1513
 5488SOL    HW127923   0.537   1.624   9.861  0.6778 -0.4612  1.1165
 5488SOL    HW227924   0.653   1.548   9.873 -0.2256 -1.1085  0.0084
 5489SOL     OW27925   3.906   4.283   8.691  0.3563 -0.4284  0.5847
 5489SOL    HW127926   3.825   4.253   8.650  0.2020  0.1061  0.5080
 5489SOL    HW227927   3.878   4.369   8.723  1.1702  0.0812 -0.1012
 5490SOL     OW27928   2.364   2.360   5.855 -0.8212  0.4326  0.4012
 5490SOL    HW127929   2.434   2.415   5.822 -1.5756  1.0152 -0.2270
 5490SOL    HW227930   2.339   2.320   5.772 -4.1620 -0.6023  1.8868
 5491SOL     OW27931   1.873   4.079   4.783  0.2311 -0.3341 -0.3349
 5491SOL    HW127932   1.838   4.003   4.829 -1.6249  0.4105 -0.5467
 5491SOL    HW227933   1.948   4.098   4.841  0.3130 -0.0521 -0.5326
 5492SOL     OW27934   4.356   0.446   3.274  0.5098  0.7984  0.0056
 5492SOL    HW127935   4.260   0.453   3.276  0.5150  1.3937 -1.9956
 5492SOL    HW227936   4.380   0.530   3.313  1.1619  1.9121 -2.8142
 5493SOL     OW27937   2.997   2.883  11.229  0.2277  0.5854  0.8203
 5493SOL    HW127938   2.904   2.898  11.246 -0.3521 -1.4015 -0.6558
 5493SOL    HW227939   3.006   2.790  11.250 -1.8457  0.6630  2.1876
 5494SOL     OW27940   3.021   4.693   6.915  0.0387 -0.0476  0.2335
 5494SOL    HW127941   3.038   4.701   6.821 -1.5347  0.2099 -0.0259
 5494SOL    HW227942   2.926   4.704   6.916  0.1761  1.0575  0.5356
 5495SOL     OW27943   1.831   3.683   2.548  0.2253 -0.3555  0.2719
 5495SOL    HW127944   1.786   3.732   2.617 -1.4072  0.1145 -1.1259
 5495SOL    HW227945   1.881   3.756   2.512 -0.7553  1.6343  2.9227
 5496SOL     OW27946   0.762   1.074  14.554  0.4147 -0.3640  0.5785
 5496SOL    HW127947   0.787   1.026  14.475  1.3106 -1.2737  1.4129
 5496SOL    HW227948   0.851   1.095  14.583  0.1823  0.6490  0.5588
 5497SOL     OW27949   1.262   3.352   5.859 -0.1551 -0.0093 -0.7485
 5497SOL    HW127950   1.283   3.383   5.771 -0.7432  2.1618 -0.1163
 5497SOL    HW227951   1.255   3.442   5.890  0.0498  0.2887 -1.5871
 5498SOL     OW27952   1.276   1.289   1.581  0.1798 -0.1567 -0.0727
 5498SOL    HW127953   1.231   1.248   1.507  1.4157 -0.4343 -0.6686
 5498SOL    HW227954   1.330   1.214   1.605  2.1495  1.7063  1.3071
 5499SOL     OW27955   4.672   4.017  10.830  0.1365 -0.1051 -0.2356
 5499SOL    HW127956   0.018   3.964  10.859 -0.9790 -2.1321 -1.1013
 5499SOL    HW227957   4.605   3.988  10.892  1.7473  0.9090  2.0016
 5500SOL     OW27958   4.206   0.760   5.681  0.2561 -0.0042  0.0598
 5500SOL    HW127959   4.143   0.829   5.703  2.1470  0.7240  3.1546
 5500SOL    HW227960   4.283   0.784   5.733  1.0874 -0.6517 -0.8862
 5501SOL     OW27961   2.492   3.217   6.966  0.4101 -0.7546  1.0699
 5501SOL    HW127962   2.438   3.276   6.912  3.1315  0.0804 -0.7246
 5501SOL    HW227963   2.516   3.279   7.035  0.5812 -1.4855  1.6615
 5502SOL     OW27964   2.813   3.768  15.478  0.6041  0.4089  0.5107
 5502SOL    HW127965   2.727   3.794  15.445  0.2333 -1.4831 -0.0260
 5502SOL    HW227966   2.867   3.812  15.412 -0.7619  1.0491 -0.1850
 5503SOL     OW27967   1.228   3.193  14.902 -0.4415 -0.4089 -0.0022
 5503SOL    HW127968   1.294   3.252  14.864 -0.7185  1.8420  2.9924
 5503SOL    HW227969   1.164   3.172  14.834 -0.6357 -2.6240  0.8760
 5504SOL     OW27970   1.225   4.557  14.154 -0.4112 -0.0487 -0.1017
 5504SOL    HW127971   1.175   4.502  14.095  0.9072 -0.5519 -0.7490
 5504SOL    HW227972   1.216   4.506  14.235 -1.0075 -2.5556 -1.7596
 5505SOL     OW27973   3.057   0.735   1.318 -0.7043 -0.5579  0.3739
 5505SOL    HW127974   3.020   0.653   1.350  0.7686 -2.1482 -2.0354
 5505SOL    HW227975   3.009   0.796   1.374  1.0263  1.2187 -0.0654
 5506SOL     OW27976   4.171   4.121  12.888  0.5166  0.0837 -0.5583
 5506SOL    HW127977   4.189   4.164  12.804  2.8775  0.4985  0.1371
 5506SOL    HW227978   4.237   4.168  12.940 -1.2748  0.2085  1.5681
 5507SOL     OW27979   2.854   0.313  13.839  0.8414  0.5230  0.2093
 5507SOL    HW127980   2.847   0.384  13.903 -1.8651 -0.7042  1.2641
 5507SOL    HW227981   2.821   0.356  13.761  1.6272  0.9745  0.1263
 5508SOL     OW27982   3.979   3.997   6.820 -0.3278 -0.0683 -0.2063
 5508SOL    HW127983   4.021   3.927   6.771 -0.0894 -1.7685  2.4291
 5508SOL    HW227984   4.006   4.084   6.790  2.4208 -0.1730  1.9708
 5509SOL     OW27985   1.949   0.055  11.120 -0.1379  0.3664  0.3522
 5509SOL    HW127986   1.926   0.052  11.027  0.6590  0.2329  0.1559
 5509SOL    HW227987   1.997   4.700  11.127 -0.0663  0.4888  1.2300
 5510SOL     OW27988   0.192   3.453   2.486 -0.5506  0.4096  0.0496
 5510SOL    HW127989   0.192   3.448   2.390 -0.2550 -0.2557  0.0833
 5510SOL    HW227990   0.259   3.522   2.490 -0.8809  0.7513 -0.2668
 5511SOL     OW27991   4.206   1.709   3.243 -0.0471 -0.5411 -0.0202
 5511SOL    HW127992   4.192   1.803   3.235 -0.8984 -0.7522 -0.9485
 5511SOL    HW227993   4.297   1.709   3.272 -0.6132 -0.9882  1.7851
 5512SOL     OW27994   0.701   2.525  15.471  0.0730 -0.1818 -0.0763
 5512SOL    HW127995   0.615   2.483  15.470  0.6771 -1.4460  1.1267
 5512SOL    HW227996   0.755   2.448  15.488  1.4825  0.3205 -2.2425
 5513SOL     OW27997   0.608   2.531   7.514  0.1154  0.1163 -0.0096
 5513SOL    HW127998   0.623   2.585   7.436  1.3074 -1.9430 -1.2135
 5513SOL    HW227999   0.697   2.524   7.547  0.1305  1.5686  0.2847
 5514SOL     OW28000   1.299   1.651   2.439  0.0081 -0.3173  0.0030
 5514SOL    HW128001   1.212   1.624   2.408 -0.1440  2.1108 -1.7245
 5514SOL    HW228002   1.338   1.648   2.352  1.7413  0.5294  0.7560
 5515SOL     OW28003   1.048   1.629   6.434  0.3149 -0.2307  0.0480
 5515SOL    HW128004   1.117   1.643   6.498  1.9523  0.8247 -1.9304
 5515SOL    HW228005   1.035   1.535   6.446  0.4233 -0.4853 -1.7232
 5516SOL     OW28006   3.610   2.492   5.154  0.5058 -0.5575  0.4028
 5516SOL    HW128007   3.676   2.514   5.087 -1.6125  2.3877 -0.6943
 5516SOL    HW228008   3.621   2.569   5.210 -0.8600 -0.6056  0.7318
 5517SOL     OW28009   0.522   4.047   2.691  0.1153  0.5140  0.2520
 5517SOL    HW128010   0.596   4.006   2.647  1.8988  1.7734  2.1202
 5517SOL    HW228011   0.446   4.005   2.650  0.7877 -1.3085  0.9012
 5518SOL     OW28012   3.666   1.646  14.562 -0.6327 -0.4089  0.3701
 5518SOL    HW128013   3.692   1.597  14.484 -1.0734  0.9458 -0.6352
 5518SOL    HW228014   3.666   1.740  14.540 -0.3207 -0.5261 -0.1312
 5519SOL     OW28015   3.159   0.036   4.618 -0.1844  0.3716 -0.2657
 5519SOL    HW128016   3.238   0.039   4.673 -0.9532  0.8632  0.8138
 5519SOL    HW228017   3.127   0.126   4.619 -0.3815  0.3142 -1.8179
 5520SOL     OW28018   1.760   4.659   6.406  0.4741 -0.2018  0.6621
 5520SOL    HW128019   1.748   4.571   6.369 -1.1260  1.0550 -1.7810
 5520SOL    HW228020   1.673   4.699   6.411  0.0992 -1.1374  1.8220
 5521SOL     OW28021   0.777   4.639   7.657  0.0543 -0.3970 -0.0690
 5521SOL    HW128022   0.839   4.567   7.669 -1.0535 -1.2774  0.3846
 5521SOL    HW228023   0.759   4.674   7.744 -1.4829 -1.8688  0.2070
 5522SOL     OW28024   1.109   2.830   8.366 -0.3770 -0.3951  0.1062
 5522SOL    HW128025   1.020   2.820   8.333 -0.3692 -1.4143  0.3961
 5522SOL    HW228026   1.089   2.879   8.446  0.6924 -1.6754  1.1545
 5523SOL     OW28027   3.102   3.996   5.895 -0.2286  0.0839 -0.4200
 5523SOL    HW128028   3.116   4.003   5.800 -0.8639  1.3933 -0.4268
 5523SOL    HW228029   3.022   3.945   5.907  0.5513 -1.0710 -0.1918
 5524SOL     OW28030   1.199   2.679   4.833  0.2525  0.0078  0.4365
 5524SOL    HW128031   1.275   2.736   4.845  0.2912 -0.0205  0.3269
 5524SOL    HW228032   1.174   2.640   4.917  0.9732  0.5915  0.9185
 5525SOL     OW28033   1.622   0.054   9.168  0.3182  0.2480  0.2187
 5525SOL    HW128034   1.625   4.688   9.147 -2.7910  0.3916 -0.9030
 5525SOL    HW228035   1.594   0.048   9.260  1.2397 -0.4725  0.4505
 5526SOL     OW28036   4.145   0.403   2.357  0.4519  0.2676 -0.0665
 5526SOL    HW128037   4.094   0.338   2.308  1.5973 -0.2057 -0.6301
 5526SOL    HW228038   4.072   0.461   2.379 -1.1113 -1.8841  0.4029
 5527SOL     OW28039   4.213   2.372  11.830 -0.2575 -0.3552 -0.2380
 5527SOL    HW128040   4.216   2.452  11.777  0.7386 -0.7335 -0.7572
 5527SOL    HW228041   4.263   2.314  11.773 -0.0509 -0.2374 -0.1754
 5528SOL     OW28042   2.109   1.975   3.575  0.1135 -0.0418 -0.4164
 5528SOL    HW128043   2.063   1.930   3.646  1.0570  0.6227  0.6251
 5528SOL    HW228044   2.143   2.053   3.618  5.9209 -2.7744 -0.0512
 5529SOL     OW28045   0.915   1.804   0.233  0.6353  0.1400 -0.2373
 5529SOL    HW128046   0.859   1.743   0.282  1.0997 -1.0547 -1.1874
 5529SOL    HW228047   0.955   1.860   0.299  0.2637  2.1136 -1.7007
 5530SOL     OW28048   0.845   3.419   8.677  0.2168 -0.1768 -0.0338
 5530SOL    HW128049   0.862   3.358   8.750 -1.8523  0.4098  0.9366
 5530SOL    HW228050   0.918   3.393   8.620 -0.1684 -3.3911  0.9438
 5531SOL     OW28051   2.840   1.684   8.193  0.4987 -0.2114 -0.1467
 5531SOL    HW128052   2.786   1.683   8.272  2.3728  0.0778  1.1403
 5531SOL    HW228053   2.873   1.594   8.192  2.2324  0.4183  0.5762
 5532SOL     OW28054   4.721   1.104  10.981  0.1033 -0.0855 -0.6068
 5532SOL    HW128055   0.010   1.190  11.019 -0.8757 -0.2817  0.2965
 5532SOL    HW228056   4.717   1.130  10.889 -1.2848  0.2905 -0.4377
 5533SOL     OW28057   3.884   0.414   9.982  0.5700 -0.2832  0.0906
 5533SOL    HW128058   3.956   0.477   9.987  0.6959 -0.4637  0.5066
 5533SOL    HW228059   3.815   0.457   9.932  1.2777 -1.6636 -2.1137
 5534SOL     OW28060   1.742   2.481   7.154  0.2002 -0.2360 -0.2576
 5534SOL    HW128061   1.796   2.403   7.141  1.1081  0.5550 -1.2056
 5534SOL    HW228062   1.785   2.552   7.107  1.5065  0.3648  1.8264
 5535SOL     OW28063   4.027   4.173   5.173 -0.6549 -0.7656  0.1987
 5535SOL    HW128064   4.075   4.256   5.168  0.5096 -1.4906 -0.8965
 5535SOL    HW228065   4.091   4.117   5.128 -0.0669 -0.5453  0.7685
 5536SOL     OW28066   3.036   1.356   5.766  0.3465 -0.5549  0.3688
 5536SOL    HW128067   3.108   1.378   5.707 -2.1810  0.3757 -2.3744
 5536SOL    HW228068   2.995   1.440   5.788 -2.6695 -1.7112 -0.7525
 5537SOL     OW28069   0.125   4.388   6.688 -0.2158  0.4950  0.2698
 5537SOL    HW128070   0.107   4.466   6.636  1.6224 -0.7970 -2.3129
 5537SOL    HW228071   0.104   4.319   6.625  0.6821 -0.1837  0.7157
 5538SOL     OW28072   0.294   4.177   9.034 -0.2170  0.0447 -0.5651
 5538SOL    HW128073   0.342   4.095   9.024  1.3825  0.5856  2.6282
 5538SOL    HW228074   0.312   4.205   9.124 -0.2955 -0.3578 -0.4251
 5539SOL     OW28075   3.416   1.129   7.649 -0.0489 -0.1309  0.2092
 5539SOL    HW128076   3.463   1.204   7.686  0.3814 -1.4769  2.3713
 5539SOL    HW228077   3.467   1.108   7.571  0.5973 -1.3980  0.9779
 5540SOL     OW28078   2.657   3.305   6.442  0.1538 -0.0326 -0.5724
 5540SOL    HW128079   2.692   3.367   6.378 -1.1607  1.3533  0.0658
 5540SOL    HW228080   2.704   3.319   6.524 -1.3116 -0.7515  0.3843
 5541SOL     OW28081   4.587   3.730  13.206  0.1067 -0.4579  0.1019
 5541SOL    HW128082   4.673   3.687  13.208  0.4300  0.1652 -0.7110
 5541SOL    HW228083   4.551   3.700  13.290  0.0483  0.6005  0.4578
 5542SOL     OW28084   1.451   1.637   6.534 -0.4184 -0.0628 -0.0159
 5542SOL    HW128085   1.425   1.648   6.442 -0.7402 -0.4148  0.0300
 5542SOL    HW228086   1.437   1.724   6.571  0.6458  0.1269 -0.0654
 5543SOL     OW28087   2.111   4.351  12.262  0.2888 -0.5006 -0.0296
 5543SOL    HW128088   2.182   4.286  12.253 -0.9492 -1.9554  0.7154
 5543SOL    HW228089   2.035   4.294  12.260  1.2439 -1.7719 -0.3327
 5544SOL     OW28090   1.853   2.537   4.726  0.7120  0.2121 -0.1868
 5544SOL    HW128091   1.927   2.550   4.666  1.1051 -0.7155  0.1014
 5544SOL    HW228092   1.887   2.452   4.753  0.4686 -0.1304 -0.9540
 5545SOL     OW28093   3.878   1.239  11.123 -0.1950  0.1804  0.1289
 5545SOL    HW128094   3.794   1.285  11.122  0.7485  1.7803 -2.6583
 5545SOL    HW228095   3.850   1.147  11.129  1.2823 -0.2470  0.3747
 5546SOL     OW28096   2.748   2.816   6.426  0.2195 -0.0406  0.5460
 5546SOL    HW128097   2.705   2.739   6.462  0.5182 -0.7029 -0.5205
 5546SOL    HW228098   2.683   2.845   6.362 -1.0429  0.3817  2.0258
 5547SOL     OW28099   4.484   2.350   3.706 -0.0896  0.0186 -0.1975
 5547SOL    HW128100   4.441   2.435   3.699 -0.2736  0.0166  0.9841
 5547SOL    HW228101   4.524   2.349   3.618  0.1653  0.0299 -0.0818
 5548SOL     OW28102   1.743   4.051  15.638 -0.4022 -0.0506  0.3177
 5548SOL    HW128103   1.739   3.978  15.700 -1.3728 -1.2857 -1.2277
 5548SOL    HW228104   1.650   4.061  15.614  0.5455 -0.5280 -3.4334
 5549SOL     OW28105   4.215   1.984  14.993 -0.2050  0.0979  0.6272
 5549SOL    HW128106   4.258   1.908  15.033  0.3230  0.1342  0.1306
 5549SOL    HW228107   4.143   1.951  14.938 -0.0537  1.7954 -0.6005
 5550SOL     OW28108   0.805   2.206   2.535  0.4692 -0.2057 -0.0932
 5550SOL    HW128109   0.788   2.274   2.601  1.2083 -1.7446  1.6813
 5550SOL    HW228110   0.900   2.204   2.534  0.4482 -0.4516 -1.4611
 5551SOL     OW28111   0.600   2.653  17.038  0.0729  0.7168 -0.3310
 5551SOL    HW128112   0.609   2.678  17.130  0.5216 -0.9956  0.1055
 5551SOL    HW228113   0.689   2.671  17.007  1.8590 -3.3058  2.4056
 5552SOL     OW28114   3.867   1.295   2.616  0.0383  0.1278 -0.5917
 5552SOL    HW128115   3.866   1.342   2.533  0.4730  0.5915 -0.3314
 5552SOL    HW228116   3.841   1.209   2.584  1.2105  0.0607 -1.3619
 5553SOL     OW28117   0.243   4.521   5.248  0.2013 -0.0794 -0.1645
 5553SOL    HW128118   0.204   4.492   5.331 -0.9339 -3.7505 -1.9831
 5553SOL    HW228119   0.212   4.467   5.176 -0.9634  0.0764  0.2209
 5554SOL     OW28120   4.310   1.681   4.906  0.0246 -0.0400  0.5657
 5554SOL    HW128121   4.275   1.625   4.976 -1.0342 -0.5118 -0.3314
 5554SOL    HW228122   4.363   1.615   4.861 -0.1907 -0.5018  0.9780
 5555SOL     OW28123   2.569   3.879  15.391  0.5633 -0.1048  0.1381
 5555SOL    HW128124   2.477   3.853  15.397  0.8146 -0.8568  0.7071
 5555SOL    HW228125   2.564   3.934  15.312 -2.0666  2.2031  1.8936
 5556SOL     OW28126   2.164   2.731  12.080 -0.1166 -0.2590 -0.1808
 5556SOL    HW128127   2.214   2.666  12.130 -1.1710 -0.6473  0.3766
 5556SOL    HW228128   2.198   2.816  12.106 -0.1779  0.3834 -2.1868
 5557SOL     OW28129   4.027   1.754   8.404  0.1012  0.3908  0.4143
 5557SOL    HW128130   4.112   1.712   8.417 -0.8027 -1.4800  0.2696
 5557SOL    HW228131   3.978   1.737   8.485 -1.0913  2.3749  0.0850
 5558SOL     OW28132   3.673   0.776  17.175  0.4268  0.1617  0.0153
 5558SOL    HW128133   3.766   0.753  17.164  0.6124 -0.0947  2.1510
 5558SOL    HW228134   3.676   0.871  17.185  0.2809 -0.2568  3.9959
 5559SOL     OW28135   3.394   3.281   6.737 -0.0292  0.3615  0.4766
 5559SOL    HW128136   3.400   3.336   6.659 -1.1741  0.8443  0.7233
 5559SOL    HW228137   3.323   3.321   6.787  1.8779  2.2160  1.6956
 5560SOL     OW28138   1.138   3.009  13.280  0.1267 -0.3587 -0.2121
 5560SOL    HW128139   1.227   3.014  13.245  0.2699 -1.1267  0.0411
 5560SOL    HW228140   1.156   3.005  13.374  1.1973  2.8612 -0.2911
 5561SOL     OW28141   0.745   4.443   8.266  0.3818 -0.5665  0.4997
 5561SOL    HW128142   0.717   4.351   8.272 -3.1328  0.3814 -1.7730
 5561SOL    HW228143   0.716   4.474   8.351  1.7619  2.2488 -0.0730
 5562SOL     OW28144   3.948   2.560   1.617 -0.0586  0.3924  0.5094
 5562SOL    HW128145   3.868   2.604   1.647 -0.3616 -0.6178  1.2039
 5562SOL    HW228146   3.964   2.595   1.530 -2.4921  1.3026  0.4375
 5563SOL     OW28147   4.585   0.874   7.737  0.4285 -0.3427  0.0362
 5563SOL    HW128148   4.627   0.791   7.716 -0.8566 -0.8509 -0.5863
 5563SOL    HW228149   4.500   0.850   7.775  0.2634  0.5223  0.2092
 5564SOL     OW28150   2.121   4.570   1.996 -0.5821  0.2625 -0.0597
 5564SOL    HW128151   2.113   4.613   1.911 -4.8966  1.3074  0.8851
 5564SOL    HW228152   2.103   4.646   2.052  0.5161 -0.7190  1.6277
 5565SOL     OW28153   3.484   2.919   8.681 -0.4242 -0.2137 -0.4205
 5565SOL    HW128154   3.498   3.014   8.691 -2.3240  0.0076  0.1274
 5565SOL    HW228155   3.570   2.879   8.698  0.0233  1.0166  0.2670
 5566SOL     OW28156   0.349   4.135  10.168  0.1872  0.1412 -0.1662
 5566SOL    HW128157   0.380   4.086  10.244  0.6436  0.1317 -0.3561
 5566SOL    HW228158   0.257   4.112  10.162  0.3559 -0.8093  0.8982
 5567SOL     OW28159   2.068   2.111   2.138  0.1723  0.1508 -0.0906
 5567SOL    HW128160   2.133   2.166   2.182 -1.8252  0.9911  1.8225
 5567SOL    HW228161   2.130   2.050   2.097 -0.8830 -1.4064  0.6281
 5568SOL     OW28162   3.698   0.852  15.196 -0.3579 -0.1184  0.1780
 5568SOL    HW128163   3.606   0.864  15.222  0.4541 -0.8548  3.3722
 5568SOL    HW228164   3.718   0.931  15.146 -1.4473 -0.2036 -0.3992
 5569SOL     OW28165   1.268   3.867   1.500  0.8353 -0.4817  0.3598
 5569SOL    HW128166   1.349   3.920   1.501 -1.0588  2.4120  2.2488
 5569SOL    HW228167   1.222   3.889   1.581  0.4987 -1.3132  0.3853
 5570SOL     OW28168   1.029   1.378   4.514 -0.6180  0.4770  0.0950
 5570SOL    HW128169   1.076   1.423   4.443  1.2392 -2.7973 -0.7782
 5570SOL    HW228170   0.961   1.443   4.526  1.4843  2.5070  1.0466
 5571SOL     OW28171   2.614   0.330   3.039 -0.0143 -0.8596 -0.1812
 5571SOL    HW128172   2.538   0.334   3.098 -0.2297 -0.7648 -0.4664
 5571SOL    HW228173   2.586   0.262   2.978  0.8642  0.5684 -2.1898
 5572SOL     OW28174   4.600   3.849   2.383  0.0818 -0.6531 -0.1220
 5572SOL    HW128175   4.576   3.768   2.337 -0.4311 -0.7243  0.2686
 5572SOL    HW228176   4.524   3.906   2.371  0.3966  0.0701  1.3882
 5573SOL     OW28177   2.947   3.611  14.596 -0.2802 -0.9075  0.0846
 5573SOL    HW128178   3.030   3.569  14.572 -0.1416 -0.2383 -0.6112
 5573SOL    HW228179   2.881   3.550  14.563  0.7087 -1.9461 -0.0128
 5574SOL     OW28180   4.158   2.877  10.139  0.7006  0.6169 -0.0939
 5574SOL    HW128181   4.111   2.924  10.208  0.3899  1.2267 -0.7208
 5574SOL    HW228182   4.207   2.809  10.185  0.6735 -0.1110 -1.1457
 5575SOL     OW28183   0.924   0.780   6.641 -0.8984  0.3658 -0.1977
 5575SOL    HW128184   0.933   0.849   6.706 -1.1058  2.1259 -2.0508
 5575SOL    HW228185   0.829   0.769   6.641 -0.3780 -4.2188  0.2835
 5576SOL     OW28186   3.743   1.470  10.608 -0.2943  0.4795  0.2007
 5576SOL    HW128187   3.820   1.500  10.559  0.8415 -0.0949  1.6114
 5576SOL    HW228188   3.689   1.547  10.590  1.2353  1.5648  0.2158
 5577SOL     OW28189   3.464   3.325   6.122  0.7758 -0.8868 -0.0036
 5577SOL    HW128190   3.445   3.279   6.204  0.6152 -0.2359  0.3199
 5577SOL    HW228191   3.420   3.266   6.060 -1.4267  1.6692 -0.8409
 5578SOL     OW28192   3.572   2.806   0.436 -0.3032 -0.1405 -0.1251
 5578SOL    HW128193   3.653   2.846   0.404 -0.0230  0.9267  1.8931
 5578SOL    HW228194   3.569   2.735   0.372  1.4386  0.4609 -0.8954
 5579SOL     OW28195   1.613   1.289  16.385  0.9501  1.0060  0.5107
 5579SOL    HW128196   1.570   1.319  16.305 -1.4409  0.2797  1.5256
 5579SOL    HW228197   1.637   1.376  16.418  0.6016  0.7280  1.4818
 5580SOL     OW28198   3.895   3.149   4.674  0.4150  0.6336 -0.5294
 5580SOL    HW128199   3.873   3.215   4.609 -1.1113  1.2463  0.6053
 5580SOL    HW228200   3.890   3.068   4.623  1.5590  0.2777 -0.0831
 5581SOL     OW28201   0.797   2.439  17.059  0.0879 -0.3355  0.2696
 5581SOL    HW128202   0.859   2.445  17.132  0.0058 -1.4837  0.4264
 5581SOL    HW228203   0.727   2.384  17.093  1.1630 -0.8403  1.6591
 5582SOL     OW28204   2.530   1.820   7.608  0.1452 -0.0105  0.2571
 5582SOL    HW128205   2.544   1.906   7.648 -0.7894  0.2481  0.0252
 5582SOL    HW228206   2.445   1.839   7.568 -1.0272 -1.6615  1.9545
 5583SOL     OW28207   1.375   2.391   4.351 -0.1907 -0.0289  0.2775
 5583SOL    HW128208   1.461   2.369   4.317 -1.3312  0.1916 -2.7863
 5583SOL    HW228209   1.354   2.312   4.401 -1.6716  0.8109  0.9894
 5584SOL     OW28210   4.716   2.238   8.384 -0.0862  0.0560  0.2045
 5584SOL    HW128211   4.717   2.288   8.302  2.8409 -0.5981 -0.1388
 5584SOL    HW228212   4.647   2.282   8.435 -1.5312 -0.1281 -1.5701
 5585SOL     OW28213   3.884   2.009   2.556 -0.0556 -0.4872  0.1493
 5585SOL    HW128214   3.847   2.008   2.644 -1.0146 -3.1710 -0.2773
 5585SOL    HW228215   3.808   1.982   2.503  0.3902 -1.8348  0.2016
 5586SOL     OW28216   1.259   0.844   2.705  0.2605 -0.1676  0.2967
 5586SOL    HW128217   1.334   0.816   2.652  1.1421  0.3850  1.2471
 5586SOL    HW228218   1.185   0.794   2.671 -0.6371  0.9482  0.6429
 5587SOL     OW28219   2.178   2.998   8.893 -0.1073  0.8613  0.1442
 5587SOL    HW128220   2.090   2.961   8.904 -1.6131  4.3189 -0.1696
 5587SOL    HW228221   2.167   3.045   8.810 -1.1609 -2.7299 -1.7258
 5588SOL     OW28222   4.057   4.268   4.418 -0.3131  0.5683  0.2131
 5588SOL    HW128223   4.089   4.179   4.404 -1.9975  0.5068 -3.1862
 5588SOL    HW228224   4.011   4.279   4.335  0.6429 -0.6519 -0.4807
 5589SOL     OW28225   4.718   1.012   1.228  0.0742 -0.3692  0.6847
 5589SOL    HW128226   0.059   0.951   1.202 -0.4259 -0.7763  0.2856
 5589SOL    HW228227   4.706   0.968   1.312  3.8355 -2.1219  0.3136
 5590SOL     OW28228   2.871   4.706   5.824  0.7581 -0.0877 -0.4487
 5590SOL    HW128229   2.949   4.666   5.786  0.2807  0.8152 -2.3786
 5590SOL    HW228230   2.827   0.001   5.742 -0.0638  0.1513  0.0608
 5591SOL     OW28231   2.519   1.017  17.551  0.0028  0.0640 -0.0776
 5591SOL    HW128232   2.429   1.043  17.531  0.6328  0.4982 -2.2722
 5591SOL    HW228233   2.558   1.005  17.465  1.1180 -1.0224  0.5680
 5592SOL     OW28234   2.429   3.448  16.499  0.5141 -0.3913 -0.1282
 5592SOL    HW128235   2.518   3.446  16.534  1.5078 -0.5517 -2.6758
 5592SOL    HW228236   2.446   3.432  16.406 -0.5156 -0.1047 -0.3626
 5593SOL     OW28237   1.372   2.296   0.431  0.3933  0.9194  0.4291
 5593SOL    HW128238   1.413   2.254   0.355  0.8209  0.3507  0.9763
 5593SOL    HW228239   1.443   2.277   0.492  2.7727 -0.6601 -2.8114
 5594SOL     OW28240   0.666   0.531   4.704  0.0767  0.0796  0.2084
 5594SOL    HW128241   0.755   0.496   4.700 -0.6870 -1.8898  0.9049
 5594SOL    HW228242   0.621   0.455   4.739  1.3296 -0.2422  1.0921
 5595SOL     OW28243   4.348   1.926   5.612  1.0033 -0.2970  0.0927
 5595SOL    HW128244   4.388   1.921   5.699  1.3295 -1.4945 -0.1202
 5595SOL    HW228245   4.287   1.999   5.613  1.6175  0.2409 -0.8885
 5596SOL     OW28246   2.882   1.468   2.920 -0.0836 -0.1428  0.0825
 5596SOL    HW128247   2.903   1.389   2.870 -0.1428 -0.3249  0.3438
 5596SOL    HW228248   2.946   1.458   2.989 -1.1576 -0.4216  1.0431
 5597SOL     OW28249   1.417   1.411   4.446  0.3526  0.3173  0.4125
 5597SOL    HW128250   1.445   1.494   4.484 -0.2985  1.1650 -0.9333
 5597SOL    HW228251   1.327   1.437   4.424  0.0233 -1.5483 -0.5110
 5598SOL     OW28252   0.136   2.422  12.784  0.3397  0.5254 -0.1070
 5598SOL    HW128253   0.059   2.411  12.840 -0.6453  2.6231 -1.0567
 5598SOL    HW228254   0.128   2.514  12.761  1.9478  0.8162  0.5054
 5599SOL     OW28255   2.410   4.496   7.353 -0.6335 -0.2478  0.1448
 5599SOL    HW128256   2.426   4.579   7.397 -0.9108 -0.4169  0.5588
 5599SOL    HW228257   2.480   4.441   7.390 -0.7746 -0.8023 -0.4073
 5600SOL     OW28258   2.679   1.106   9.568  0.4845 -0.4102  0.0986
 5600SOL    HW128259   2.681   1.198   9.595  0.4139 -1.4110  3.5066
 5600SOL    HW228260   2.725   1.074   9.645 -0.8949 -0.1761  1.0132
 5601SOL     OW28261   1.838   0.113   8.981  0.6828  0.0116  0.3682
 5601SOL    HW128262   1.873   0.181   9.039  1.7163  0.2836 -0.5986
 5601SOL    HW228263   1.748   0.108   9.013  0.3411  0.3797 -0.5369
 5602SOL     OW28264   3.469   2.555   3.804  0.1115  0.1920  0.4735
 5602SOL    HW128265   3.407   2.537   3.733 -0.1855  0.3640  0.6892
 5602SOL    HW228266   3.548   2.509   3.776 -0.1034 -0.2928  0.6828
 5603SOL     OW28267   1.143   2.858   2.711  0.4941  0.6820 -0.0187
 5603SOL    HW128268   1.224   2.885   2.667  1.3863 -1.7690  0.1461
 5603SOL    HW228269   1.139   2.763   2.700  0.3820  0.1838  4.5021
 5604SOL     OW28270   1.156   3.827   5.830 -0.2258  0.1292 -0.0733
 5604SOL    HW128271   1.239   3.816   5.877  0.5346  1.1169 -1.1906
 5604SOL    HW228272   1.112   3.878   5.899 -1.7805 -0.8452 -0.3392
 5605SOL     OW28273   3.933   3.398  17.042  0.0914  0.5350  0.4240
 5605SOL    HW128274   3.972   3.329  17.095  0.1222  0.7748  0.7129
 5605SOL    HW228275   3.842   3.369  17.029 -0.3764  2.4071 -0.6000
 5606SOL     OW28276   1.916   1.784   2.954 -0.0578 -0.0333 -0.5241
 5606SOL    HW128277   1.952   1.751   2.872 -1.3500 -0.6121 -0.8660
 5606SOL    HW228278   1.858   1.848   2.911 -0.6653  0.7935  1.5432
 5607SOL     OW28279   0.450   4.379   0.173  0.5482 -0.1823  0.3270
 5607SOL    HW128280   0.533   4.338   0.196  0.8690  0.7733  0.8755
 5607SOL    HW228281   0.401   4.301   0.149 -0.0683  0.5055 -0.6502
 5608SOL     OW28282   1.547   3.341   6.907  0.0389 -0.0302  0.1798
 5608SOL    HW128283   1.509   3.387   6.832 -2.4184 -0.7391  0.9954
 5608SOL    HW228284   1.617   3.287   6.870  0.9947  0.8711  0.6644
 5609SOL     OW28285   0.084   1.056  11.386  0.1630 -0.1477 -0.4209
 5609SOL    HW128286   0.131   1.060  11.303  0.8206 -0.5509 -0.0748
 5609SOL    HW228287   0.146   1.109  11.436 -0.4187 -0.2944  0.4617
 5610SOL     OW28288   2.657   1.488  13.003  0.3543  0.1316  0.4418
 5610SOL    HW128289   2.634   1.426  12.934 -0.9806  0.9360  0.1777
 5610SOL    HW228290   2.575   1.522  13.036  1.2604  2.0697  0.6990
 5611SOL     OW28291   1.477   2.735  17.105 -0.5059 -0.0900 -0.3914
 5611SOL    HW128292   1.569   2.712  17.116  0.1269  1.8609 -1.6797
 5611SOL    HW228293   1.432   2.655  17.133  0.4604 -0.5861 -0.2462
 5612SOL     OW28294   3.687   1.383   4.070  0.1935 -0.1216 -0.1580
 5612SOL    HW128295   3.713   1.332   4.146 -3.2884 -2.5458 -0.5969
 5612SOL    HW228296   3.774   1.407   4.039  0.2413 -0.5432 -0.3403
 5613SOL     OW28297   1.141   0.474  16.171  0.5171 -0.0777  0.1616
 5613SOL    HW128298   1.099   0.389  16.155 -0.6636  0.9344 -2.0811
 5613SOL    HW228299   1.192   0.484  16.090  0.3718 -1.6251 -0.1249
 5614SOL     OW28300   0.872   4.342   4.698  0.1856  0.0138 -0.4669
 5614SOL    HW128301   0.901   4.401   4.629  1.8474  1.1882  1.2260
 5614SOL    HW228302   0.813   4.285   4.649 -1.3318  1.2413 -0.0679
 5615SOL     OW28303   0.341   3.311  15.276  0.3453  0.0094  0.1482
 5615SOL    HW128304   0.255   3.332  15.239  1.0179  0.1193 -1.3610
 5615SOL    HW228305   0.359   3.379  15.340 -0.3208 -0.0335  0.3896
 5616SOL     OW28306   0.098   2.176   3.301 -0.3386 -0.2114  0.5173
 5616SOL    HW128307   0.181   2.217   3.278 -0.8829 -0.0934 -1.2437
 5616SOL    HW228308   0.110   2.088   3.266 -0.9073 -0.4532  0.9316
 5617SOL     OW28309   2.865   3.566   4.224 -0.2198 -0.5070 -0.1605
 5617SOL    HW128310   2.827   3.480   4.207  1.1904 -1.1940  0.1064
 5617SOL    HW228311   2.830   3.568   4.313  0.3607  2.3432 -0.0104
 5618SOL     OW28312   3.776   0.925   4.773 -0.1713 -0.4880  0.4647
 5618SOL    HW128313   3.843   0.871   4.814  0.6820  0.8681  0.8645
 5618SOL    HW228314   3.748   0.864   4.705  1.4875  0.7094 -1.3040
 5619SOL     OW28315   1.377   3.103   3.829 -0.0525  0.3049  0.1955
 5619SOL    HW128316   1.395   3.022   3.877 -1.8116  0.1126  0.5391
 5619SOL    HW228317   1.283   3.095   3.813  0.0105 -0.8274  0.4219
 5620SOL     OW28318   1.864   0.679  17.036 -0.4897  0.4248  0.2722
 5620SOL    HW128319   1.856   0.703  17.128 -0.8292 -1.7290  0.8022
 5620SOL    HW228320   1.785   0.717  16.997 -1.4178 -0.1269  1.6079
 5621SOL     OW28321   3.858   4.132   6.449  0.8737  0.5898  0.4974
 5621SOL    HW128322   3.885   4.043   6.429  0.1839  0.3532  0.6183
 5621SOL    HW228323   3.932   4.190   6.428  1.3708  0.5306  2.0711
 5622SOL     OW28324   1.549   1.930   2.905 -0.7112 -0.2572 -0.2306
 5622SOL    HW128325   1.471   1.875   2.900 -0.5181 -0.6048  0.6472
 5622SOL    HW228326   1.586   1.932   2.816 -0.8183  1.8985 -0.2421
 5623SOL     OW28327   3.027   0.970  15.169  0.4788  0.3351 -0.0190
 5623SOL    HW128328   2.972   0.901  15.131 -0.0460 -0.6135  2.4018
 5623SOL    HW228329   3.008   0.969  15.263  2.5818  0.9600  0.3984
 5624SOL     OW28330   2.938   1.251  14.607  0.2962  0.1062 -0.6234
 5624SOL    HW128331   2.847   1.249  14.577  0.3444  0.7630 -0.8099
 5624SOL    HW228332   2.962   1.333  14.564  1.6202 -1.1299 -2.2179
 5625SOL     OW28333   2.136   0.346  11.226  0.1158  0.0400  0.4739
 5625SOL    HW128334   2.161   0.332  11.317 -1.4303  1.0676  1.0695
 5625SOL    HW228335   2.210   0.400  11.196 -0.4696  0.2273 -0.6643
 5626SOL     OW28336   4.301   4.347   4.207  0.7999  0.0476  0.0491
 5626SOL    HW128337   4.291   4.263   4.251  0.6757  0.0691  0.0596
 5626SOL    HW228338   4.291   4.325   4.115  2.5748 -0.6084  0.0110
 5627SOL     OW28339   0.715   4.693  13.529  0.0965  0.2219  0.2418
 5627SOL    HW128340   0.784   4.626  13.517  1.2165  1.8016 -2.0638
 5627SOL    HW228341   0.664   4.700  13.448  0.8007 -0.3387 -0.2569
 5628SOL     OW28342   2.473   3.928   5.609 -0.0932 -0.1445  0.0835
 5628SOL    HW128343   2.429   4.009   5.584  0.0621 -0.0420  0.1424
 5628SOL    HW228344   2.467   3.880   5.526 -0.6527 -1.6838  1.0022
 5629SOL     OW28345   1.077   0.713   2.561  0.4873 -0.2262 -0.5870
 5629SOL    HW128346   0.996   0.706   2.611  0.2600  1.2205 -0.7374
 5629SOL    HW228347   1.035   0.752   2.484 -0.1271  0.5574  0.1496
 5630SOL     OW28348   3.024   3.867  14.538  0.0716  0.2056  0.3898
 5630SOL    HW128349   3.041   3.871  14.443  0.3044 -1.2552  0.3663
 5630SOL    HW228350   2.972   3.786  14.541 -0.8975  0.8277  0.2955
 5631SOL     OW28351   2.195   1.589   8.456 -0.7661  0.0088  0.6445
 5631SOL    HW128352   2.240   1.506   8.473 -1.5233 -0.3096  1.1364
 5631SOL    HW228353   2.117   1.550   8.415 -0.0345 -0.9949  0.2067
 5632SOL     OW28354   4.267   3.365   6.676 -0.0780 -0.6067 -0.2186
 5632SOL    HW128355   4.305   3.320   6.600  3.2061  0.8809  0.5559
 5632SOL    HW228356   4.173   3.368   6.659 -0.5059 -2.5181  1.8754
 5633SOL     OW28357   3.593   0.442   6.566  0.3472 -0.4213  0.3207
 5633SOL    HW128358   3.650   0.400   6.501 -0.2148 -2.0154  0.8579
 5633SOL    HW228359   3.632   0.530   6.571  0.9424 -0.7163  0.9144
 5634SOL     OW28360   1.308   3.279   6.382  0.5291 -0.6959 -0.0905
 5634SOL    HW128361   1.401   3.258   6.393  0.4389 -1.2620 -0.4587
 5634SOL    HW228362   1.278   3.194   6.352 -1.3773  0.3009 -1.0128
 5635SOL     OW28363   0.738   4.389  17.362 -0.0958  0.4841 -0.1269
 5635SOL    HW128364   0.736   4.453  17.433 -2.7405 -0.6812  0.8512
 5635SOL    HW228365   0.817   4.341  17.386 -0.2341  0.6211  0.5885
 5636SOL     OW28366   2.479   4.589   9.011 -0.0243 -0.3046  0.5420
 5636SOL    HW128367   2.533   4.525   8.965  0.8878  0.9527 -0.1410
 5636SOL    HW228368   2.410   4.610   8.948 -0.8671 -0.7533  1.3230
 5637SOL     OW28369   1.923   4.587   8.980 -0.7116 -0.4803  0.0747
 5637SOL    HW128370   1.980   4.630   9.044  1.2664 -1.1746 -1.2285
 5637SOL    HW228371   1.866   4.663   8.967 -1.9767 -1.0190  2.5174
 5638SOL     OW28372   1.587   1.630   4.919  0.2385  0.4171  0.3791
 5638SOL    HW128373   1.529   1.681   4.976 -0.5461 -0.5740  0.4524
 5638SOL    HW228374   1.525   1.576   4.869  1.3266 -1.0284  0.6077
 5639SOL     OW28375   4.131   2.965   7.329  0.1846 -0.2818 -0.0024
 5639SOL    HW128376   4.189   2.901   7.370 -0.2599 -0.1800  0.7952
 5639SOL    HW228377   4.088   3.002   7.407  2.6648 -0.8945  1.6420
 5640SOL     OW28378   1.697   3.777   7.118 -0.1132  0.1029  0.0736
 5640SOL    HW128379   1.759   3.784   7.192 -2.6191  1.3026  2.0583
 5640SOL    HW228380   1.687   3.682   7.118 -1.0605  0.1923  3.2244
 5641SOL     OW28381   4.224   3.872  13.720 -0.5221  0.5018  0.1529
 5641SOL    HW128382   4.244   3.947  13.664 -0.2000  0.4933  0.2561
 5641SOL    HW228383   4.271   3.905  13.798  1.2624 -1.0070 -0.2788
 5642SOL     OW28384   1.898   2.263   5.869 -0.8161 -0.0201  0.0900
 5642SOL    HW128385   1.934   2.344   5.833  0.8286 -0.0888  1.6125
 5642SOL    HW228386   1.945   2.245   5.950  0.8861 -2.8556 -1.4857
 5643SOL     OW28387   2.159   4.353   9.228 -0.4861  0.0497  0.2928
 5643SOL    HW128388   2.134   4.428   9.282  0.5522  1.3281 -1.0418
 5643SOL    HW228389   2.085   4.340   9.169 -2.2433  0.6908  2.3208
 5644SOL     OW28390   1.788   4.385   4.111 -0.0296  0.5288  0.1867
 5644SOL    HW128391   1.792   4.403   4.205  1.1988  3.6730 -0.4522
 5644SOL    HW228392   1.734   4.461   4.088 -1.7999 -0.8100 -0.0577
 5645SOL     OW28393   1.776   2.370   4.026 -0.4837 -0.3601  0.5368
 5645SOL    HW128394   1.847   2.414   4.073 -0.6736 -0.5963  1.0444
 5645SOL    HW228395   1.738   2.447   3.982  0.8366  0.2450  0.4638
 5646SOL     OW28396   3.568   1.416  10.165  0.3196  0.1778  0.3578
 5646SOL    HW128397   3.535   1.326  10.167 -1.3533  0.8248  2.8450
 5646SOL    HW228398   3.486   1.459  10.189  1.0886  1.1477  1.2521
 5647SOL     OW28399   1.191   3.782   8.624 -0.1337  0.0710  0.4127
 5647SOL    HW128400   1.272   3.829   8.606 -0.6717 -0.2174 -2.8041
 5647SOL    HW228401   1.151   3.789   8.538  0.5995 -0.7614  0.0024
 5648SOL     OW28402   3.599   2.421   4.055  0.0138 -0.1764  0.3301
 5648SOL    HW128403   3.573   2.378   4.136  0.6935 -0.9912  0.1131
 5648SOL    HW228404   3.660   2.491   4.079 -2.4238  0.9971  3.1510
 5649SOL     OW28405   0.873   1.362   1.876  0.4930 -0.4271  0.1430
 5649SOL    HW128406   0.804   1.349   1.811  0.6349 -0.0935 -0.0789
 5649SOL    HW228407   0.821   1.346   1.955 -1.6610  1.7370 -0.7991
 5650SOL     OW28408   0.559   0.037  17.703  0.1432 -0.1447  0.4728
 5650SOL    HW128409   0.547   0.099   0.063 -1.5187 -0.9286  0.8908
 5650SOL    HW228410   0.468   0.006  17.710 -0.1276  0.0544 -2.4056
 5651SOL     OW28411   3.081   2.683   5.089  0.5271  0.1500 -0.1306
 5651SOL    HW128412   3.024   2.634   5.149 -0.5040  0.5180 -0.8107
 5651SOL    HW228413   3.130   2.607   5.057  0.4929 -0.3165  0.8969
 5652SOL     OW28414   1.255   4.395   7.050  0.0173 -0.0622  0.4974
 5652SOL    HW128415   1.200   4.357   7.119 -1.7570 -0.6660 -1.2157
 5652SOL    HW228416   1.251   4.322   6.987  0.0611  2.4199 -2.3744
 5653SOL     OW28417   0.209   3.289  10.886 -0.1253  0.6324 -0.0918
 5653SOL    HW128418   0.179   3.245  10.966  0.7533 -0.1758 -0.2199
 5653SOL    HW228419   0.275   3.225  10.861 -0.6362  0.9019 -2.1578
 5654SOL     OW28420   0.195   3.675   3.292 -0.2287  0.2554 -0.0009
 5654SOL    HW128421   0.134   3.749   3.290 -0.3736  0.1087 -1.4939
 5654SOL    HW228422   0.212   3.678   3.386  3.8833 -3.2494 -0.6192
 5655SOL     OW28423   2.654   4.025   0.335 -0.0928  0.3398  0.1845
 5655SOL    HW128424   2.590   4.048   0.267  1.1988 -0.9085 -1.4331
 5655SOL    HW228425   2.708   3.958   0.294  0.2840  0.2060  0.8983
 5656SOL     OW28426   3.925   1.535   1.525 -0.0568  0.2916  0.2956
 5656SOL    HW128427   3.947   1.626   1.504 -1.1102  0.2794 -0.8110
 5656SOL    HW228428   3.853   1.548   1.587  0.3942 -1.6927  1.2338
 5657SOL     OW28429   4.322   1.725  15.045  0.1481 -0.3231 -0.4947
 5657SOL    HW128430   4.408   1.690  15.067 -0.5238 -1.6583 -0.0041
 5657SOL    HW228431   4.325   1.710  14.951 -1.4109  0.3256 -0.6478
 5658SOL     OW28432   3.981   2.240  16.465  0.2984 -0.0456  0.3164
 5658SOL    HW128433   3.938   2.276  16.387  0.1160 -0.5609  0.1778
 5658SOL    HW228434   3.981   2.145  16.451  3.6387  0.1745 -1.1637
 5659SOL     OW28435   1.421   4.458   6.609  0.2479  0.7346 -0.0110
 5659SOL    HW128436   1.418   4.363   6.626 -0.3103  0.3696 -2.1179
 5659SOL    HW228437   1.452   4.490   6.694  0.3992 -1.5998  0.8378
 5660SOL     OW28438   3.718   1.468   6.982  0.2881  0.4936  0.0574
 5660SOL    HW128439   3.810   1.447   7.001  0.2454 -0.0240 -0.3297
 5660SOL    HW228440   3.694   1.394   6.926 -0.2523  0.4998  0.2858
 5661SOL     OW28441   3.788   2.929   5.493  0.3885 -0.0239  0.2917
 5661SOL    HW128442   3.785   2.873   5.571 -0.9540 -0.2884  0.0510
 5661SOL    HW228443   3.862   2.881   5.455  1.0367  0.9915  0.2679
 5662SOL     OW28444   0.189   0.535   7.226 -0.0319 -0.2549  0.3929
 5662SOL    HW128445   0.222   0.506   7.311 -0.9215 -0.0746  0.8007
 5662SOL    HW228446   0.190   0.449   7.184  0.9887  0.6212 -1.3529
 5663SOL     OW28447   3.597   0.488   7.800 -0.2093  0.1797 -0.5111
 5663SOL    HW128448   3.654   0.493   7.877 -0.8301 -2.9676  0.1391
 5663SOL    HW228449   3.578   0.580   7.781 -1.6289  0.0765  0.4512
 5664SOL     OW28450   0.697   0.756   0.931  0.1223 -0.3469  0.4311
 5664SOL    HW128451   0.724   0.792   1.015 -0.0433  0.5719  0.0922
 5664SOL    HW228452   0.612   0.713   0.945  0.3367 -0.4478  1.3658
 5665SOL     OW28453   0.817   1.161  15.335 -0.5574  0.1070 -0.1534
 5665SOL    HW128454   0.765   1.212  15.397 -1.1480  1.1356 -1.4774
 5665SOL    HW228455   0.802   1.219  15.259 -0.3107  2.3588  1.5275
 5666SOL     OW28456   4.214   1.160  11.296 -0.2796  0.5377  0.0726
 5666SOL    HW128457   4.221   1.181  11.390 -1.4267  1.4046 -0.0417
 5666SOL    HW228458   4.236   1.244  11.256  3.0348  0.8167  2.4409
 5667SOL     OW28459   1.819   4.654   2.269 -0.4847 -0.1425 -0.1201
 5667SOL    HW128460   1.767   4.663   2.350  0.6032 -0.1637  0.5831
 5667SOL    HW228461   1.775   4.715   2.210 -0.6620  0.0876  0.2496
 5668SOL     OW28462   0.159   4.172  12.076 -0.3230 -0.4750  0.4308
 5668SOL    HW128463   0.196   4.143  11.992 -1.0984  0.2400 -0.1463
 5668SOL    HW228464   0.084   4.223  12.046 -1.9755 -1.5870  2.6750
 5669SOL     OW28465   3.136   0.977   7.451 -0.7788 -0.0157  0.8534
 5669SOL    HW128466   3.142   0.922   7.373  0.1801  1.0629  0.1543
 5669SOL    HW228467   3.116   1.063   7.413 -0.1738 -0.3248 -0.1821
 5670SOL     OW28468   1.155   2.152   2.374 -0.0318  0.0786  0.2922
 5670SOL    HW128469   1.248   2.170   2.381  0.6451 -3.4775  0.6735
 5670SOL    HW228470   1.106   2.234   2.381  0.1599  0.1169  1.1710
 5671SOL     OW28471   3.032   1.331   6.287 -0.2147  0.0067  0.6581
 5671SOL    HW128472   2.946   1.372   6.291 -0.5217 -0.8483  3.1448
 5671SOL    HW228473   3.068   1.356   6.372  0.4188 -0.8123  0.6354
 5672SOL     OW28474   3.112   1.265   2.322 -0.5147 -0.2789 -0.4846
 5672SOL    HW128475   3.190   1.254   2.377  0.7704 -1.5418 -2.5643
 5672SOL    HW228476   3.052   1.206   2.367 -1.5715  1.1522 -0.0390
 5673SOL     OW28477   3.075   4.143  15.187 -0.2269 -0.8392  0.1636
 5673SOL    HW128478   3.105   4.055  15.210  0.0341 -0.8063 -0.0520
 5673SOL    HW228479   3.134   4.154  15.113  0.7984 -1.7076  0.8654
 5674SOL     OW28480   3.546   1.211   4.595  0.1467  0.0692  0.0680
 5674SOL    HW128481   3.495   1.144   4.640  0.7681 -0.9651 -0.7568
 5674SOL    HW228482   3.535   1.289   4.649  2.0125 -0.3032  1.0040
 5675SOL     OW28483   2.433   4.537   4.731 -0.6620 -0.4306  0.0323
 5675SOL    HW128484   2.463   4.592   4.659 -0.3394 -1.2104 -0.4257
 5675SOL    HW228485   2.343   4.520   4.702 -0.6912  1.0124 -0.7103
 5676SOL     OW28486   0.101   0.422  16.457  0.3514 -0.2638 -0.6580
 5676SOL    HW128487   0.071   0.450  16.544  0.7097  1.2543 -1.0199
 5676SOL    HW228488   0.049   0.482  16.403  0.5571 -1.3089 -2.0081
 5677SOL     OW28489   1.458   0.290   6.945  0.2669  0.0734  0.9426
 5677SOL    HW128490   1.397   0.362   6.964 -0.4176 -0.5503  1.0896
 5677SOL    HW228491   1.410   0.241   6.879  0.5987  0.6703  0.2590
 5678SOL     OW28492   0.475   0.026   8.435  0.1350  0.1092  0.3036
 5678SOL    HW128493   0.503   0.115   8.413  0.0960 -0.6069 -2.6109
 5678SOL    HW228494   0.543   4.721   8.493  0.3726  0.7829  0.4053
 5679SOL     OW28495   4.239   1.248   3.637  0.0780  0.1163  0.6390
 5679SOL    HW128496   4.220   1.155   3.624  0.3319  0.0542  0.7205
 5679SOL    HW228497   4.217   1.278   3.549 -0.8778 -0.1864  0.7707
 5680SOL     OW28498   3.361   1.717   3.262 -0.3075  0.0848 -0.3263
 5680SOL    HW128499   3.347   1.632   3.305  2.2064 -0.9622 -1.5796
 5680SOL    HW228500   3.297   1.713   3.191  1.1158 -1.5744 -1.5412
 5681SOL     OW28501   0.493   0.161   3.402 -0.1297  0.1749 -0.3375
 5681SOL    HW128502   0.519   0.211   3.325 -0.0360 -1.0637 -1.0957
 5681SOL    HW228503   0.479   0.230   3.467 -3.1113 -0.7136 -0.0406
 5682SOL     OW28504   0.914   1.869   2.485  0.2637  0.0594 -0.3048
 5682SOL    HW128505   0.954   1.928   2.550  0.2278 -0.5734  0.2983
 5682SOL    HW228506   0.925   1.906   2.398 -0.6154  1.9679  0.4084
 5683SOL     OW28507   3.524   1.576  15.248  0.1432  0.1872 -0.4189
 5683SOL    HW128508   3.474   1.513  15.196 -1.7720  0.0863  1.5481
 5683SOL    HW228509   3.609   1.569  15.205 -0.3185 -0.0835 -1.2843
 5684SOL     OW28510   4.316   2.068   3.959 -0.0537  0.1291 -0.3394
 5684SOL    HW128511   4.394   2.012   3.956 -0.8665 -1.0510  0.1057
 5684SOL    HW228512   4.249   2.007   3.989 -1.2878 -0.1381 -3.6573
 5685SOL     OW28513   3.318   0.515  15.474  0.0612 -0.2554  0.2585
 5685SOL    HW128514   3.372   0.588  15.443  1.6146 -1.0937  0.9538
 5685SOL    HW228515   3.239   0.529  15.422 -0.1009  1.1264  0.8757
 5686SOL     OW28516   1.494   0.160   1.936  0.0307 -0.2049  0.7129
 5686SOL    HW128517   1.482   0.104   1.860  3.4288 -0.8646  0.6408
 5686SOL    HW228518   1.412   0.150   1.984 -0.4020  0.5330  0.1338
 5687SOL     OW28519   2.686   0.982  12.590 -0.0308  0.4435 -0.6940
 5687SOL    HW128520   2.709   0.954  12.679 -3.4771  0.2153  0.1004
 5687SOL    HW228521   2.644   1.065  12.607 -0.1834  0.5585 -1.6053
 5688SOL     OW28522   1.238   1.131   2.831  0.3992  0.2544  0.5458
 5688SOL    HW128523   1.191   1.139   2.748 -0.7194  0.0606  1.1590
 5688SOL    HW228524   1.256   1.038   2.820  0.6114  0.2978  0.5235
 5689SOL     OW28525   1.998   1.775   4.621  0.8123  0.2408  0.1066
 5689SOL    HW128526   1.917   1.824   4.637 -0.0361 -0.9797 -0.4623
 5689SOL    HW228527   1.969   1.700   4.673  1.5828  0.3443  0.6790
 5690SOL     OW28528   1.125   3.593  12.654  0.0434  0.9556  0.1111
 5690SOL    HW128529   1.215   3.610  12.681  0.6845 -1.4535 -0.4877
 5690SOL    HW228530   1.080   3.629  12.731  0.5668  2.3151 -0.2217
 5691SOL     OW28531   2.570   1.121  13.828  0.3379  0.3921 -0.0394
 5691SOL    HW128532   2.665   1.110  13.833  0.2708 -0.0119  0.3367
 5691SOL    HW228533   2.541   1.151  13.914  1.5834  2.2197 -0.2548
 5692SOL     OW28534   2.540   3.246  13.966 -0.2150 -0.2034 -0.0582
 5692SOL    HW128535   2.590   3.233  14.046  0.4346  0.6155 -0.3383
 5692SOL    HW228536   2.599   3.206  13.902 -0.4905 -1.5914  0.5624
 5693SOL     OW28537   2.293   0.558   9.143  0.3940 -0.0539 -0.2379
 5693SOL    HW128538   2.232   0.619   9.101 -1.2550 -2.5281 -1.4470
 5693SOL    HW228539   2.305   0.487   9.079  3.5506 -0.1842  0.4976
 5694SOL     OW28540   1.173   3.467   5.029  0.7970  0.1714  0.9769
 5694SOL    HW128541   1.119   3.404   4.981  4.4427 -0.8209 -1.7640
 5694SOL    HW228542   1.170   3.425   5.115 -0.3215 -2.7537 -0.5087
 5695SOL     OW28543   3.424   3.592   5.412 -0.4884 -0.2913 -0.1518
 5695SOL    HW128544   3.357   3.531   5.382 -3.4305  1.7391  2.4000
 5695SOL    HW228545   3.492   3.531   5.441 -1.2591 -0.4298  1.3248
 5696SOL     OW28546   3.577   2.085   7.226  0.6834 -0.5503  0.4340
 5696SOL    HW128547   3.621   2.004   7.199  1.4728 -0.5460  1.7320
 5696SOL    HW228548   3.656   2.138   7.234  2.0367 -2.2277 -1.6641
 5697SOL     OW28549   1.939   4.399   4.413 -0.3369 -0.2880 -0.4296
 5697SOL    HW128550   1.923   4.312   4.450  1.8404 -1.5217 -2.3537
 5697SOL    HW228551   2.031   4.395   4.386  0.1456 -1.6427  1.4188
 5698SOL     OW28552   4.661   3.967   2.073 -0.1853 -0.0508  0.2753
 5698SOL    HW128553   0.010   3.910   2.071  1.5344  2.3197 -0.9137
 5698SOL    HW228554   4.692   4.017   2.149  1.3970  2.8029 -2.2334
 5699SOL     OW28555   2.209   3.706   3.246 -0.5084  0.0512  0.4005
 5699SOL    HW128556   2.158   3.652   3.307  1.1441 -3.3513 -1.2326
 5699SOL    HW228557   2.286   3.649   3.250 -1.2076 -1.0199 -1.3152
 5700SOL     OW28558   4.026   4.002   4.867  0.1425  0.1295  0.2355
 5700SOL    HW128559   3.990   3.914   4.874 -0.6058  0.2816 -1.7732
 5700SOL    HW228560   4.071   3.989   4.784 -1.9875  2.5625 -1.2961
 5701SOL     OW28561   1.215   4.372  17.200 -0.3130 -0.1413 -0.3545
 5701SOL    HW128562   1.224   4.297  17.143 -1.2994 -0.8495  0.4144
 5701SOL    HW228563   1.195   4.335  17.286 -0.1121  1.2285  0.2874
 5702SOL     OW28564   4.064   0.872   1.149  0.2024  0.1085 -0.4131
 5702SOL    HW128565   4.020   0.953   1.175  0.6791  0.2453 -0.0198
 5702SOL    HW228566   4.156   0.897   1.155  0.3830 -0.4934 -0.6947
 5703SOL     OW28567   0.575   3.992   1.320 -0.3084 -0.3154  0.3131
 5703SOL    HW128568   0.623   3.954   1.394  0.2908  0.3351  0.2661
 5703SOL    HW228569   0.484   3.970   1.338 -0.2583 -1.7274 -1.1390
 5704SOL     OW28570   1.480   0.311   1.179 -0.1316  0.0670 -0.2897
 5704SOL    HW128571   1.446   0.293   1.092  1.4926  0.6826 -1.0575
 5704SOL    HW228572   1.483   0.221   1.212 -0.9913  0.0613 -0.2327
 5705SOL     OW28573   4.275   2.722   7.407 -0.1885 -0.1790 -0.5949
 5705SOL    HW128574   4.250   2.630   7.412  0.4623 -0.3436 -0.3904
 5705SOL    HW228575   4.338   2.724   7.335 -0.0044 -0.7650 -0.4503
 5706SOL     OW28576   2.866   1.494  14.816  0.2312 -0.2818 -0.3140
 5706SOL    HW128577   2.809   1.464  14.745 -1.0551 -0.0976  0.6535
 5706SOL    HW228578   2.946   1.444  14.799  0.1697 -0.6348  0.4310
 5707SOL     OW28579   2.746   2.507  17.136  0.3914  0.5013 -0.5131
 5707SOL    HW128580   2.687   2.496  17.061  0.5836  0.5681 -0.6746
 5707SOL    HW228581   2.833   2.485  17.101  0.8156  1.9766 -0.4042
 5708SOL     OW28582   1.788   3.109   5.059 -0.0095 -0.1563 -0.3464
 5708SOL    HW128583   1.841   3.183   5.029 -1.6495  0.6116 -1.3847
 5708SOL    HW228584   1.750   3.152   5.135 -0.5165 -1.0699 -0.0803
 5709SOL     OW28585   2.845   1.256   4.976 -0.3380 -0.1066  0.0981
 5709SOL    HW128586   2.851   1.175   5.027 -0.6999  0.7234  1.4391
 5709SOL    HW228587   2.759   1.244   4.935 -0.0053 -1.3865 -0.2231
 5710SOL     OW28588   4.401   3.980   2.181  0.1635  0.3859  0.3159
 5710SOL    HW128589   4.353   4.018   2.107  1.5343 -0.2106 -0.8710
 5710SOL    HW228590   4.482   3.946   2.143  1.1409  2.6067  0.4142
 5711SOL     OW28591   1.580   0.485  10.685 -0.2407 -0.0703 -0.0438
 5711SOL    HW128592   1.497   0.524  10.657  0.3199  1.3750  0.2611
 5711SOL    HW228593   1.605   0.558  10.742  1.8335 -0.3976 -0.5355
 5712SOL     OW28594   1.490   1.940   1.080 -0.6207  0.0815 -0.5235
 5712SOL    HW128595   1.523   1.866   1.131 -0.6315  0.6779  0.3544
 5712SOL    HW228596   1.505   2.012   1.141 -1.4840 -0.7986  0.7458
 5713SOL     OW28597   1.957   3.265  17.260  0.5895  0.2592  0.0702
 5713SOL    HW128598   1.941   3.215  17.180  0.8019 -0.7671  0.6651
 5713SOL    HW228599   1.875   3.313  17.269 -0.4254 -1.6032  0.8980
 5714SOL     OW28600   3.197   4.360  11.320 -0.3252 -0.5383 -0.3040
 5714SOL    HW128601   3.215   4.349  11.227 -0.3743 -0.3918 -0.3303
 5714SOL    HW228602   3.142   4.283  11.336 -1.7866  0.9376  1.8106
 5715SOL     OW28603   4.317   0.057   3.042 -0.4736 -0.0345  0.3864
 5715SOL    HW128604   4.233   0.103   3.046 -0.1223  0.5223  1.5970
 5715SOL    HW228605   4.296   4.694   3.025 -1.0115  0.4931 -1.7822
 5716SOL     OW28606   0.705   2.811   3.263  0.2796  0.1961 -0.0813
 5716SOL    HW128607   0.700   2.863   3.343 -0.9223  0.9315 -0.6256
 5716SOL    HW228608   0.688   2.727   3.306  0.7745 -0.2821 -0.8250
 5717SOL     OW28609   0.946   4.680  15.793  0.1402  0.1841 -0.5189
 5717SOL    HW128610   0.989   0.025  15.748 -0.6206  1.5088  0.8971
 5717SOL    HW228611   0.953   4.611  15.727  1.2111  0.5160 -0.7547
 5718SOL     OW28612   0.675   2.213   6.202 -0.2564  0.4960  0.2210
 5718SOL    HW128613   0.622   2.256   6.270  1.2618 -0.4433  1.9982
 5718SOL    HW228614   0.603   2.167   6.159  1.2913 -0.7898 -1.0118
 5719SOL     OW28615   2.340   3.799  15.299  0.3250  0.1307 -0.3468
 5719SOL    HW128616   2.263   3.751  15.270  0.8239 -1.4804  1.0150
 5719SOL    HW228617   2.395   3.800  15.220 -0.2528  2.9030 -0.7038
 5720SOL     OW28618   3.919   2.710  10.287 -0.4526 -0.5628  0.8208
 5720SOL    HW128619   3.964   2.737  10.206 -1.1460 -1.6284  0.0720
 5720SOL    HW228620   3.942   2.780  10.347 -0.6051 -1.6925  2.2083
 5721SOL     OW28621   3.729   2.174   7.938  0.1699  0.0677  0.2893
 5721SOL    HW128622   3.813   2.211   7.963 -0.8015  1.9526  0.7890
 5721SOL    HW228623   3.681   2.156   8.019 -1.3504  1.5949 -0.2530
 5722SOL     OW28624   4.622   3.780   9.816  0.1765 -0.5053 -0.0741
 5722SOL    HW128625   4.702   3.832   9.825  0.0367 -0.6321  1.9759
 5722SOL    HW228626   4.554   3.843   9.791  1.5705  1.4258  0.9838
 5723SOL     OW28627   1.971   0.681   6.728 -0.4163 -0.1492  0.1512
 5723SOL    HW128628   2.065   0.691   6.712 -0.9083  1.1064 -1.9812
 5723SOL    HW228629   1.932   0.657   6.644  0.1494 -1.4415  0.2651
 5724SOL     OW28630   4.227   2.658   8.954 -0.4459 -0.2426 -0.4992
 5724SOL    HW128631   4.250   2.686   9.043 -1.8893 -3.2905  0.8377
 5724SOL    HW228632   4.178   2.721   8.902 -1.9377 -0.1467  1.0166
 5725SOL     OW28633   2.290   1.632   9.271 -0.3832 -0.0747  0.4513
 5725SOL    HW128634   2.362   1.678   9.314  0.8963 -2.8388  1.2598
 5725SOL    HW228635   2.277   1.553   9.325  0.1342 -1.1815 -1.0625
 5726SOL     OW28636   4.487   3.248   2.313 -0.2221 -0.9931 -0.8222
 5726SOL    HW128637   4.436   3.327   2.332  0.4518 -0.1849 -2.4691
 5726SOL    HW228638   4.543   3.281   2.244 -0.5647  3.0157  0.8183
 5727SOL     OW28639   3.808   2.749   7.986 -0.4111 -0.3794 -0.0233
 5727SOL    HW128640   3.759   2.781   7.911 -0.6082  2.2126  1.2314
 5727SOL    HW228641   3.813   2.823   8.046 -0.7507 -0.2518 -0.1526
 5728SOL     OW28642   3.021   4.529  15.813 -0.0585  0.2684  0.0181
 5728SOL    HW128643   3.094   4.583  15.782  0.0403  0.6072  0.8488
 5728SOL    HW228644   2.957   4.551  15.746  1.3290  0.0483 -1.3839
 5729SOL     OW28645   2.728   1.922   1.742 -0.2430 -0.4699 -0.0102
 5729SOL    HW128646   2.693   1.879   1.820  0.4797 -1.4854 -0.2354
 5729SOL    HW228647   2.698   1.873   1.665 -0.3353  1.1880 -1.0157
 5730SOL     OW28648   2.139   3.978   6.022 -0.2801  0.2953  0.4307
 5730SOL    HW128649   2.175   4.052   6.071 -0.7012 -0.3207  1.6679
 5730SOL    HW228650   2.072   4.027   5.975  1.7681  0.5291 -2.1918
 5731SOL     OW28651   1.588   2.637   6.162  0.1045  0.0021 -0.4210
 5731SOL    HW128652   1.551   2.709   6.214  1.2740  1.2904 -1.3734
 5731SOL    HW228653   1.583   2.664   6.071  1.8028  0.2920 -0.4243
 5732SOL     OW28654   3.717   4.108   6.110  0.3328  0.4906  0.2552
 5732SOL    HW128655   3.655   4.075   6.045  1.3651 -1.8416  0.4612
 5732SOL    HW228656   3.801   4.096   6.065 -1.5082 -1.5449 -2.6557
 5733SOL     OW28657   4.215   1.645   4.340 -0.0900 -0.4710 -0.9108
 5733SOL    HW128658   4.285   1.585   4.313 -1.0692 -1.5893 -0.9586
 5733SOL    HW228659   4.262   1.687   4.412 -1.1270  0.3293 -0.6922
 5734SOL     OW28660   3.451   1.778  13.250  0.5170  0.0447  0.5209
 5734SOL    HW128661   3.515   1.809  13.185 -0.5140  1.8783  0.3817
 5734SOL    HW228662   3.480   1.817  13.332 -1.8878  1.3437  0.7329
 5735SOL     OW28663   0.531   4.484   3.593  1.0365 -0.8780  0.8943
 5735SOL    HW128664   0.445   4.526   3.594  1.1925 -0.5432  0.1837
 5735SOL    HW228665   0.508   4.392   3.582  0.9709 -0.7751  0.2184
 5736SOL     OW28666   4.248   0.581  16.858 -0.5289 -0.0782  0.2840
 5736SOL    HW128667   4.187   0.540  16.919 -3.6896  0.5657 -2.3855
 5736SOL    HW228668   4.316   0.608  16.919 -1.6498  2.2076  0.5365
 5737SOL     OW28669   4.277   1.043   6.615 -0.2313 -0.2664  0.3938
 5737SOL    HW128670   4.339   0.970   6.610 -0.1962 -0.0723 -1.9736
 5737SOL    HW228671   4.198   0.993   6.636 -0.1968 -0.8982 -1.0198
 5738SOL     OW28672   1.282   3.858   9.641 -0.1058  0.0444  0.5975
 5738SOL    HW128673   1.261   3.781   9.694 -1.8446  1.6362  2.1983
 5738SOL    HW228674   1.297   3.808   9.561  0.8477  0.7392  0.3421
 5739SOL     OW28675   0.738   4.369   0.191  0.2878  0.3257 -0.3883
 5739SOL    HW128676   0.734   4.410   0.277  0.0530  1.0965 -0.7605
 5739SOL    HW228677   0.742   4.276   0.211  0.0929  0.6756  1.2564
 5740SOL     OW28678   3.607   2.103   0.600  0.0956  0.0394 -0.3829
 5740SOL    HW128679   3.598   2.187   0.554 -0.2285 -0.2397 -0.8261
 5740SOL    HW228680   3.539   2.118   0.666 -0.6081 -0.7601 -0.9246
 5741SOL     OW28681   0.557   0.228  10.079  0.8417 -0.2631 -0.1469
 5741SOL    HW128682   0.497   0.252  10.149  0.9016 -0.1851 -0.1233
 5741SOL    HW228683   0.637   0.225  10.130 -1.2629 -1.8731  3.0711
 5742SOL     OW28684   0.477   4.300  16.659  0.1519  0.5705  0.1419
 5742SOL    HW128685   0.405   4.295  16.722  0.6284  1.2190  0.7391
 5742SOL    HW228686   0.438   4.258  16.583 -0.1842  1.4779 -0.1750
 5743SOL     OW28687   1.975   0.039   9.320  0.2464 -0.1235  0.7179
 5743SOL    HW128688   1.956   4.713   9.397 -1.1836  1.0705  1.1999
 5743SOL    HW228689   1.924   0.119   9.332 -1.0803 -0.7229 -1.0379
 5744SOL     OW28690   0.315   2.238   2.316 -0.2586  0.1855 -0.3553
 5744SOL    HW128691   0.344   2.330   2.320  0.3427  0.0282 -1.1846
 5744SOL    HW228692   0.224   2.245   2.344 -0.0272  3.9072 -0.5031
 5745SOL     OW28693   0.489   0.409   5.632 -0.5423 -0.2773  0.0329
 5745SOL    HW128694   0.490   0.325   5.585 -1.1778 -2.0750  3.2004
 5745SOL    HW228695   0.490   0.473   5.561  1.9149 -0.1615  0.1691
 5746SOL     OW28696   2.713   3.692  10.789  0.0973 -0.4926 -0.2143
 5746SOL    HW128697   2.698   3.786  10.797  2.0727 -0.2668  0.8544
 5746SOL    HW228698   2.635   3.648  10.825 -0.0864 -0.3518 -0.4422
 5747SOL     OW28699   1.797   3.965   4.092  0.1181 -0.2722  0.6284
 5747SOL    HW128700   1.822   3.926   4.008  0.0192  0.5949  0.1943
 5747SOL    HW228701   1.705   3.940   4.093 -0.3232  1.4443  1.0022
 5748SOL     OW28702   1.221   3.298   1.015  0.4672  0.4882  0.1366
 5748SOL    HW128703   1.135   3.303   0.974 -0.0994  0.9814  1.3957
 5748SOL    HW228704   1.204   3.366   1.080  0.3381  0.2795  0.3187
 5749SOL     OW28705   1.814   2.906   4.475 -0.6342  0.1045 -0.1386
 5749SOL    HW128706   1.727   2.868   4.468  0.1347 -1.5009 -0.8404
 5749SOL    HW228707   1.846   2.900   4.565 -0.4426  0.0272 -0.2120
 5750SOL     OW28708   1.260   2.214   8.205 -0.1047 -0.3780  0.7613
 5750SOL    HW128709   1.277   2.202   8.299  0.0009 -2.0600  0.5183
 5750SOL    HW228710   1.183   2.161   8.185  0.8589 -1.8743  0.9932
 5751SOL     OW28711   0.875   3.912   2.942  0.2816 -0.0001 -0.0440
 5751SOL    HW128712   0.942   3.880   3.003 -0.3755  1.0173  1.2021
 5751SOL    HW228713   0.819   3.834   2.934 -0.9870  0.8736  0.3823
 5752SOL     OW28714   4.318   3.669   8.987  0.1285  0.0297 -0.4396
 5752SOL    HW128715   4.300   3.575   8.993  2.7708 -0.5366 -1.1245
 5752SOL    HW228716   4.354   3.681   8.899 -1.0345  0.3307 -0.8739
 5753SOL     OW28717   2.623   3.648   8.585  0.4257  0.6984 -0.3964
 5753SOL    HW128718   2.549   3.596   8.616  0.1925  1.1200 -0.2534
 5753SOL    HW228719   2.576   3.730   8.599 -0.1129  0.1374  1.1088
 5754SOL     OW28720   0.424   2.493  12.814 -0.0503 -0.2578  0.1186
 5754SOL    HW128721   0.332   2.473  12.830 -0.2083  0.9274  0.6518
 5754SOL    HW228722   0.447   2.486  12.906  0.6724  0.3408 -0.0140
 5755SOL     OW28723   0.882   3.544   4.799  0.1321 -0.2071 -0.1154
 5755SOL    HW128724   0.962   3.497   4.822 -0.8512 -0.8260  2.0371
 5755SOL    HW228725   0.817   3.478   4.777 -0.5332  0.4711 -0.2123
 5756SOL     OW28726   0.161   0.643   9.763  0.1967  0.1577  0.0357
 5756SOL    HW128727   0.163   0.704   9.836 -1.8390 -0.3440  0.5281
 5756SOL    HW228728   0.200   0.694   9.692 -0.0707  0.4078  0.0698
 5757SOL     OW28729   2.389   2.162   8.201  0.5129 -0.0871  0.2801
 5757SOL    HW128730   2.385   2.169   8.105  1.0773  1.4688  0.3785
 5757SOL    HW228731   2.433   2.077   8.204  1.3871  0.3236 -0.8282
 5758SOL     OW28732   1.228   2.628   3.671  0.1337 -1.0413  0.3134
 5758SOL    HW128733   1.218   2.584   3.755 -1.4354 -0.2640  0.5472
 5758SOL    HW228734   1.188   2.568   3.608  0.0955  1.2212 -1.8224
 5759SOL     OW28735   2.276   3.799   4.978 -0.6257 -0.0351  0.4798
 5759SOL    HW128736   2.359   3.827   4.940 -1.7299 -0.1671 -1.9620
 5759SOL    HW228737   2.227   3.818   4.899  1.1651 -0.2531 -0.6709
 5760SOL     OW28738   2.537   0.702   9.390  0.0245  0.4492  0.0645
 5760SOL    HW128739   2.543   0.797   9.377 -1.1642  0.5032 -0.0998
 5760SOL    HW228740   2.595   0.678   9.318 -0.1615  0.4313 -0.0775
 5761SOL     OW28741   0.889   2.858   2.560  0.4010  0.6926 -0.6228
 5761SOL    HW128742   0.964   2.798   2.564  0.4341  0.9201  2.1245
 5761SOL    HW228743   0.906   2.900   2.644  0.1264  1.9957 -1.2241
 5762SOL     OW28744   2.494   1.285   6.370  0.0766 -0.1846  0.1517
 5762SOL    HW128745   2.402   1.263   6.358 -0.7472  3.4974 -0.1053
 5762SOL    HW228746   2.481   1.369   6.413  0.5525 -0.6844  1.2842
 5763SOL     OW28747   0.395   0.251  10.290  0.1130  0.4402  0.1247
 5763SOL    HW128748   0.315   0.224  10.246 -1.0424  0.2881  2.3212
 5763SOL    HW228749   0.374   0.334  10.332 -0.8106  0.7990 -1.0697
 5764SOL     OW28750   3.748   3.726   6.468  0.5548 -0.3338  0.2399
 5764SOL    HW128751   3.669   3.753   6.515 -0.9093 -1.9073 -1.3221
 5764SOL    HW228752   3.805   3.684   6.532  0.8103 -1.3476 -0.6596
 5765SOL     OW28753   2.973   2.011  17.367 -0.4605 -0.1099 -0.6123
 5765SOL    HW128754   2.950   2.097  17.400  0.2769  0.0394 -0.4906
 5765SOL    HW228755   2.983   2.029  17.273 -1.0162 -1.5864 -0.9482
 5766SOL     OW28756   3.324   3.883   8.342  0.4331  0.2562  0.5018
 5766SOL    HW128757   3.353   3.972   8.363  2.0828  0.3603 -2.1965
 5766SOL    HW228758   3.322   3.848   8.431 -2.9800 -0.9655 -0.0623
 5767SOL     OW28759   3.858   3.323   0.544 -0.1567 -0.6666 -0.0754
 5767SOL    HW128760   3.843   3.371   0.626 -2.8040  0.7527 -1.4112
 5767SOL    HW228761   3.954   3.323   0.546 -0.1045 -0.9160 -3.7914
 5768SOL     OW28762   4.265   3.527   0.364  0.6318  0.2948  0.1940
 5768SOL    HW128763   4.325   3.534   0.289 -1.2899 -1.2518 -1.5002
 5768SOL    HW228764   4.242   3.616   0.390  0.2355  0.4512 -0.6753
 5769SOL     OW28765   0.816   2.757   3.006  0.0050 -0.0408 -0.1852
 5769SOL    HW128766   0.776   2.817   3.068 -0.9925 -0.2401 -0.6339
 5769SOL    HW228767   0.753   2.755   2.934  0.0443  0.1022 -0.2240
 5770SOL     OW28768   3.550   1.597   5.058 -0.5710  0.3762  0.3656
 5770SOL    HW128769   3.605   1.523   5.082  0.2046  0.4104 -1.3316
 5770SOL    HW228770   3.546   1.642   5.143  0.6350 -1.0620  1.1808
 5771SOL     OW28771   1.237   0.679  12.270  0.3606 -0.2185  0.2431
 5771SOL    HW128772   1.267   0.758  12.226 -3.5488  0.2605 -1.6281
 5771SOL    HW228773   1.316   0.625  12.267  0.0350 -0.7191  0.6168
 5772SOL     OW28774   3.943   1.031   4.187  0.0273 -0.1704 -0.4034
 5772SOL    HW128775   4.036   1.047   4.202  0.3516 -1.0201 -1.4604
 5772SOL    HW228776   3.933   0.942   4.223 -0.5679  0.3843  0.7951
 5773SOL     OW28777   2.023   2.795   8.534 -0.6343 -0.4475 -0.0490
 5773SOL    HW128778   2.045   2.755   8.450 -1.4290  0.2275 -0.5931
 5773SOL    HW228779   2.068   2.880   8.530 -1.6013  0.0449 -0.7865
 5774SOL     OW28780   3.041   3.499   2.795  0.1579 -0.3042 -0.6019
 5774SOL    HW128781   2.988   3.534   2.867 -2.2459 -2.1182 -1.4629
 5774SOL    HW228782   3.127   3.531   2.821 -0.3071 -0.9736  1.7654
 5775SOL     OW28783   4.211   2.821   8.733  0.2456  0.3878 -0.3943
 5775SOL    HW128784   4.267   2.834   8.809 -1.5660  3.3364  0.4359
 5775SOL    HW228785   4.275   2.797   8.667  0.9170 -2.6055  1.3230
 5776SOL     OW28786   1.379   1.298   2.542 -0.2869  0.1282 -0.0738
 5776SOL    HW128787   1.424   1.309   2.459  1.8593  0.9224  1.1973
 5776SOL    HW228788   1.297   1.252   2.524  1.2140 -2.6658  0.3413
 5777SOL     OW28789   1.193   1.716   5.622 -0.2977 -0.3479 -0.0500
 5777SOL    HW128790   1.239   1.773   5.683  0.9431  0.2490 -1.5487
 5777SOL    HW228791   1.149   1.783   5.569 -0.3889 -1.4569 -1.3725
 5778SOL     OW28792   1.369   4.320   5.493 -0.0515  0.2820  0.2771
 5778SOL    HW128793   1.383   4.326   5.399 -2.0571  0.8817  0.0017
 5778SOL    HW228794   1.347   4.227   5.486 -2.0090  0.8014 -0.5156
 5779SOL     OW28795   4.333   3.364   4.890 -0.0248  0.1812 -0.0377
 5779SOL    HW128796   4.389   3.349   4.813 -0.5286  0.1156 -0.3912
 5779SOL    HW228797   4.265   3.299   4.871 -1.8791  2.2571 -0.5136
 5780SOL     OW28798   1.464   0.979   7.216  0.1313 -0.2726  0.0894
 5780SOL    HW128799   1.532   0.979   7.149  1.4718  1.4133  1.4494
 5780SOL    HW228800   1.479   0.892   7.255 -1.3446  0.1201  1.5413
 5781SOL     OW28801   0.676   3.642   5.378 -0.2149  1.0248  0.3492
 5781SOL    HW128802   0.670   3.547   5.378  3.0183  0.8147 -4.8735
 5781SOL    HW228803   0.593   3.669   5.417 -1.2720  0.4080 -1.4576
 5782SOL     OW28804   2.651   3.605  12.859  0.4036 -0.2113 -0.0837
 5782SOL    HW128805   2.694   3.691  12.861  0.4762 -0.2729  1.5233
 5782SOL    HW228806   2.730   3.553  12.875 -0.2648 -1.5920 -1.3509
 5783SOL     OW28807   0.417   3.647  15.183 -0.2267 -0.1261  1.0227
 5783SOL    HW128808   0.437   3.740  15.201  1.6556 -0.3759  0.2659
 5783SOL    HW228809   0.322   3.654  15.184 -0.3395 -1.7600  0.1738
 5784SOL     OW28810   2.390   1.637  14.682 -0.0731 -0.0350  0.5337
 5784SOL    HW128811   2.453   1.586  14.733  0.5517 -1.2187 -1.4324
 5784SOL    HW228812   2.354   1.703  14.741 -2.1516 -0.7802  0.1360
 5785SOL     OW28813   1.157   1.638   8.299 -0.2873 -0.4598 -0.9370
 5785SOL    HW128814   1.161   1.544   8.318  0.5756  0.1912  2.1283
 5785SOL    HW228815   1.188   1.665   8.385  1.0583  0.2808 -1.6580
 5786SOL     OW28816   3.246   3.005  15.864 -0.3454 -0.0911 -0.0501
 5786SOL    HW128817   3.169   3.037  15.818  0.7442  2.8653  0.1259
 5786SOL    HW228818   3.257   3.083  15.919  1.7226 -0.6875  0.3825
 5787SOL     OW28819   3.588   4.137  16.745  0.3762  0.3275  0.0954
 5787SOL    HW128820   3.496   4.137  16.720  0.9657 -1.0236 -2.0755
 5787SOL    HW228821   3.626   4.081  16.677 -0.8300 -1.3665  0.8275
 5788SOL     OW28822   1.637   2.204  17.523  0.4013  0.3385 -0.7413
 5788SOL    HW128823   1.732   2.201  17.510  0.6550 -0.5708  1.2155
 5788SOL    HW228824   1.607   2.269  17.460 -1.0600  0.2835 -0.1044
 5789SOL     OW28825   4.153   3.323   6.958 -0.1524  0.6093 -0.6240
 5789SOL    HW128826   4.151   3.265   7.035 -0.1495 -2.1662 -2.7023
 5789SOL    HW228827   4.075   3.286   6.916 -2.0745 -0.4428  3.8539
 5790SOL     OW28828   0.883   1.297   2.678  0.1204 -0.8124 -0.1088
 5790SOL    HW128829   0.876   1.373   2.620  2.1598  0.4544  1.3207
 5790SOL    HW228830   0.896   1.344   2.760  3.2132  1.1655 -1.7334
 5791SOL     OW28831   2.068   1.302  10.161 -0.3056  0.2717 -0.3125
 5791SOL    HW128832   2.160   1.326  10.154 -0.5718  1.0423 -1.1943
 5791SOL    HW228833   2.025   1.360  10.098  1.7042  1.2873 -0.7535
 5792SOL     OW28834   3.275   1.578   4.719  0.5166 -0.2763  0.5009
 5792SOL    HW128835   3.202   1.523   4.690 -0.0177  0.6842  0.0595
 5792SOL    HW228836   3.271   1.632   4.640 -1.4312 -0.0094  0.7982
 5793SOL     OW28837   1.822   0.703   4.422 -0.0096  0.3187 -0.1630
 5793SOL    HW128838   1.826   0.625   4.368  1.2562  0.1213  0.2366
 5793SOL    HW228839   1.911   0.708   4.455 -0.9560  0.4496  2.4174
 5794SOL     OW28840   0.729   3.014   8.665  0.4296 -0.0121 -0.3446
 5794SOL    HW128841   0.749   2.933   8.618  0.9466 -0.1358  0.0872
 5794SOL    HW228842   0.660   2.981   8.722 -0.2062  1.6828 -0.1348
 5795SOL     OW28843   2.256   0.047   5.229  0.6309  0.3253  0.1321
 5795SOL    HW128844   2.183   4.722   5.197 -1.9014  2.6838  2.0005
 5795SOL    HW228845   2.306   0.061   5.149 -0.4797  3.0036 -0.0894
 5796SOL     OW28846   1.477   4.145  17.592  0.3788  0.4297 -0.0046
 5796SOL    HW128847   1.555   4.095  17.567  0.1723  1.0791 -1.9468
 5796SOL    HW228848   1.416   4.096  17.538  0.2286  0.2480  0.3321
 5797SOL     OW28849   0.581   3.459   8.741 -0.1836  0.4125  0.2701
 5797SOL    HW128850   0.671   3.426   8.729  0.1497  1.9129 -1.3110
 5797SOL    HW228851   0.587   3.550   8.713 -0.6219  0.7843  1.4176
 5798SOL     OW28852   2.947   2.046   1.592  0.3902 -0.0350  0.3089
 5798SOL    HW128853   2.887   2.025   1.663 -3.2142 -0.9191 -3.0090
 5798SOL    HW228854   3.020   2.091   1.634 -0.0844  2.3545 -1.4201
 5799SOL     OW28855   2.350   1.951   2.853  0.4255 -0.7082 -0.0338
 5799SOL    HW128856   2.308   1.953   2.939 -0.5242  2.3961 -0.5911
 5799SOL    HW228857   2.283   1.927   2.788  0.5501 -1.5110  0.1270
 5800SOL     OW28858   3.662   3.699   0.808  0.3057  0.4752 -0.1462
 5800SOL    HW128859   3.587   3.758   0.806 -1.5321 -1.8814 -0.9270
 5800SOL    HW228860   3.650   3.659   0.894  1.4504  1.6189  0.5398
 5801SOL     OW28861   1.834   2.593   7.428 -0.3458  0.0779 -0.1307
 5801SOL    HW128862   1.802   2.558   7.345  1.8071  0.6560 -1.2146
 5801SOL    HW228863   1.809   2.520   7.484 -1.0981 -0.0794 -0.6686
 5802SOL     OW28864   3.249   0.657   2.686  0.2607  0.0610  0.0851
 5802SOL    HW128865   3.238   0.626   2.596  3.9293  0.5776 -0.5479
 5802SOL    HW228866   3.325   0.713   2.669  1.1647 -1.1467  0.1644
 5803SOL     OW28867   0.215   4.626  14.163  0.1128 -0.2210 -0.0850
 5803SOL    HW128868   0.310   4.620  14.167  0.1455  0.5343  0.3868
 5803SOL    HW228869   0.205   4.701  14.104  1.1110 -0.9470 -1.1773
 5804SOL     OW28870   0.729   1.552   8.468 -0.1397 -0.4352 -0.0372
 5804SOL    HW128871   0.809   1.516   8.506  0.8074  0.4734 -1.1915
 5804SOL    HW228872   0.722   1.634   8.516  0.0583 -0.4652  0.0433
 5805SOL     OW28873   2.406   4.003   2.885  0.4967  0.6476 -0.0143
 5805SOL    HW128874   2.434   3.916   2.913  1.3497  0.5873 -1.0258
 5805SOL    HW228875   2.332   4.008   2.945 -0.3701 -1.2154 -0.9342
 5806SOL     OW28876   0.200   0.581   0.564 -0.2840 -0.3285 -0.6472
 5806SOL    HW128877   0.112   0.612   0.588 -1.0321 -1.0895 -2.3718
 5806SOL    HW228878   0.190   0.486   0.566 -0.4560 -0.2964 -0.1648
 5807SOL     OW28879   3.216   1.999   9.231 -0.4497 -0.3086 -0.0086
 5807SOL    HW128880   3.135   1.964   9.268 -1.3643  1.8205  0.0194
 5807SOL    HW228881   3.286   1.953   9.276  1.3717  2.0345 -0.4524
 5808SOL     OW28882   2.276   1.920   5.763 -0.0580 -0.0356  0.4905
 5808SOL    HW128883   2.337   1.946   5.694 -0.2259  0.3788  0.4998
 5808SOL    HW228884   2.325   1.951   5.839 -0.8966  4.3813 -0.7840
 5809SOL     OW28885   0.737   3.091   4.281  0.4561  0.5574 -0.3304
 5809SOL    HW128886   0.804   3.023   4.291 -0.6811 -0.3307  1.1290
 5809SOL    HW228887   0.749   3.123   4.191  0.1141  0.5053 -0.3941
 5810SOL     OW28888   2.839   0.091  10.375 -0.1068  0.3078  0.0055
 5810SOL    HW128889   2.770   0.118  10.313  0.6440 -0.5029 -1.1826
 5810SOL    HW228890   2.892   0.041  10.312  1.1440  0.9689  0.5583
 5811SOL     OW28891   0.994   0.919   4.657  0.0978  0.0721 -0.0158
 5811SOL    HW128892   0.942   0.994   4.632  0.5398  0.9345  1.6518
 5811SOL    HW228893   1.068   0.936   4.598 -0.8128  2.8173 -0.3635
 5812SOL     OW28894   3.915   3.232   4.012 -0.2383 -0.1828  0.1462
 5812SOL    HW128895   3.841   3.214   3.954 -0.1464 -1.6179  0.4687
 5812SOL    HW228896   3.962   3.154   3.983  0.1813 -0.0671  0.5311
 5813SOL     OW28897   2.279   1.103   2.977  0.4891 -0.2684  0.4339
 5813SOL    HW128898   2.213   1.034   2.977  1.0226 -0.7747  0.7901
 5813SOL    HW228899   2.339   1.074   2.908  1.0147  1.7343  0.0231
 5814SOL     OW28900   1.686   3.468   2.462 -0.1589 -0.1851 -0.4499
 5814SOL    HW128901   1.765   3.415   2.456 -0.6526 -1.1642  1.7628
 5814SOL    HW228902   1.730   3.552   2.478  1.8881 -1.3580  0.0267
 5815SOL     OW28903   2.313   1.842   3.280 -0.2874  1.1365 -0.1118
 5815SOL    HW128904   2.266   1.799   3.208  0.1618 -1.2209  1.0066
 5815SOL    HW228905   2.301   1.775   3.347 -0.4984  1.4998  0.2046
 5816SOL     OW28906   3.424   2.671   3.114  0.6607  0.3130  0.2585
 5816SOL    HW128907   3.372   2.747   3.091 -1.8973 -1.4035  0.4336
 5816SOL    HW228908   3.462   2.653   3.028  1.5089  0.5829  0.5715
 5817SOL     OW28909   2.302   0.571   3.374 -0.4015  0.0220 -0.0412
 5817SOL    HW128910   2.297   0.555   3.468 -1.4089 -0.6543 -0.2101
 5817SOL    HW228911   2.394   0.597   3.369 -0.9725  1.8055 -1.1003
 5818SOL     OW28912   3.146   4.543   0.982  0.3695  0.1776 -0.2784
 5818SOL    HW128913   3.153   4.467   0.925  1.0604 -0.5639  0.8050
 5818SOL    HW228914   3.066   4.589   0.954 -0.3329 -1.1556 -0.4374
 5819SOL     OW28915   0.671   3.048  14.128  0.1696  0.2597 -0.5504
 5819SOL    HW128916   0.737   3.066  14.195  1.3612  0.8189 -1.8575
 5819SOL    HW228917   0.615   3.120  14.157  0.9718  0.8672 -0.4931
 5820SOL     OW28918   3.587   3.007   4.894 -0.4285 -0.4971 -0.5303
 5820SOL    HW128919   3.559   2.928   4.940  1.9245  1.1295  3.7453
 5820SOL    HW228920   3.682   2.999   4.906 -0.7089  0.6938  2.5812
 5821SOL     OW28921   1.805   2.460   9.728 -0.2475  0.0474  0.1280
 5821SOL    HW128922   1.777   2.486   9.815 -2.4653 -1.5178 -0.1258
 5821SOL    HW228923   1.848   2.375   9.736  2.7119  1.5449  0.3965
 5822SOL     OW28924   2.464   2.113   6.938 -0.2899 -0.5210 -0.6402
 5822SOL    HW128925   2.381   2.133   6.895 -0.5862  0.5381  0.4404
 5822SOL    HW228926   2.446   2.115   7.032 -1.5261  0.7465 -0.9143
 5823SOL     OW28927   0.518   3.231   6.772 -0.3713 -0.3606  0.0472
 5823SOL    HW128928   0.427   3.218   6.798 -0.5616  1.4111  0.2734
 5823SOL    HW228929   0.492   3.271   6.689 -0.8838  1.1809  0.9447
 5824SOL     OW28930   0.343   1.970   8.709  0.1803  0.3696  0.1565
 5824SOL    HW128931   0.271   1.910   8.692 -0.4486  0.9480  0.7785
 5824SOL    HW228932   0.301   2.050   8.740 -0.3964  0.3984 -0.7005
 5825SOL     OW28933   2.447   3.695   4.619 -0.0896  0.4575 -0.1846
 5825SOL    HW128934   2.429   3.730   4.532  0.0098  0.1234 -0.3409
 5825SOL    HW228935   2.421   3.773   4.668  1.1947 -0.0974  1.3693
 5826SOL     OW28936   0.911   1.382  12.306 -0.0515  0.0864 -0.5201
 5826SOL    HW128937   0.903   1.323  12.381 -2.1242  1.5134  0.3760
 5826SOL    HW228938   0.937   1.460  12.356 -1.0010 -0.6765  1.1508
 5827SOL     OW28939   1.576   0.690  12.136 -0.0104  0.7611  0.2957
 5827SOL    HW128940   1.509   0.757  12.120 -1.7796 -1.1155 -0.1225
 5827SOL    HW228941   1.540   0.635  12.206  0.7930  1.1007  0.9782
 5828SOL     OW28942   4.528   2.826  11.660  0.6466  0.1449  0.0379
 5828SOL    HW128943   4.526   2.921  11.670 -0.8593  0.0260  0.8811
 5828SOL    HW228944   4.500   2.829  11.568  0.2021  1.7905  0.2242
 5829SOL     OW28945   0.403   1.144   4.620 -0.1687  0.3925  0.4351
 5829SOL    HW128946   0.398   1.171   4.712 -1.2715 -1.2942  0.8606
 5829SOL    HW228947   0.495   1.117   4.614 -0.7463 -1.9086  1.9594
 5830SOL     OW28948   0.767   4.544  10.319  0.1145  0.5432 -0.2350
 5830SOL    HW128949   0.766   4.632  10.282 -0.6778  0.4223 -0.5146
 5830SOL    HW228950   0.822   4.503  10.252  2.1703  2.3454  0.3773
 5831SOL     OW28951   0.085   1.958  13.543  0.3395 -0.0742  0.1897
 5831SOL    HW128952   0.123   2.045  13.527  0.1828  0.0992  0.7839
 5831SOL    HW228953   4.723   1.986  13.560  0.5292  1.0276 -0.5605
 5832SOL     OW28954   1.946   3.099   5.488 -0.1530 -0.7069 -0.6542
 5832SOL    HW128955   1.924   3.006   5.481 -1.2963 -0.3752 -1.4631
 5832SOL    HW228956   2.040   3.079   5.495  0.3731  1.8291 -0.5458
 5833SOL     OW28957   1.734   1.860   3.453  0.2962 -0.2372  0.0172
 5833SOL    HW128958   1.768   1.813   3.377  0.7981 -2.2832  1.5248
 5833SOL    HW228959   1.792   1.936   3.447  2.0153 -1.6285 -1.2644
 5834SOL     OW28960   1.968   0.379   5.745 -0.6670 -0.1641  0.0278
 5834SOL    HW128961   1.872   0.371   5.744 -0.7299  0.0722  2.9639
 5834SOL    HW228962   1.988   0.302   5.798 -3.7918 -0.5696  0.6277
 5835SOL     OW28963   1.166   4.481   2.300 -0.4269  0.0227  0.4406
 5835SOL    HW128964   1.133   4.492   2.211  0.3002  2.3169  0.4600
 5835SOL    HW228965   1.084   4.489   2.349 -0.3596  0.6269  0.4573
 5836SOL     OW28966   3.745   0.257   7.029 -0.1708  0.2353  0.6624
 5836SOL    HW128967   3.669   0.212   6.992  0.7716 -0.1819 -0.7480
 5836SOL    HW228968   3.748   0.336   6.974 -2.9464  1.0417  1.6813
 5837SOL     OW28969   0.703   0.899   7.747 -0.5144 -0.1487  0.0409
 5837SOL    HW128970   0.714   0.868   7.657 -2.0629  0.4323 -0.3691
 5837SOL    HW228971   0.664   0.823   7.790 -0.3728 -0.3418 -0.1722
 5838SOL     OW28972   2.242   3.048   7.919  0.2910 -0.0153  0.1292
 5838SOL    HW128973   2.253   3.142   7.928 -1.1109  0.5421 -3.7502
 5838SOL    HW228974   2.185   3.032   7.994  1.2117  0.3428  0.9039
 5839SOL     OW28975   1.074   1.812   5.392  0.1621 -0.0122  1.1203
 5839SOL    HW128976   1.087   1.907   5.400 -0.7536  0.1272  0.8657
 5839SOL    HW228977   1.075   1.806   5.297  0.6895  0.0718  1.1186
 5840SOL     OW28978   0.671   4.452   0.498 -0.6073  0.3687 -0.4585
 5840SOL    HW128979   0.759   4.426   0.523 -0.2850  0.1742 -1.8131
 5840SOL    HW228980   0.612   4.386   0.534 -0.0920  0.4539  0.5461
 5841SOL     OW28981   2.711   3.648   4.000  0.4583 -0.0141  0.2451
 5841SOL    HW128982   2.758   3.644   4.083  0.3652 -2.0544  0.2064
 5841SOL    HW228983   2.761   3.582   3.952 -0.9450 -0.8025 -0.1272
 5842SOL     OW28984   0.140   2.298   2.981 -0.8029 -0.2966 -0.4772
 5842SOL    HW128985   0.130   2.241   2.905 -0.5887 -0.4558 -0.3856
 5842SOL    HW228986   0.193   2.248   3.043 -0.3599  1.2749  0.3941
 5843SOL     OW28987   4.040   3.552   5.169 -0.6846 -0.3932  0.4799
 5843SOL    HW128988   4.032   3.573   5.262  2.2991 -0.3157  0.7178
 5843SOL    HW228989   4.056   3.458   5.170 -1.0006 -0.4520 -0.0726
 5844SOL     OW28990   2.505   3.349   9.946 -0.2540 -0.0583 -0.0526
 5844SOL    HW128991   2.486   3.307  10.029  0.7371 -0.5120 -0.0655
 5844SOL    HW228992   2.431   3.321   9.892 -0.5868 -0.3464  0.5570
 5845SOL     OW28993   3.206   0.972  14.921 -0.0321  0.2929  0.5432
 5845SOL    HW128994   3.219   0.882  14.891  0.6716  0.4605  0.3353
 5845SOL    HW228995   3.166   0.964  15.007 -0.5584 -0.9433  0.1897
 5846SOL     OW28996   3.814   3.380   4.234  0.2863 -0.3805 -0.3922
 5846SOL    HW128997   3.843   3.321   4.164  1.0121  0.4631 -0.7943
 5846SOL    HW228998   3.799   3.463   4.188  1.1455  0.4841  0.9060
 5847SOL     OW28999   2.822   1.925   7.240  0.1317  0.4178  0.1948
 5847SOL    HW129000   2.765   1.996   7.269 -0.6859  0.2948 -1.1147
 5847SOL    HW229001   2.887   1.932   7.310  1.9839  0.7933 -1.5853
 5848SOL     OW29002   1.561   2.561   5.146 -0.8212  0.0625  0.0203
 5848SOL    HW129003   1.579   2.655   5.152  0.8864 -0.6773  7.3507
 5848SOL    HW229004   1.580   2.541   5.238 -2.4518 -1.8478 -0.0666
 5849SOL     OW29005   2.794   4.166  10.607 -0.1510  0.0455 -0.8950
 5849SOL    HW129006   2.815   4.157  10.514 -0.1721 -0.0098 -0.8945
 5849SOL    HW229007   2.880   4.152  10.648 -0.1655  0.0161 -0.8747
 5850SOL     OW29008   3.658   0.256  16.399  0.3748 -0.3672  0.2370
 5850SOL    HW129009   3.679   0.198  16.472 -1.0708 -1.5468 -0.2851
 5850SOL    HW229010   3.739   0.247  16.349  0.3258  3.3082 -0.4831
 5851SOL     OW29011   2.230   0.272   2.328  0.1538  0.2364  0.0136
 5851SOL    HW129012   2.272   0.220   2.396  1.6971 -0.8057 -1.7556
 5851SOL    HW229013   2.139   0.244   2.343 -0.5033  3.0905  1.5816
 5852SOL     OW29014   1.276   1.917  10.557  0.0540  0.7467 -0.1061
 5852SOL    HW129015   1.260   1.854  10.486 -0.6017  1.8250 -0.9324
 5852SOL    HW229016   1.204   1.896  10.616 -1.6697  1.7260 -1.8444
 5853SOL     OW29017   3.910   0.182   3.940  0.3422  0.3312 -0.0912
 5853SOL    HW129018   3.858   0.114   3.983 -0.2437 -0.7575 -2.5229
 5853SOL    HW229019   3.851   0.208   3.870  0.0757 -1.3317 -0.4943
 5854SOL     OW29020   3.074   4.145  17.641 -0.0129 -0.4746  0.0996
 5854SOL    HW129021   2.981   4.124  17.635 -0.3698  1.1170  0.2128
 5854SOL    HW229022   3.077   4.233  17.603  0.5216 -0.6704 -0.3199
 5855SOL     OW29023   0.911   1.735   1.610  0.3683 -0.1053  0.1822
 5855SOL    HW129024   0.923   1.796   1.538 -0.5220  0.4647  0.5095
 5855SOL    HW229025   0.946   1.652   1.578 -0.6709  0.1151 -1.5232
 5856SOL     OW29026   3.075   1.751   8.598 -0.0106 -0.2341 -0.7112
 5856SOL    HW129027   3.116   1.675   8.638 -0.6079  0.0342  0.4115
 5856SOL    HW229028   2.988   1.728   8.630  0.0683  1.6521  0.8700
 5857SOL     OW29029   1.069   4.444   7.843  0.0284 -0.6766  0.2357
 5857SOL    HW129030   1.075   4.396   7.925  1.0188 -1.0027 -0.0304
 5857SOL    HW229031   1.101   4.529   7.874  1.0797 -1.7399  2.0362
 5858SOL     OW29032   2.264   0.526  13.031 -0.0258  0.0513  0.2031
 5858SOL    HW129033   2.211   0.602  13.007 -1.0894 -0.7401  0.0167
 5858SOL    HW229034   2.198   0.481  13.083 -0.1257  0.4349  0.4100
 5859SOL     OW29035   3.755   1.166   1.047 -0.4287 -0.3776  0.2411
 5859SOL    HW129036   3.702   1.120   0.982  0.6072 -1.0902 -0.1027
 5859SOL    HW229037   3.819   1.206   0.987  0.3723 -0.3282  1.1333
 5860SOL     OW29038   1.000   1.749   8.503 -0.4406 -0.2176  0.5363
 5860SOL    HW129039   1.090   1.755   8.534 -0.1994  1.6354 -0.5459
 5860SOL    HW229040   0.962   1.818   8.557  0.0964  0.3063  0.2435
 5861SOL     OW29041   1.532   3.314   8.794  0.5943  0.5627 -0.0425
 5861SOL    HW129042   1.493   3.395   8.828  1.5678  0.5713  1.0643
 5861SOL    HW229043   1.512   3.260   8.871  3.0984 -0.2457  0.0358
 5862SOL     OW29044   0.133   0.656  17.078  0.2933  0.1999 -0.1497
 5862SOL    HW129045   0.099   0.573  17.044 -0.5366 -0.6196  2.6562
 5862SOL    HW229046   0.054   0.687  17.124  0.6845  0.8236  0.0985
 5863SOL     OW29047   1.127   1.727   0.074 -0.4081 -0.0331 -0.6714
 5863SOL    HW129048   1.043   1.762   0.103 -1.0976 -2.5240  0.3604
 5863SOL    HW229049   1.188   1.792   0.040  1.9890 -1.5084  0.8262
 5864SOL     OW29050   4.622   3.916   4.490 -0.0159  0.2512 -0.1764
 5864SOL    HW129051   4.655   4.005   4.504 -0.8869 -0.0521  3.6132
 5864SOL    HW229052   4.708   3.876   4.481 -0.6586 -1.1422 -0.0276
 5865SOL     OW29053   1.139   0.009  11.578 -0.1210 -0.0608  0.0633
 5865SOL    HW129054   1.232   0.024  11.597 -0.0058 -0.8449  0.1011
 5865SOL    HW229055   1.139   4.686  11.497  2.1413  0.2689 -0.1462
 5866SOL     OW29056   1.205   0.465  15.032  0.4295  0.4333  0.1655
 5866SOL    HW129057   1.296   0.435  15.033 -0.1914 -1.4047  0.8829
 5866SOL    HW229058   1.169   0.409  15.101  2.3432 -0.4671  0.4235
 5867SOL     OW29059   1.589   2.895   1.797 -0.4281  0.1333 -0.2187
 5867SOL    HW129060   1.611   2.986   1.776 -1.7252  0.6953  0.8520
 5867SOL    HW229061   1.506   2.880   1.751 -1.9654  3.0152  1.6110
 5868SOL     OW29062   4.580   0.882   9.753  0.5105 -0.1831  0.2453
 5868SOL    HW129063   4.521   0.954   9.774 -0.4006 -1.0240  0.5874
 5868SOL    HW229064   4.576   0.872   9.658 -0.8176 -3.4963  0.6287
 5869SOL     OW29065   3.840   1.111  16.589 -0.8202 -0.4594  0.2947
 5869SOL    HW129066   3.931   1.082  16.586 -0.8096 -0.4805  0.8965
 5869SOL    HW229067   3.821   1.062  16.509  0.7405  1.1328 -1.0619
 5870SOL     OW29068   3.916   2.298   4.499  0.0365  0.7021  0.6685
 5870SOL    HW129069   3.847   2.245   4.459 -0.0062  1.5222 -0.3258
 5870SOL    HW229070   3.982   2.300   4.430  0.7277 -2.4607  1.2035
 5871SOL     OW29071   0.620   3.246   9.778 -0.1491  0.3228 -0.2392
 5871SOL    HW129072   0.637   3.273   9.687  0.1723  0.1207 -0.2356
 5871SOL    HW229073   0.555   3.179   9.757  1.4497 -1.0683 -0.6538
 5872SOL     OW29074   0.298   3.157   7.063 -0.7153  0.4921 -0.0398
 5872SOL    HW129075   0.262   3.069   7.069  1.8861 -0.6130 -0.7516
 5872SOL    HW229076   0.387   3.142   7.095  0.2659  1.3992 -2.3253
 5873SOL     OW29077   0.910   3.647   3.116  0.7180 -0.8204 -0.3940
 5873SOL    HW129078   1.004   3.643   3.097  0.9486  0.1250  0.5298
 5873SOL    HW229079   0.916   3.672   3.208  2.2515  1.4170 -1.1027
 5874SOL     OW29080   4.292   2.319  17.357  0.6122  0.0805  0.6691
 5874SOL    HW129081   4.255   2.287  17.275  0.2232  0.1515  0.8179
 5874SOL    HW229082   4.209   2.328  17.405 -0.4733 -0.7436 -1.0468
 5875SOL     OW29083   0.175   3.084   4.336  0.5469  0.6289  0.6385
 5875SOL    HW129084   0.270   3.080   4.343  0.6266  0.7240 -0.2866
 5875SOL    HW229085   0.161   3.083   4.241 -2.5430  0.3474  1.1015
 5876SOL     OW29086   3.414   3.796   0.769  0.6479  0.6028 -0.7560
 5876SOL    HW129087   3.381   3.841   0.691 -1.1778  0.9975  0.2391
 5876SOL    HW229088   3.343   3.732   0.764  1.2545 -0.1919  0.9993
 5877SOL     OW29089   1.984   1.497   9.996 -0.1752  0.0433 -0.0867
 5877SOL    HW129090   1.901   1.517  10.039 -0.0651  1.9840 -0.7874
 5877SOL    HW229091   1.994   1.583   9.954  0.0575 -0.9340 -2.0285
 5878SOL     OW29092   1.058   2.897   3.581  0.1072  0.3431  0.1507
 5878SOL    HW129093   1.145   2.861   3.600 -0.1951 -0.5171 -0.1322
 5878SOL    HW229094   1.042   2.975   3.634 -1.1697  1.3327 -1.7010
 5879SOL     OW29095   0.935   2.459  15.238  0.1491 -0.9382 -0.1778
 5879SOL    HW129096   0.943   2.552  15.218  1.7573 -0.5331  2.3884
 5879SOL    HW229097   0.904   2.467  15.328 -2.9144 -1.6558 -1.1540
 5880SOL     OW29098   4.402   3.255  15.852 -0.4004 -0.0977 -0.4026
 5880SOL    HW129099   4.419   3.164  15.829 -1.6928 -0.6580  0.8332
 5880SOL    HW229100   4.343   3.244  15.927  2.5956 -0.6580  1.8297
 5881SOL     OW29101   3.449   3.228   4.840  0.0850 -0.3894  0.4308
 5881SOL    HW129102   3.416   3.211   4.752 -0.5023  0.9991  0.3710
 5881SOL    HW229103   3.493   3.147   4.865 -1.0340 -1.0367  0.2949
 5882SOL     OW29104   1.784   2.810  15.213 -0.2313 -0.6682  0.3833
 5882SOL    HW129105   1.691   2.823  15.193 -0.3080 -0.2325  1.0325
 5882SOL    HW229106   1.818   2.733  15.167 -0.7426  0.2253 -1.5129
 5883SOL     OW29107   1.043   1.292  16.390 -0.0527 -0.1509  0.3286
 5883SOL    HW129108   1.108   1.223  16.377 -0.7350 -0.9556  1.1754
 5883SOL    HW229109   1.103   1.367  16.398  0.7194 -0.8560  1.1053
 5884SOL     OW29110   1.389   2.647   1.015 -0.0820  0.1149 -0.2921
 5884SOL    HW129111   1.393   2.711   1.086 -1.3060 -0.1707  0.0392
 5884SOL    HW229112   1.427   2.702   0.946 -1.1195  1.7044  0.3946
 5885SOL     OW29113   4.096   0.254  15.598  0.3369 -0.6061 -0.2026
 5885SOL    HW129114   4.154   0.239  15.673 -0.3947  2.2517  0.9180
 5885SOL    HW229115   4.029   0.187  15.614  0.1403 -0.2342  0.5147
 5886SOL     OW29116   3.215   2.875   7.820  0.0071  0.4547  0.5314
 5886SOL    HW129117   3.122   2.855   7.808  0.5053 -1.8153  0.3612
 5886SOL    HW229118   3.253   2.823   7.749  0.1776  2.6835 -1.0245
 5887SOL     OW29119   3.953   2.528   7.810 -0.9583  0.3030 -0.5511
 5887SOL    HW129120   3.973   2.622   7.812 -1.1876  0.3392  0.0284
 5887SOL    HW229121   4.007   2.500   7.736 -2.6791 -0.0565 -1.6710
 5888SOL     OW29122   3.895   1.868   2.261 -0.1053  0.2954 -0.2884
 5888SOL    HW129123   3.917   1.891   2.171  0.1364  0.5779 -0.1549
 5888SOL    HW229124   3.939   1.942   2.303  0.6994 -1.0811  1.2928
 5889SOL     OW29125   1.838   4.554   2.652  0.3411 -0.1834  0.0877
 5889SOL    HW129126   1.767   4.566   2.715 -1.1003  4.3694 -2.3987
 5889SOL    HW229127   1.810   4.604   2.575 -1.3757 -1.8212 -0.3520
 5890SOL     OW29128   2.103   2.618   2.246 -0.3337  0.2034 -0.1587
 5890SOL    HW129129   2.165   2.615   2.173  0.9185  0.9900  0.8870
 5890SOL    HW229130   2.024   2.660   2.211 -0.0928 -0.5175 -1.5985
 5891SOL     OW29131   1.054   1.416   7.363  0.0272 -0.2379  0.1911
 5891SOL    HW129132   1.129   1.439   7.308  0.9795  0.2716  1.6957
 5891SOL    HW229133   0.988   1.378   7.306  0.3615 -0.3547 -0.1158
 5892SOL     OW29134   3.859   2.649   6.274 -0.1364  0.2275 -0.4671
 5892SOL    HW129135   3.839   2.709   6.202 -1.2642  1.0268  0.5095
 5892SOL    HW229136   3.928   2.701   6.315 -2.5889  1.9713  1.4698
 5893SOL     OW29137   4.603   2.823   4.615 -0.9773 -0.4091  0.3498
 5893SOL    HW129138   4.519   2.786   4.588 -1.7477  1.0421  0.7242
 5893SOL    HW229139   4.598   2.913   4.580  1.5763  0.1783  1.5014
 5894SOL     OW29140   3.233   0.143  11.787  0.4342  0.1674  0.2415
 5894SOL    HW129141   3.162   0.095  11.827  1.1330 -0.4477  0.7483
 5894SOL    HW229142   3.241   0.087  11.709 -0.4893  0.3503  0.0175
 5895SOL     OW29143   3.732   4.372   8.397  0.3344 -0.3254 -0.0781
 5895SOL    HW129144   3.822   4.397   8.419  0.1839  0.5405 -0.4613
 5895SOL    HW229145   3.747   4.290   8.350 -1.1503 -0.4530 -0.3425
 5896SOL     OW29146   3.703   4.282   2.529  0.3449 -0.2165  0.1346
 5896SOL    HW129147   3.608   4.277   2.519  0.3534 -1.9713  0.9606
 5896SOL    HW229148   3.723   4.188   2.528  0.1424 -0.2530 -2.1026
 5897SOL     OW29149   4.415   4.727   9.744  1.0272 -0.0654  0.3479
 5897SOL    HW129150   4.424   0.083   9.788 -0.3285 -0.5846  1.5971
 5897SOL    HW229151   4.343   4.688   9.793 -0.6613  1.0101 -1.2761
 5898SOL     OW29152   0.583   0.076  10.418 -0.8770 -0.5155 -0.3847
 5898SOL    HW129153   0.526   0.134  10.367  0.5319  0.0571 -1.2926
 5898SOL    HW229154   0.658   0.066  10.360 -0.7527 -1.4149 -0.0767
 5899SOL     OW29155   1.016   0.905  12.617  0.5063 -0.2897 -0.0040
 5899SOL    HW129156   1.018   0.998  12.596  1.8516 -0.5056 -0.8555
 5899SOL    HW229157   1.027   0.859  12.534 -0.5691  1.5418 -1.1633
 5900SOL     OW29158   1.297   1.641  16.117 -0.2350  0.3551 -0.7103
 5900SOL    HW129159   1.253   1.709  16.066 -1.1262  1.0536  1.0033
 5900SOL    HW229160   1.388   1.661  16.095 -0.9244  1.4154 -2.5781
 5901SOL     OW29161   1.254   3.493  11.006 -0.3116 -0.2517 -0.2302
 5901SOL    HW129162   1.274   3.400  10.994  1.6552 -0.1470  1.9618
 5901SOL    HW229163   1.279   3.498  11.099 -0.9299 -0.2203 -0.0693
 5902SOL     OW29164   3.146   3.988   7.799 -0.3173  0.1805 -1.0556
 5902SOL    HW129165   3.054   3.974   7.776 -0.8094  2.1502 -0.3361
 5902SOL    HW229166   3.138   4.058   7.865 -1.6162 -1.5754  0.6613
 5903SOL     OW29167   1.068   0.835   7.082  0.4618  0.2241  0.1922
 5903SOL    HW129168   1.058   0.805   7.172 -0.0392 -3.4739 -1.1116
 5903SOL    HW229169   0.986   0.798   7.049  1.3006 -0.4327 -1.1476
 5904SOL     OW29170   0.964   3.984   3.842 -0.1248  0.7779 -0.4105
 5904SOL    HW129171   1.019   4.057   3.812 -0.2212  2.0599  2.5483
 5904SOL    HW229172   1.020   3.910   3.864  0.1821  0.7875 -1.1508
 5905SOL     OW29173   0.279   1.274   5.452 -0.2950 -0.6156  0.0980
 5905SOL    HW129174   0.193   1.289   5.412 -0.3977 -1.4107  0.0101
 5905SOL    HW229175   0.247   1.252   5.539 -0.8224 -3.2516 -0.7531
 5906SOL     OW29176   0.961   2.103   8.455 -0.9891  0.2083  0.7785
 5906SOL    HW129177   0.896   2.171   8.439 -1.8695 -1.1636 -1.5179
 5906SOL    HW229178   0.932   2.077   8.542 -0.2611 -0.4714  0.8227
 5907SOL     OW29179   1.566   1.069  16.863 -0.0076 -0.5574 -0.2715
 5907SOL    HW129180   1.651   1.071  16.819 -0.6522  0.5464 -1.4359
 5907SOL    HW229181   1.507   1.091  16.791 -2.1894 -1.8877  1.0923
 5908SOL     OW29182   4.243   3.017   6.935 -0.3893  0.7412 -0.0091
 5908SOL    HW129183   4.272   3.107   6.953  0.6661  0.2863  0.6016
 5908SOL    HW229184   4.320   2.961   6.938 -0.6032  0.4040 -1.0202
 5909SOL     OW29185   4.695   1.375   1.007  0.4164  0.1280 -0.6255
 5909SOL    HW129186   0.034   1.314   0.977  1.3958  0.6615  0.5067
 5909SOL    HW229187   0.014   1.453   1.037 -0.2654  0.5347 -0.6030
 5910SOL     OW29188   4.479   4.148   3.850  0.4863 -0.2093 -0.2247
 5910SOL    HW129189   4.427   4.199   3.912  0.6462 -0.0752 -0.2018
 5910SOL    HW229190   4.411   4.103   3.799  1.0934  1.3430 -2.3985
 5911SOL     OW29191   1.202   0.930   3.682 -0.0646 -0.1162 -0.4361
 5911SOL    HW129192   1.141   0.866   3.645 -0.8076  0.9731 -1.0998
 5911SOL    HW229193   1.152   0.967   3.754 -1.6959  0.2188 -1.7486
 5912SOL     OW29194   1.366   4.007   4.370 -0.4999 -0.3031 -0.1563
 5912SOL    HW129195   1.324   4.039   4.449  2.7213  0.9514  1.0355
 5912SOL    HW229196   1.391   4.087   4.324  0.3711  0.0721  0.9810
 5913SOL     OW29197   3.254   3.401   9.123  0.0245 -0.1258  0.0865
 5913SOL    HW129198   3.339   3.365   9.096 -0.1484  0.9208 -1.8274
 5913SOL    HW229199   3.284   3.477   9.172 -3.6707  1.3543  0.0815
 5914SOL     OW29200   2.239   0.712   6.691 -0.2123  0.3138 -0.3992
 5914SOL    HW129201   2.278   0.746   6.772  0.0094  1.9450 -1.1826
 5914SOL    HW229202   2.315   0.697   6.635 -1.1622  0.0960 -1.6311
 5915SOL     OW29203   0.079   4.050   5.046 -0.6299  0.4750  0.2056
 5915SOL    HW129204   0.162   4.002   5.046 -0.4936  0.7108  0.3680
 5915SOL    HW229205   0.032   3.983   4.995  2.0416  0.8498 -2.7657
 5916SOL     OW29206   2.512   1.114   5.062 -0.2159  0.0932 -0.7193
 5916SOL    HW129207   2.556   1.036   5.031 -0.0262 -0.9707  2.1990
 5916SOL    HW229208   2.444   1.080   5.120  0.5003  2.4521  1.5191
 5917SOL     OW29209   0.368   1.370   3.175  0.0854 -0.4755 -0.1535
 5917SOL    HW129210   0.304   1.410   3.117  1.4527  3.3030  0.9437
 5917SOL    HW229211   0.339   1.409   3.257  0.9036 -1.5405  0.6446
 5918SOL     OW29212   2.486   3.828   3.448 -0.1227  0.2831 -0.4017
 5918SOL    HW129213   2.432   3.784   3.513  2.2303 -1.3319  0.4644
 5918SOL    HW229214   2.479   3.915   3.486  1.8299 -0.6244  2.0451
 5919SOL     OW29215   3.637   4.606   8.567  0.0160  0.4765  0.1184
 5919SOL    HW129216   3.699   4.679   8.560 -0.0285  0.5549  0.5437
 5919SOL    HW229217   3.664   4.550   8.494 -3.3120 -1.0154  0.0673
 5920SOL     OW29218   0.160   2.858  14.860 -0.2756 -0.2770 -0.3928
 5920SOL    HW129219   0.095   2.789  14.868  0.2404 -0.1764  4.3754
 5920SOL    HW229220   0.126   2.919  14.794  2.1816  0.7963 -0.6865
 5921SOL     OW29221   2.009   0.023   5.066 -0.2267 -0.4303  0.1492
 5921SOL    HW129222   1.963   4.708   5.138 -0.0121  0.9799  1.1248
 5921SOL    HW229223   1.936   0.058   5.015  0.7524  0.5913 -0.5311
 5922SOL     OW29224   0.382   1.240  11.102 -0.3287  0.0224 -0.1745
 5922SOL    HW129225   0.452   1.301  11.079  1.6558 -1.9424  0.6691
 5922SOL    HW229226   0.359   1.275  11.188  0.8770 -1.7634  0.8536
 5923SOL     OW29227   4.105   1.516   8.087 -0.1957  0.6793 -0.3207
 5923SOL    HW129228   4.125   1.461   8.012 -0.6972 -2.9766  2.1958
 5923SOL    HW229229   4.047   1.575   8.039 -1.3866 -0.7513 -0.6756
 5924SOL     OW29230   0.642   4.327   7.038  0.8576  0.1727 -0.2095
 5924SOL    HW129231   0.614   4.351   6.949  0.4926 -0.7060 -0.3241
 5924SOL    HW229232   0.682   4.410   7.064  1.7437  0.3820 -2.2447
 5925SOL     OW29233   3.180   1.973   1.928  0.0440 -0.0932  0.6672
 5925SOL    HW129234   3.179   1.913   1.853 -1.6986  0.9755 -0.1549
 5925SOL    HW229235   3.085   1.973   1.944 -0.1071  1.0553 -0.3161
 5926SOL     OW29236   0.937   1.440   8.656 -0.4093 -0.0901 -0.2848
 5926SOL    HW129237   0.858   1.404   8.697 -0.1550 -1.1275 -0.6904
 5926SOL    HW229238   0.940   1.519   8.709 -3.4730 -0.3603  0.3318
 5927SOL     OW29239   2.484   3.353  13.408 -0.5785  0.4256 -0.0790
 5927SOL    HW129240   2.458   3.445  13.419  1.6186  1.0806 -0.4427
 5927SOL    HW229241   2.550   3.350  13.477  1.0253 -2.1186 -1.7209
 5928SOL     OW29242   3.435   1.778   5.996  0.0367  0.0424  0.6337
 5928SOL    HW129243   3.494   1.839   6.040 -1.4736  0.8438  1.5714
 5928SOL    HW229244   3.386   1.753   6.074  0.7817  2.0487  1.7569
 5929SOL     OW29245   2.343   0.464   7.700 -0.6726  0.0433 -0.2880
 5929SOL    HW129246   2.432   0.429   7.706 -0.6408  0.3291  0.9494
 5929SOL    HW229247   2.339   0.478   7.606 -0.3470  1.0923 -0.1503
 5930SOL     OW29248   3.711   2.132   4.446 -0.0403  0.0046 -0.0999
 5930SOL    HW129249   3.663   2.196   4.498 -1.2595 -2.1354  1.4263
 5930SOL    HW229250   3.643   2.079   4.404 -0.9084  0.2626  0.9818
 5931SOL     OW29251   2.540   1.650   4.411 -0.3543  0.4439  0.4652
 5931SOL    HW129252   2.492   1.722   4.451 -1.9992 -0.1906 -0.3359
 5931SOL    HW229253   2.602   1.698   4.357  2.0903  1.5374  4.2406
 5932SOL     OW29254   4.299   0.105   0.246  0.0365 -0.1096  0.2795
 5932SOL    HW129255   4.267   0.178   0.193  1.2823  1.2160  1.3569
 5932SOL    HW229256   4.231   0.109   0.313 -0.9265  1.7424 -0.8112
 5933SOL     OW29257   0.181   0.514   7.755  0.4061  0.7735  0.1004
 5933SOL    HW129258   0.120   0.502   7.829 -0.4301 -0.3030 -0.7547
 5933SOL    HW229259   0.243   0.441   7.750 -1.7048 -0.9024 -1.7697
 5934SOL     OW29260   4.215   4.503   0.972  0.9511 -0.2291 -0.3335
 5934SOL    HW129261   4.210   4.584   0.921 -0.7507  0.4472  0.8987
 5934SOL    HW229262   4.147   4.519   1.038  2.3869 -2.4144  1.6748
 5935SOL     OW29263   1.483   3.894   2.261 -0.4052 -0.0506  0.1654
 5935SOL    HW129264   1.563   3.945   2.277 -1.5417  1.5738  0.6566
 5935SOL    HW229265   1.518   3.806   2.247  2.7482  1.3186 -0.5809
 5936SOL     OW29266   1.333   0.744   5.328  0.4699  0.0051  0.1149
 5936SOL    HW129267   1.304   0.834   5.314 -0.1673 -0.0789  0.9029
 5936SOL    HW229268   1.385   0.723   5.250  1.5677  3.1689  0.0034
 5937SOL     OW29269   3.896   1.211   2.870  0.2940 -0.1235  0.7403
 5937SOL    HW129270   3.893   1.242   2.780  0.6308 -0.2630  0.6823
 5937SOL    HW229271   3.991   1.203   2.875  0.2540 -0.8706  0.3383
 5938SOL     OW29272   0.971   3.426   2.372 -0.1936 -0.2226 -0.3720
 5938SOL    HW129273   1.024   3.505   2.383  0.7109 -0.8173 -0.4562
 5938SOL    HW229274   1.035   3.359   2.396 -0.7634 -0.8674 -0.6477
 5939SOL     OW29275   0.111   0.569  10.088 -0.1912 -0.0021  0.4655
 5939SOL    HW129276   0.037   0.630  10.098  1.3531  1.8824  0.5189
 5939SOL    HW229277   0.100   0.527  10.174 -0.2282 -2.0423 -0.5516
 5940SOL     OW29278   4.608   4.341   3.538  0.1619  0.0621  0.5052
 5940SOL    HW129279   4.565   4.426   3.549  1.1145  0.6664 -0.4414
 5940SOL    HW229280   4.595   4.315   3.447  1.0896 -1.6857  0.8520
 5941SOL     OW29281   0.856   4.580   4.136 -0.2422  0.2006  0.1487
 5941SOL    HW129282   0.808   4.535   4.066 -1.0366 -0.7295  1.2813
 5941SOL    HW229283   0.776   4.598   4.184 -0.4162 -1.0980  0.3628
 5942SOL     OW29284   4.137   0.331   8.485 -0.0239  0.4215  0.3759
 5942SOL    HW129285   4.141   0.277   8.564 -3.0479  0.5474  0.6248
 5942SOL    HW229286   4.159   0.413   8.530 -2.8622  0.5760  1.4970
 5943SOL     OW29287   1.577   1.581  17.011 -0.3289 -0.5336 -0.4230
 5943SOL    HW129288   1.612   1.647  16.950  0.7646 -2.2290 -1.6126
 5943SOL    HW229289   1.622   1.508  16.970  1.5302  1.5233 -2.0707
 5944SOL     OW29290   2.221   0.553   8.503  0.0599  0.7407  0.4664
 5944SOL    HW129291   2.264   0.559   8.588  0.1083  1.3569  0.3934
 5944SOL    HW229292   2.158   0.624   8.510 -1.6818 -0.8078  0.6839
 5945SOL     OW29293   3.139   3.030  11.426 -0.0059 -0.2929 -0.3328
 5945SOL    HW129294   3.092   2.990  11.354  1.3164  0.6712 -1.7271
 5945SOL    HW229295   3.115   2.979  11.503 -0.0155 -0.7441 -0.6407
 5946SOL     OW29296   0.650   1.873  10.449 -0.0295  0.5970 -0.2724
 5946SOL    HW129297   0.619   1.893  10.538  1.9154  2.7618 -0.0668
 5946SOL    HW229298   0.594   1.927  10.393 -3.1355 -0.7761  1.5332
 5947SOL     OW29299   0.907   3.684   0.281  0.3781 -0.3387  0.2712
 5947SOL    HW129300   0.843   3.613   0.281 -1.5661  1.4249 -0.1439
 5947SOL    HW229301   0.855   3.763   0.290 -0.5675 -0.9658  0.2485
 5948SOL     OW29302   1.757   1.972   6.024  0.3483  0.1796  0.2034
 5948SOL    HW129303   1.833   1.930   5.985  0.4242 -0.0074  0.5531
 5948SOL    HW229304   1.767   1.965   6.119 -1.0239  3.3473  0.5777
 5949SOL     OW29305   3.551   1.423   2.444 -0.3431  0.4448  0.6595
 5949SOL    HW129306   3.642   1.451   2.430 -0.2369  0.3313  1.0996
 5949SOL    HW229307   3.535   1.461   2.530 -0.4069  1.2512  0.2876
 5950SOL     OW29308   1.275   4.329   4.085 -0.3063  0.0636  0.7909
 5950SOL    HW129309   1.330   4.341   4.162 -1.1159  2.8344  0.9292
 5950SOL    HW229310   1.190   4.338   4.130 -0.7324 -3.3866  0.6651
 5951SOL     OW29311   3.807   0.702   6.971 -0.6227 -0.8052  0.4715
 5951SOL    HW129312   3.821   0.777   6.913 -1.8859  0.5410  1.9229
 5951SOL    HW229313   3.882   0.727   7.025 -0.6313  0.2818 -0.0160
 5952SOL     OW29314   4.165   3.099  13.223 -0.5318 -0.8750 -0.0519
 5952SOL    HW129315   4.070   3.106  13.217 -0.5621 -1.0150  0.2660
 5952SOL    HW229316   4.188   3.192  13.227 -0.7092 -0.8192 -0.3715
 5953SOL     OW29317   0.677   2.957   4.949 -0.4479  0.5250 -0.0970
 5953SOL    HW129318   0.765   2.988   4.927 -0.7524  2.5508  1.5374
 5953SOL    HW229319   0.639   2.964   4.861  2.1506 -0.5735 -1.3037
 5954SOL     OW29320   0.992   4.526   2.576  0.1500  0.0759  0.0488
 5954SOL    HW129321   0.945   4.523   2.492 -0.5661  1.7807  0.3900
 5954SOL    HW229322   0.979   4.435   2.604  1.9428 -1.0571 -2.7754
 5955SOL     OW29323   4.678   2.384  12.989  0.2850 -0.1871 -0.2079
 5955SOL    HW129324   4.584   2.381  12.971  0.4028 -1.0280 -0.6867
 5955SOL    HW229325   4.684   2.472  13.025 -0.9240 -0.3781  0.4941
 5956SOL     OW29326   0.340   1.895  15.758  0.0244  0.3598 -0.1488
 5956SOL    HW129327   0.416   1.949  15.737 -0.1006  0.0150 -1.5074
 5956SOL    HW229328   0.266   1.942  15.718 -1.0438 -1.2064 -0.0263
 5957SOL     OW29329   3.975   1.343   7.446  0.2225  0.6845 -0.0047
 5957SOL    HW129330   3.918   1.348   7.369 -1.6562  2.2289  1.4982
 5957SOL    HW229331   3.937   1.409   7.505  0.9719  2.0453 -1.0422
 5958SOL     OW29332   1.148   1.531   4.317  0.4493 -0.2057 -0.3466
 5958SOL    HW129333   1.198   1.533   4.236 -0.3520 -0.3624 -0.8464
 5958SOL    HW229334   1.120   1.621   4.330 -2.1621 -1.1669  0.7463
 5959SOL     OW29335   0.706   3.118   3.068 -0.5844 -0.0463  0.0492
 5959SOL    HW129336   0.752   3.199   3.048 -2.4536  0.6845 -1.3099
 5959SOL    HW229337   0.615   3.149   3.072 -0.3389  0.4557  1.6701
 5960SOL     OW29338   4.109   2.686  16.269  0.3967 -0.0097 -0.0116
 5960SOL    HW129339   4.202   2.684  16.248  0.3417  0.8115 -0.3073
 5960SOL    HW229340   4.085   2.773  16.239 -1.9838 -1.3223 -1.8884
 5961SOL     OW29341   4.508   3.632  17.065 -0.5236  0.2112 -0.3129
 5961SOL    HW129342   4.450   3.653  17.139  1.8568 -2.0204  2.1735
 5961SOL    HW229343   4.458   3.589  16.996 -1.5229 -1.0474  1.2173
 5962SOL     OW29344   4.596   3.165   3.522 -0.3437 -0.4901  0.4250
 5962SOL    HW129345   4.633   3.155   3.434  0.7988 -1.1882  0.9928
 5962SOL    HW229346   4.655   3.227   3.564 -2.2831  0.9134  1.1158
 5963SOL     OW29347   2.450   1.068   8.764 -0.0502  0.1925 -0.1412
 5963SOL    HW129348   2.460   1.076   8.669 -2.0111  0.0672 -0.3591
 5963SOL    HW229349   2.436   1.162   8.779  1.9916  0.6808 -1.2271
 5964SOL     OW29350   0.465   4.061  13.646 -0.5883  0.2517 -0.0248
 5964SOL    HW129351   0.416   4.078  13.726 -0.6910  1.3675 -0.3197
 5964SOL    HW229352   0.406   4.010  13.591 -1.9271  2.5413 -0.7190
 5965SOL     OW29353   2.852   1.414  13.237 -0.3438 -0.0454  0.4649
 5965SOL    HW129354   2.825   1.446  13.150 -0.4633  0.3065  0.6337
 5965SOL    HW229355   2.810   1.487  13.282  0.8410  1.2175 -0.4645
 5966SOL     OW29356   4.678   0.507   5.340 -0.7144  0.3930  0.0051
 5966SOL    HW129357   0.040   0.511   5.372 -1.1293 -1.5572  1.4166
 5966SOL    HW229358   4.658   0.415   5.357  0.7377 -0.2206 -1.6447
 5967SOL     OW29359   0.018   4.720  12.574  0.1899  0.3072  0.1497
 5967SOL    HW129360   0.087   0.051  12.603  2.0020 -1.8863  0.2577
 5967SOL    HW229361   0.033   4.713  12.480  0.5215  1.9204  0.0787
 5968SOL     OW29362   3.708   2.274  10.674 -0.8856 -0.2607 -0.0453
 5968SOL    HW129363   3.620   2.239  10.663 -1.3100  0.3412  1.5222
 5968SOL    HW229364   3.682   2.364  10.694  2.2051  0.4834  0.5475
 5969SOL     OW29365   0.407   1.551  17.551  0.8069  0.2618  0.2158
 5969SOL    HW129366   0.443   1.639  17.551 -0.9530  0.9816  0.0005
 5969SOL    HW229367   0.468   1.509  17.613  1.2447  1.7488  0.7957
 5970SOL     OW29368   1.098   0.274   9.109  0.0614  0.0123 -0.3376
 5970SOL    HW129369   1.187   0.279   9.144 -0.9089  0.9181  1.9591
 5970SOL    HW229370   1.117   0.269   9.015  0.7004 -1.4771 -0.1404
 5971SOL     OW29371   3.089   0.263   6.417 -0.4673 -0.4131  0.0825
 5971SOL    HW129372   3.154   0.327   6.446 -2.7987  1.6930  0.6730
 5971SOL    HW229373   3.150   0.194   6.391  2.4748  1.8095  1.1728
 5972SOL     OW29374   0.873   2.484  11.023 -0.2255  0.4234 -0.2966
 5972SOL    HW129375   0.847   2.436  11.102  0.9753 -0.2249 -0.2849
 5972SOL    HW229376   0.947   2.522  11.071  1.3230 -2.5414 -0.3306
 5973SOL     OW29377   0.715   0.457   9.430  0.1522 -0.5303  0.2650
 5973SOL    HW129378   0.752   0.496   9.350  0.2976  0.6638  0.9106
 5973SOL    HW229379   0.747   0.514   9.500  0.0836 -1.1414  0.7866
 5974SOL     OW29380   3.439   1.241   0.023  0.1449 -0.3051 -0.4844
 5974SOL    HW129381   3.452   1.330   0.057 -0.2161 -0.3621 -0.2033
 5974SOL    HW229382   3.463   1.255  17.644 -0.0190  2.4771 -0.1247
 5975SOL     OW29383   4.139   2.070   6.956 -0.1490 -0.5455 -0.1359
 5975SOL    HW129384   4.200   2.004   6.922 -2.3536 -2.3209 -0.6296
 5975SOL    HW229385   4.164   2.093   7.045  0.1719 -3.0682  0.4362
 5976SOL     OW29386   4.669   0.816  14.658 -0.1614 -0.0993  0.6729
 5976SOL    HW129387   4.608   0.867  14.711  0.0044 -0.3451  1.1015
 5976SOL    HW229388   4.628   0.731  14.674  0.4513 -0.6093 -0.4546
 5977SOL     OW29389   3.248   2.270   7.399  0.0736 -0.1119  0.3745
 5977SOL    HW129390   3.241   2.179   7.427 -0.8524  0.0298  0.6072
 5977SOL    HW229391   3.285   2.271   7.311 -1.8157  0.4899 -0.3953
 5978SOL     OW29392   3.811   1.693  14.866  0.1626  0.8257 -0.1079
 5978SOL    HW129393   3.760   1.678  14.787  0.8585  1.4793 -0.6846
 5978SOL    HW229394   3.844   1.781  14.848 -1.1095  0.8095 -2.6040
 5979SOL     OW29395   3.599   0.764   7.398  0.3148 -0.4376  0.5723
 5979SOL    HW129396   3.604   0.837   7.459  0.8414 -2.2965  2.7457
 5979SOL    HW229397   3.534   0.714   7.447 -1.2420 -0.4048 -1.4597
 5980SOL     OW29398   1.878   1.286  14.065 -0.2629  0.1709 -0.4396
 5980SOL    HW129399   1.820   1.336  14.122  3.4321 -0.0295  3.5570
 5980SOL    HW229400   1.950   1.345  14.042 -1.0092  1.0965 -0.3825
 5981SOL     OW29401   1.438   1.442   4.762  0.1209  0.0642  0.0596
 5981SOL    HW129402   1.513   1.428   4.704 -1.2932 -1.1140 -1.4973
 5981SOL    HW229403   1.376   1.380   4.724 -0.1352 -0.0285  0.6272
 5982SOL     OW29404   3.541   1.047   4.066  0.6128  0.6668 -0.8814
 5982SOL    HW129405   3.634   1.060   4.050  0.7946 -0.1636 -0.4746
 5982SOL    HW229406   3.506   1.136   4.061 -1.1488 -0.0897 -2.0904
 5983SOL     OW29407   3.395   4.194   8.331 -0.1657 -0.9044  0.6376
 5983SOL    HW129408   3.480   4.213   8.371  0.9899 -2.3454 -1.1465
 5983SOL    HW229409   3.340   4.239   8.395 -0.7269 -1.9618  0.8945
 5984SOL     OW29410   1.931   0.256   3.145 -0.5385  0.0742 -0.3408
 5984SOL    HW129411   1.871   0.329   3.134 -1.2491 -0.7519 -1.9136
 5984SOL    HW229412   1.880   0.207   3.209 -1.1466 -1.8448 -2.3103
 5985SOL     OW29413   4.033   3.109  17.152  0.1047  0.0033 -0.3500
 5985SOL    HW129414   4.024   3.056  17.072  2.4007  0.7543 -1.0965
 5985SOL    HW229415   4.129   3.115  17.150 -0.0430  2.7272  1.9759
 5986SOL     OW29416   1.744   4.061   3.639 -0.2556  0.3256  0.0958
 5986SOL    HW129417   1.720   4.117   3.713 -0.4270  1.2886 -0.6936
 5986SOL    HW229418   1.816   4.112   3.601 -1.1724  2.9032  1.7774
 5987SOL     OW29419   3.433   2.793   9.648 -0.1425  0.4928 -0.4028
 5987SOL    HW129420   3.410   2.743   9.570  1.3493  0.8504 -1.0629
 5987SOL    HW229421   3.528   2.780   9.651 -0.5896 -2.3778  1.2485
 5988SOL     OW29422   2.460   0.225  11.706  0.7863 -0.8500 -0.4679
 5988SOL    HW129423   2.433   0.228  11.614 -0.3347  2.0209 -0.0267
 5988SOL    HW229424   2.554   0.233  11.690  0.3646  2.4743 -1.3224
 5989SOL     OW29425   0.167   4.398   7.388 -0.6883 -0.0282  0.2575
 5989SOL    HW129426   0.078   4.365   7.397 -0.4431 -0.5783  0.6708
 5989SOL    HW229427   0.185   4.359   7.302 -2.4215 -0.3781  0.0429
 5990SOL     OW29428   3.453   3.299   8.393 -0.2765  0.2908  0.0271
 5990SOL    HW129429   3.548   3.302   8.378  0.0368 -0.4990  1.9228
 5990SOL    HW229430   3.418   3.307   8.304 -0.4291  1.3274  0.1873
 5991SOL     OW29431   4.649   0.094  17.460 -0.0560  0.4435 -0.3535
 5991SOL    HW129432   4.722   0.075  17.519 -0.6338  1.2505  0.6239
 5991SOL    HW229433   4.695   0.172  17.429  0.6977 -0.6230 -1.9289
 5992SOL     OW29434   1.004   0.186   9.474 -0.0662 -0.0722 -0.2435
 5992SOL    HW129435   0.935   0.151   9.417  0.6909 -0.7493 -0.7331
 5992SOL    HW229436   0.967   0.273   9.488 -0.1203 -0.0960 -0.2395
 5993SOL     OW29437   2.468   3.605   3.276 -0.4803  0.1901  0.4179
 5993SOL    HW129438   2.454   3.679   3.336 -0.7824 -0.5764  1.2797
 5993SOL    HW229439   2.553   3.571   3.306  0.5285  2.0587 -0.2523
 5994SOL     OW29440   3.739   4.115   5.598 -0.1727 -0.1682  0.4900
 5994SOL    HW129441   3.813   4.056   5.613  0.9802  1.3753  0.8465
 5994SOL    HW229442   3.719   4.101   5.506  1.3543  1.3318 -0.0635
 5995SOL     OW29443   1.697   3.347  13.140 -0.2988  0.3997 -0.3766
 5995SOL    HW129444   1.643   3.341  13.219 -0.3026 -1.4031 -0.5229
 5995SOL    HW229445   1.736   3.432  13.160  0.6754 -0.1494  0.0570
 5996SOL     OW29446   0.484   0.903  14.898  0.2230  0.2257 -0.1072
 5996SOL    HW129447   0.465   0.829  14.956 -1.6766  1.5530  0.9481
 5996SOL    HW229448   0.475   0.851  14.818  1.3317  0.2030 -0.2163
 5997SOL     OW29449   4.671   2.424   8.202 -0.4473 -0.1935 -0.0252
 5997SOL    HW129450   4.679   2.479   8.124  0.4414 -0.4745 -0.1329
 5997SOL    HW229451   4.578   2.415   8.219 -0.7553  2.3398 -0.3403
 5998SOL     OW29452   3.482   1.205   8.803  0.8257  0.0439  0.4632
 5998SOL    HW129453   3.422   1.136   8.829 -1.4252  1.2391 -1.6162
 5998SOL    HW229454   3.548   1.147   8.764  1.8294  0.2964  1.8064
 5999SOL     OW29455   1.593   3.649   2.262 -0.1972  0.1695 -0.0882
 5999SOL    HW129456   1.638   3.606   2.190 -2.9164 -1.4676 -0.8102
 5999SOL    HW229457   1.612   3.590   2.335  2.0139  1.0507  0.0203
 6000SOL     OW29458   0.389   0.448   8.361  0.1144  0.0906 -0.6474
 6000SOL    HW129459   0.390   0.528   8.308 -1.1938 -0.2186 -1.1463
 6000SOL    HW229460   0.472   0.446   8.408  0.6119  0.1223 -1.5185
 6001SOL     OW29461   0.035   2.703   7.766  0.0597  0.3164 -0.5523
 6001SOL    HW129462   0.108   2.731   7.821  0.6238  1.9068 -2.1004
 6001SOL    HW229463   4.720   2.788   7.761  0.2268  0.3552 -1.3701
 6002SOL     OW29464   4.433   0.671   6.026  0.2339 -0.2186  0.2259
 6002SOL    HW129465   4.359   0.726   5.998  1.3303  1.5086  0.7089
 6002SOL    HW229466   4.496   0.692   5.957  0.4663 -1.3465  0.1037
 6003SOL     OW29467   2.081   2.928   8.123 -0.4316  0.1571 -0.0906
 6003SOL    HW129468   1.992   2.893   8.121  0.3638 -1.7744 -1.0900
 6003SOL    HW229469   2.128   2.851   8.155  0.9763  0.7087 -0.8527
 6004SOL     OW29470   0.349   0.094   3.899 -0.4260 -0.3004  0.2004
 6004SOL    HW129471   0.339   0.014   3.848  1.9821 -2.2030  2.6848
 6004SOL    HW229472   0.277   0.142   3.859  0.3869  1.9320  1.4336
 6005SOL     OW29473   3.966   3.150  11.500  0.2295 -0.4224  0.2798
 6005SOL    HW129474   3.890   3.124  11.447 -1.4867  1.1965  1.9362
 6005SOL    HW229475   3.942   3.238  11.529 -0.4298  0.0266 -1.5845
 6006SOL     OW29476   2.590   0.401   8.947 -0.4251 -0.1548 -0.1833
 6006SOL    HW129477   2.671   0.385   8.899 -0.2593  2.2153 -0.6866
 6006SOL    HW229478   2.552   0.469   8.893  0.6101  0.7036  0.1697
 6007SOL     OW29479   1.199   2.998   2.923 -0.1965 -0.1038 -0.0225
 6007SOL    HW129480   1.195   2.949   2.842  0.4545  1.2216 -0.8655
 6007SOL    HW229481   1.108   3.026   2.926  0.0926  0.8216  0.3322
 6008SOL     OW29482   1.037   2.786   7.672 -0.0725  0.3432  0.2294
 6008SOL    HW129483   1.033   2.881   7.681 -0.4299  0.5608 -2.2444
 6008SOL    HW229484   1.061   2.754   7.759 -1.3825 -0.6158  0.2531
 6009SOL     OW29485   3.805   1.021   5.752  0.4905  0.4931 -0.8171
 6009SOL    HW129486   3.721   0.993   5.789  1.6596 -1.0569  0.6311
 6009SOL    HW229487   3.778   1.057   5.668 -1.4036 -0.3096 -0.5571
 6010SOL     OW29488   0.619   4.286  14.141  0.0820 -0.1207 -0.1005
 6010SOL    HW129489   0.680   4.301  14.213  0.4153 -3.4349  0.2929
 6010SOL    HW229490   0.601   4.377  14.118  1.1384  0.0531 -0.2229
 6011SOL     OW29491   2.265   2.130   7.631  0.1899 -0.6935  0.1913
 6011SOL    HW129492   2.338   2.123   7.693 -0.3754 -0.4897  0.8746
 6011SOL    HW229493   2.234   2.040   7.619 -0.3112 -0.5024  0.0506
 6012SOL     OW29494   0.680   3.961   2.063 -0.1179 -0.0507  0.6715
 6012SOL    HW129495   0.650   3.874   2.039  0.9477 -0.2601  0.0600
 6012SOL    HW229496   0.612   4.017   2.025  0.4156  0.2329  0.1299
 6013SOL     OW29497   2.412   4.450   9.676 -0.1917 -0.4896  0.2905
 6013SOL    HW129498   2.375   4.425   9.591  0.3108  0.8009 -0.3064
 6013SOL    HW229499   2.476   4.381   9.690 -0.3751 -0.9098 -0.9441
 6014SOL     OW29500   2.931   1.961   1.986  0.1535  0.7284 -0.4392
 6014SOL    HW129501   2.910   2.044   2.028  0.1883 -0.0648  1.1367
 6014SOL    HW229502   2.843   1.926   1.971  0.2518  0.2171  0.1444
 6015SOL     OW29503   0.621   4.688   2.738  0.5350 -0.3097 -0.3768
 6015SOL    HW129504   0.587   0.033   2.790 -0.8461 -1.1444 -0.1119
 6015SOL    HW229505   0.578   4.695   2.654  1.6278 -0.4698 -0.9507
 6016SOL     OW29506   3.505   1.207  11.998 -0.4137 -0.0123  0.2923
 6016SOL    HW129507   3.504   1.251  12.083 -3.2934  1.7665 -0.6540
 6016SOL    HW229508   3.591   1.239  11.971 -0.3849  1.4674  2.1503
 6017SOL     OW29509   0.949   1.968  16.981  0.0827 -0.7834 -0.2524
 6017SOL    HW129510   0.885   2.025  16.937 -0.2795  1.2733  2.9654
 6017SOL    HW229511   0.908   1.929  17.059  1.4762 -2.6472 -0.4422
 6018SOL     OW29512   0.442   0.522   9.467  0.3919  0.3146  0.2245
 6018SOL    HW129513   0.534   0.494   9.461 -0.2739 -2.0559  1.1899
 6018SOL    HW229514   0.436   0.544   9.560 -0.7413  0.0886  0.1989
 6019SOL     OW29515   3.482   0.360   2.695  0.0075  0.1709  0.0041
 6019SOL    HW129516   3.437   0.429   2.646  1.3991  2.0053  1.3491
 6019SOL    HW229517   3.558   0.348   2.638  0.1604 -0.0355  0.2506
 6020SOL     OW29518   0.752   2.571  12.237 -0.1545  0.0834 -0.0130
 6020SOL    HW129519   0.686   2.555  12.304 -0.4526 -1.3812 -0.6610
 6020SOL    HW229520   0.713   2.556  12.151 -2.0580  0.7401  0.7341
 6021SOL     OW29521   1.335   4.433   3.146 -0.2626 -0.4365  0.4065
 6021SOL    HW129522   1.288   4.486   3.211  0.9757  0.5470  0.5026
 6021SOL    HW229523   1.390   4.387   3.210  0.6346 -2.7745 -2.0474
 6022SOL     OW29524   1.451   0.394   5.228  0.3518  0.6222  0.2196
 6022SOL    HW129525   1.474   0.460   5.162  1.0020  1.4605  1.2757
 6022SOL    HW229526   1.490   0.311   5.202  0.3336  0.3655  0.9997
 6023SOL     OW29527   2.302   0.224   5.730 -0.1727  0.4660  0.1985
 6023SOL    HW129528   2.210   0.203   5.748 -0.3929  0.2705 -1.1348
 6023SOL    HW229529   2.329   0.148   5.678 -0.6048  0.2117  0.3431
 6024SOL     OW29530   0.644   2.862   9.577  0.6439 -0.0093  0.1674
 6024SOL    HW129531   0.701   2.925   9.532  1.5621 -0.7107  0.3590
 6024SOL    HW229532   0.581   2.843   9.507  0.9994  2.1689 -0.7387
 6025SOL     OW29533   0.388   2.968   0.029  0.2309  0.0882  0.5306
 6025SOL    HW129534   0.439   2.888   0.045 -1.8606 -0.7483  2.9833
 6025SOL    HW229535   0.301   2.931   0.045  0.5862 -1.0420 -0.0938
 6026SOL     OW29536   3.990   1.362   8.284  0.3822  0.5858  0.4405
 6026SOL    HW129537   4.024   1.276   8.259  0.3854  0.7432 -0.0886
 6026SOL    HW229538   4.027   1.421   8.219 -0.0592 -1.7048 -1.8545
 6027SOL     OW29539   1.056   0.243   8.301  0.7714  0.2559  0.1764
 6027SOL    HW129540   1.050   0.334   8.274  1.9340  0.4805  0.6997
 6027SOL    HW229541   1.116   0.212   8.233 -0.7690 -1.2275 -0.5347
 6028SOL     OW29542   3.884   1.183   3.536 -0.1032  0.2433  0.2714
 6028SOL    HW129543   3.879   1.237   3.457  0.3915 -0.6340 -0.3638
 6028SOL    HW229544   3.874   1.093   3.506 -0.5665 -0.3211  2.0752
 6029SOL     OW29545   3.630   3.450   5.826 -0.3937  0.0396  0.0804
 6029SOL    HW129546   3.610   3.364   5.864 -2.0186 -0.4532 -1.9363
 6029SOL    HW229547   3.540   3.479   5.813 -0.7475 -1.5540 -0.9543
 6030SOL     OW29548   0.619   3.512  15.057  0.5259 -0.1767 -0.2654
 6030SOL    HW129549   0.546   3.562  15.093  1.2698  0.2568  0.6447
 6030SOL    HW229550   0.589   3.422  15.068  2.1898 -0.9590 -2.3742
 6031SOL     OW29551   4.382   0.434   4.451 -0.1773 -0.0831  0.0689
 6031SOL    HW129552   4.369   0.343   4.478  1.3526 -0.5177 -0.6259
 6031SOL    HW229553   4.331   0.485   4.514 -2.8766 -2.8788  0.1044
 6032SOL     OW29554   1.852   2.882   0.899 -0.1999  0.4160 -0.0802
 6032SOL    HW129555   1.830   2.969   0.932 -2.2455  0.4321 -1.4996
 6032SOL    HW229556   1.931   2.888   0.847 -0.4533  0.3631 -0.4727
 6033SOL     OW29557   3.141   3.280   2.539  0.2904  0.2290  0.4319
 6033SOL    HW129558   3.148   3.338   2.614 -1.2649  0.9529  0.0098
 6033SOL    HW229559   3.136   3.349   2.473  1.7859 -0.0982 -0.0237
 6034SOL     OW29560   2.745   0.833  15.505 -0.1067  0.4305  0.7752
 6034SOL    HW129561   2.799   0.776  15.451 -1.3118 -0.7496  0.8177
 6034SOL    HW229562   2.779   0.918  15.479  0.1713 -0.1995 -0.8884
 6035SOL     OW29563   3.919   1.978   4.512  0.1310  0.4305 -0.0259
 6035SOL    HW129564   3.838   2.022   4.485  0.2466 -0.2099 -1.4256
 6035SOL    HW229565   3.895   1.889   4.484  1.0580 -0.1695  1.0639
 6036SOL     OW29566   3.380   2.816  16.005 -0.6443  0.0045  0.6618
 6036SOL    HW129567   3.340   2.873  15.939 -0.3023  1.0372  1.3551
 6036SOL    HW229568   3.471   2.843  15.997 -0.5520  0.5562  3.7843
 6037SOL     OW29569   2.361   0.938   0.336  0.2854 -0.1440  0.1039
 6037SOL    HW129570   2.416   1.014   0.315  1.4210 -1.4395 -1.5627
 6037SOL    HW229571   2.411   0.903   0.409  1.2538 -0.4700 -0.7249
 6038SOL     OW29572   1.623   1.703   6.036 -0.5184 -0.1454 -0.2194
 6038SOL    HW129573   1.644   1.795   6.019 -1.3965  0.4033  1.5795
 6038SOL    HW229574   1.657   1.696   6.125  0.7179 -0.4907 -0.7258
 6039SOL     OW29575   0.724   1.498   3.105 -0.2848  0.4470 -0.3861
 6039SOL    HW129576   0.694   1.445   3.179  2.5207 -0.5142  0.0604
 6039SOL    HW229577   0.653   1.498   3.041  0.2635  0.6806 -0.9851
 6040SOL     OW29578   0.460   3.455   7.390 -0.6234  0.0162 -0.0379
 6040SOL    HW129579   0.541   3.499   7.362 -0.9799  0.7326  0.0708
 6040SOL    HW229580   0.405   3.484   7.318 -0.3179 -1.4701 -0.8754
 6041SOL     OW29581   0.747   0.790  10.041  0.2030 -0.9535 -0.4989
 6041SOL    HW129582   0.698   0.871  10.028  1.2094  0.0800  2.0738
 6041SOL    HW229583   0.676   0.735  10.073  1.1850 -0.9877  1.6071
 6042SOL     OW29584   2.169   3.701   5.675 -0.2222 -0.2284  0.4129
 6042SOL    HW129585   2.119   3.633   5.631  0.5763 -1.4268  1.3461
 6042SOL    HW229586   2.124   3.785   5.665  0.6628  0.6367  3.5388
 6043SOL     OW29587   2.242   3.704   0.538 -0.1602  0.1446 -0.5029
 6043SOL    HW129588   2.280   3.671   0.456  0.7677 -2.0036  0.7913
 6043SOL    HW229589   2.206   3.623   0.574  0.9090 -0.6055 -1.1207
 6044SOL     OW29590   0.281   0.725   2.381 -0.2643 -1.1623 -0.1862
 6044SOL    HW129591   0.247   0.701   2.467 -1.9554 -0.8258 -0.7481
 6044SOL    HW229592   0.372   0.696   2.390 -0.4817 -1.8094 -0.0345
 6045SOL     OW29593   4.245   0.577   4.276  0.4488 -0.1009 -0.1566
 6045SOL    HW129594   4.307   0.529   4.332  0.4214  0.3096  0.2267
 6045SOL    HW229595   4.264   0.670   4.286  1.6784 -0.4795  1.0628
 6046SOL     OW29596   3.892   3.242   6.872  0.6515  0.0210  0.0773
 6046SOL    HW129597   3.868   3.311   6.933  0.0032 -1.4821  1.5404
 6046SOL    HW229598   3.832   3.261   6.800  4.3725  2.4008 -2.4011
 6047SOL     OW29599   2.209   0.384   9.370 -0.2427 -0.1376  0.1323
 6047SOL    HW129600   2.276   0.324   9.403  1.0354  0.8442 -0.6719
 6047SOL    HW229601   2.251   0.436   9.302 -0.7225 -1.4425 -1.1385
 6048SOL     OW29602   3.509   0.704  15.404 -0.2616  0.1744 -0.1479
 6048SOL    HW129603   3.479   0.783  15.358  1.3428  1.1658  0.5287
 6048SOL    HW229604   3.602   0.725  15.401  0.2028 -1.8351  0.4614
 6049SOL     OW29605   3.791   0.983   5.437  0.1650 -0.1649 -0.3359
 6049SOL    HW129606   3.769   0.905   5.387  2.1648 -1.2579  0.5124
 6049SOL    HW229607   3.707   1.015   5.471  0.2979  0.4497 -0.5755
 6050SOL     OW29608   1.491   1.054   6.077  0.2609 -0.6952 -0.1420
 6050SOL    HW129609   1.429   1.034   6.007 -2.4928  2.1555  1.4836
 6050SOL    HW229610   1.447   1.007   6.148 -0.2916  1.3166  0.8560
 6051SOL     OW29611   0.478   0.754   5.898  0.2084 -0.1510 -0.0575
 6051SOL    HW129612   0.457   0.663   5.877  0.1622 -0.2722  0.5250
 6051SOL    HW229613   0.499   0.752   5.991  1.5544  1.9282 -0.3084
 6052SOL     OW29614   0.458   2.469   4.461 -0.5865 -0.3743  0.2079
 6052SOL    HW129615   0.492   2.515   4.538 -0.5656 -1.0131  0.5846
 6052SOL    HW229616   0.520   2.396   4.460  0.0001  0.1219  0.4156
 6053SOL     OW29617   3.320   2.207   1.583 -0.6131  0.4854  0.2669
 6053SOL    HW129618   3.244   2.242   1.537 -0.5678 -1.4195 -1.2381
 6053SOL    HW229619   3.355   2.145   1.519 -0.5609 -1.1401  1.8454
 6054SOL     OW29620   2.443   0.621   6.141  0.7745 -0.1050  0.2245
 6054SOL    HW129621   2.530   0.635   6.105  1.0689 -0.2807  0.8634
 6054SOL    HW229622   2.410   0.538   6.107  1.0696 -0.1611  0.0707
 6055SOL     OW29623   3.795   3.565   4.694  0.4619 -0.7687  0.1259
 6055SOL    HW129624   3.758   3.526   4.773  0.8670 -0.8862  0.2596
 6055SOL    HW229625   3.888   3.541   4.690  0.7477  0.1684  1.0084
 6056SOL     OW29626   1.329   3.283   3.365  0.1704  0.3239 -0.0653
 6056SOL    HW129627   1.347   3.248   3.452  0.2994  0.7495  0.0798
 6056SOL    HW229628   1.413   3.322   3.340  1.3445 -2.1010  0.0836
 6057SOL     OW29629   2.151   0.663   1.147  0.6472  0.0454 -0.7318
 6057SOL    HW129630   2.182   0.717   1.219  0.0498  1.2089 -1.3468
 6057SOL    HW229631   2.101   0.600   1.199  2.6536  0.4858  1.7243
 6058SOL     OW29632   3.699   3.268   2.638  0.0410 -0.3861 -0.6045
 6058SOL    HW129633   3.733   3.220   2.714  1.8024 -0.6663 -1.5811
 6058SOL    HW229634   3.752   3.222   2.573  0.3592 -1.9872  0.7734
 6059SOL     OW29635   2.083   1.145   7.842  0.3192 -0.9182 -0.6377
 6059SOL    HW129636   2.137   1.217   7.874 -1.6780 -0.1620  1.0066
 6059SOL    HW229637   1.997   1.186   7.837  2.4637  3.5376 -0.5483
 6060SOL     OW29638   1.094   3.126   8.789 -0.0922 -0.7826 -0.1293
 6060SOL    HW129639   1.014   3.178   8.795 -0.2744 -1.0415 -0.3251
 6060SOL    HW229640   1.158   3.194   8.770 -0.1375 -0.8070 -0.3587
 6061SOL     OW29641   0.882   4.021   0.215 -0.2254 -0.4302 -0.1194
 6061SOL    HW129642   0.811   3.964   0.245 -0.0561 -1.1257 -1.0483
 6061SOL    HW229643   0.947   4.012   0.285 -1.9987  0.8033  1.6863
 6062SOL     OW29644   2.753   1.656  13.318  0.4187 -0.0001  0.2412
 6062SOL    HW129645   2.759   1.662  13.414  2.6127 -1.6870  0.1995
 6062SOL    HW229646   2.685   1.722  13.308  1.3636  0.5763 -2.3752
 6063SOL     OW29647   0.858   3.693   9.598 -0.0198  0.7275 -0.1643
 6063SOL    HW129648   0.843   3.768   9.656 -0.9790  1.0111 -0.7691
 6063SOL    HW229649   0.783   3.702   9.539 -0.6931 -2.0129  0.2700
 6064SOL     OW29650   2.008   2.454   3.772  0.0377 -0.3075 -0.0992
 6064SOL    HW129651   2.052   2.531   3.735 -0.1375 -0.4845 -0.6745
 6064SOL    HW229652   1.933   2.449   3.713 -0.9528 -0.0065  1.1412
 6065SOL     OW29653   2.208   3.773   7.128 -0.0654 -0.7567  0.0526
 6065SOL    HW129654   2.234   3.856   7.168 -1.8270 -0.4964  0.6785
 6065SOL    HW229655   2.114   3.791   7.127 -0.1304 -1.1534 -0.7719
 6066SOL     OW29656   0.633   2.684   7.257 -0.1147 -0.5253 -0.3636
 6066SOL    HW129657   0.606   2.766   7.299  0.6344 -0.3195 -0.2980
 6066SOL    HW229658   0.724   2.701   7.236  0.4656 -3.3005 -0.1273
 6067SOL     OW29659   1.519   2.587  14.957 -0.7045 -0.0034 -0.3364
 6067SOL    HW129660   1.457   2.527  14.997 -1.1237  1.9987  1.9823
 6067SOL    HW229661   1.521   2.564  14.864  0.9433  0.2020 -0.3591
 6068SOL     OW29662   4.687   1.697   6.875 -0.0957 -0.0703 -0.0127
 6068SOL    HW129663   0.050   1.710   6.848 -0.0897  0.6734  0.3763
 6068SOL    HW229664   4.663   1.611   6.840 -3.0378  1.6240 -2.0630
 6069SOL     OW29665   3.951   2.755   2.984 -0.3990 -0.3815 -0.3794
 6069SOL    HW129666   3.971   2.776   2.893 -1.7690 -1.8805 -1.0384
 6069SOL    HW229667   3.870   2.806   2.994 -1.2626 -1.7048 -0.6245
 6070SOL     OW29668   0.962   2.295  13.526 -0.0476  0.3122 -0.5664
 6070SOL    HW129669   1.023   2.329  13.461 -0.9919  1.8142 -0.6737
 6070SOL    HW229670   1.028   2.238  13.567  1.1947  0.7720 -1.9147
 6071SOL     OW29671   2.422   1.469   5.628 -0.6719  0.4179 -0.2188
 6071SOL    HW129672   2.339   1.514   5.641  0.4971  1.9659  1.7942
 6071SOL    HW229673   2.436   1.489   5.536  0.3374 -0.5210 -0.2711
 6072SOL     OW29674   3.179   3.541   3.143  0.4931 -0.0764 -0.0090
 6072SOL    HW129675   3.236   3.530   3.067  0.6601  0.1105  0.0881
 6072SOL    HW229676   3.234   3.519   3.218  2.1987  1.2349 -0.8793
 6073SOL     OW29677   3.665   0.471   3.601  0.2610 -0.6752  0.2216
 6073SOL    HW129678   3.696   0.509   3.519  0.5217 -1.9052 -0.2561
 6073SOL    HW229679   3.605   0.536   3.637  1.9699  0.2740  1.3796
 6074SOL     OW29680   3.482   2.628   8.218 -0.4996 -0.1257 -0.0248
 6074SOL    HW129681   3.452   2.719   8.211  1.0516  0.6007  2.8643
 6074SOL    HW229682   3.411   2.600   8.276  0.5348 -0.6273  0.9854
 6075SOL     OW29683   2.302   3.735   3.664  0.2269 -0.1339 -0.0050
 6075SOL    HW129684   2.262   3.649   3.675 -0.8157  0.2842 -0.5128
 6075SOL    HW229685   2.367   3.725   3.733  0.2187 -1.6254 -0.2282
 6076SOL     OW29686   4.198   0.017  11.826  0.2854 -0.8884  0.2965
 6076SOL    HW129687   4.145   4.691  11.885  0.2106  0.0402  1.0798
 6076SOL    HW229688   4.209   4.678  11.758 -0.1155  0.4634 -1.0852
 6077SOL     OW29689   0.807   0.310  12.629 -0.8349  0.2237  0.0366
 6077SOL    HW129690   0.730   0.351  12.669 -2.5310 -2.5203 -0.4218
 6077SOL    HW229691   0.826   0.232  12.680  0.4771 -0.8102 -2.0433
 6078SOL     OW29692   0.107   1.710   4.565  0.1734  0.2039  0.0332
 6078SOL    HW129693   0.098   1.743   4.476 -1.3372 -2.5142 -0.8135
 6078SOL    HW229694   0.022   1.746   4.592 -0.7941 -2.5289  0.5464
 6079SOL     OW29695   3.104   1.261  12.036  0.2763  0.0911 -0.3856
 6079SOL    HW129696   3.163   1.230  12.104 -1.6129 -1.3232  0.6051
 6079SOL    HW229697   3.129   1.221  11.952 -0.7314  3.2856 -2.2298
 6080SOL     OW29698   0.607   4.297  10.659 -0.2139 -0.0540 -0.3825
 6080SOL    HW129699   0.652   4.328  10.738  2.1235  2.2315 -2.5852
 6080SOL    HW229700   0.575   4.217  10.702 -1.8911  1.8623  1.9464
 6081SOL     OW29701   4.149   0.546   8.639  0.1285 -0.1343  0.5221
 6081SOL    HW129702   4.091   0.600   8.692 -1.0025 -0.4524 -0.3931
 6081SOL    HW229703   4.228   0.599   8.631 -0.7273  1.0069 -0.3508
 6082SOL     OW29704   2.617   3.490  13.137 -0.0514  0.1519 -0.3287
 6082SOL    HW129705   2.634   3.448  13.221 -2.9077 -0.4626 -0.0488
 6082SOL    HW229706   2.641   3.416  13.081 -0.0924  1.2859 -1.8403
 6083SOL     OW29707   4.681   1.799   2.511 -0.2245  0.2170 -0.2029
 6083SOL    HW129708   4.655   1.781   2.601  1.1330 -0.6192  0.0257
 6083SOL    HW229709   4.598   1.798   2.465  0.5003 -0.6200 -1.5038
 6084SOL     OW29710   2.050   3.517  16.556  0.0350 -0.0124 -0.0290
 6084SOL    HW129711   1.995   3.588  16.591 -0.9374 -0.1681 -1.2428
 6084SOL    HW229712   2.084   3.568  16.482 -1.6330  0.1147 -0.7065
 6085SOL     OW29713   2.942   0.947  12.020 -0.7078 -0.6596 -0.4452
 6085SOL    HW129714   2.911   1.038  12.015 -0.2005 -0.4004  1.1961
 6085SOL    HW229715   2.937   0.946  12.115  3.9502 -0.8929 -0.2043
 6086SOL     OW29716   0.233   1.118   9.520 -0.4964  0.2052  0.8259
 6086SOL    HW129717   0.157   1.176   9.517 -0.1820  0.6292  0.8828
 6086SOL    HW229718   0.301   1.176   9.555 -0.4570 -0.7271  2.2999
 6087SOL     OW29719   1.813   4.421   8.745  0.2245  0.0841  0.8154
 6087SOL    HW129720   1.860   4.470   8.812  0.5899 -1.1793  1.4772
 6087SOL    HW229721   1.784   4.491   8.687  1.4401 -1.0251 -1.1486
 6088SOL     OW29722   4.026   3.449   2.502 -0.2816  0.2562 -0.0852
 6088SOL    HW129723   3.999   3.533   2.465 -1.9651 -0.8137 -1.2628
 6088SOL    HW229724   3.961   3.397   2.455  0.8810  0.5012 -1.9550
 6089SOL     OW29725   1.742   1.447   1.765  0.0530  0.4212  0.2687
 6089SOL    HW129726   1.690   1.375   1.799 -1.2872  0.4344 -1.7565
 6089SOL    HW229727   1.818   1.448   1.823  2.1692  2.6546 -2.4883
 6090SOL     OW29728   0.009   3.616  16.821  0.0969  0.1239 -0.4288
 6090SOL    HW129729   0.007   3.523  16.844  3.1455  0.4164  1.0388
 6090SOL    HW229730   4.687   3.650  16.896  0.9462 -0.2411  0.2922
 6091SOL     OW29731   1.359   1.260   7.185  0.3276 -0.3485 -0.6864
 6091SOL    HW129732   1.347   1.264   7.090 -2.0271 -0.8039 -0.3926
 6091SOL    HW229733   1.362   1.165   7.194  3.3339 -0.2301 -0.4813
 6092SOL     OW29734   3.444   1.885   2.901 -0.3146 -0.0516 -0.1760
 6092SOL    HW129735   3.434   1.805   2.952 -0.1908  2.6059  4.0435
 6092SOL    HW229736   3.352   1.905   2.887 -0.2320 -0.2257 -0.9813
 6093SOL     OW29737   2.340   3.266  10.125 -0.2782 -0.3192 -0.1813
 6093SOL    HW129738   2.372   3.224  10.205 -3.2028 -0.4072  0.9342
 6093SOL    HW229739   2.338   3.353  10.162  1.3805 -1.3314  2.2584
 6094SOL     OW29740   2.529   0.948   5.658 -0.0547  0.3066 -1.0982
 6094SOL    HW129741   2.487   1.028   5.689 -2.0705 -0.3881 -2.0613
 6094SOL    HW229742   2.606   0.977   5.609 -0.3411 -0.7167 -2.1551
 6095SOL     OW29743   0.296   1.218   4.865 -0.0046  0.6862 -0.0813
 6095SOL    HW129744   0.273   1.295   4.917  0.7570  0.3550  0.7631
 6095SOL    HW229745   0.245   1.147   4.904 -0.7475  0.4833 -1.4201
 6096SOL     OW29746   2.333   0.076   8.377  0.1843  0.2730  0.0574
 6096SOL    HW129747   2.303   0.158   8.415 -2.5401 -0.5297 -0.3056
 6096SOL    HW229748   2.417   0.104   8.341  0.8759 -0.5756  1.0104
 6097SOL     OW29749   3.212   3.452  13.865 -0.0415  0.2560  0.5958
 6097SOL    HW129750   3.267   3.504  13.924  2.4314 -1.3247 -0.2732
 6097SOL    HW229751   3.188   3.381  13.925  2.1636  0.9609  2.3395
 6098SOL     OW29752   2.817   0.045   7.958  0.5195 -0.0702  0.9014
 6098SOL    HW129753   2.907   0.015   7.947  0.0111 -1.1733 -0.2910
 6098SOL    HW229754   2.835   0.120   8.014 -0.1971 -1.6960  3.2754
 6099SOL     OW29755   2.696   0.866   7.473  0.1602 -0.3863 -0.1216
 6099SOL    HW129756   2.620   0.852   7.530  0.1833  0.8171  0.2020
 6099SOL    HW229757   2.757   0.797   7.499 -1.0076  0.7756  5.6460
 6100SOL     OW29758   4.458   2.650   3.755 -0.0256  0.2005  0.4793
 6100SOL    HW129759   4.547   2.673   3.728  0.5533  0.1615  2.3050
 6100SOL    HW229760   4.417   2.635   3.670  1.1283  0.9887 -0.2193
 6101SOL     OW29761   1.215   1.541  10.206  0.0479  0.1861  0.2816
 6101SOL    HW129762   1.136   1.487  10.199  0.0686  0.1777  0.1197
 6101SOL    HW229763   1.232   1.529  10.300 -1.9073 -1.8101  0.3783
 6102SOL     OW29764   2.309   0.501   7.438 -0.1443  0.0711  0.3043
 6102SOL    HW129765   2.268   0.443   7.373  1.4305 -0.9126  0.1706
 6102SOL    HW229766   2.332   0.583   7.395 -2.6454  0.9534  0.6788
 6103SOL     OW29767   2.202   1.192   6.331 -0.1224 -0.4263 -0.3224
 6103SOL    HW129768   2.151   1.130   6.383  0.3628 -0.3526  0.2502
 6103SOL    HW229769   2.138   1.199   6.260  0.6890  0.5378 -0.9700
 6104SOL     OW29770   3.193   4.313  11.062  0.5377  0.4257 -0.7494
 6104SOL    HW129771   3.188   4.225  11.024  1.4617 -0.0054  0.1341
 6104SOL    HW229772   3.247   4.368  11.005  0.3524  0.8718 -0.4907
 6105SOL     OW29773   1.096   2.164   4.486  0.0793  0.1237 -0.5047
 6105SOL    HW129774   1.145   2.216   4.550  2.9189 -2.4951 -0.5465
 6105SOL    HW229775   1.149   2.085   4.485  1.8250  1.3135 -1.3895
 6106SOL     OW29776   0.870   2.370   1.287  0.2652  0.2265 -0.2533
 6106SOL    HW129777   0.800   2.347   1.226 -0.6115  3.8971 -0.6269
 6106SOL    HW229778   0.949   2.362   1.233  1.4207 -1.0833  1.6177
 6107SOL     OW29779   3.106   1.511   8.824 -0.4211  0.1104 -0.0480
 6107SOL    HW129780   3.192   1.552   8.832  0.6730 -2.0080 -0.8471
 6107SOL    HW229781   3.046   1.573   8.864  1.0746 -0.5679  3.2680
 6108SOL     OW29782   0.175   2.118   0.920 -0.2062 -0.4979  0.1233
 6108SOL    HW129783   0.155   2.055   0.989  1.5847 -0.0193  1.0660
 6108SOL    HW229784   0.105   2.182   0.934 -0.2338 -0.4024 -0.4240
 6109SOL     OW29785   0.202   3.767   8.207  0.1668  0.6710 -0.2482
 6109SOL    HW129786   0.156   3.791   8.127  1.0651  0.0463 -0.9484
 6109SOL    HW229787   0.228   3.852   8.241  1.0123  0.0489  0.6650
 6110SOL     OW29788   4.032   3.696   8.425  0.3724  0.0563 -0.3115
 6110SOL    HW129789   4.036   3.790   8.440 -1.9755  0.0715  0.2207
 6110SOL    HW229790   4.028   3.693   8.329 -1.5950 -0.3127 -0.2208
 6111SOL     OW29791   2.917   2.972   5.068 -0.5593 -0.5630  0.8229
 6111SOL    HW129792   2.958   2.901   5.019  0.3975 -1.3550  2.7380
 6111SOL    HW229793   2.844   2.992   5.010 -0.8071 -1.4074  0.8424
 6112SOL     OW29794   1.049   1.206   6.048 -0.0704  0.4511  0.1528
 6112SOL    HW129795   1.131   1.248   6.075  0.8026 -0.8588 -0.4018
 6112SOL    HW229796   1.043   1.250   5.963  0.2732 -1.3498 -0.8152
 6113SOL     OW29797   0.346   3.998   4.532  0.2144  0.2238  0.2892
 6113SOL    HW129798   0.374   4.080   4.574  0.2224  0.1729  0.3828
 6113SOL    HW229799   0.256   3.997   4.566 -0.4405 -1.3273 -1.5429
 6114SOL     OW29800   3.876   1.384  17.056 -0.3403  0.0089  0.4264
 6114SOL    HW129801   3.903   1.324  17.125 -1.5442  2.5034  3.0623
 6114SOL    HW229802   3.863   1.466  17.105 -1.6544 -0.2193  0.4706
 6115SOL     OW29803   3.362   1.077   5.104  0.3842 -0.2143  0.7899
 6115SOL    HW129804   3.332   0.990   5.130 -1.7518  0.4009  0.4058
 6115SOL    HW229805   3.437   1.053   5.049  0.9334  0.9025  1.0505
 6116SOL     OW29806   3.283   2.228   3.306  0.4140  0.4333 -0.1720
 6116SOL    HW129807   3.331   2.279   3.240 -0.6127  1.2771 -0.2725
 6116SOL    HW229808   3.338   2.150   3.313  0.9780  0.9281  0.8472
 6117SOL     OW29809   0.687   1.305   8.745  0.0611 -0.0945 -0.2706
 6117SOL    HW129810   0.619   1.338   8.687 -1.5156 -2.9574 -0.0423
 6117SOL    HW229811   0.654   1.215   8.743  0.1476 -0.1364  0.1931
 6118SOL     OW29812   0.852   1.405   4.179 -0.0642  0.0770 -0.0302
 6118SOL    HW129813   0.806   1.465   4.238  0.7258 -0.0834  0.7434
 6118SOL    HW229814   0.809   1.323   4.205 -0.5050  0.9201  1.9296
 6119SOL     OW29815   3.558   4.662   3.659  0.4485  0.2468  0.1082
 6119SOL    HW129816   3.473   4.693   3.691  1.5852  2.9193  0.5265
 6119SOL    HW229817   3.572   4.695   3.570 -0.7767 -2.6472 -1.1547
 6120SOL     OW29818   2.241   4.497  14.482 -0.4550 -0.2855  0.2156
 6120SOL    HW129819   2.164   4.455  14.522 -0.0621 -1.5065 -0.3021
 6120SOL    HW229820   2.196   4.576  14.454  0.5833  0.1846 -0.0933
 6121SOL     OW29821   4.562   2.100   0.850  0.0377 -0.5241  0.7070
 6121SOL    HW129822   4.639   2.116   0.796 -1.3720  1.4188 -0.7249
 6121SOL    HW229823   4.569   2.172   0.911  2.3074 -0.7837  0.7498
 6122SOL     OW29824   1.634   3.490   7.120  0.1661 -0.1327  0.0466
 6122SOL    HW129825   1.611   3.431   7.048 -0.7476  0.0733  0.1627
 6122SOL    HW229826   1.670   3.430   7.185 -0.0203 -1.2532 -0.8935
 6123SOL     OW29827   2.021   4.432   4.791  0.0243 -0.5127  0.0487
 6123SOL    HW129828   1.951   4.380   4.831 -0.4272 -0.4983 -0.7315
 6123SOL    HW229829   1.967   4.505   4.762  2.3486  1.0220 -0.3853
 6124SOL     OW29830   2.849   4.072  10.319  0.2696 -0.6201  0.0383
 6124SOL    HW129831   2.763   4.049  10.355 -0.9965  0.8491 -2.0472
 6124SOL    HW229832   2.874   3.985  10.287 -1.9372  0.0693 -3.5529
 6125SOL     OW29833   0.061   3.983  12.258  0.3958 -0.0352  0.1184
 6125SOL    HW129834   0.138   4.011  12.209 -1.0769 -1.0723 -2.8226
 6125SOL    HW229835   4.719   4.016  12.201  0.5603 -1.9762 -1.1937
 6126SOL     OW29836   1.666   0.321   9.440  0.1076 -0.0795 -0.1810
 6126SOL    HW129837   1.732   0.378   9.480  0.4320 -1.0079  0.6080
 6126SOL    HW229838   1.719   0.258   9.391  0.6921  0.9219 -0.8256
 6127SOL     OW29839   3.010   2.293   6.763  0.3959 -0.0161  0.2650
 6127SOL    HW129840   3.016   2.200   6.784 -0.6308 -0.2832 -0.6081
 6127SOL    HW229841   3.037   2.324   6.850  1.3583 -0.2527  0.0460
 6128SOL     OW29842   0.579   2.295   7.278 -0.1060  0.0538  0.6506
 6128SOL    HW129843   0.608   2.333   7.195  1.0376 -0.7955  0.6593
 6128SOL    HW229844   0.501   2.350   7.288  0.2168  0.6593 -0.0813
 6129SOL     OW29845   3.795   2.172  10.443  0.8849  0.1366 -0.4691
 6129SOL    HW129846   3.774   2.226  10.520  1.3874 -0.3563  0.0104
 6129SOL    HW229847   3.808   2.092  10.494  2.9875  1.2045  0.6717
 6130SOL     OW29848   3.759   4.101   1.810  0.4904  0.3061 -0.3169
 6130SOL    HW129849   3.733   4.161   1.740 -0.1710 -0.6602 -0.9053
 6130SOL    HW229850   3.752   4.019   1.761  0.2934 -1.5038  2.7421
 6131SOL     OW29851   1.897   4.305   8.220  0.3603  0.4718  0.1275
 6131SOL    HW129852   1.961   4.305   8.149 -0.6027  3.1450 -0.7263
 6131SOL    HW229853   1.837   4.239   8.184  0.0204  0.2331  1.1091
 6132SOL     OW29854   0.213   3.798  13.164  0.5099  0.0284 -0.5462
 6132SOL    HW129855   0.192   3.821  13.073  2.2526 -0.2601 -1.0285
 6132SOL    HW229856   0.160   3.721  13.181 -1.3079  1.0483 -1.6441
 6133SOL     OW29857   0.013   2.055   6.750  0.0950 -0.1825 -0.0367
 6133SOL    HW129858   0.046   1.965   6.754 -0.9188 -0.5201  0.5933
 6133SOL    HW229859   4.647   2.050   6.766  0.2839  2.3499  1.8421
 6134SOL     OW29860   2.190   0.147   7.207  0.2049 -0.1745  0.4438
 6134SOL    HW129861   2.147   0.187   7.132  0.4528  0.6279  0.7174
 6134SOL    HW229862   2.169   0.054   7.203  2.3433 -0.5621 -1.3129
 6135SOL     OW29863   1.774   3.965   3.074 -0.0820  0.6221 -0.0227
 6135SOL    HW129864   1.790   3.940   2.983  0.9391  0.5870  0.1600
 6135SOL    HW229865   1.819   4.050   3.077 -0.5245  0.8229  0.8752
 6136SOL     OW29866   3.444   0.102   5.625 -0.1854  0.9587 -0.2855
 6136SOL    HW129867   3.446   0.007   5.614  0.0673  0.6065  2.8718
 6136SOL    HW229868   3.385   0.105   5.700  1.3585 -2.2116  1.0717
 6137SOL     OW29869   3.624   3.564   3.520  0.6221  0.0474 -0.1325
 6137SOL    HW129870   3.632   3.640   3.463  1.7329  0.6998  0.9040
 6137SOL    HW229871   3.707   3.517   3.514  0.8679  0.2971  1.3701
 6138SOL     OW29872   2.111   1.699   4.182  0.3202 -0.4471 -0.1824
 6138SOL    HW129873   2.197   1.739   4.165 -0.5452  1.6990  0.4994
 6138SOL    HW229874   2.076   1.755   4.252 -1.3635 -0.2847 -1.1822
 6139SOL     OW29875   0.322   0.498  10.346  0.0791 -0.2729  0.2775
 6139SOL    HW129876   0.380   0.535  10.279  2.0345 -0.4875  1.8713
 6139SOL    HW229877   0.340   0.556  10.420  0.9871 -0.7639  0.4387
 6140SOL     OW29878   0.411   4.528   7.455 -0.0264 -0.1659 -0.0281
 6140SOL    HW129879   0.320   4.500   7.456 -0.5892  1.5290 -2.6108
 6140SOL    HW229880   0.451   4.457   7.405 -0.7877 -0.4662 -0.2014
 6141SOL     OW29881   3.394   2.203   1.830 -0.3619 -0.6518  0.3258
 6141SOL    HW129882   3.313   2.153   1.836 -0.0596 -0.9284  2.1151
 6141SOL    HW229883   3.384   2.226   1.738  1.4793 -1.6276 -0.1068
 6142SOL     OW29884   1.357   0.280   2.741 -0.2140  0.0824  0.3427
 6142SOL    HW129885   1.305   0.333   2.801 -1.3300  0.4504 -0.9535
 6142SOL    HW229886   1.416   0.351   2.715  0.1919  0.1610  1.4990
 6143SOL     OW29887   4.705   4.619  10.225  0.4636  0.7668  0.0876
 6143SOL    HW129888   4.638   4.672  10.269 -1.5706 -0.9764 -0.8594
 6143SOL    HW229889   4.713   4.667  10.142  1.2556  1.8498  0.8014
 6144SOL     OW29890   3.312   1.037   3.244 -0.1266 -0.2077 -0.0463
 6144SOL    HW129891   3.291   1.101   3.176 -0.4163  1.1650  1.3180
 6144SOL    HW229892   3.381   1.088   3.287 -0.1629 -1.0409  1.0232
 6145SOL     OW29893   3.738   1.633  10.253 -0.1970  0.0744 -0.1685
 6145SOL    HW129894   3.688   1.632  10.335 -1.2355 -0.0291 -0.8125
 6145SOL    HW229895   3.713   1.554  10.207  0.5616 -1.1415  1.4858
 6146SOL     OW29896   2.930   2.006   0.641 -0.0491  0.1940 -0.4860
 6146SOL    HW129897   2.956   1.927   0.593  3.1427  1.0252 -0.1584
 6146SOL    HW229898   2.949   1.972   0.729 -1.1242  0.1218 -0.2880
 6147SOL     OW29899   0.015   3.638   4.281  0.3828  0.3306  0.3871
 6147SOL    HW129900   0.006   3.627   4.376 -0.2205 -2.4038  0.0095
 6147SOL    HW229901   4.682   3.571   4.252 -0.0906  0.1235  1.8727
 6148SOL     OW29902   3.661   1.261   8.153 -0.6089  0.5087 -0.8202
 6148SOL    HW129903   3.621   1.348   8.150 -1.4803  0.1214 -0.3824
 6148SOL    HW229904   3.699   1.254   8.065 -2.2762  1.1622 -1.5778
 6149SOL     OW29905   0.190   1.759   1.362  0.1320 -0.3959  0.0395
 6149SOL    HW129906   0.279   1.730   1.379  0.2469  0.1340  0.3673
 6149SOL    HW229907   0.146   1.718   1.437 -0.8768  0.3218 -0.1572
 6150SOL     OW29908   2.369   2.822   8.691 -0.0719 -0.2793  0.6745
 6150SOL    HW129909   2.325   2.902   8.721  0.6837  0.6821 -0.8267
 6150SOL    HW229910   2.357   2.825   8.596 -1.6199  1.6774  0.9323
 6151SOL     OW29911   4.645   3.595  12.716  0.4326 -0.0972  0.1022
 6151SOL    HW129912   4.719   3.652  12.694  0.0093  0.5922  0.4489
 6151SOL    HW229913   4.591   3.641  12.781  2.6965  0.6948  1.4078
 6152SOL     OW29914   0.450   3.146   3.480  0.3684 -0.1342 -0.6609
 6152SOL    HW129915   0.527   3.145   3.423  0.8962  0.8397  0.0303
 6152SOL    HW229916   0.432   3.052   3.483 -1.8437  0.3433  0.8305
 6153SOL     OW29917   2.168   4.340  11.820  0.1127  0.3081  0.4794
 6153SOL    HW129918   2.212   4.424  11.831  0.1347  0.3451  0.0793
 6153SOL    HW229919   2.215   4.287  11.884 -1.5297 -1.7188  0.0142
 6154SOL     OW29920   1.686   2.621   3.892 -0.0404  0.5560  0.1812
 6154SOL    HW129921   1.748   2.693   3.879 -0.1738  0.9630  1.8286
 6154SOL    HW229922   1.613   2.657   3.841 -1.3345 -1.9325  0.2894
 6155SOL     OW29923   0.432   3.917   9.544 -0.5053 -1.0329 -0.5324
 6155SOL    HW129924   0.341   3.916   9.515 -0.3039  0.5871 -1.2032
 6155SOL    HW229925   0.420   3.890   9.635 -0.8861  0.0585 -0.2569
 6156SOL     OW29926   1.377   4.465   0.368 -0.2613 -0.1559 -0.0936
 6156SOL    HW129927   1.290   4.442   0.399 -0.3025  0.9283  0.6424
 6156SOL    HW229928   1.347   4.502   0.286 -0.5898  0.7516  0.4352
 6157SOL     OW29929   0.843   0.617   0.171  0.3763 -0.4620  0.0894
 6157SOL    HW129930   0.905   0.677   0.213  0.1583  1.4970 -2.3690
 6157SOL    HW229931   0.858   0.638   0.078 -1.1696  1.4879  0.2849
 6158SOL     OW29932   1.439   4.684   8.024  0.5786 -0.0408 -0.1950
 6158SOL    HW129933   1.499   4.725   7.962  1.0014 -0.7678 -0.2632
 6158SOL    HW229934   1.509   4.657   8.084 -0.3948 -0.5116  0.7253
 6159SOL     OW29935   0.408   3.098  10.851  0.4921 -0.1386  0.3580
 6159SOL    HW129936   0.488   3.066  10.811 -0.8020 -2.3981 -0.3924
 6159SOL    HW229937   0.445   3.143  10.927  0.6413 -0.2981  0.3787
 6160SOL     OW29938   0.421   0.103   3.086 -0.7621 -0.7753  0.1329
 6160SOL    HW129939   0.473   0.141   3.014 -0.8082 -0.1815  0.4079
 6160SOL    HW229940   0.449   0.012   3.083 -0.2727 -0.5647 -2.0089
 6161SOL     OW29941   2.459   1.254   0.724 -0.3440  0.2105  0.4964
 6161SOL    HW129942   2.455   1.348   0.709  1.2194  0.1822 -0.0241
 6161SOL    HW229943   2.491   1.246   0.814  0.7309  0.6349  0.1475
 6162SOL     OW29944   2.926   0.904  11.115  0.4167  0.2567 -0.1688
 6162SOL    HW129945   2.874   0.825  11.129  0.8478  0.1234  0.6768
 6162SOL    HW229946   2.964   0.893  11.027 -0.4871 -0.3738 -0.4746
 6163SOL     OW29947   2.804   4.301  10.130  0.2715 -0.0908 -0.8022
 6163SOL    HW129948   2.827   4.209  10.147 -0.3784 -0.0911  0.0759
 6163SOL    HW229949   2.855   4.322  10.052  3.0808 -0.7351  0.8587
 6164SOL     OW29950   0.581   3.828   8.307  0.1633  0.1107 -0.9849
 6164SOL    HW129951   0.565   3.844   8.214 -1.2603  1.1334 -0.5661
 6164SOL    HW229952   0.497   3.787   8.327  0.4247 -0.2252 -0.5638
 6165SOL     OW29953   0.725   2.513   3.219 -0.1615  0.6105  0.7604
 6165SOL    HW129954   0.638   2.483   3.194  0.9370 -1.6369 -0.3099
 6165SOL    HW229955   0.739   2.583   3.155 -1.4569 -0.0867 -0.2944
 6166SOL     OW29956   3.612   3.207   0.560  0.0365  0.0101  0.5106
 6166SOL    HW129957   3.592   3.299   0.578  1.2739  0.5989 -1.1578
 6166SOL    HW229958   3.707   3.216   0.560 -0.0834  1.3951 -3.1100
 6167SOL     OW29959   2.256   4.646   9.773  0.6845  0.5906  0.7926
 6167SOL    HW129960   2.314   4.574   9.747 -0.5458 -0.1446  0.0793
 6167SOL    HW229961   2.193   4.651   9.701  1.4772 -2.1391 -0.0997
 6168SOL     OW29962   4.675   1.465   8.207  0.1491  0.5691  0.0690
 6168SOL    HW129963   4.675   1.552   8.167  1.6299  0.8932  0.7972
 6168SOL    HW229964   4.710   1.478   8.295  0.8215 -1.7573  0.1423
 6169SOL     OW29965   1.030   4.256   1.079  0.1688  0.3479 -0.0053
 6169SOL    HW129966   0.956   4.301   1.036  0.9831  1.4958 -0.2090
 6169SOL    HW229967   1.078   4.326   1.123 -2.3440  2.7762 -1.0662
 6170SOL     OW29968   0.499   1.311  15.124 -0.2027  0.0141 -0.3937
 6170SOL    HW129969   0.552   1.278  15.052 -1.7374 -0.8101 -1.1408
 6170SOL    HW229970   0.459   1.387  15.082 -2.5841 -0.7744  0.4599
 6171SOL     OW29971   2.908   1.673  16.916  0.4762  0.3601  0.0999
 6171SOL    HW129972   2.970   1.600  16.912 -1.0929 -0.8436 -2.3252
 6171SOL    HW229973   2.850   1.658  16.841 -0.5412  0.0700  0.9434
 6172SOL     OW29974   1.534   1.284   5.095 -0.1071  0.3695 -0.1087
 6172SOL    HW129975   1.498   1.225   5.162 -3.7896  0.4866 -1.9940
 6172SOL    HW229976   1.496   1.252   5.013 -1.1794  1.3625  0.0060
 6173SOL     OW29977   1.572   4.453   3.686 -0.0014 -0.0120 -0.0546
 6173SOL    HW129978   1.527   4.462   3.771  0.7052  2.0728  0.0938
 6173SOL    HW229979   1.498   4.398   3.660 -0.4296  0.9741 -0.9082
 6174SOL     OW29980   1.213   1.451   0.587 -0.2187 -0.3024 -0.1563
 6174SOL    HW129981   1.207   1.402   0.505 -2.0977 -0.1112 -0.1252
 6174SOL    HW229982   1.229   1.541   0.559 -1.8854  0.1896  0.4850
 6175SOL     OW29983   2.894   0.094   5.187  0.2695 -0.1698 -0.3235
 6175SOL    HW129984   2.862   0.053   5.107  1.3826  1.3800 -1.5662
 6175SOL    HW229985   2.843   0.039   5.246  0.2127 -0.2093 -0.4097
 6176SOL     OW29986   3.910   0.552   3.098 -0.1510 -0.3277 -0.0800
 6176SOL    HW129987   3.881   0.643   3.087 -1.8799 -0.9982 -1.1294
 6176SOL    HW229988   3.829   0.506   3.119 -0.2524  0.3016  0.9044
 6177SOL     OW29989   2.964   0.580  16.244  0.0419 -0.2395 -0.2400
 6177SOL    HW129990   2.898   0.581  16.313 -2.1336 -1.0915 -2.2774
 6177SOL    HW229991   2.908   0.613  16.174  0.2428  3.3601  1.3209
 6178SOL     OW29992   3.591   4.090   6.647  0.0052 -0.6150 -0.1967
 6178SOL    HW129993   3.672   4.082   6.597  0.7219  2.5916  0.4412
 6178SOL    HW229994   3.623   4.048   6.727 -1.9508  2.5275  2.2096
 6179SOL     OW29995   0.461   3.528   3.500  0.4957  0.0617 -0.2496
 6179SOL    HW129996   0.531   3.499   3.441  2.1282  0.8385  1.2847
 6179SOL    HW229997   0.418   3.448   3.531 -0.0802 -0.2841 -1.9417
 6180SOL     OW29998   3.923   1.289   7.006  0.2363  0.1714 -0.3897
 6180SOL    HW129999   3.953   1.266   7.094 -0.0839 -1.1156 -0.6243
 6180SOL    HW230000   3.911   1.205   6.962 -0.9502  0.3424 -0.3927
 6181SOL     OW30001   4.062   3.717  13.938 -0.3530  0.3287 -0.8530
 6181SOL    HW130002   4.112   3.774  13.879  1.6715 -1.4992 -0.9004
 6181SOL    HW230003   4.113   3.637  13.929  0.4496  0.7643 -0.2017
 6182SOL     OW30004   0.035   4.647  16.823  0.3384 -0.6278 -0.2575
 6182SOL    HW130005   0.029   4.553  16.804  0.1643 -0.4424 -1.1394
 6182SOL    HW230006   0.067   4.670  16.736  1.4642 -0.7032  0.1375
 6183SOL     OW30007   0.412   2.302   9.231  0.0291  0.0718 -0.5878
 6183SOL    HW130008   0.454   2.386   9.211 -0.8736  0.3662 -1.2745
 6183SOL    HW230009   0.452   2.291   9.317 -1.3269  0.3390  0.0754
 6184SOL     OW30010   0.437   1.322   8.241  0.6183 -0.4174  0.1258
 6184SOL    HW130011   0.435   1.301   8.147 -2.4061 -1.3683  0.4120
 6184SOL    HW230012   0.509   1.269   8.276  1.2059  0.8999  0.9199
 6185SOL     OW30013   3.378   4.548   5.258  0.5950  0.4304 -0.0811
 6185SOL    HW130014   3.359   4.462   5.221 -1.4744  1.6148 -1.7784
 6185SOL    HW230015   3.305   4.593   5.215  0.0938  0.1246  0.4402
 6186SOL     OW30016   1.431   3.816  11.820  0.3513 -0.7943 -0.5839
 6186SOL    HW130017   1.488   3.848  11.750  0.0353 -0.5943 -0.7521
 6186SOL    HW230018   1.480   3.736  11.835  0.3593 -0.8401 -0.8434
 6187SOL     OW30019   2.443   2.914   2.534 -0.7586  0.4788 -0.4104
 6187SOL    HW130020   2.379   2.845   2.518  1.0595 -1.0523 -1.1346
 6187SOL    HW230021   2.495   2.868   2.600 -0.6165  1.5415  0.2158
 6188SOL     OW30022   2.785   0.805   9.124 -0.3305 -0.1493  0.1386
 6188SOL    HW130023   2.761   0.836   9.037  1.9964 -2.2482 -1.2641
 6188SOL    HW230024   2.742   0.720   9.136  0.5602 -0.5923  0.1965
 6189SOL     OW30025   3.309   4.482   4.328 -0.6403  0.3215 -0.1413
 6189SOL    HW130026   3.256   4.459   4.252 -1.3531  3.3146 -0.5263
 6189SOL    HW230027   3.298   4.577   4.330 -1.7585  0.1991 -0.9549
 6190SOL     OW30028   1.813   1.444   4.361  0.3756 -0.6484  0.1266
 6190SOL    HW130029   1.785   1.359   4.327 -0.5827 -0.6748  0.9841
 6190SOL    HW230030   1.905   1.430   4.382  0.3628 -3.7665 -2.0249
 6191SOL     OW30031   4.168   4.583  15.127  0.1696 -0.1264  0.2184
 6191SOL    HW130032   4.244   4.631  15.095 -1.0398  0.8400 -1.2056
 6191SOL    HW230033   4.191   4.497  15.092  0.2083  0.5434 -1.4071
 6192SOL     OW30034   3.486   0.749   4.429  0.4213 -0.0202 -0.0947
 6192SOL    HW130035   3.525   0.831   4.459 -0.4885 -0.2268  1.6139
 6192SOL    HW230036   3.515   0.746   4.338 -2.8260  0.7678 -1.1496
 6193SOL     OW30037   1.982   2.957  16.008  0.0757 -0.0128 -0.0587
 6193SOL    HW130038   2.007   3.038  16.052  0.0627  0.1958 -0.4316
 6193SOL    HW230039   2.058   2.917  15.967  1.3261  0.1201  2.1681
 6194SOL     OW30040   3.035   0.844   2.862 -0.1602 -0.1514 -0.4903
 6194SOL    HW130041   3.100   0.802   2.917  1.6555  3.2707 -0.0284
 6194SOL    HW230042   3.021   0.929   2.905  0.8791  0.2829 -1.0156
 6195SOL     OW30043   4.486   3.016   7.387  0.0999  0.2740 -0.5212
 6195SOL    HW130044   4.484   2.938   7.331  1.4531  0.5994 -1.0234
 6195SOL    HW230045   4.562   2.996   7.441  1.0396  0.2093 -1.8616
 6196SOL     OW30046   3.621   1.111  16.184 -0.2853 -0.0155  0.5701
 6196SOL    HW130047   3.527   1.099  16.170 -0.2582  0.0551  0.3262
 6196SOL    HW230048   3.654   1.032  16.140 -1.1332 -0.2126  0.2953
 6197SOL     OW30049   3.141   1.488  17.165 -0.0192  0.4896 -0.4359
 6197SOL    HW130050   3.062   1.434  17.170  0.2368  0.0245 -1.3283
 6197SOL    HW230051   3.149   1.505  17.071  2.3399  1.1195 -0.1036
 6198SOL     OW30052   0.801   4.624   2.118  0.6071  0.6370 -0.0289
 6198SOL    HW130053   0.789   4.633   2.024  1.1699  1.1799 -0.0512
 6198SOL    HW230054   0.804   4.713   2.155 -2.8815  0.3979  0.8938
 6199SOL     OW30055   0.986   4.402  12.933  0.2819  0.1648 -0.2530
 6199SOL    HW130056   0.958   4.452  13.010  1.2546 -0.2418  0.3574
 6199SOL    HW230057   0.987   4.313  12.966 -2.0393 -0.4771 -1.9216
 6200SOL     OW30058   0.046   0.850  14.010 -0.1333 -0.1131  0.3202
 6200SOL    HW130059   0.025   0.938  14.040  3.4554  1.1991 -1.0547
 6200SOL    HW230060   4.705   0.800  14.054  0.8641 -2.6381 -1.0042
 6201SOL     OW30061   0.625   4.148  13.415  0.2170  0.5029  0.1902
 6201SOL    HW130062   0.616   4.073  13.356  1.5099 -0.9210  1.7889
 6201SOL    HW230063   0.611   4.102  13.497  0.7666 -1.2551 -0.7007
 6202SOL     OW30064   4.147   2.508  16.472 -0.6754 -0.4933 -0.3174
 6202SOL    HW130065   4.107   2.421  16.477 -1.3292 -0.2689 -1.8531
 6202SOL    HW230066   4.102   2.547  16.397  0.5802  1.8191  0.1362
 6203SOL     OW30067   3.832   3.932   1.274  0.1894 -0.0520 -0.6273
 6203SOL    HW130068   3.766   3.937   1.206 -0.6208  0.8825  0.2292
 6203SOL    HW230069   3.888   3.871   1.226  1.2712  0.7299 -0.3603
 6204SOL     OW30070   0.440   3.081   1.582 -1.0668  0.5066  0.3413
 6204SOL    HW130071   0.505   3.108   1.518 -2.1271  0.7508 -0.6463
 6204SOL    HW230072   0.363   3.121   1.542 -0.0770  0.2392 -1.8303
 6205SOL     OW30073   1.985   3.822  12.320 -0.3602  0.0442 -0.3075
 6205SOL    HW130074   2.022   3.902  12.357 -0.3380 -1.1748  2.3187
 6205SOL    HW230075   1.909   3.799  12.374  0.3610 -0.3869  0.5233
 6206SOL     OW30076   3.646   4.567   2.421 -0.4698  0.2764 -0.4217
 6206SOL    HW130077   3.718   4.508   2.445 -1.9033 -0.4417  2.2327
 6206SOL    HW230078   3.614   4.506   2.354  0.3774 -1.6241  0.8745
 6207SOL     OW30079   3.693   2.270   1.724  0.0192 -0.5642  0.2956
 6207SOL    HW130080   3.783   2.258   1.754 -0.1848  0.2196  1.2283
 6207SOL    HW230081   3.641   2.230   1.794 -0.4018  2.0913  1.4945
 6208SOL     OW30082   3.463   1.001   7.220 -0.2102  0.1362 -0.4904
 6208SOL    HW130083   3.464   0.954   7.136 -1.4423  0.1025 -0.4933
 6208SOL    HW230084   3.413   0.932   7.264  0.4455 -0.1423 -0.1793
 6209SOL     OW30085   1.316   4.062   2.104 -0.3186  0.0664  0.2872
 6209SOL    HW130086   1.333   4.134   2.165 -1.3633  0.8888 -0.3850
 6209SOL    HW230087   1.376   3.996   2.137 -0.4536 -0.8507 -1.3190
 6210SOL     OW30088   2.787   0.654   7.049 -0.2831 -0.2418 -0.2632
 6210SOL    HW130089   2.782   0.669   7.144 -2.6194 -2.6568  0.0070
 6210SOL    HW230090   2.744   0.569   7.042  1.3749 -1.1885  0.8639
 6211SOL     OW30091   2.989   3.986   7.443 -0.0460 -0.3663 -0.5258
 6211SOL    HW130092   2.964   4.024   7.527 -0.0686  4.4422 -2.7129
 6211SOL    HW230093   2.936   4.037   7.383 -1.0812  2.6445  2.9400
 6212SOL     OW30094   0.474   2.214   3.401 -0.3797 -0.3061  0.0547
 6212SOL    HW130095   0.490   2.212   3.495 -2.7952 -0.9965  0.4445
 6212SOL    HW230096   0.561   2.204   3.362 -0.5952 -0.6008 -0.3488
 6213SOL     OW30097   4.296   1.988  17.272 -0.0368 -0.7169 -0.5421
 6213SOL    HW130098   4.342   2.072  17.268  0.6566 -1.0833 -0.2770
 6213SOL    HW230099   4.320   1.954  17.359  1.6498  1.7434 -0.0605
 6214SOL     OW30100   4.299   3.509  13.232 -0.9763 -0.5576 -0.2060
 6214SOL    HW130101   4.247   3.535  13.308  1.0715 -1.6798  1.5819
 6214SOL    HW230102   4.388   3.515  13.269 -1.3622  0.2639  0.5964
 6215SOL     OW30103   1.264   2.787  16.906  0.5719  0.5730 -0.2075
 6215SOL    HW130104   1.265   2.701  16.863  1.7846  1.8001 -2.5619
 6215SOL    HW230105   1.339   2.778  16.965 -0.3974 -0.2397  0.9142
 6216SOL     OW30106   0.146   2.964   6.393 -0.4000  0.3758  0.3332
 6216SOL    HW130107   0.181   2.997   6.476  0.6006  1.7542 -0.6260
 6216SOL    HW230108   0.206   2.889   6.384 -1.1876 -0.1466 -0.5836
 6217SOL     OW30109   3.446   2.131  10.718  0.2494  0.1750  0.1956
 6217SOL    HW130110   3.377   2.181  10.675 -0.6761 -1.8108 -0.6482
 6217SOL    HW230111   3.405   2.113  10.803 -0.6291  0.2430 -0.2215
 6218SOL     OW30112   4.161   4.560   8.029 -0.0503 -0.3946  0.4550
 6218SOL    HW130113   4.165   4.563   8.124  0.7495 -1.6682  0.4537
 6218SOL    HW230114   4.072   4.527   8.017 -0.0236  0.5182 -2.1929
 6219SOL     OW30115   0.433   3.743   7.976 -0.2045  0.0049  0.9287
 6219SOL    HW130116   0.490   3.817   7.999 -0.1602 -0.1401  1.2912
 6219SOL    HW230117   0.348   3.783   7.955 -1.6697 -3.2348  0.7283
 6220SOL     OW30118   3.946   2.488   2.261  0.5360  0.0420 -0.1477
 6220SOL    HW130119   3.858   2.499   2.224  0.1395 -1.2703  0.3911
 6220SOL    HW230120   3.982   2.568   2.224 -0.1360 -0.4223 -1.8191
 6221SOL     OW30121   0.516   2.527   4.128  0.3372 -0.0147 -0.0958
 6221SOL    HW130122   0.422   2.535   4.146  0.4970  3.3402 -0.7823
 6221SOL    HW230123   0.524   2.432   4.138 -2.0582 -0.1657  0.3917
 6222SOL     OW30124   1.388   4.326   6.013 -0.4218 -0.4015 -0.0133
 6222SOL    HW130125   1.312   4.310   6.068  0.0301 -1.1897  0.3892
 6222SOL    HW230126   1.362   4.293   5.927  0.6597  1.5770 -1.0908
 6223SOL     OW30127   0.885   0.306   4.249 -0.3827 -0.6428 -0.1112
 6223SOL    HW130128   0.920   0.341   4.331  0.3305  1.2597 -1.2365
 6223SOL    HW230129   0.937   0.225   4.244  0.3462 -0.3310  2.5779
 6224SOL     OW30130   1.909   3.499   3.216  0.1996  0.2841 -0.3976
 6224SOL    HW130131   1.882   3.502   3.125 -2.4449  1.3617  0.4340
 6224SOL    HW230132   1.951   3.413   3.210  2.2704  1.3049 -0.4157
 6225SOL     OW30133   3.434   0.094  16.379  0.5249 -0.1950 -0.1206
 6225SOL    HW130134   3.369   0.161  16.359  0.7185 -0.2814 -1.0096
 6225SOL    HW230135   3.511   0.152  16.385 -1.3976  2.2902  0.6487
 6226SOL     OW30136   1.325   2.343   1.992  0.3804 -0.4210  0.3379
 6226SOL    HW130137   1.373   2.265   2.022  2.0521 -0.2353 -1.9335
 6226SOL    HW230138   1.385   2.393   1.937 -0.5701  0.0859 -0.2382
 6227SOL     OW30139   3.098   3.812  14.268 -0.1267  0.1606  0.1352
 6227SOL    HW130140   3.118   3.852  14.183 -0.0298  0.4410  0.2907
 6227SOL    HW230141   3.032   3.754  14.229  0.8102 -0.1384 -1.0038
 6228SOL     OW30142   1.194   4.438   5.220 -0.2315 -0.5725  0.0246
 6228SOL    HW130143   1.239   4.418   5.138 -0.6680 -0.7876 -0.1665
 6228SOL    HW230144   1.190   4.351   5.261  0.5552 -1.0907 -0.9924
 6229SOL     OW30145   2.045   2.756   7.245 -0.5080 -0.2802 -0.2030
 6229SOL    HW130146   1.976   2.730   7.184 -2.5223  2.8416  0.7756
 6229SOL    HW230147   2.006   2.739   7.330  0.3160 -1.1268  0.0073
 6230SOL     OW30148   0.916   2.277   3.077 -0.4978  0.1545 -1.0794
 6230SOL    HW130149   0.936   2.361   3.036 -0.5766  0.0729 -1.2861
 6230SOL    HW230150   0.862   2.312   3.148  1.5955  0.7377  0.2390
 6231SOL     OW30151   1.205   0.510   7.990  0.2430  0.1535 -0.1488
 6231SOL    HW130152   1.214   0.553   8.076 -3.2286  0.0804  0.2476
 6231SOL    HW230153   1.294   0.477   7.983 -0.2057 -0.9617 -0.5422
 6232SOL     OW30154   0.597   1.637  17.102  0.0749 -0.3442 -0.4999
 6232SOL    HW130155   0.637   1.561  17.060  3.0393  1.5856 -1.1443
 6232SOL    HW230156   0.675   1.692  17.111 -0.0903 -0.1629 -0.1763
 6233SOL     OW30157   2.038   0.359  17.025  0.2762  0.3247 -0.0760
 6233SOL    HW130158   1.975   0.391  17.090 -1.2070 -1.2612 -0.7298
 6233SOL    HW230159   2.002   0.372  16.938 -0.2894 -0.1215  0.0930
 6234SOL     OW30160   0.196   1.899   9.834 -0.0755  0.1185 -0.4363
 6234SOL    HW130161   0.289   1.919   9.831  0.0249 -0.3371 -0.3979
 6234SOL    HW230162   0.150   1.983   9.845  0.4293  0.1895  1.1039
 6235SOL     OW30163   0.180   0.973   0.779 -0.8185  0.1312  0.4857
 6235SOL    HW130164   0.113   0.975   0.711  0.8177  0.6409 -1.0966
 6235SOL    HW230165   0.253   0.935   0.731  0.6369  2.6817  0.6969
 6236SOL     OW30166   3.221   1.532   7.660 -0.0494 -0.6828  0.3180
 6236SOL    HW130167   3.137   1.578   7.667  1.0805  1.7064 -2.3420
 6236SOL    HW230168   3.227   1.473   7.736  2.9803 -0.0028  0.5797
 6237SOL     OW30169   3.519   3.858   3.242  0.3810 -0.2445  0.0585
 6237SOL    HW130170   3.512   3.889   3.151  1.6856 -0.2705 -0.0527
 6237SOL    HW230171   3.493   3.767   3.233 -1.9413  0.0019  4.3366
 6238SOL     OW30172   2.265   3.338   7.914 -0.5056 -0.4957  0.2218
 6238SOL    HW130173   2.275   3.428   7.947  0.7734  0.2922 -2.2474
 6238SOL    HW230174   2.206   3.362   7.842  2.0453  1.2876 -1.3143
 6239SOL     OW30175   3.663   2.820   5.234 -0.7440  0.1842 -0.0609
 6239SOL    HW130176   3.744   2.774   5.214  0.0012  0.2639  2.7859
 6239SOL    HW230177   3.696   2.891   5.289  1.7413 -1.0049 -0.0391
 6240SOL     OW30178   1.399   3.080   1.126  0.2133  0.5592  0.1699
 6240SOL    HW130179   1.402   2.992   1.088  2.4189  0.3387  0.8516
 6240SOL    HW230180   1.333   3.129   1.077  0.9582  2.0079  0.6306
 6241SOL     OW30181   0.673   3.295   5.743 -0.0054 -0.2731  0.3827
 6241SOL    HW130182   0.592   3.309   5.694 -0.4194  1.1944  1.4763
 6241SOL    HW230183   0.699   3.387   5.756 -0.0197 -0.4873  1.9038
 6242SOL     OW30184   2.052   2.390   4.308  0.5215 -0.3970  0.3946
 6242SOL    HW130185   2.109   2.405   4.232 -0.2239  0.2119 -0.0411
 6242SOL    HW230186   2.056   2.295   4.314 -2.1499 -0.4735  0.9462
 6243SOL     OW30187   3.454   4.036   5.192 -0.4757 -0.5000 -0.0355
 6243SOL    HW130188   3.533   4.033   5.139 -1.9505 -3.1265 -2.1013
 6243SOL    HW230189   3.493   3.990   5.266 -0.1706 -0.6693 -0.2991
 6244SOL     OW30190   3.801   2.135  11.679  0.2478  0.2245 -0.4533
 6244SOL    HW130191   3.764   2.097  11.599  0.0264  1.2730 -0.8453
 6244SOL    HW230192   3.808   2.225  11.648 -1.2006  0.0369 -1.3359
 6245SOL     OW30193   3.427   2.638  17.074 -0.1796 -0.7706 -0.6207
 6245SOL    HW130194   3.435   2.627  16.980  2.7422 -2.3088 -0.1885
 6245SOL    HW230195   3.426   2.546  17.102 -1.0240 -0.7953 -0.7412
 6246SOL     OW30196   1.535   2.174   6.554 -1.1028 -0.1104 -0.0156
 6246SOL    HW130197   1.454   2.161   6.604 -1.1386 -0.2796 -0.1160
 6246SOL    HW230198   1.586   2.191   6.634 -0.4600 -3.1299  0.2344
 6247SOL     OW30199   3.857   1.022   9.892  0.0023  0.5688 -0.7030
 6247SOL    HW130200   3.779   0.974   9.916  0.0667  0.8529  0.0805
 6247SOL    HW230201   3.909   0.946   9.866 -0.0618 -0.0497  0.9940
 6248SOL     OW30202   4.726   4.045   2.829 -0.8021  0.5195  0.3082
 6248SOL    HW130203   0.013   4.014   2.919 -0.0533 -2.4751 -0.8343
 6248SOL    HW230204   0.000   4.140   2.840  0.6638  0.6878 -1.4149
 6249SOL     OW30205   2.979   3.640   6.085 -0.2146 -0.3340  0.8987
 6249SOL    HW130206   3.060   3.676   6.123  0.0367  1.6994 -1.6048
 6249SOL    HW230207   2.936   3.610   6.165  0.4841 -0.1669  1.3384
 6250SOL     OW30208   1.610   4.667   3.263  0.0604 -0.2969  0.2761
 6250SOL    HW130209   1.547   4.710   3.204  0.2325  0.2225  0.4717
 6250SOL    HW230210   1.658   0.015   3.297  3.3219 -1.0862 -2.5959
 6251SOL     OW30211   4.055   4.453   7.465  0.4438 -0.1319  0.0060
 6251SOL    HW130212   4.143   4.446   7.428  1.7504 -0.4501  3.1476
 6251SOL    HW230213   4.076   4.534   7.512  0.4248 -0.5350  0.7173
 6252SOL     OW30214   3.775   2.167   5.557 -0.8609  0.2791 -0.3401
 6252SOL    HW130215   3.688   2.206   5.562 -0.2549  1.2463  2.4444
 6252SOL    HW230216   3.815   2.217   5.485 -0.1371  1.2254  0.7257
 6253SOL     OW30217   2.867   2.563   5.849  0.2385  0.2226 -0.0456
 6253SOL    HW130218   2.799   2.588   5.911  0.8410  3.1237 -0.5312
 6253SOL    HW230219   2.843   2.473   5.827  0.3983 -0.1001  1.1158
 6254SOL     OW30220   3.424   4.169   6.250 -0.4831 -0.0850  0.9534
 6254SOL    HW130221   3.518   4.188   6.244 -0.8663  1.5514  0.1447
 6254SOL    HW230222   3.436   4.074   6.255  1.7008  0.0260 -1.9852
 6255SOL     OW30223   1.267   3.504  15.323  0.0933  0.0996  0.5129
 6255SOL    HW130224   1.175   3.484  15.338  0.6585 -2.3203  0.7302
 6255SOL    HW230225   1.276   3.472  15.233 -1.0772 -0.3864  0.5696
 6256SOL     OW30226   2.025   3.968   8.218  1.0327  0.8276  0.4211
 6256SOL    HW130227   2.031   4.045   8.162 -0.5777 -0.2569 -1.2414
 6256SOL    HW230228   2.117   3.965   8.246  0.2965 -2.3623  2.5704
 6257SOL     OW30229   2.739   3.920   5.637 -0.2629  0.6353 -0.1990
 6257SOL    HW130230   2.753   4.014   5.650 -0.6541  0.2794  2.6811
 6257SOL    HW230231   2.646   3.935   5.622 -0.4799  0.4599  0.9700
 6258SOL     OW30232   3.977   4.044   6.037  0.1526 -0.4411 -0.6267
 6258SOL    HW130233   4.069   4.070   6.025  0.2352  0.2917  1.6086
 6258SOL    HW230234   3.977   4.020   6.129 -0.5879 -1.6196 -0.9370
 6259SOL     OW30235   3.068   3.467  14.182 -0.6794  0.0754  0.2369
 6259SOL    HW130236   3.092   3.383  14.143 -1.8984 -0.3610  0.4382
 6259SOL    HW230237   3.130   3.513  14.125  1.6388  0.5341  3.1378
 6260SOL     OW30238   2.106   2.550   3.149  0.4996  0.0834 -0.4303
 6260SOL    HW130239   2.155   2.487   3.095  1.9965  0.6511  0.2537
 6260SOL    HW230240   2.123   2.525   3.240 -0.7524  1.1744  0.0922
 6261SOL     OW30241   4.341   3.254   4.373 -0.6782 -0.3059  0.1068
 6261SOL    HW130242   4.281   3.222   4.306  0.0545 -1.8331  0.1796
 6261SOL    HW230243   4.313   3.206   4.450 -1.7918  0.7757  0.3823
 6262SOL     OW30244   2.666   3.321   8.245  0.4176  0.5646 -0.1855
 6262SOL    HW130245   2.682   3.415   8.234  1.0737  0.6522  1.4151
 6262SOL    HW230246   2.605   3.325   8.319  0.6605  0.9867 -0.0027
 6263SOL     OW30247   0.087   3.575  13.273  0.5511  0.1576 -0.2035
 6263SOL    HW130248   0.102   3.622  13.355 -1.8884  1.8396 -0.7210
 6263SOL    HW230249   0.162   3.516  13.282 -0.4017 -0.9896  0.2259
 6264SOL     OW30250   1.455   4.537   9.888  0.0941  0.7489 -0.3921
 6264SOL    HW130251   1.464   4.628   9.859 -0.0308  0.9435  0.1784
 6264SOL    HW230252   1.414   4.534   9.974  1.0056  1.8909  0.0822
 6265SOL     OW30253   2.914   0.162  16.923 -0.1427 -0.3846 -0.5223
 6265SOL    HW130254   2.978   0.114  16.870  0.6291 -0.9399  0.9048
 6265SOL    HW230255   2.973   0.207  16.984  1.0928 -1.0114 -1.2665
 6266SOL     OW30256   3.456   1.899   7.374  0.0426 -0.2722 -0.3740
 6266SOL    HW130257   3.521   1.892   7.444  2.1565  1.9094 -2.0968
 6266SOL    HW230258   3.499   1.958   7.313 -0.5087 -0.1852 -0.6791
 6267SOL     OW30259   1.557   3.637   8.340  0.0898 -0.2665 -0.2237
 6267SOL    HW130260   1.547   3.557   8.290 -1.3583 -0.0457 -0.2856
 6267SOL    HW230261   1.628   3.613   8.400  1.1427 -1.0232 -1.7947
 6268SOL     OW30262   2.514   0.678   5.389  0.1672 -0.1311  0.1710
 6268SOL    HW130263   2.453   0.619   5.344  0.6253 -0.3838 -0.1211
 6268SOL    HW230264   2.522   0.739   5.316  5.3347 -0.6521  0.3177
 6269SOL     OW30265   4.414   1.630  12.801 -0.1157  0.0818 -0.3698
 6269SOL    HW130266   4.447   1.548  12.765  1.0809  0.0930  0.6706
 6269SOL    HW230267   4.389   1.607  12.890 -0.5129 -2.0935 -1.0546
 6270SOL     OW30268   3.462   1.583   7.811 -0.0072 -0.0378 -0.2103
 6270SOL    HW130269   3.462   1.508   7.751  1.9762 -0.6050  0.5236
 6270SOL    HW230270   3.375   1.587   7.851 -0.4623  0.5181 -1.2613
 6271SOL     OW30271   4.641   0.917   6.038 -0.0662  0.1169  0.4830
 6271SOL    HW130272   4.705   0.967   5.986 -1.1672 -1.1680 -2.0693
 6271SOL    HW230273   4.586   0.979   6.086 -1.3895 -0.3106 -0.4968
 6272SOL     OW30274   4.623   0.414   4.291  0.2255  0.4783  0.2739
 6272SOL    HW130275   4.651   0.325   4.308 -2.3018 -0.5545 -0.8987
 6272SOL    HW230276   4.547   0.407   4.349  1.6851 -2.1352  1.8710
 6273SOL     OW30277   1.145   1.844   7.604  0.1781  0.3086  0.4365
 6273SOL    HW130278   1.156   1.840   7.509  0.5831 -0.3134  0.5099
 6273SOL    HW230279   1.175   1.934   7.613  0.8975 -0.1974  2.8812
 6274SOL     OW30280   0.524   3.345   8.994  0.1711 -0.2408  0.4110
 6274SOL    HW130281   0.573   3.375   8.918  0.6857 -0.4939  0.6447
 6274SOL    HW230282   0.501   3.254   8.975  0.0425 -0.2509  0.6125
 6275SOL     OW30283   4.045   1.669  15.132 -0.6745  0.1265  0.3534
 6275SOL    HW130284   4.093   1.613  15.193 -0.9068  0.4260  0.8103
 6275SOL    HW230285   4.119   1.689  15.074 -0.3246  0.5224  0.9441
 6276SOL     OW30286   4.480   4.442   9.977 -0.1752  0.1417 -0.5480
 6276SOL    HW130287   4.467   4.464  10.069 -0.6156  1.0220 -0.8273
 6276SOL    HW230288   4.391   4.426   9.945 -0.4446  0.1759  0.1925
 6277SOL     OW30289   4.506   2.849  11.380  0.1000  0.1275  0.4473
 6277SOL    HW130290   4.420   2.878  11.349 -0.2658 -0.7624  0.6407
 6277SOL    HW230291   4.510   2.761  11.344 -2.1112  0.2285 -0.0567
 6278SOL     OW30292   2.526   2.985   7.814  0.0130 -0.2075  0.6981
 6278SOL    HW130293   2.431   2.982   7.823  0.0674 -0.6948  1.0808
 6278SOL    HW230294   2.558   2.987   7.904  1.0817 -0.1779  0.3169
 6279SOL     OW30295   4.305   0.135   4.558  0.0525 -0.1390 -0.4660
 6279SOL    HW130296   4.308   0.063   4.621  3.1982  0.2698 -0.1781
 6279SOL    HW230297   4.227   0.122   4.503  1.7584 -0.4037 -2.8398
 6280SOL     OW30298   3.179   2.703   2.396  0.3016 -0.6359  0.0411
 6280SOL    HW130299   3.237   2.677   2.467 -0.8112 -2.8571  0.1291
 6280SOL    HW230300   3.175   2.614   2.360 -1.5080 -0.6195  0.2260
 6281SOL     OW30301   4.130   1.626   9.047  0.3517  0.3064  0.3234
 6281SOL    HW130302   4.168   1.580   9.123 -1.7684 -0.9755  0.6108
 6281SOL    HW230303   4.101   1.705   9.092  0.8207  0.6615  0.0012
 6282SOL     OW30304   4.541   2.203   2.524  0.0780 -0.0623 -0.1165
 6282SOL    HW130305   4.474   2.136   2.537  0.3292 -0.6861 -1.9949
 6282SOL    HW230306   4.490   2.284   2.519 -0.7193 -0.6446 -1.4957
 6283SOL     OW30307   4.413   1.914   5.165 -0.0992 -0.1781 -0.1953
 6283SOL    HW130308   4.392   2.002   5.132  0.2898 -0.4631 -1.2197
 6283SOL    HW230309   4.355   1.863   5.108  0.2063 -1.8050  0.9555
 6284SOL     OW30310   4.573   0.056   8.473  0.0534  0.4011  0.0315
 6284SOL    HW130311   4.617   4.705   8.504  2.7834  2.3634  1.2200
 6284SOL    HW230312   4.617   0.076   8.390 -2.0611 -0.3410 -1.2485
 6285SOL     OW30313   3.984   3.035   3.844 -0.5726  0.0770  0.0861
 6285SOL    HW130314   4.035   2.955   3.833 -0.1748  0.5300 -1.3917
 6285SOL    HW230315   3.994   3.080   3.760 -2.2975 -0.1774 -0.2482
 6286SOL     OW30316   0.292   0.885   1.828  0.6439  0.1509 -0.0589
 6286SOL    HW130317   0.324   0.974   1.841 -0.4696  0.5380  0.0413
 6286SOL    HW230318   0.242   0.898   1.748  0.8392  1.4806  0.0439
 6287SOL     OW30319   0.949   3.839  11.807 -0.2239  0.2781 -0.0992
 6287SOL    HW130320   0.995   3.837  11.891  2.3984  2.1945 -1.4937
 6287SOL    HW230321   0.875   3.786  11.836 -2.0645  1.4335 -2.7540
 6288SOL     OW30322   2.323   3.326   0.497  0.6355 -0.1049  0.0158
 6288SOL    HW130323   2.253   3.391   0.506  0.8250  0.1030 -0.0119
 6288SOL    HW230324   2.403   3.373   0.522 -0.6065  0.6012  2.6837
 6289SOL     OW30325   3.950   4.721  17.136  0.4529 -0.4757  0.4037
 6289SOL    HW130326   3.980   4.667  17.209 -1.0205 -0.6226  0.8972
 6289SOL    HW230327   3.966   4.663  17.061  0.5386 -0.4974  0.4388
 6290SOL     OW30328   3.068   1.037  17.652 -0.7327 -0.8808 -0.3411
 6290SOL    HW130329   3.120   0.965  17.616 -0.7292 -0.6391 -0.8107
 6290SOL    HW230330   2.985   0.996  17.676 -0.2870 -0.8537  1.3084
 6291SOL     OW30331   1.130   0.765   7.375  0.2910 -0.4090  0.7070
 6291SOL    HW130332   1.164   0.712   7.447 -1.2954  1.5011  2.8426
 6291SOL    HW230333   1.048   0.793   7.415  1.2924  0.7520  1.9496
 6292SOL     OW30334   2.155   1.822   7.102 -0.4056  0.1849  0.2385
 6292SOL    HW130335   2.169   1.759   7.032  0.7693 -0.7339  1.2947
 6292SOL    HW230336   2.234   1.843   7.152  0.2342  2.0766 -1.6049
 6293SOL     OW30337   0.950   3.457   5.734 -0.3274 -0.0423 -1.2008
 6293SOL    HW130338   0.928   3.366   5.712 -2.8077  0.7059 -1.8160
 6293SOL    HW230339   1.032   3.477   5.688  0.7379 -1.2075  0.1783
 6294SOL     OW30340   3.687   3.946   7.595  0.2449  0.4249 -0.1046
 6294SOL    HW130341   3.680   3.969   7.503 -0.7775 -1.5196 -0.5037
 6294SOL    HW230342   3.600   3.976   7.620  0.0007 -1.1747  0.9632
 6295SOL     OW30343   3.515   2.563   4.792 -0.3233 -0.5497  0.7638
 6295SOL    HW130344   3.607   2.554   4.766 -0.5712 -0.2258 -0.2229
 6295SOL    HW230345   3.484   2.477   4.820 -0.7148 -0.9147 -0.8339
 6296SOL     OW30346   2.709   1.988   9.864  0.5583  0.4750  0.3402
 6296SOL    HW130347   2.790   2.034   9.842  0.4118  0.7778  0.4419
 6296SOL    HW230348   2.650   2.061   9.844 -0.2804 -0.2623  0.1207
 6297SOL     OW30349   3.733   0.302   2.020 -0.3626  0.1695  0.0153
 6297SOL    HW130350   3.764   0.239   1.955 -0.9174  0.8590 -0.9208
 6297SOL    HW230351   3.714   0.242   2.091 -2.4048  1.2571  0.3893
 6298SOL     OW30352   1.539   2.779   0.834 -0.1020 -0.8846  0.0310
 6298SOL    HW130353   1.529   2.704   0.776 -0.1908 -0.4060 -0.5703
 6298SOL    HW230354   1.632   2.802   0.834 -0.0683 -1.0197  0.3139
 6299SOL     OW30355   1.152   1.163   0.699  0.1200  0.6901  0.3028
 6299SOL    HW130356   1.144   1.103   0.625 -1.0272  0.4045  0.6586
 6299SOL    HW230357   1.203   1.235   0.663  1.0094 -0.7042 -1.2248
 6300SOL     OW30358   4.004   2.905   0.581 -0.5624 -0.0862  0.0857
 6300SOL    HW130359   3.989   2.904   0.676 -2.4716  1.6488 -0.2040
 6300SOL    HW230360   3.988   2.999   0.566  1.4289 -0.3581 -3.8084
 6301SOL     OW30361   1.497   2.705   8.048 -0.1566  0.1567  0.3465
 6301SOL    HW130362   1.529   2.679   8.135  0.9494 -1.1705 -0.4715
 6301SOL    HW230363   1.460   2.787   8.081  0.5397  0.6971 -0.2211
 6302SOL     OW30364   3.947   1.759   3.480 -0.0925 -0.4600  0.0776
 6302SOL    HW130365   3.994   1.824   3.428  0.4722 -1.7604 -1.0315
 6302SOL    HW230366   3.919   1.807   3.558 -1.3207 -0.5233 -0.3191
 6303SOL     OW30367   2.410   2.079   3.188 -0.7299 -0.1632 -0.0323
 6303SOL    HW130368   2.502   2.058   3.174 -0.9272  0.5343 -2.5167
 6303SOL    HW230369   2.383   1.998   3.231  2.7764 -1.1387  0.3443
 6304SOL     OW30370   0.070   1.630   7.503 -0.1464  0.3020 -0.1742
 6304SOL    HW130371   0.034   1.657   7.418 -2.0351 -0.3830  0.3996
 6304SOL    HW230372   0.161   1.616   7.476 -0.4393 -1.9506  0.0329
 6305SOL     OW30373   3.107   4.034  15.699  0.7804  0.0408 -0.4536
 6305SOL    HW130374   3.141   4.116  15.661  2.6093  0.3463  1.8276
 6305SOL    HW230375   3.180   3.991  15.655 -0.8312 -2.7394 -0.3867
 6306SOL     OW30376   1.538   3.447   5.952 -0.0838  0.3098  0.1051
 6306SOL    HW130377   1.485   3.502   6.010  0.9169  3.9803 -2.4508
 6306SOL    HW230378   1.528   3.470   5.860  0.2915 -2.2719 -0.5637
 6307SOL     OW30379   2.593   0.923   4.864 -0.2537 -0.1899 -0.1546
 6307SOL    HW130380   2.661   0.928   4.797  1.0105 -2.9231  0.9246
 6307SOL    HW230381   2.632   0.853   4.917 -0.7342 -1.4221 -1.4326
 6308SOL     OW30382   0.322   3.066   8.597  0.0979 -0.3164  0.6631
 6308SOL    HW130383   0.252   3.017   8.639  0.3834  1.3201  3.0508
 6308SOL    HW230384   0.343   3.026   8.512 -1.9884 -1.9718  0.9586
 6309SOL     OW30385   3.502   0.006   2.583 -0.4046  0.0981 -0.1535
 6309SOL    HW130386   3.534   4.661   2.529 -1.7762 -1.1926  0.7713
 6309SOL    HW230387   3.452   0.058   2.519 -2.0265 -0.6773  0.4905
 6310SOL     OW30388   2.811   3.537  11.067 -0.1243  0.1455  0.3441
 6310SOL    HW130389   2.738   3.502  11.016 -0.2154 -0.2375  0.7354
 6310SOL    HW230390   2.849   3.460  11.111  0.7474 -0.2987 -1.1954
 6311SOL     OW30391   0.421   2.810   7.646 -0.3772 -0.2260 -0.1504
 6311SOL    HW130392   0.436   2.840   7.556  1.7804 -0.5659  0.1001
 6311SOL    HW230393   0.389   2.884   7.697 -1.4077 -0.6105 -0.2289
 6312SOL     OW30394   1.724   1.060  11.764 -0.0072 -0.9569  0.2573
 6312SOL    HW130395   1.713   1.034  11.673 -1.5882 -0.8694  0.4206
 6312SOL    HW230396   1.782   1.136  11.755  0.0946 -1.0491  0.1502
 6313SOL     OW30397   1.718   1.685   0.657 -0.3798 -0.5563 -0.1039
 6313SOL    HW130398   1.795   1.660   0.606 -0.9077 -2.7794  0.1585
 6313SOL    HW230399   1.748   1.751   0.719  1.8732  1.1176 -2.9998
 6314SOL     OW30400   3.021   4.606   7.726  0.0713  0.3476 -0.4836
 6314SOL    HW130401   2.949   4.589   7.665 -3.0981  1.8023  2.8676
 6314SOL    HW230402   3.068   4.674   7.678  0.7334 -0.7777 -1.4540
 6315SOL     OW30403   0.595   0.571   1.136  0.1459  0.2700  0.2042
 6315SOL    HW130404   0.505   0.603   1.148  0.1536 -0.4539  2.2492
 6315SOL    HW230405   0.619   0.537   1.222  0.1224  1.1663  0.5662
 6316SOL     OW30406   4.111   1.096   5.033 -0.3858  0.0877 -0.1088
 6316SOL    HW130407   4.038   1.051   5.075 -0.3354 -0.0760 -0.1983
 6316SOL    HW230408   4.078   1.106   4.943  0.9376 -1.3176 -0.7367
 6317SOL     OW30409   4.485   4.494   2.645 -0.0597  0.2759  0.0651
 6317SOL    HW130410   4.428   4.449   2.582  0.1906  0.0953 -0.0330
 6317SOL    HW230411   4.571   4.482   2.604 -1.3522  2.5045 -3.3113
 6318SOL     OW30412   3.045   3.522   7.085  0.7618  0.0707 -0.4711
 6318SOL    HW130413   3.010   3.471   7.158  0.0065  0.7574 -0.3563
 6318SOL    HW230414   3.087   3.589   7.139  0.0456  0.4202 -0.3354
 6319SOL     OW30415   2.088   0.096  10.541 -0.1321  0.4986 -0.0413
 6319SOL    HW130416   2.104   0.098  10.636  1.7441  0.7118 -0.3655
 6319SOL    HW230417   2.163   0.135  10.497 -2.3517  1.5019 -2.8779
 6320SOL     OW30418   0.378   0.025   7.760  0.3029  0.0968  0.6297
 6320SOL    HW130419   0.336   4.695   7.824  1.5204 -2.6489 -1.0053
 6320SOL    HW230420   0.467   4.717   7.768  0.6772  0.6025 -1.5094
 6321SOL     OW30421   3.857   3.122   3.231  0.3783  0.2545 -0.2476
 6321SOL    HW130422   3.863   3.155   3.141 -0.0492  0.8126 -0.0700
 6321SOL    HW230423   3.944   3.141   3.266  0.5815 -1.6840  0.2985
 6322SOL     OW30424   3.698   3.097   6.282 -0.3996  0.0582 -0.4905
 6322SOL    HW130425   3.683   3.029   6.217  1.5067 -0.6031 -0.2444
 6322SOL    HW230426   3.665   3.044   6.354 -0.4431 -0.4389 -0.8786
 6323SOL     OW30427   4.003   2.742   6.809  0.0608 -0.5985  0.5852
 6323SOL    HW130428   4.004   2.829   6.849  0.4229  0.4649 -1.7614
 6323SOL    HW230429   3.934   2.695   6.856 -1.4302 -0.4067 -1.3862
 6324SOL     OW30430   0.248   4.387  10.072 -0.4021 -0.1422 -0.3885
 6324SOL    HW130431   0.316   4.325  10.096  1.3360  1.4937 -1.1113
 6324SOL    HW230432   0.285   4.475  10.062 -0.4281 -0.6594 -4.9889
 6325SOL     OW30433   0.045   2.640   8.925  0.4547 -0.3610  0.2933
 6325SOL    HW130434   4.713   2.597   8.864  0.3320 -0.6563  0.6184
 6325SOL    HW230435   0.048   2.579   8.999 -3.1358 -0.6601  0.1974
 6326SOL     OW30436   2.917   4.311   2.716  0.2440  0.0893 -0.0295
 6326SOL    HW130437   2.925   4.406   2.715  3.2753 -0.1832 -2.9669
 6326SOL    HW230438   2.943   4.298   2.807 -1.2621  2.1682  0.7033
 6327SOL     OW30439   0.056   4.727  13.622 -0.1014 -0.0316 -1.1618
 6327SOL    HW130440   0.038   4.635  13.600  0.4449 -0.6613  1.0699
 6327SOL    HW230441   4.700   0.044  13.608 -0.9677 -1.2314  0.1979
 6328SOL     OW30442   1.921   1.303   5.288  0.2751  0.0740 -0.3789
 6328SOL    HW130443   1.926   1.352   5.206 -1.8138 -1.2144 -1.3015
 6328SOL    HW230444   1.931   1.371   5.354 -1.8399  0.1509 -0.1484
 6329SOL     OW30445   1.710   3.314   8.569 -0.0267 -0.3105  0.5261
 6329SOL    HW130446   1.670   3.240   8.524 -2.4576  0.0396  2.0701
 6329SOL    HW230447   1.651   3.327   8.644 -0.4093 -1.2986  0.3913
 6330SOL     OW30448   3.822   2.738   7.570  0.2034 -0.1350 -0.0418
 6330SOL    HW130449   3.883   2.773   7.636 -0.3528 -0.1709  0.4898
 6330SOL    HW230450   3.778   2.820   7.547 -0.8496 -0.4774  0.7840
 6331SOL     OW30451   0.914   4.172  17.710  0.2130  0.0140  0.0813
 6331SOL    HW130452   0.937   4.250   0.049  0.7989  1.0395 -1.7300
 6331SOL    HW230453   0.896   4.107   0.066 -0.8542  0.1780 -0.0485
 6332SOL     OW30454   0.581   1.539  15.874  0.8366 -0.0732 -0.3993
 6332SOL    HW130455   0.586   1.514  15.781 -2.2099 -0.2273 -0.5092
 6332SOL    HW230456   0.495   1.579  15.876  0.7031 -0.3879  0.0090
 6333SOL     OW30457   0.973   3.914   8.946 -0.3717 -0.1307  0.0480
 6333SOL    HW130458   0.955   3.853   8.875  0.9369 -0.5652  0.0920
 6333SOL    HW230459   1.020   3.849   8.998  1.1471  1.6031  0.8731
 6334SOL     OW30460   3.695   2.769   9.187  0.0167 -0.3846  1.0568
 6334SOL    HW130461   3.730   2.746   9.100  1.8835  2.1588  1.1245
 6334SOL    HW230462   3.748   2.843   9.217 -1.3376  0.1983  1.9800
 6335SOL     OW30463   0.306   3.939  14.326  0.3093  0.3947  0.0676
 6335SOL    HW130464   0.307   3.843  14.330  0.0302  0.5197  2.8837
 6335SOL    HW230465   0.288   3.971  14.414 -1.5906 -1.2298  0.2837
 6336SOL     OW30466   2.727   4.065   8.205  0.3363 -0.0333  0.0445
 6336SOL    HW130467   2.798   4.001   8.209 -0.9624 -1.1990  4.3641
 6336SOL    HW230468   2.766   4.141   8.247 -0.2390  0.2408  0.0873
 6337SOL     OW30469   1.576   0.187   8.853  0.2678 -0.1048 -0.3573
 6337SOL    HW130470   1.524   0.141   8.787  0.4682 -2.2467  1.0184
 6337SOL    HW230471   1.639   0.240   8.803  0.7600 -1.1768 -0.8865
 6338SOL     OW30472   4.417   2.999   2.862  0.4152 -0.5466 -0.0515
 6338SOL    HW130473   4.506   2.970   2.878  0.8111  0.0802 -1.0914
 6338SOL    HW230474   4.378   2.952   2.788 -0.2650  1.1035 -0.7591
 6339SOL     OW30475   4.701   0.962   6.957 -0.1608 -0.6804  0.3942
 6339SOL    HW130476   4.669   0.872   6.950  0.3675 -0.6834 -1.8724
 6339SOL    HW230477   0.023   0.958   7.039  0.1448  0.8863  0.2888
 6340SOL     OW30478   3.817   2.867   6.063 -0.5603 -0.3363  0.0240
 6340SOL    HW130479   3.902   2.826   6.053 -0.8853 -1.5144  2.0166
 6340SOL    HW230480   3.806   2.902   5.975 -2.8555 -1.6771 -0.2349
 6341SOL     OW30481   1.751   2.274   8.580  0.0554 -0.8144 -0.0689
 6341SOL    HW130482   1.703   2.208   8.629 -2.8845  2.0175  0.8722
 6341SOL    HW230483   1.825   2.224   8.546  1.8966  0.8044  1.5257
 6342SOL     OW30484   2.687   0.256   1.270 -0.0706 -0.1940  0.5978
 6342SOL    HW130485   2.604   0.263   1.223  1.3111  0.0222 -1.7600
 6342SOL    HW230486   2.678   0.342   1.311  0.9325 -0.1784  0.7985
 6343SOL     OW30487   0.876   4.380   7.676  0.4644  0.1767 -0.1982
 6343SOL    HW130488   0.956   4.413   7.717  2.0174 -1.2991 -2.0696
 6343SOL    HW230489   0.872   4.288   7.700  0.8941  0.1941 -0.0656
 6344SOL     OW30490   0.329   3.033  15.222  0.5965  0.2479  0.2016
 6344SOL    HW130491   0.245   3.060  15.185 -0.3157  1.4464  3.1653
 6344SOL    HW230492   0.365   3.114  15.258 -0.2395  0.4521  0.5928
 6345SOL     OW30493   0.491   3.374   9.271 -0.5376  0.6414  0.2097
 6345SOL    HW130494   0.419   3.328   9.228  1.1557 -0.6777 -1.2361
 6345SOL    HW230495   0.523   3.399   9.184 -2.2262  1.9262 -0.0451
 6346SOL     OW30496   0.049   0.836   9.927  0.4447  0.0501 -0.3588
 6346SOL    HW130497   4.699   0.851   9.874 -0.2097  1.3562  0.9840
 6346SOL    HW230498   0.007   0.802  10.006  1.1119 -2.1564 -0.9564
 6347SOL     OW30499   3.438   3.217   8.722  0.5026  0.6799 -0.0255
 6347SOL    HW130500   3.397   3.301   8.743  1.8090  0.6245  2.7511
 6347SOL    HW230501   3.528   3.247   8.735  1.2717 -1.2633 -0.7891
 6348SOL     OW30502   0.620   3.958   5.287  0.2329 -0.0519 -0.2692
 6348SOL    HW130503   0.584   3.887   5.234 -0.2693 -0.2469  0.3246
 6348SOL    HW230504   0.570   3.942   5.367  0.8797 -0.4030  0.0594
 6349SOL     OW30505   4.197   1.843   8.172  0.0096 -0.2287 -0.6107
 6349SOL    HW130506   4.286   1.878   8.174 -0.2365  0.3036  1.0080
 6349SOL    HW230507   4.203   1.764   8.225 -0.2056  0.0618 -0.1566
 6350SOL     OW30508   4.100   3.285  10.334  0.3512 -0.1846 -0.1099
 6350SOL    HW130509   4.165   3.289  10.403  0.0395 -0.9258  0.2284
 6350SOL    HW230510   4.019   3.299  10.384 -0.7067  1.7870 -2.3293
 6351SOL     OW30511   3.308   4.708   3.738 -0.6197 -0.2812  0.2284
 6351SOL    HW130512   3.248   4.700   3.812  0.2508  0.1481  0.9802
 6351SOL    HW230513   3.290   0.074   3.728 -0.7400 -0.5187 -1.7674
 6352SOL     OW30514   3.903   1.077   7.205  0.2183 -0.1812  0.2326
 6352SOL    HW130515   3.983   1.025   7.198  0.4415 -0.3428  3.6760
 6352SOL    HW230516   3.852   1.058   7.127 -0.9357 -0.6889  1.1190
 6353SOL     OW30517   4.079   4.226   1.728 -0.5722  0.2230  0.4027
 6353SOL    HW130518   4.046   4.196   1.643  2.0991 -1.9602  0.1399
 6353SOL    HW230519   4.070   4.321   1.713 -2.6602 -0.4354 -2.5087
 6354SOL     OW30520   0.585   4.545   2.269 -0.5797 -0.3542  0.0951
 6354SOL    HW130521   0.652   4.548   2.201 -0.0095 -1.2101  0.6267
 6354SOL    HW230522   0.508   4.515   2.221  0.3594 -0.0101 -1.6183
 6355SOL     OW30523   0.265   2.180   9.848 -0.2731  0.5122  0.2976
 6355SOL    HW130524   0.326   2.136   9.907 -1.2150 -1.6640 -0.3774
 6355SOL    HW230525   0.328   2.202   9.779 -0.1699 -0.9100 -0.0521
 6356SOL     OW30526   4.194   1.318   5.875  0.2879 -0.6645  0.1451
 6356SOL    HW130527   4.234   1.238   5.843  2.4411 -0.6062  2.6344
 6356SOL    HW230528   4.108   1.317   5.832  0.9938  1.3481 -1.2924
 6357SOL     OW30529   0.033   0.710   4.634 -0.0139  0.3356 -0.4466
 6357SOL    HW130530   4.675   0.704   4.591  0.6601  1.7056 -1.9891
 6357SOL    HW230531   0.094   0.721   4.561 -1.4601  0.3849 -1.6513
 6358SOL     OW30532   2.249   3.693  11.294 -0.3394  0.1824 -0.3032
 6358SOL    HW130533   2.318   3.757  11.281 -1.0951  0.7317 -1.6359
 6358SOL    HW230534   2.292   3.608  11.289  0.8457  0.7372  0.4989
 6359SOL     OW30535   2.466   3.807   5.347  0.3559 -0.8324 -0.1151
 6359SOL    HW130536   2.521   3.816   5.270  0.0107  0.3050 -0.2357
 6359SOL    HW230537   2.423   3.724   5.330 -1.0103  0.3849 -2.5105
 6360SOL     OW30538   3.133   1.015  12.536  0.9313 -0.3546 -0.2247
 6360SOL    HW130539   3.149   1.014  12.630 -0.6448  2.9139  0.0867
 6360SOL    HW230540   3.052   1.066  12.539  1.4654  0.5233 -0.5986
 6361SOL     OW30541   4.437   1.768  10.102  0.3405  0.2594 -0.1421
 6361SOL    HW130542   4.427   1.834  10.171  0.5636 -0.9345  1.0282
 6361SOL    HW230543   4.404   1.688  10.142  0.6702  0.5341  0.6878
 6362SOL     OW30544   2.965   4.727   4.149 -0.5704  0.7343  0.4192
 6362SOL    HW130545   2.894   4.662   4.147  0.7557 -0.6970 -0.5877
 6362SOL    HW230546   2.957   0.045   4.232  1.6693 -1.0433  1.6363
 6363SOL     OW30547   3.630   2.520  13.056 -0.0154  0.2401  0.1849
 6363SOL    HW130548   3.715   2.488  13.085  0.1523  2.4114  2.0530
 6363SOL    HW230549   3.640   2.504  12.962  1.5239  0.5956  0.2898
 6364SOL     OW30550   0.556   3.429  10.189 -0.2408 -0.9503 -0.2509
 6364SOL    HW130551   0.568   3.419  10.284 -0.3878 -1.3741 -0.2789
 6364SOL    HW230552   0.579   3.521  10.175 -2.1261 -0.4035  0.1792
 6365SOL     OW30553   0.495   1.990   7.949 -0.1788 -0.2601  0.5980
 6365SOL    HW130554   0.530   2.076   7.926  1.0417 -1.1915 -0.9928
 6365SOL    HW230555   0.413   2.000   7.999  0.4316  0.4666  1.4562
 6366SOL     OW30556   0.776   3.544   6.841 -0.4475 -0.3701 -0.0707
 6366SOL    HW130557   0.788   3.537   6.746 -1.2118 -1.8554 -0.0686
 6366SOL    HW230558   0.864   3.568   6.871 -0.4007 -0.2700 -0.2921
 6367SOL     OW30559   0.651   3.414  10.479  0.5352  0.6858  0.1795
 6367SOL    HW130560   0.690   3.329  10.457 -2.8717 -0.2551 -2.2141
 6367SOL    HW230561   0.728   3.470  10.474  0.7433  0.6148  2.5496
 6368SOL     OW30562   4.538   2.586   1.123 -0.7502  0.3138  0.3952
 6368SOL    HW130563   4.482   2.584   1.045  2.7835  1.3057 -2.2216
 6368SOL    HW230564   4.530   2.498   1.160  0.3278  0.5148  1.1122
 6369SOL     OW30565   4.651   2.619  13.561 -0.1880 -0.3992  0.6498
 6369SOL    HW130566   4.690   2.559  13.625  2.0232  2.7420  2.2977
 6369SOL    HW230567   4.655   2.565  13.482 -2.6499 -0.9728  0.9294
 6370SOL     OW30568   0.158   2.011   3.045 -0.2868  0.4936 -0.0608
 6370SOL    HW130569   0.088   2.061   3.003  0.6104  1.3496 -0.5344
 6370SOL    HW230570   0.239   2.038   3.003  0.4951 -0.9757  0.5215
 6371SOL     OW30571   0.806   1.256  16.927 -0.1655 -0.2911 -0.1490
 6371SOL    HW130572   0.828   1.347  16.948  0.7770 -1.0702  2.2532
 6371SOL    HW230573   0.889   1.215  16.902 -0.0475  0.0311 -0.2945
 6372SOL     OW30574   4.014   2.886   8.412  0.3733  0.2773  0.1664
 6372SOL    HW130575   4.045   2.967   8.371  1.8908  0.5760  1.8813
 6372SOL    HW230576   4.093   2.839   8.437  1.1648  1.1523 -0.6733
 6373SOL     OW30577   3.753   1.669   7.815 -1.0068  0.0062  0.3950
 6373SOL    HW130578   3.750   1.730   7.889 -0.8634  1.2178 -0.5932
 6373SOL    HW230579   3.667   1.656   7.775 -1.8779 -1.0026  2.5943
 6374SOL     OW30580   0.665   3.676   0.558 -0.2156  0.3802  0.1886
 6374SOL    HW130581   0.607   3.661   0.633  0.8686 -3.2535  0.2494
 6374SOL    HW230582   0.740   3.621   0.580 -0.4684  0.7191  1.9121
 6375SOL     OW30583   1.521   0.640  10.288 -0.7405 -0.5026 -0.5735
 6375SOL    HW130584   1.602   0.596  10.261 -0.9469 -0.6367 -0.9708
 6375SOL    HW230585   1.460   0.566  10.284  0.0012 -1.2881  3.1608
 6376SOL     OW30586   3.680   1.018   4.456  0.3464 -0.4117  0.1880
 6376SOL    HW130587   3.711   1.062   4.378  2.0009 -0.3902  0.8597
 6376SOL    HW230588   3.656   1.097   4.505  0.4492  0.8872 -1.8671
 6377SOL     OW30589   3.263   0.272   6.689  0.0479 -0.5893  0.4503
 6377SOL    HW130590   3.345   0.272   6.739 -0.2880 -2.3760  0.9953
 6377SOL    HW230591   3.296   0.269   6.599  1.9700 -2.2321  1.2046
 6378SOL     OW30592   0.220   0.512   5.987  0.0033 -0.3955 -0.5441
 6378SOL    HW130593   0.301   0.463   5.972  0.3439  0.0798 -0.2766
 6378SOL    HW230594   0.185   0.480   6.070 -3.7390  2.2882 -1.0652
 6379SOL     OW30595   1.448   0.751   0.688  0.7502 -0.7018 -0.0426
 6379SOL    HW130596   1.369   0.696   0.692  1.5976 -2.0943 -2.0049
 6379SOL    HW230597   1.498   0.693   0.629 -1.3225 -0.8790 -1.6268
 6380SOL     OW30598   2.414   3.173   6.578  0.2430  0.0854 -0.2249
 6380SOL    HW130599   2.366   3.253   6.559 -0.6155 -1.0655 -2.9229
 6380SOL    HW230600   2.498   3.186   6.534  0.4793 -2.5196 -0.5717
 6381SOL     OW30601   4.317   0.143   5.424 -0.3515 -0.5583  0.3771
 6381SOL    HW130602   4.315   0.059   5.378 -2.4028  0.3275 -1.1309
 6381SOL    HW230603   4.365   0.122   5.504 -0.4405 -0.5881  0.4225
 6382SOL     OW30604   2.953   3.903   7.024  0.2330  0.2057  0.1533
 6382SOL    HW130605   2.869   3.897   7.069 -1.1465 -2.2899 -2.7908
 6382SOL    HW230606   2.936   3.973   6.962 -0.6521  0.7684  1.0229
 6383SOL     OW30607   3.981   2.908   0.206 -0.0503  0.1448 -0.0053
 6383SOL    HW130608   3.936   2.979   0.251  0.6361  1.8184 -1.9785
 6383SOL    HW230609   3.939   2.889   0.122 -1.0101  3.2391 -0.2247
 6384SOL     OW30610   0.882   3.253   8.879 -0.0200  0.4326 -0.0355
 6384SOL    HW130611   0.915   3.290   8.961 -0.9126  3.2946 -0.9483
 6384SOL    HW230612   0.839   3.178   8.921 -0.3984 -0.4982 -2.0669
 6385SOL     OW30613   1.914   3.083   3.583 -0.3398  0.0329  0.1244
 6385SOL    HW130614   1.856   3.037   3.644 -0.1947 -0.8429 -0.4039
 6385SOL    HW230615   1.856   3.140   3.532  1.3614  1.7726  0.1278
 6386SOL     OW30616   3.096   0.719  14.384 -0.1751  0.7472  0.2413
 6386SOL    HW130617   3.088   0.708  14.479  0.4270  3.1129  0.5686
 6386SOL    HW230618   3.014   0.763  14.363  2.0003  4.3645 -0.6764
 6387SOL     OW30619   2.333   1.814   4.640  0.0065  0.2107 -0.8519
 6387SOL    HW130620   2.250   1.767   4.643 -1.3824  2.4675 -3.1757
 6387SOL    HW230621   2.309   1.875   4.709 -0.9328 -1.4221  0.2692
 6388SOL     OW30622   1.462   2.206   7.999 -0.1051  0.1531 -0.3938
 6388SOL    HW130623   1.381   2.227   8.045  0.1114  1.9279 -0.8375
 6388SOL    HW230624   1.498   2.150   8.068  0.3993 -0.1689 -0.9150
 6389SOL     OW30625   1.286   3.034   6.605  0.5904  0.4564  0.0758
 6389SOL    HW130626   1.229   3.095   6.651 -1.2225 -1.1598 -0.0384
 6389SOL    HW230627   1.266   3.055   6.514  0.3454  1.1179  0.2793
 6390SOL     OW30628   1.507   4.676  16.631 -0.1983 -0.0367 -0.0025
 6390SOL    HW130629   1.437   4.672  16.566 -0.8843 -0.8530  0.7956
 6390SOL    HW230630   1.496   4.599  16.687 -2.1368 -0.3575 -0.8292
 6391SOL     OW30631   0.389   4.108   0.123 -0.0133 -0.6805 -0.5666
 6391SOL    HW130632   0.402   4.139   0.034  0.8469  1.5514  0.3451
 6391SOL    HW230633   0.334   4.032   0.103 -1.6184  0.6719 -1.3081
 6392SOL     OW30634   0.196   4.507   3.133 -0.9906 -0.2689  0.1440
 6392SOL    HW130635   0.265   4.540   3.190 -0.4892  1.0150 -1.2253
 6392SOL    HW230636   0.237   4.428   3.099  0.1171  0.3006  0.1669
 6393SOL     OW30637   3.047   0.699  15.040  0.4581  0.1754  0.1889
 6393SOL    HW130638   2.980   0.756  15.001  0.0870  0.6313  1.5100
 6393SOL    HW230639   3.120   0.691  14.978 -1.8499  4.2722 -3.0770
 6394SOL     OW30640   1.977   2.030   6.622  0.2335 -0.5538 -0.0726
 6394SOL    HW130641   2.010   1.941   6.633 -0.7290 -0.9048 -0.0355
 6394SOL    HW230642   2.053   2.080   6.592  0.1896 -0.7517 -0.4965
 6395SOL     OW30643   3.645   1.531   2.137  0.1596  0.1594  0.8025
 6395SOL    HW130644   3.595   1.567   2.210 -0.5269 -0.6519  0.7400
 6395SOL    HW230645   3.590   1.458   2.107 -2.6567  2.8052 -0.4619
 6396SOL     OW30646   0.647   1.125   3.261  0.1784 -0.5521  0.0095
 6396SOL    HW130647   0.572   1.097   3.313  0.3617 -0.0454  0.5363
 6396SOL    HW230648   0.678   1.211   3.290 -1.4519 -0.2870  0.9467
 6397SOL     OW30649   4.291   4.032   7.798  0.5220 -0.6349  0.7558
 6397SOL    HW130650   4.260   4.050   7.709  0.2091 -1.3701  0.7176
 6397SOL    HW230651   4.203   4.051   7.831  0.2665 -0.4422 -0.0397
 6398SOL     OW30652   0.983   3.160  16.679  0.2520 -0.2101 -0.2151
 6398SOL    HW130653   0.940   3.178  16.762 -3.7584  1.0681 -2.5363
 6398SOL    HW230654   1.021   3.072  16.683  0.4730 -0.0946  0.1910
 6399SOL     OW30655   4.286   3.030   8.484  0.0369  0.4357 -0.2361
 6399SOL    HW130656   4.266   3.008   8.393  2.4716 -1.1392 -0.3911
 6399SOL    HW230657   4.248   3.117   8.494  0.8452  0.5737  1.6590
 6400SOL     OW30658   1.984   2.394   2.433  0.1448  0.1519  0.1992
 6400SOL    HW130659   2.042   2.392   2.357  2.8428 -2.9128  2.3560
 6400SOL    HW230660   1.913   2.446   2.394  0.8285  0.6011 -0.4558
 6401SOL     OW30661   2.124   0.482   7.187 -0.0885  0.0594 -0.4976
 6401SOL    HW130662   2.102   0.427   7.112  0.9522  1.4803 -1.8479
 6401SOL    HW230663   2.045   0.535   7.199 -0.4793 -0.9293  1.2127
 6402SOL     OW30664   0.659   4.485  16.733 -0.5044  0.7837 -0.2910
 6402SOL    HW130665   0.590   4.419  16.727 -0.2552  0.5732 -0.8307
 6402SOL    HW230666   0.734   4.445  16.778 -0.2880  1.0908 -0.3786
 6403SOL     OW30667   3.215   1.334  12.619  0.1209  0.7469  0.4742
 6403SOL    HW130668   3.146   1.371  12.675 -0.4096 -0.9708  0.9542
 6403SOL    HW230669   3.268   1.292  12.686 -0.9596 -1.3364  0.0268
 6404SOL     OW30670   3.937   0.737   3.951 -0.1040  0.2405  0.1299
 6404SOL    HW130671   3.957   0.750   3.858  1.6578  1.6214  0.7038
 6404SOL    HW230672   3.847   0.704   3.949 -0.1804  0.5480 -1.8417
 6405SOL     OW30673   2.842   0.280   1.544 -0.0030 -0.2489 -0.3608
 6405SOL    HW130674   2.776   0.345   1.567  0.8609  0.4649  0.0618
 6405SOL    HW230675   2.836   0.224   1.621 -2.8706  0.4446 -0.0788
 6406SOL     OW30676   3.592   2.364  16.623  0.0546 -0.3498 -0.2608
 6406SOL    HW130677   3.625   2.366  16.533 -2.1102 -2.5189 -1.1050
 6406SOL    HW230678   3.638   2.295  16.671 -0.6700 -0.6001  0.0677
 6407SOL     OW30679   0.171   4.567  17.600  0.1087  0.0581 -0.0852
 6407SOL    HW130680   0.166   4.663  17.601 -1.1978  0.0009 -0.4070
 6407SOL    HW230681   0.134   4.551  17.513  0.1653 -3.8390  0.6108
 6408SOL     OW30682   0.648   2.285   4.524  0.2179  0.0191  0.1698
 6408SOL    HW130683   0.622   2.233   4.600  0.6038 -0.6343 -0.1460
 6408SOL    HW230684   0.714   2.339   4.567  0.9997 -1.0808  0.3420
 6409SOL     OW30685   4.667   0.084  11.821  0.4186 -0.0582 -0.1036
 6409SOL    HW130686   4.727   0.147  11.780  1.8351 -0.3460  1.5361
 6409SOL    HW230687   4.590   0.099  11.766 -1.9077 -1.1929  2.8538
 6410SOL     OW30688   0.326   1.575  11.061  0.3520 -0.1365 -0.1183
 6410SOL    HW130689   0.420   1.592  11.055  0.2244  1.1214  1.5380
 6410SOL    HW230690   0.294   1.652  11.108  0.1455 -0.1109 -0.3045
 6411SOL     OW30691   0.133   3.817   4.097 -0.1066  0.6146  0.0606
 6411SOL    HW130692   0.201   3.834   4.162  0.7023  0.2430 -0.7004
 6411SOL    HW230693   0.068   3.770   4.150  1.1402 -2.5107 -1.1745
 6412SOL     OW30694   2.877   2.528   8.347 -0.4235  0.7289  0.2091
 6412SOL    HW130695   2.889   2.510   8.440 -0.8779  1.2531  0.3739
 6412SOL    HW230696   2.910   2.618   8.345 -0.6772  0.8200  0.1080
 6413SOL     OW30697   4.398   2.077   3.637  0.7499  0.6545  0.7485
 6413SOL    HW130698   4.428   2.162   3.669  1.1860  0.2277  1.4826
 6413SOL    HW230699   4.352   2.037   3.711  2.1486  0.1946  1.3690
 6414SOL     OW30700   2.084   0.065  16.662 -0.0621 -0.2589 -0.3750
 6414SOL    HW130701   2.059   0.146  16.618 -1.1992  1.1227  2.8482
 6414SOL    HW230702   2.046   0.004  16.599  0.4036  0.6559 -1.5386
 6415SOL     OW30703   1.859   1.389  17.258 -0.2365 -0.7071  0.5382
 6415SOL    HW130704   1.783   1.351  17.214  0.8136 -0.5443 -1.4023
 6415SOL    HW230705   1.836   1.481  17.261 -3.9366 -1.5507 -1.9319
 6416SOL     OW30706   0.318   3.167   3.876 -0.2745 -0.0639  0.2336
 6416SOL    HW130707   0.261   3.146   3.950 -0.9218 -1.1472 -0.5712
 6416SOL    HW230708   0.377   3.237   3.906  0.1817  1.2910 -3.7127
 6417SOL     OW30709   2.107   3.311   3.404  0.3591 -0.1859  0.8699
 6417SOL    HW130710   2.092   3.217   3.399  1.2530 -0.2734 -0.1893
 6417SOL    HW230711   2.146   3.330   3.318  4.1328 -0.8474  2.4510
 6418SOL     OW30712   1.590   2.003   9.684 -1.0047 -0.0509 -0.0219
 6418SOL    HW130713   1.546   1.991   9.768 -0.8953  2.2088  0.3399
 6418SOL    HW230714   1.528   1.963   9.622 -1.4635  0.6156  0.0040
 6419SOL     OW30715   0.511   0.998  10.819  0.1025  0.2375 -0.8623
 6419SOL    HW130716   0.565   0.947  10.880 -0.2633  1.5186  0.5251
 6419SOL    HW230717   0.428   0.991  10.866  1.7639 -0.2758  2.0348
 6420SOL     OW30718   1.160   1.940   6.385  0.2116 -0.5022 -0.2246
 6420SOL    HW130719   1.118   1.877   6.328 -1.4311  1.0828 -0.7722
 6420SOL    HW230720   1.102   1.929   6.460 -1.6639  0.5290 -1.5250
 6421SOL     OW30721   0.961   4.661   0.643  0.5089 -0.6553  0.7646
 6421SOL    HW130722   0.919   4.687   0.561  3.0491  2.3842  0.4264
 6421SOL    HW230723   0.949   4.566   0.638  0.2456 -0.6093  0.5134
 6422SOL     OW30724   1.153   2.535   0.904 -0.3345  0.2604  0.6386
 6422SOL    HW130725   1.168   2.538   0.810 -2.5035 -0.8022  0.2540
 6422SOL    HW230726   1.245   2.542   0.932 -0.4622  0.0029  1.1202
 6423SOL     OW30727   1.653   2.390   3.658  1.0150 -0.0151 -0.4145
 6423SOL    HW130728   1.692   2.365   3.574  0.6312  0.6921 -0.8050
 6423SOL    HW230729   1.670   2.484   3.660 -0.3957  0.1852  1.9932
 6424SOL     OW30730   2.166   0.180  15.182 -0.7278 -0.1190  0.0712
 6424SOL    HW130731   2.235   0.235  15.144 -1.7159  1.7120  0.9300
 6424SOL    HW230732   2.143   0.126  15.107  1.4711 -1.0123  0.0221
 6425SOL     OW30733   1.772   0.723   1.731  0.0524 -0.4397 -0.0309
 6425SOL    HW130734   1.778   0.749   1.639  0.1172  0.5561  0.2567
 6425SOL    HW230735   1.681   0.696   1.734  0.2087 -0.8798  0.6991
 6426SOL     OW30736   2.920   0.168  11.445  0.0541  0.1811  0.1454
 6426SOL    HW130737   2.850   0.219  11.404 -1.6905 -4.3206 -2.4434
 6426SOL    HW230738   2.922   0.088  11.392 -1.4235  0.7577 -0.8086
 6427SOL     OW30739   3.646   0.881   8.242 -0.1993 -0.1836  0.0511
 6427SOL    HW130740   3.648   0.823   8.318  1.3871 -2.0211 -1.3506
 6427SOL    HW230741   3.690   0.956   8.281 -1.1915  0.0204  0.7496
 6428SOL     OW30742   0.750   4.640   9.361  0.1895  0.3776  0.0218
 6428SOL    HW130743   0.740   4.626   9.267 -2.4722 -2.0022  0.6864
 6428SOL    HW230744   0.751   0.008   9.359  0.2570  0.3291 -1.6663
 6429SOL     OW30745   1.762   3.516  12.272  0.1650 -0.1824  0.1567
 6429SOL    HW130746   1.855   3.540  12.277 -0.4980  1.8070  2.5584
 6429SOL    HW230747   1.753   3.455  12.345 -1.9682 -0.7909 -0.6302
 6430SOL     OW30748   1.444   2.123  15.086 -0.1701  0.7807 -0.3615
 6430SOL    HW130749   1.437   2.110  14.991 -1.6449  1.3804 -0.3231
 6430SOL    HW230750   1.398   2.048  15.125  0.9536 -0.0183 -0.5493
 6431SOL     OW30751   0.210   3.541  15.389  0.0379  0.1000 -0.3634
 6431SOL    HW130752   0.248   3.586  15.465  0.9637 -0.6019 -0.4132
 6431SOL    HW230753   0.122   3.579  15.384  0.1315  0.0660 -2.0656
 6432SOL     OW30754   4.727   2.651   1.292  0.4284 -0.8015 -0.1863
 6432SOL    HW130755   0.060   2.714   1.254 -0.4146 -0.1848 -0.4978
 6432SOL    HW230756   4.664   2.650   1.219  2.0235  1.4836 -1.5917
 6433SOL     OW30757   0.897   1.362  10.988  0.4416  0.4204  0.8323
 6433SOL    HW130758   0.881   1.268  10.975 -0.8867  0.7531 -0.0162
 6433SOL    HW230759   0.971   1.359  11.048  0.4498  1.4567  0.8709
 6434SOL     OW30760   1.934   4.446   6.087 -0.3445 -0.0929  0.0078
 6434SOL    HW130761   1.848   4.487   6.090  0.4045  1.4897 -0.0208
 6434SOL    HW230762   1.918   4.359   6.049  1.7075 -2.1662  3.8309
 6435SOL     OW30763   1.542   4.227   7.259  0.3685  0.2397  0.1316
 6435SOL    HW130764   1.559   4.166   7.188 -2.0079  0.6543 -0.7993
 6435SOL    HW230765   1.485   4.177   7.318  1.3129  0.3494  1.1409
 6436SOL     OW30766   2.126   1.831   2.272 -0.5460 -0.2958 -0.2512
 6436SOL    HW130767   2.188   1.822   2.200 -0.9532 -0.1856 -0.6182
 6436SOL    HW230768   2.099   1.740   2.282 -2.5544  0.2688 -0.5684
 6437SOL     OW30769   2.211   1.765  15.562 -1.3973 -0.1560  0.1721
 6437SOL    HW130770   2.220   1.856  15.532  3.0315 -0.1715  1.3528
 6437SOL    HW230771   2.249   1.765  15.650 -1.2607 -1.2425  0.1110
 6438SOL     OW30772   2.319   1.320  15.015 -0.0122  0.2028  0.3662
 6438SOL    HW130773   2.306   1.282  15.102 -0.5486 -0.4008  0.0248
 6438SOL    HW230774   2.248   1.279  14.965  0.7310 -1.3398  0.5585
 6439SOL     OW30775   1.168   2.990  11.677  0.0986 -0.0418  0.6176
 6439SOL    HW130776   1.119   2.923  11.629  0.2487  0.6906 -0.5567
 6439SOL    HW230777   1.112   3.063  11.651  0.9166  0.3717  0.0425
 6440SOL     OW30778   1.431   1.870   0.030 -0.2141 -0.6007 -0.0666
 6440SOL    HW130779   1.427   1.796  17.682 -0.2430 -0.4397 -0.2655
 6440SOL    HW230780   1.510   1.917   0.003 -0.3194 -0.7195 -0.5697
 6441SOL     OW30781   2.593   1.904   8.904 -0.1966  0.5964 -0.2456
 6441SOL    HW130782   2.589   1.898   8.809 -4.4641 -0.4424 -0.0196
 6441SOL    HW230783   2.552   1.989   8.921 -0.4491  0.2221  1.0454
 6442SOL     OW30784   0.921   2.472   8.916 -0.5079  0.2932 -0.5897
 6442SOL    HW130785   1.004   2.425   8.923  0.8136  2.6508 -0.3943
 6442SOL    HW230786   0.868   2.430   8.983 -0.0796 -0.3473 -0.6551
 6443SOL     OW30787   3.510   1.690  17.489  0.1649 -0.0675  0.2561
 6443SOL    HW130788   3.490   1.783  17.480 -0.3953 -0.1319  0.8881
 6443SOL    HW230789   3.427   1.652  17.462  1.3755 -3.0313  0.6330
 6444SOL     OW30790   0.351   2.088   6.069  0.4683  0.1377 -0.4639
 6444SOL    HW130791   0.288   2.111   6.137 -0.3857 -0.1733 -1.1626
 6444SOL    HW230792   0.344   2.173   6.026  0.1957 -0.7800 -2.2384
 6445SOL     OW30793   3.439   4.105  10.134  0.1016  0.2587  0.2854
 6445SOL    HW130794   3.529   4.092  10.103  0.6368  3.7927  0.3619
 6445SOL    HW230795   3.448   4.198  10.156  0.9863  0.6031 -1.5972
 6446SOL     OW30796   0.683   0.971   8.527 -0.4114  0.4160 -0.2468
 6446SOL    HW130797   0.756   0.909   8.524 -1.1008 -0.3173 -1.7334
 6446SOL    HW230798   0.674   0.992   8.620 -1.4657 -0.0418 -0.2453
 6447SOL     OW30799   3.908   2.833   2.703 -0.5598  1.3737  0.3140
 6447SOL    HW130800   3.874   2.744   2.691  0.8301  0.6460  1.8119
 6447SOL    HW230801   3.941   2.841   2.614  1.5734 -1.0787  0.8607
 6448SOL     OW30802   2.868   0.357  10.872 -0.6838 -0.1928 -0.1778
 6448SOL    HW130803   2.836   0.314  10.793  3.6264 -3.6088 -0.0473
 6448SOL    HW230804   2.820   0.438  10.855  1.4396  1.2822  0.8734
 6449SOL     OW30805   1.859   4.264  15.763 -0.2037 -0.2061  0.2928
 6449SOL    HW130806   1.813   4.189  15.726 -0.1158 -0.5065  0.7880
 6449SOL    HW230807   1.947   4.250  15.731 -0.3084 -1.7135  0.6641
 6450SOL     OW30808   3.262   4.709  13.430  0.3526 -0.5016  0.6519
 6450SOL    HW130809   3.317   0.020  13.362 -0.8129 -1.0926 -0.6250
 6450SOL    HW230810   3.174   0.006  13.401  0.7221  2.0641  1.7173
 6451SOL     OW30811   1.159   3.500   0.550  0.0158 -0.6801 -0.1205
 6451SOL    HW130812   1.193   3.574   0.600 -0.7376 -1.2280  1.2037
 6451SOL    HW230813   1.209   3.513   0.469  0.0567 -0.4348 -0.0535
 6452SOL     OW30814   4.191   1.414   2.759 -0.3028 -0.0852 -0.1009
 6452SOL    HW130815   4.185   1.319   2.751 -1.3397  0.0467 -0.8798
 6452SOL    HW230816   4.267   1.418   2.817 -1.6259  1.5574  1.5261
 6453SOL     OW30817   2.732   4.489   6.981 -0.1096  0.1316 -0.8205
 6453SOL    HW130818   2.677   4.460   6.908 -0.5368 -1.4364  0.1278
 6453SOL    HW230819   2.764   4.572   6.946 -0.7959  0.4802 -0.6288
 6454SOL     OW30820   2.441   4.410   8.734 -0.2254  0.5712 -0.8441
 6454SOL    HW130821   2.391   4.384   8.657 -1.6338 -2.3528  1.0627
 6454SOL    HW230822   2.377   4.413   8.806 -0.5779 -1.7184 -1.0587
 6455SOL     OW30823   0.045   4.111   2.263 -0.0577 -1.0233  0.1623
 6455SOL    HW130824   0.079   4.115   2.353 -0.0957  1.3752  0.0702
 6455SOL    HW230825   0.020   4.203   2.255 -0.4576 -1.1403  0.0720
 6456SOL     OW30826   1.691   2.013   5.518  0.1180 -0.4802  0.2080
 6456SOL    HW130827   1.632   2.087   5.531 -0.6475 -0.9195 -0.7573
 6456SOL    HW230828   1.665   1.957   5.591 -1.2524 -1.0810 -0.7644
 6457SOL     OW30829   1.665   3.525   3.031  0.1450 -0.1512 -0.3247
 6457SOL    HW130830   1.608   3.529   2.954 -1.9422 -2.4117  1.0933
 6457SOL    HW230831   1.748   3.529   2.984  0.2650  0.3401 -0.0707
 6458SOL     OW30832   2.861   1.608   8.675  0.1378 -0.1382 -0.4680
 6458SOL    HW130833   2.819   1.574   8.754  2.0827  0.2531  0.7211
 6458SOL    HW230834   2.887   1.526   8.633  0.7253 -1.1907  1.9491
 6459SOL     OW30835   1.263   0.987  17.604 -0.6602 -0.0594 -0.3133
 6459SOL    HW130836   1.195   1.041  17.563 -0.6805  0.2378  0.1073
 6459SOL    HW230837   1.256   0.912  17.544  2.5764  0.6597 -1.5799
 6460SOL     OW30838   0.912   4.558  16.485 -0.0713 -0.1585  0.0977
 6460SOL    HW130839   0.944   4.583  16.571  0.9568  0.3833 -0.4361
 6460SOL    HW230840   0.966   4.481  16.468 -0.6086 -0.8277  1.4333
 6461SOL     OW30841   0.815   0.256   2.307  0.9104 -0.0894 -0.4141
 6461SOL    HW130842   0.760   0.204   2.250 -1.4647  0.7276  1.1381
 6461SOL    HW230843   0.762   0.333   2.330  0.1175 -0.4488 -1.0658
 6462SOL     OW30844   0.655   2.466   7.937 -0.6962  0.2297 -0.1564
 6462SOL    HW130845   0.646   2.535   7.871  1.9469  1.4764  0.7856
 6462SOL    HW230846   0.582   2.486   7.995  1.7058 -0.8450  3.2018
 6463SOL     OW30847   0.727   4.675  17.145  0.3523 -0.2071  0.0770
 6463SOL    HW130848   0.649   4.647  17.193 -0.1764  0.4768 -0.3816
 6463SOL    HW230849   0.687   0.024  17.104 -2.6738 -1.8278  0.0293
 6464SOL     OW30850   0.876   2.084  14.136 -0.5047  0.2976 -0.3367
 6464SOL    HW130851   0.906   2.016  14.075  2.4805 -0.8979  2.4888
 6464SOL    HW230852   0.838   2.046  14.215 -0.3788 -1.1299 -0.9678
 6465SOL     OW30853   1.152   4.180   5.336  0.5193  0.1159  0.0197
 6465SOL    HW130854   1.077   4.121   5.330  2.5976 -2.4485 -0.6050
 6465SOL    HW230855   1.213   4.110   5.313 -0.8249 -0.5629 -1.4478
 6466SOL     OW30856   1.269   3.205  11.003  0.7254  0.4571  0.0275
 6466SOL    HW130857   1.329   3.187  10.931  1.1638  0.6935  0.3318
 6466SOL    HW230858   1.195   3.145  10.992 -1.0815  2.4337  1.2820
 6467SOL     OW30859   0.688   4.548  14.814  0.2765  0.1275 -0.0915
 6467SOL    HW130860   0.666   4.525  14.905 -0.3987  1.1810  0.0163
 6467SOL    HW230861   0.681   4.643  14.816  1.8913  0.2433 -0.3434
 6468SOL     OW30862   0.967   1.554   3.990  0.0928  0.0244  0.0576
 6468SOL    HW130863   0.916   1.489   4.037  2.9112 -1.5996  0.8612
 6468SOL    HW230864   1.057   1.523   3.999 -0.0220 -0.3194  0.0087
 6469SOL     OW30865   1.654   4.554  15.659  0.8603 -0.6670 -0.4063
 6469SOL    HW130866   1.685   4.513  15.740  3.0644  0.9512 -0.4202
 6469SOL    HW230867   1.573   4.592  15.693  3.5116  3.5786  1.1980
 6470SOL     OW30868   1.381   2.239  17.620 -0.3199  0.7053 -0.0318
 6470SOL    HW130869   1.370   2.330  17.593 -0.7927  0.6433 -0.0481
 6470SOL    HW230870   1.468   2.215  17.587  0.5801  1.4594  1.7662
 6471SOL     OW30871   2.183   1.193   7.170  0.1238  0.8171 -0.3342
 6471SOL    HW130872   2.206   1.269   7.223  1.3475  0.7978 -0.8380
 6471SOL    HW230873   2.114   1.157   7.227  1.2830  0.6484  0.9516
 6472SOL     OW30874   2.074   0.220   8.486 -0.7706  0.1810 -0.4080
 6472SOL    HW130875   2.038   0.176   8.564  0.6226  1.8517  1.1834
 6472SOL    HW230876   2.058   0.311   8.509  0.0406  0.7826 -2.2647
 6473SOL     OW30877   3.073   4.487  11.704 -0.2197 -0.3285  0.2758
 6473SOL    HW130878   3.071   4.525  11.617  2.5603 -2.6456 -0.7857
 6473SOL    HW230879   3.065   4.562  11.764  1.7129  0.4645 -0.4406
 6474SOL     OW30880   3.204   2.343   8.409  0.2265 -0.0453 -0.1926
 6474SOL    HW130881   3.200   2.432   8.373 -0.7276 -0.5271 -1.2685
 6474SOL    HW230882   3.233   2.295   8.331  3.4675 -1.0063  1.6163
 6475SOL     OW30883   4.324   2.474  13.210 -0.2909 -0.4319  0.2100
 6475SOL    HW130884   4.249   2.531  13.228  0.9933  1.6387 -0.9952
 6475SOL    HW230885   4.333   2.436  13.298 -2.6811 -0.5475  0.4093
 6476SOL     OW30886   4.385   1.584   7.847 -0.2531  0.0450 -0.7408
 6476SOL    HW130887   4.415   1.541   7.767  0.2615  1.0653 -1.0865
 6476SOL    HW230888   4.343   1.516   7.901  3.0380 -1.5631 -0.1829
 6477SOL     OW30889   4.094   2.414   2.493 -0.0533 -0.9749 -0.4998
 6477SOL    HW130890   4.063   2.404   2.403  0.8426  0.1156 -0.9285
 6477SOL    HW230891   4.019   2.457   2.534 -0.7230 -2.5322 -0.0965
 6478SOL     OW30892   0.028   4.605  17.112  0.2320 -0.0491 -0.1399
 6478SOL    HW130893   0.110   4.577  17.072  0.2903  0.5862 -0.4722
 6478SOL    HW230894   4.709   4.656  17.045 -0.3155  2.1918  1.9504
 6479SOL     OW30895   3.305   2.504   4.039  0.2976  0.3831  0.2561
 6479SOL    HW130896   3.353   2.432   4.078 -1.5486 -0.5547  0.8282
 6479SOL    HW230897   3.368   2.526   3.971 -0.1804 -3.1608 -1.3438
 6480SOL     OW30898   3.144   1.434  14.703 -0.5160 -0.5614  0.6307
 6480SOL    HW130899   3.202   1.368  14.741 -2.2017 -1.9004  0.8645
 6480SOL    HW230900   3.191   1.453  14.622 -1.9285 -3.6747 -0.9079
 6481SOL     OW30901   2.335   0.451   1.503 -0.2158 -0.2579  0.4134
 6481SOL    HW130902   2.390   0.528   1.492  1.0307 -1.0688  0.9471
 6481SOL    HW230903   2.259   0.481   1.554  0.4899 -2.8349  3.0002
 6482SOL     OW30904   3.559   2.520   5.816  0.0053 -0.0016 -0.5856
 6482SOL    HW130905   3.475   2.479   5.837  0.0441  1.3526  2.3202
 6482SOL    HW230906   3.559   2.532   5.721  1.2375  1.9661 -0.3476
 6483SOL     OW30907   3.310   3.735   8.100 -0.3851 -0.0793  0.2949
 6483SOL    HW130908   3.400   3.704   8.089 -0.3197 -0.5875  2.3667
 6483SOL    HW230909   3.315   3.791   8.177  1.5358 -3.9876  3.0697
 6484SOL     OW30910   2.174   4.662   9.151  0.2018  0.4191 -0.5974
 6484SOL    HW130911   2.248   4.654   9.211 -0.2924  0.5833  0.0315
 6484SOL    HW230912   2.107   4.696   9.211 -0.8496  1.4583 -2.3461
 6485SOL     OW30913   0.251   1.453   0.092 -0.8156  0.2174 -0.4918
 6485SOL    HW130914   0.239   1.548   0.083 -0.5365  0.4840  1.7543
 6485SOL    HW230915   0.273   1.418   0.006 -0.3127 -0.4416 -0.0970
 6486SOL     OW30916   3.082   2.502  10.039 -0.0630  0.3723  0.3266
 6486SOL    HW130917   3.160   2.517   9.985  0.7757 -2.0463  0.8542
 6486SOL    HW230918   3.097   2.413  10.072  0.3067  0.5070  0.5249
 6487SOL     OW30919   1.380   2.762  15.379  0.5951 -0.0087  0.4304
 6487SOL    HW130920   1.429   2.778  15.299 -1.0385  1.5093 -0.2570
 6487SOL    HW230921   1.458   2.765  15.435  0.1478 -0.6194  1.0872
 6488SOL     OW30922   4.167   3.803   6.707  1.0331  0.0610  0.7164
 6488SOL    HW130923   4.233   3.759   6.654  0.3967 -0.2578  0.1870
 6488SOL    HW230924   4.182   3.764   6.793  0.3346  1.2457  1.3827
 6489SOL     OW30925   4.453   0.649   5.295 -0.3967  0.2041  0.5739
 6489SOL    HW130926   4.531   0.594   5.311 -0.8863 -0.7997 -0.5064
 6489SOL    HW230927   4.387   0.596   5.339  1.3896 -0.9539  1.8967
 6490SOL     OW30928   1.233   3.276   9.114 -0.1098  0.3237  0.3674
 6490SOL    HW130929   1.205   3.349   9.058  2.7534  0.8295 -0.3894
 6490SOL    HW230930   1.258   3.322   9.194  0.7334  0.9458 -0.2493
 6491SOL     OW30931   2.800   0.413   6.636  0.4510  0.2252 -0.4877
 6491SOL    HW130932   2.749   0.430   6.557  0.6725 -1.0643 -0.9074
 6491SOL    HW230933   2.850   0.493   6.648  1.2948 -0.1203 -1.6411
 6492SOL     OW30934   1.096   3.494   8.554 -1.3538  0.0764  0.0888
 6492SOL    HW130935   1.065   3.578   8.521 -0.5014 -0.8939 -3.1538
 6492SOL    HW230936   1.149   3.530   8.626  1.3955  0.3199 -2.0548
 6493SOL     OW30937   3.570   1.973  11.841 -0.8781 -0.2028 -0.0518
 6493SOL    HW130938   3.659   1.939  11.852 -0.8634 -0.2265 -0.2405
 6493SOL    HW230939   3.533   1.911  11.778  1.6310 -2.0567  0.2898
 6494SOL     OW30940   1.158   4.317   7.408  0.6816  0.7641 -0.2256
 6494SOL    HW130941   1.165   4.290   7.499  1.4641 -1.3289 -0.9137
 6494SOL    HW230942   1.215   4.256   7.361  1.3650 -0.3910  2.1113
 6495SOL     OW30943   4.662   2.417   5.410  0.2830  0.7810 -0.5553
 6495SOL    HW130944   4.677   2.357   5.336 -1.1602  0.2718 -0.4285
 6495SOL    HW230945   4.579   2.378   5.438  0.6549 -0.2661 -0.9187
 6496SOL     OW30946   1.323   0.620   7.577 -0.1594  0.1183  0.1404
 6496SOL    HW130947   1.363   0.613   7.663  0.3473  1.6393  0.0261
 6496SOL    HW230948   1.236   0.655   7.601  0.8901  3.2884 -0.6785
 6497SOL     OW30949   4.720   0.300   4.644  0.1047 -0.1800  0.2032
 6497SOL    HW130950   0.070   0.318   4.593  0.0796  3.7477  1.5568
 6497SOL    HW230951   4.716   0.377   4.701 -0.0139 -1.0596  1.3978
 6498SOL     OW30952   1.113   0.987  11.504  0.4276 -0.2870 -0.1444
 6498SOL    HW130953   1.027   1.021  11.479  0.8221  1.3931  0.7612
 6498SOL    HW230954   1.097   0.896  11.530  0.6623 -0.0821  0.7384
 6499SOL     OW30955   3.864   2.136   2.033 -0.0471 -0.3624  0.4374
 6499SOL    HW130956   3.899   2.222   2.009 -1.8691  0.5312  1.0329
 6499SOL    HW230957   3.780   2.128   1.987  0.4304 -0.7121 -0.3779
 6500SOL     OW30958   4.481   1.677   2.712 -0.4098 -0.0909 -0.0480
 6500SOL    HW130959   4.458   1.656   2.621 -1.6925  2.4140 -0.3025
 6500SOL    HW230960   4.483   1.773   2.713 -1.3006 -0.0730 -0.0870
 6501SOL     OW30961   0.832   0.114   5.031 -0.8403 -0.4630  0.0674
 6501SOL    HW130962   0.767   0.104   5.101  1.2953  0.3582  2.1960
 6501SOL    HW230963   0.793   0.176   4.970 -2.1473 -0.8457  0.5165
 6502SOL     OW30964   1.789   0.808   1.466  0.3644  0.3496 -0.2589
 6502SOL    HW130965   1.762   0.855   1.387  2.1422  0.5225 -0.7711
 6502SOL    HW230966   1.865   0.753   1.444  1.5176  1.4250  1.0473
 6503SOL     OW30967   4.653   2.596   2.246 -0.3560 -0.4045 -0.1694
 6503SOL    HW130968   4.660   2.692   2.254  0.5350 -0.5168  0.4312
 6503SOL    HW230969   4.604   2.582   2.165  1.9553 -0.1347 -1.6159
 6504SOL     OW30970   4.160   3.506   7.859 -0.1033  0.4429 -1.0933
 6504SOL    HW130971   4.240   3.492   7.807  1.9370 -0.7196  2.3617
 6504SOL    HW230972   4.151   3.601   7.849  1.7834  0.8466  1.0095
 6505SOL     OW30973   3.750   0.676   1.918 -0.2247  0.8630 -0.3498
 6505SOL    HW130974   3.706   0.628   1.988  0.8774  2.2594  1.3159
 6505SOL    HW230975   3.839   0.689   1.952 -0.1650 -2.1396  0.6502
 6506SOL     OW30976   2.538   2.070  13.400  0.2833  0.3365  0.3589
 6506SOL    HW130977   2.555   2.119  13.481  2.8081  1.0139 -0.5542
 6506SOL    HW230978   2.618   2.091  13.352 -1.3114 -0.3556 -2.5770
 6507SOL     OW30979   2.370   3.206   2.761 -0.7843 -0.4095  0.1112
 6507SOL    HW130980   2.375   3.122   2.807  1.2436 -0.3480 -0.0226
 6507SOL    HW230981   2.297   3.253   2.802  0.5382  0.8900  0.9887
 6508SOL     OW30982   3.919   1.969   4.214 -0.4413  0.3443  0.2236
 6508SOL    HW130983   3.871   1.887   4.202 -0.5191  0.4003  0.1399
 6508SOL    HW230984   3.992   1.955   4.154 -1.7277  0.6275 -1.4344
 6509SOL     OW30985   0.607   4.131   0.297  0.3854  0.0559  0.0488
 6509SOL    HW130986   0.535   4.096   0.246 -0.3822  0.2838  0.9660
 6509SOL    HW230987   0.632   4.054   0.348  1.3237 -0.8743 -1.8423
 6510SOL     OW30988   1.023   4.467   8.260  0.9440  0.4078 -0.2654
 6510SOL    HW130989   1.086   4.532   8.293  1.2488  0.2531 -0.5386
 6510SOL    HW230990   0.939   4.499   8.291  1.3738  0.0070  1.3018
 6511SOL     OW30991   2.225   4.010   9.448  0.1184 -0.2319  0.5196
 6511SOL    HW130992   2.315   4.043   9.453 -0.1815  0.8478 -1.2083
 6511SOL    HW230993   2.237   3.936   9.508 -2.2965 -1.5116 -0.5893
 6512SOL     OW30994   1.306   2.200   1.083  0.1177  0.1669 -0.1529
 6512SOL    HW130995   1.283   2.227   0.994  0.7537 -1.2840 -0.7640
 6512SOL    HW230996   1.390   2.245   1.090  0.2516 -0.2775  1.0132
 6513SOL     OW30997   3.336   4.613   2.946 -0.1375  0.4976  0.3276
 6513SOL    HW130998   3.322   4.639   3.037 -2.7080 -0.6543  0.2437
 6513SOL    HW230999   3.364   4.523   2.960 -2.2639 -0.4121 -1.4559
 6514SOL     OW31000   2.604   1.931   5.979  0.0439  0.0598  0.4388
 6514SOL    HW131001   2.567   1.854   5.935  0.2229  0.8511 -1.1008
 6514SOL    HW231002   2.538   1.995   5.953 -1.0130 -1.0096  0.4398
 6515SOL     OW31003   4.090   1.676  17.429  0.1563 -0.4120  0.4232
 6515SOL    HW131004   4.041   1.747  17.471 -0.7824  0.2989 -1.8941
 6515SOL    HW231005   4.177   1.717  17.431  0.1755 -0.3850 -1.3982
 6516SOL     OW31006   0.234   3.281   6.831  0.3772 -0.2193  0.4827
 6516SOL    HW131007   0.262   3.367   6.863  0.2457  0.7780 -2.0586
 6516SOL    HW231008   0.232   3.222   6.906  0.0328  1.9058  2.1318
 6517SOL     OW31009   4.091   1.750   5.568  0.6311  0.1846  0.1164
 6517SOL    HW131010   4.019   1.725   5.626 -1.3757 -0.9661 -2.8963
 6517SOL    HW231011   4.166   1.757   5.627  0.5115  0.8702  0.1811
 6518SOL     OW31012   4.518   2.216   1.646  0.3570  0.0604  0.5477
 6518SOL    HW131013   4.426   2.201   1.664  0.0366  4.5166  2.5531
 6518SOL    HW231014   4.521   2.239   1.553 -3.5741 -0.3766  0.3405
 6519SOL     OW31015   4.641   2.492   8.739 -0.3350  0.3486  0.2252
 6519SOL    HW131016   4.610   2.531   8.657 -1.3641  0.9596  0.9027
 6519SOL    HW231017   4.562   2.497   8.793 -0.4931  0.5883 -0.0258
 6520SOL     OW31018   2.478   4.728  13.916  0.0458  0.1397  0.9300
 6520SOL    HW131019   2.465   0.050  13.997 -1.0592 -1.4795  1.7588
 6520SOL    HW231020   2.545   0.059  13.883 -0.8030  0.8165  0.4055
 6521SOL     OW31021   2.360   3.017   2.150  0.1639 -0.5794  0.4153
 6521SOL    HW131022   2.303   3.093   2.139 -2.2888 -2.4911 -0.0019
 6521SOL    HW231023   2.343   2.958   2.076  2.1806 -1.3913  0.6074
 6522SOL     OW31024   1.186   3.251   1.384  0.1375  0.1465 -0.0547
 6522SOL    HW131025   1.182   3.315   1.314 -1.0361 -1.5021 -1.4917
 6522SOL    HW231026   1.222   3.301   1.457 -0.9373 -0.4924  0.9121
 6523SOL     OW31027   4.064   4.509   2.356 -0.2828 -0.7099 -0.3355
 6523SOL    HW131028   3.998   4.460   2.307 -1.1222 -1.3165  1.4128
 6523SOL    HW231029   4.144   4.473   2.320  0.7763 -0.8655  2.1759
 6524SOL     OW31030   4.107   2.063   2.939  0.1798 -0.0518  0.0782
 6524SOL    HW131031   4.136   2.104   2.858  0.4519  0.7164  0.5596
 6524SOL    HW231032   4.047   2.133   2.966  0.9035  1.3512 -1.9839
 6525SOL     OW31033   1.661   3.946   2.576 -0.3940 -0.3646 -0.3325
 6525SOL    HW131034   1.570   3.925   2.555 -0.0019 -0.3991 -1.9412
 6525SOL    HW231035   1.702   3.961   2.491  0.2959  0.2442  0.1080
 6526SOL     OW31036   1.003   0.963  14.780  0.6778 -0.3390 -0.2955
 6526SOL    HW131037   1.035   1.033  14.723  2.4239 -0.3007  0.7324
 6526SOL    HW231038   0.952   0.907  14.721 -0.6801  2.5438 -1.8617
 6527SOL     OW31039   1.720   0.504   2.070  0.2451 -0.2607  0.2630
 6527SOL    HW131040   1.752   0.594   2.063  1.7703 -0.8350 -0.1614
 6527SOL    HW231041   1.676   0.499   2.155  1.4958  0.9988  0.9949
 6528SOL     OW31042   3.686   3.154   3.883  0.0702 -0.0630  0.0958
 6528SOL    HW131043   3.649   3.167   3.795  0.9920  0.7620 -0.1701
 6528SOL    HW231044   3.609   3.167   3.938  2.1321  1.3684  2.6059
 6529SOL     OW31045   2.336   1.409   3.922  0.0730  0.1300  0.0961
 6529SOL    HW131046   2.272   1.458   3.870 -0.5878 -2.0797 -1.1674
 6529SOL    HW231047   2.362   1.347   3.854  0.2350  0.1546  0.1373
 6530SOL     OW31048   1.648   0.650  10.909 -0.2945  0.2144 -0.1446
 6530SOL    HW131049   1.616   0.734  10.874  2.3480  0.8287 -1.1477
 6530SOL    HW231050   1.739   0.674  10.926  0.2756 -1.4515 -0.8535
 6531SOL     OW31051   4.322   2.222   8.744  0.2071 -0.3344  0.2973
 6531SOL    HW131052   4.328   2.282   8.818  1.5085 -0.0270 -0.0613
 6531SOL    HW231053   4.343   2.135   8.778 -0.8008 -1.7138 -2.5819
 6532SOL     OW31054   2.799   3.424  10.119  0.3100 -0.0926 -0.1822
 6532SOL    HW131055   2.752   3.501  10.152 -0.6485 -1.2555  1.1873
 6532SOL    HW231056   2.735   3.359  10.150 -0.7682  1.5361  1.0276
 6533SOL     OW31057   3.437   4.423   8.823  0.5774  0.0905  0.4400
 6533SOL    HW131058   3.424   4.511   8.858  1.6498 -0.2280  1.6655
 6533SOL    HW231059   3.523   4.435   8.783  0.9867 -1.0821  0.9729
 6534SOL     OW31060   0.054   3.250   5.467  0.5058  0.2057  0.2614
 6534SOL    HW131061   0.009   3.275   5.387  0.2901 -1.2362 -0.0521
 6534SOL    HW231062   0.145   3.232   5.443 -0.2409  0.1733 -2.5211
 6535SOL     OW31063   0.907   4.498   4.924 -0.7082 -0.2646 -0.0812
 6535SOL    HW131064   0.972   4.547   4.874  0.4152 -1.9331 -0.2635
 6535SOL    HW231065   0.880   4.433   4.858 -2.1938  1.2842 -1.0166
 6536SOL     OW31066   4.081   1.368   1.346 -0.7358  0.2198  0.0639
 6536SOL    HW131067   4.169   1.402   1.360  0.8633 -2.5193 -3.4923
 6536SOL    HW231068   4.029   1.428   1.400  1.6243  1.1552  1.2964
 6537SOL     OW31069   1.098   2.571  11.641 -0.1340  0.3789  0.5719
 6537SOL    HW131070   1.043   2.552  11.565 -0.8086 -0.2246  1.2081
 6537SOL    HW231071   1.170   2.624  11.607 -1.3898 -1.2336 -4.5325
 6538SOL     OW31072   2.180   0.141  11.721 -0.1175  0.6199 -0.0118
 6538SOL    HW131073   2.266   0.180  11.742 -0.8079  0.9551  2.2410
 6538SOL    HW231074   2.136   0.200  11.661 -0.0255  0.5780 -0.1196
 6539SOL     OW31075   2.725   0.522  13.217 -0.1252 -0.8964 -0.2547
 6539SOL    HW131076   2.640   0.566  13.220  1.0016  1.1712  1.5468
 6539SOL    HW231077   2.746   0.525  13.124 -0.0110  1.6690 -0.1422
 6540SOL     OW31078   4.346   1.323   5.580  0.2864  0.0527 -0.4287
 6540SOL    HW131079   4.251   1.326   5.582  0.3032  0.2019  0.0217
 6540SOL    HW231080   4.358   1.236   5.620  2.3742  0.1744 -0.7984
 6541SOL     OW31081   2.860   0.425   3.363 -0.3241  0.1253 -0.2298
 6541SOL    HW131082   2.884   0.489   3.296  1.7010  0.0254  0.4164
 6541SOL    HW231083   2.917   0.461   3.431 -1.0407 -0.7163  0.8153
 6542SOL     OW31084   1.488   0.274   3.787 -0.3575 -0.0015  0.1431
 6542SOL    HW131085   1.432   0.349   3.808 -0.5440 -0.2992  0.6971
 6542SOL    HW231086   1.423   0.204   3.782  0.5308 -0.9309  1.7109
 6543SOL     OW31087   1.350   3.765   3.409 -0.2099  0.1486 -0.1740
 6543SOL    HW131088   1.351   3.860   3.418  2.3592  0.1691 -0.7741
 6543SOL    HW231089   1.350   3.749   3.315  3.7027  2.4691 -0.5414
 6544SOL     OW31090   0.769   3.056   3.810  0.5553 -0.4827 -0.4314
 6544SOL    HW131091   0.780   3.128   3.749  1.3339 -0.2778 -0.0479
 6544SOL    HW231092   0.689   3.021   3.770  1.0647 -0.1258 -1.7666
 6545SOL     OW31093   3.426   0.137  17.322 -0.1807 -0.3430  0.1216
 6545SOL    HW131094   3.423   0.231  17.341 -0.5522 -0.4437  0.5652
 6545SOL    HW231095   3.493   0.105  17.383 -0.3704 -0.9352  0.0190
 6546SOL     OW31096   1.622   0.053   7.845 -0.3403 -0.3256 -0.1682
 6546SOL    HW131097   1.599   0.121   7.781 -1.5462 -0.2198  0.3714
 6546SOL    HW231098   1.707   0.088   7.872  0.1118  0.6922 -2.9235
 6547SOL     OW31099   2.936   4.146   9.003  0.3178  0.1145  0.9125
 6547SOL    HW131100   2.865   4.209   9.006  1.3627  1.1702  2.9038
 6547SOL    HW231101   2.912   4.095   8.925  0.8642  0.4729  0.5149
 6548SOL     OW31102   1.538   4.001   9.621 -0.1812  0.2461  0.0533
 6548SOL    HW131103   1.504   4.083   9.584 -1.3884 -0.1602  0.2764
 6548SOL    HW231104   1.458   3.948   9.618 -0.1342  0.0504  2.3251
 6549SOL     OW31105   1.941   4.111   2.112 -0.0696 -0.3334 -0.2750
 6549SOL    HW131106   1.955   4.017   2.099 -0.6431 -0.6937  1.6329
 6549SOL    HW231107   1.983   4.122   2.198 -1.5407  2.4049  0.1023
 6550SOL     OW31108   2.091   3.321  12.418  0.3666  0.3826  0.5526
 6550SOL    HW131109   2.069   3.414  12.424  1.5978  0.6551  0.6926
 6550SOL    HW231110   2.149   3.329  12.342  0.5555  0.5886  0.7219
 6551SOL     OW31111   3.578   1.502   8.069  0.4057 -0.4565 -0.3733
 6551SOL    HW131112   3.565   1.580   8.123 -0.5225 -0.7928 -0.0979
 6551SOL    HW231113   3.581   1.538   7.981 -0.4933  0.8925  0.1492
 6552SOL     OW31114   2.388   4.158   5.520 -0.5420  0.0394  0.3931
 6552SOL    HW131115   2.363   4.249   5.507 -0.7154  0.0064  0.4878
 6552SOL    HW231116   2.313   4.123   5.471  1.1694  1.0161 -2.8730
 6553SOL     OW31117   3.766   4.596   3.847  0.6273  0.2245  0.0057
 6553SOL    HW131118   3.849   4.614   3.804  1.0688 -0.5721  0.5230
 6553SOL    HW231119   3.707   4.611   3.773  1.0070 -0.6518 -0.4711
 6554SOL     OW31120   3.192   4.434   4.104 -0.0962 -0.4367 -0.3313
 6554SOL    HW131121   3.122   4.426   4.039 -0.1690  1.4961 -0.4871
 6554SOL    HW231122   3.269   4.422   4.048 -1.3693  0.1204 -2.2154
 6555SOL     OW31123   1.068   2.495  15.521 -0.0780  0.8214  0.1170
 6555SOL    HW131124   1.015   2.417  15.507 -1.2719  1.3888  1.4824
 6555SOL    HW231125   1.054   2.503  15.616  0.8236  0.4276  0.2767
 6556SOL     OW31126   1.372   3.695   9.441  0.5702 -0.2815 -0.3283
 6556SOL    HW131127   1.437   3.705   9.371 -1.2034  0.8046 -1.7910
 6556SOL    HW231128   1.296   3.665   9.391 -1.2812  0.1778  2.2345
 6557SOL     OW31129   4.270   2.506   7.905  0.2084 -0.3979 -0.2286
 6557SOL    HW131130   4.200   2.568   7.923 -0.1388 -0.7540 -0.3369
 6557SOL    HW231131   4.306   2.532   7.820  1.9127  0.1816  0.6672
 6558SOL     OW31132   4.094   3.392   4.636  0.0592  0.2530 -0.2180
 6558SOL    HW131133   4.039   3.371   4.561 -0.2295  0.4423 -0.0620
 6558SOL    HW231134   4.153   3.317   4.629 -0.0773  0.0276  0.9930
 6559SOL     OW31135   1.659   0.877  13.596 -0.0792 -0.0317  0.5368
 6559SOL    HW131136   1.715   0.920  13.532  2.2671 -0.8935  2.0343
 6559SOL    HW231137   1.701   0.900  13.679 -1.3660  2.4946  0.5153
 6560SOL     OW31138   3.822   2.963   8.124  0.1233 -0.2095  0.2815
 6560SOL    HW131139   3.799   2.966   8.217 -0.0332 -1.6758  0.2920
 6560SOL    HW231140   3.760   3.023   8.082  0.4634  1.2596  1.8810
 6561SOL     OW31141   0.954   2.062   1.070  0.1400  0.2037  0.0152
 6561SOL    HW131142   1.015   2.087   1.139 -0.1369 -1.1453  0.7533
 6561SOL    HW231143   1.008   1.999   1.022  1.2259  0.1074  1.3622
 6562SOL     OW31144   1.354   3.323   4.046  0.4753 -0.1965 -0.2948
 6562SOL    HW131145   1.263   3.297   4.059  0.7881 -0.6521  0.9113
 6562SOL    HW231146   1.374   3.284   3.961  0.3152 -1.2021  0.1298
 6563SOL     OW31147   3.808   1.248   4.298 -0.0391 -0.2860 -0.5691
 6563SOL    HW131148   3.861   1.317   4.339 -0.0287 -0.5125 -0.2010
 6563SOL    HW231149   3.881   1.193   4.269  1.6856  1.1617  1.0141
 6564SOL     OW31150   4.378   4.487   1.760  0.0363 -0.0664  0.3990
 6564SOL    HW131151   4.368   4.415   1.822 -0.6072  0.4711  0.9234
 6564SOL    HW231152   4.290   4.473   1.726  0.2801  0.4971 -0.4706
 6565SOL     OW31153   4.599   1.068   2.466  0.0508 -0.0965  0.3472
 6565SOL    HW131154   4.587   0.992   2.408  0.9440  1.5230 -1.9294
 6565SOL    HW231155   4.560   1.143   2.422 -0.2659 -0.2786  0.3130
 6566SOL     OW31156   3.923   4.694   5.482 -0.5199 -0.0473  0.3927
 6566SOL    HW131157   3.935   0.015   5.563  1.3394  0.9482 -0.4918
 6566SOL    HW231158   3.872   4.616   5.507 -0.6783 -0.3730 -0.9531
 6567SOL     OW31159   4.528   0.902   2.958 -0.2531  0.0725 -0.1400
 6567SOL    HW131160   4.546   0.988   2.996 -0.8403  0.1245  0.0162
 6567SOL    HW231161   4.520   0.849   3.037  2.6976  0.2197  0.2476
 6568SOL     OW31162   3.845   3.724   2.177  0.1123 -0.4516 -0.3160
 6568SOL    HW131163   3.763   3.686   2.145 -0.8072  2.0345 -0.9073
 6568SOL    HW231164   3.844   3.819   2.162  1.1787 -0.3546  0.2255
 6569SOL     OW31165   3.697   3.938   6.843  0.0877  0.0410 -0.2950
 6569SOL    HW131166   3.695   3.849   6.809  1.6002 -0.1776  0.1491
 6569SOL    HW231167   3.787   3.941   6.876  0.7688 -1.9401 -2.0112
 6570SOL     OW31168   0.479   0.879   4.862 -0.7982  0.0832  0.1425
 6570SOL    HW131169   0.420   0.932   4.914 -0.2987  0.1689  0.6163
 6570SOL    HW231170   0.553   0.937   4.841 -0.4053 -0.6215 -0.4365
 6571SOL     OW31171   1.394   1.922   7.936 -0.3706 -0.8193  0.2913
 6571SOL    HW131172   1.480   1.954   7.960 -1.4207  2.9135 -0.9142
 6571SOL    HW231173   1.348   1.899   8.017 -1.8703  4.3021  0.9180
 6572SOL     OW31174   1.811   3.229   3.863 -0.3580 -0.4504  0.4368
 6572SOL    HW131175   1.849   3.285   3.931  0.3488 -0.8389  0.3653
 6572SOL    HW231176   1.866   3.250   3.787 -0.9071 -0.5084  0.0258
 6573SOL     OW31177   1.569   2.648  13.654 -0.3017 -0.0841 -0.3559
 6573SOL    HW131178   1.628   2.595  13.600  2.2352  0.4947  1.8439
 6573SOL    HW231179   1.500   2.657  13.589 -0.5744 -0.1282 -0.0704
 6574SOL     OW31180   2.731   0.453  13.647 -0.0438 -0.4523 -0.3996
 6574SOL    HW131181   2.664   0.502  13.600  0.6030  1.7977  0.9850
 6574SOL    HW231182   2.780   0.528  13.682  0.6861 -1.1486  0.0799
 6575SOL     OW31183   3.177   2.213   6.199  0.0503  0.5793 -0.5552
 6575SOL    HW131184   3.205   2.291   6.247  1.5985 -0.5153  0.3037
 6575SOL    HW231185   3.256   2.160   6.210  0.4355  1.6003  1.5156
 6576SOL     OW31186   3.219   0.815   3.363 -0.2093 -0.5890 -0.1808
 6576SOL    HW131187   3.304   0.810   3.405  0.1831  0.8094 -0.7927
 6576SOL    HW231188   3.230   0.903   3.325 -0.7185  0.2032  1.5170
 6577SOL     OW31189   1.291   1.224   0.093 -0.4314  0.1927 -0.5551
 6577SOL    HW131190   1.251   1.141   0.067  0.8560 -0.8868  0.8931
 6577SOL    HW231191   1.236   1.298   0.071 -0.7592  0.1335  0.0447
 6578SOL     OW31192   1.350   1.695   4.721 -0.4041 -0.4314  0.1691
 6578SOL    HW131193   1.400   1.697   4.639  1.5564  1.6070  1.4093
 6578SOL    HW231194   1.379   1.610   4.754  1.2344 -0.6050 -1.6868
 6579SOL     OW31195   4.600   3.608   9.269  0.2031  0.3740  0.5906
 6579SOL    HW131196   4.650   3.542   9.221 -0.5966 -0.2817  0.6580
 6579SOL    HW231197   4.617   3.688   9.219 -0.0403 -0.5767 -0.9851
 6580SOL     OW31198   2.327   4.352   9.426 -0.3432 -0.1894 -0.1724
 6580SOL    HW131199   2.371   4.268   9.443  0.3549 -0.0976 -1.4475
 6580SOL    HW231200   2.274   4.335   9.348  0.2737  0.5698 -0.7552
 6581SOL     OW31201   0.412   0.246   4.463 -0.2715  0.4618 -0.3751
 6581SOL    HW131202   0.413   0.176   4.398  1.1829 -0.6446  0.8184
 6581SOL    HW231203   0.474   0.298   4.413  1.9335 -2.8714 -1.1226
 6582SOL     OW31204   0.436   1.956   2.689 -0.0731  0.2105  0.5668
 6582SOL    HW131205   0.457   2.018   2.619  0.5356  0.9530  1.4226
 6582SOL    HW231206   0.363   1.915   2.643  1.3032 -1.7269  0.1032
 6583SOL     OW31207   1.011   3.583   6.970 -0.2337  0.7814 -0.0160
 6583SOL    HW131208   1.070   3.640   7.019 -1.6578  2.8650 -0.7572
 6583SOL    HW231209   0.967   3.534   7.039 -1.0074 -0.5051 -1.4087
 6584SOL     OW31210   3.022   1.863   8.058 -0.1649  0.1416  0.4243
 6584SOL    HW131211   3.106   1.872   8.104 -0.5980 -2.4681  1.7181
 6584SOL    HW231212   2.974   1.805   8.117  0.0081  0.4898  0.9095
 6585SOL     OW31213   3.671   0.945   7.607 -0.3029 -0.3229  0.2715
 6585SOL    HW131214   3.632   0.941   7.695 -1.0849 -3.1940 -0.2008
 6585SOL    HW231215   3.744   1.005   7.622  1.2222 -1.7948 -1.2766
 6586SOL     OW31216   2.413   3.545   8.701 -0.7922 -0.3424  0.0476
 6586SOL    HW131217   2.400   3.613   8.767  0.1782 -0.3352  0.2240
 6586SOL    HW231218   2.328   3.501   8.697  0.2593 -2.5175  1.5166
 6587SOL     OW31219   1.699   0.386   8.638  0.2757  0.1050 -0.2692
 6587SOL    HW131220   1.663   0.370   8.551  3.2942  0.3339 -1.5545
 6587SOL    HW231221   1.793   0.383   8.617  0.3533  1.4939 -0.0842
 6588SOL     OW31222   0.256   3.840   2.945  0.0140  0.3993  0.0243
 6588SOL    HW131223   0.179   3.885   2.979  0.1002 -0.0973  0.8819
 6588SOL    HW231224   0.225   3.750   2.948  0.1195  0.3584 -0.0884
 6589SOL     OW31225   1.982   0.571  12.043  0.3074  0.2499  0.0165
 6589SOL    HW131226   1.898   0.531  12.020  2.0362 -2.7323 -1.0212
 6589SOL    HW231227   1.987   0.631  11.969  1.3749  0.1484  0.0011
 6590SOL     OW31228   2.846   3.265  17.670  0.1074 -0.0497  0.1317
 6590SOL    HW131229   2.936   3.249  17.700 -0.2258 -0.5187  0.8689
 6590SOL    HW231230   2.837   3.182  17.625  1.6616  0.3671 -0.9631
 6591SOL     OW31231   3.316   2.355   2.053 -0.2653  0.6635 -0.2264
 6591SOL    HW131232   3.322   2.444   2.017 -1.7843  0.8520 -0.0336
 6591SOL    HW231233   3.350   2.309   1.976  0.8138  0.8470  0.1468
 6592SOL     OW31234   1.698   1.998   8.052 -0.5193 -0.2141 -0.1041
 6592SOL    HW131235   1.712   1.921   8.107  0.3551  0.8652  1.1671
 6592SOL    HW231236   1.696   1.955   7.966 -2.4225  1.7238 -1.0593
 6593SOL     OW31237   1.050   0.268   2.434 -0.4633 -0.1477  0.7395
 6593SOL    HW131238   1.011   0.286   2.520 -0.7037 -0.7454  0.7523
 6593SOL    HW231239   0.978   0.292   2.375  0.6861 -0.9774 -0.9737
 6594SOL     OW31240   4.348   0.223   4.850 -0.3255 -0.4424  0.6190
 6594SOL    HW131241   4.320   0.257   4.765  1.2045 -1.4077 -0.2528
 6594SOL    HW231242   4.281   0.154   4.854  0.2003 -0.9875 -0.1327
 6595SOL     OW31243   3.231   1.853   2.545  0.2790  0.1415 -0.0356
 6595SOL    HW131244   3.162   1.888   2.489  0.3581  0.1064 -0.1565
 6595SOL    HW231245   3.258   1.778   2.491  0.3461  1.9783 -2.5806
 6596SOL     OW31246   0.035   3.850   8.824  0.2488 -0.3688  0.1750
 6596SOL    HW131247   0.054   3.769   8.776 -1.2732  0.0933 -1.2152
 6596SOL    HW231248   0.105   3.907   8.793 -1.4518  2.0955  0.9393
 6597SOL     OW31249   3.749   3.655   5.358 -0.8191  0.5120  0.3498
 6597SOL    HW131250   3.688   3.656   5.284 -0.3070  1.5355 -0.0476
 6597SOL    HW231251   3.696   3.698   5.425  1.3289  1.6466  1.3204
 6598SOL     OW31252   3.027   4.187  11.454  0.2907 -0.5742  0.2626
 6598SOL    HW131253   3.034   4.103  11.409  0.5181  0.9470 -2.4977
 6598SOL    HW231254   3.004   4.148  11.539  0.0321 -0.8727  0.0540
 6599SOL     OW31255   1.554   3.819   4.441  0.3999  0.5430 -0.1689
 6599SOL    HW131256   1.501   3.898   4.430 -0.6577 -0.0778  0.5153
 6599SOL    HW231257   1.507   3.754   4.388 -1.6188 -0.2765  2.6227
 6600SOL     OW31258   2.647   1.548   4.944  0.5041 -0.2049  0.1367
 6600SOL    HW131259   2.737   1.569   4.970  0.9614 -3.8958  1.5591
 6600SOL    HW231260   2.669   1.509   4.860 -2.1448  2.0097 -1.5821
 6601SOL     OW31261   1.626   3.477   4.912  0.0240 -0.3347  0.8735
 6601SOL    HW131262   1.625   3.462   4.817 -0.5893 -1.0450  0.9909
 6601SOL    HW231263   1.716   3.454   4.933 -0.0870 -0.7259  0.9172
 6602SOL     OW31264   1.688   0.351   5.646 -0.8655 -0.4276 -0.0184
 6602SOL    HW131265   1.667   0.385   5.733 -1.4296  1.9985 -1.0855
 6602SOL    HW231266   1.630   0.392   5.581  1.1636  2.7195  0.1726
 6603SOL     OW31267   1.237   3.365  16.319 -0.0540  0.2539  0.0075
 6603SOL    HW131268   1.302   3.405  16.262 -1.5977  1.3183 -0.9969
 6603SOL    HW231269   1.154   3.377  16.272  0.0994  0.4850 -0.1989
 6604SOL     OW31270   3.580   1.927   3.582 -0.0147  0.0241 -0.2803
 6604SOL    HW131271   3.627   1.885   3.654  1.3973 -0.7313 -1.6416
 6604SOL    HW231272   3.580   1.851   3.524 -1.7005 -1.0703  1.1684
 6605SOL     OW31273   3.045   3.900   6.373 -0.3651 -0.0023  0.1996
 6605SOL    HW131274   3.059   3.959   6.447 -0.1890  1.5441 -1.0535
 6605SOL    HW231275   3.035   3.966   6.304  2.4024 -1.4019 -1.5490
 6606SOL     OW31276   3.409   3.009   0.542 -0.0469 -0.3877 -0.5212
 6606SOL    HW131277   3.466   3.086   0.544 -0.5886 -0.0097  0.2931
 6606SOL    HW231278   3.463   2.944   0.498 -0.6995 -1.2371 -0.0606
 6607SOL     OW31279   2.345   2.904   1.886  0.0412  0.0741  0.6007
 6607SOL    HW131280   2.334   2.987   1.840  1.2303 -2.0798 -3.5580
 6607SOL    HW231281   2.440   2.898   1.882 -0.0819 -0.5918 -1.2435
 6608SOL     OW31282   1.574   2.540   4.774 -0.3800  0.0962 -0.5735
 6608SOL    HW131283   1.668   2.520   4.765 -0.3379  0.9068 -1.8891
 6608SOL    HW231284   1.551   2.552   4.682 -1.1289 -0.2877 -0.4341
 6609SOL     OW31285   4.018   2.432  16.167 -0.2499 -0.1178 -0.5495
 6609SOL    HW131286   4.048   2.523  16.162  1.5267 -0.7651 -1.3767
 6609SOL    HW231287   3.927   2.437  16.138 -0.6368  0.1769  0.6944
 6610SOL     OW31288   4.039   0.814  10.446  0.2777  0.3300  0.2965
 6610SOL    HW131289   3.977   0.777  10.382  0.0573 -0.4837  0.9877
 6610SOL    HW231290   4.092   0.876  10.395  0.2220  1.6146  1.8267
 6611SOL     OW31291   3.845   3.839   9.588  0.0538  0.4582 -0.5249
 6611SOL    HW131292   3.782   3.911   9.576 -1.1256 -0.6522 -0.9878
 6611SOL    HW231293   3.823   3.810   9.677  0.6306  1.2128 -0.1341
 6612SOL     OW31294   3.355   1.521  10.300 -0.1076  0.0971 -0.5318
 6612SOL    HW131295   3.324   1.483  10.382  0.4891 -1.6198 -1.1041
 6612SOL    HW231296   3.381   1.608  10.329 -3.9986  0.6711  1.3278
 6613SOL     OW31297   0.248   2.239   7.797  0.0319 -0.2818  0.0464
 6613SOL    HW131298   0.214   2.309   7.852  0.0717 -1.7939  2.0272
 6613SOL    HW231299   0.342   2.259   7.793  0.1371 -0.8511 -0.3353
 6614SOL     OW31300   1.686   1.240  17.638 -0.1865  0.1135 -0.1952
 6614SOL    HW131301   1.641   1.156  17.644  0.5815 -0.1917  1.3823
 6614SOL    HW231302   1.752   1.216  17.573 -0.1427  1.5376 -0.6843
 6615SOL     OW31303   0.685   4.060  16.546  0.0434 -0.6600  0.0513
 6615SOL    HW131304   0.679   3.973  16.585 -1.5973 -1.2799 -1.5517
 6615SOL    HW231305   0.629   4.109  16.606  0.8696 -1.7178  1.6868
 6616SOL     OW31306   0.444   4.256   1.318 -0.1493  0.1614 -0.3428
 6616SOL    HW131307   0.467   4.194   1.249 -2.3615 -2.0246  0.9032
 6616SOL    HW231308   0.523   4.248   1.372 -0.3745  0.2977  0.0079
 6617SOL     OW31309   1.967   4.489   8.480 -0.6227  0.6845  0.4509
 6617SOL    HW131310   1.963   4.529   8.393 -4.2962 -0.1319  0.2681
 6617SOL    HW231311   1.880   4.457   8.501  0.1007 -1.6384 -0.0271
 6618SOL     OW31312   2.561   2.834   0.217 -0.4990 -0.6659 -0.7605
 6618SOL    HW131313   2.580   2.826   0.310 -2.2055 -0.5913 -0.4044
 6618SOL    HW231314   2.488   2.895   0.221  0.4761  0.4274  0.2746
 6619SOL     OW31315   1.426   1.016   0.559  0.0682 -0.3110 -0.3554
 6619SOL    HW131316   1.347   1.000   0.507 -1.1256  0.3544  1.2499
 6619SOL    HW231317   1.431   0.935   0.609  1.6027 -0.4055 -0.6397
 6620SOL     OW31318   3.451   1.923   9.351 -0.4272 -0.2985 -0.1187
 6620SOL    HW131319   3.520   1.874   9.395 -1.1513 -3.7168 -2.7475
 6620SOL    HW231320   3.491   1.927   9.264 -0.8809 -0.7240 -0.3462
 6621SOL     OW31321   1.913   2.228   9.554 -0.5366  0.7742 -0.2401
 6621SOL    HW131322   1.984   2.204   9.495 -1.9231 -0.6990 -1.3385
 6621SOL    HW231323   1.845   2.262   9.495 -1.5092  0.1209  0.4979
 6622SOL     OW31324   3.347   3.597   4.173 -0.5829  0.0823 -0.5811
 6622SOL    HW131325   3.404   3.656   4.124  1.3608  0.3245  1.9974
 6622SOL    HW231326   3.399   3.521   4.197  0.7072  1.0870 -0.2292
 6623SOL     OW31327   0.126   3.200   1.179 -0.4276 -0.0646 -0.0166
 6623SOL    HW131328   0.186   3.143   1.131 -0.4442 -1.5644  1.7301
 6623SOL    HW231329   0.133   3.283   1.132  1.3432  0.2655  0.8377
 6624SOL     OW31330   0.755   1.583   2.052  0.2648 -0.2174 -0.0375
 6624SOL    HW131331   0.708   1.663   2.076  1.1466  1.2321 -3.0731
 6624SOL    HW231332   0.828   1.626   2.007 -0.1411  0.8789  0.3410
 6625SOL     OW31333   4.096   3.659  15.220  0.0761  0.2128 -0.3692
 6625SOL    HW131334   4.150   3.736  15.202 -1.8169  1.3282 -1.1976
 6625SOL    HW231335   4.121   3.633  15.309  0.4284  0.0708 -0.5089
 6626SOL     OW31336   2.526   1.579   8.270  0.3533  0.1400  0.9204
 6626SOL    HW131337   2.565   1.597   8.356  1.6641 -2.2477  0.8324
 6626SOL    HW231338   2.502   1.487   8.279 -0.3363  0.2302 -0.0756
 6627SOL     OW31339   1.505   1.076   5.528 -0.1076  0.4871 -0.1925
 6627SOL    HW131340   1.447   1.121   5.590 -0.5901  0.8095 -0.8907
 6627SOL    HW231341   1.451   1.090   5.450  0.7554 -1.2413 -1.0922
 6628SOL     OW31342   1.908   1.267   4.692  0.5499  0.4226  0.6408
 6628SOL    HW131343   1.991   1.315   4.701  0.6708  0.5017 -0.9170
 6628SOL    HW231344   1.886   1.231   4.777  0.0014 -0.9075 -0.0699
 6629SOL     OW31345   3.624   0.817   4.187  0.0759  0.1521  0.1745
 6629SOL    HW131346   3.588   0.896   4.147 -0.1703 -1.1134 -2.0853
 6629SOL    HW231347   3.720   0.818   4.178  0.1528 -1.9998  0.8031
 6630SOL     OW31348   1.734   0.746   5.999 -0.1511  0.4190  0.1736
 6630SOL    HW131349   1.780   0.701   5.928  0.3330  0.9496  0.1494
 6630SOL    HW231350   1.722   0.672   6.059  0.0962  0.5310  0.3628
 6631SOL     OW31351   2.679   2.349  10.258 -0.0536  0.1607  0.2728
 6631SOL    HW131352   2.773   2.367  10.254 -0.0765  0.1003 -0.5436
 6631SOL    HW231353   2.658   2.283  10.192 -0.0249  0.0985  0.3263
 6632SOL     OW31354   0.481   0.995   2.042  0.7098 -0.3126 -0.0688
 6632SOL    HW131355   0.483   1.053   1.966  0.8488 -3.3225 -2.4006
 6632SOL    HW231356   0.483   1.063   2.109  1.2426 -0.6690  0.2834
 6633SOL     OW31357   1.331   0.526   1.581  0.4068 -0.0496 -0.6406
 6633SOL    HW131358   1.354   0.438   1.613  0.9727  0.3811  0.1424
 6633SOL    HW231359   1.321   0.504   1.488 -2.3865 -0.0107 -0.3650
 6634SOL     OW31360   0.594   4.392   2.711  0.3997  0.6075 -0.3063
 6634SOL    HW131361   0.651   4.347   2.773 -0.7450  0.5103  0.6739
 6634SOL    HW231362   0.596   4.482   2.744  0.1490  0.8627 -0.9853
 6635SOL     OW31363   1.728   4.412   3.340 -0.5650 -0.6794 -0.4125
 6635SOL    HW131364   1.648   4.361   3.329 -1.3630  0.9365 -2.2098
 6635SOL    HW231365   1.703   4.501   3.314  0.3647 -0.2207  0.2115
 6636SOL     OW31366   1.359   0.273   1.679  0.2525 -0.2204  0.2777
 6636SOL    HW131367   1.327   0.210   1.744 -0.6134  0.0028  0.0653
 6636SOL    HW231368   1.348   0.229   1.595  4.4812 -0.1727 -0.3068
 6637SOL     OW31369   3.370   0.172   7.788 -0.1230 -0.4017  0.2495
 6637SOL    HW131370   3.363   0.090   7.740  1.9598  0.5384 -1.6873
 6637SOL    HW231371   3.441   0.222   7.748 -2.3968 -0.7066 -4.1574
 6638SOL     OW31372   2.608   0.022   5.222  0.3245  0.0892 -0.1041
 6638SOL    HW131373   2.604   0.100   5.166  1.6069  0.5639  0.4637
 6638SOL    HW231374   2.537   0.035   5.285  1.1084  0.2276  0.7442
 6639SOL     OW31375   0.002   3.742   6.183  0.5743  0.1793 -0.1214
 6639SOL    HW131376   0.085   3.700   6.162 -0.2246 -1.2420 -0.4002
 6639SOL    HW231377   0.011   3.827   6.139 -0.3898 -0.6934 -2.0343
 6640SOL     OW31378   1.750   4.668   8.634  0.0265 -0.0759  0.5281
 6640SOL    HW131379   1.744   0.002   8.561  2.6817 -1.1927 -0.6149
 6640SOL    HW231380   1.661   4.634   8.632  0.1218 -0.1030 -3.1203
 6641SOL     OW31381   3.827   1.352  17.466 -0.3529  0.1427  0.1734
 6641SOL    HW131382   3.852   1.424  17.408 -0.4023 -0.2284 -0.3040
 6641SOL    HW231383   3.774   1.406  17.525 -3.0533 -1.0159 -1.1866
 6642SOL     OW31384   3.349   1.262   5.866  0.0155  0.4561 -0.3988
 6642SOL    HW131385   3.295   1.273   5.944  0.3947 -2.9687  0.3831
 6642SOL    HW231386   3.315   1.182   5.826 -0.2559  0.2169  0.2997
 6643SOL     OW31387   4.667   4.117   4.094 -0.1857 -0.6054 -0.6039
 6643SOL    HW131388   4.683   4.024   4.110  1.1254 -0.5182 -1.3467
 6643SOL    HW231389   4.607   4.108   4.020  0.2738 -1.8391 -0.8172
 6644SOL     OW31390   0.991   1.420   7.670  0.2199  0.0776 -0.2207
 6644SOL    HW131391   1.027   1.435   7.583 -1.4469  0.5463 -0.8360
 6644SOL    HW231392   0.914   1.365   7.654  0.0320  0.3446 -0.2398
 6645SOL     OW31393   3.297   2.015   1.382  0.5816 -0.2183  0.2074
 6645SOL    HW131394   3.218   1.963   1.396  1.6107 -1.1001  2.7295
 6645SOL    HW231395   3.352   1.941   1.356  0.4529 -1.3740  3.1831
 6646SOL     OW31396   0.008   4.042   5.961  0.5540 -0.4856 -0.3610
 6646SOL    HW131397   0.008   4.006   5.872  0.3952  0.7550 -0.8676
 6646SOL    HW231398   0.073   4.111   5.946  0.8731 -0.7694 -0.2762
 6647SOL     OW31399   4.377   0.501  15.534  0.2307  0.1157  0.2272
 6647SOL    HW131400   4.375   0.595  15.513 -1.0076 -0.1057 -0.6515
 6647SOL    HW231401   4.326   0.507  15.614  0.5114 -0.4002  0.4473
 6648SOL     OW31402   2.479   2.936   4.705 -0.3216  0.2233  0.8024
 6648SOL    HW131403   2.404   2.947   4.646  1.5253  0.6058 -1.4735
 6648SOL    HW231404   2.516   2.851   4.681 -0.0806  0.2615  1.0398
 6649SOL     OW31405   0.005   4.483   7.994 -0.2495  0.1031  0.1618
 6649SOL    HW131406   0.069   4.415   7.971 -1.3547 -0.7055 -0.4850
 6649SOL    HW231407   0.014   4.488   8.089 -0.2952  0.3404  0.1540
 6650SOL     OW31408   2.305   2.425  10.891  0.1541  0.0014 -0.8875
 6650SOL    HW131409   2.384   2.382  10.857  0.3871  0.3797 -0.8235
 6650SOL    HW231410   2.279   2.490  10.825 -2.8376 -1.3989 -1.1050
 6651SOL     OW31411   2.057   3.999   1.218 -0.6254  0.5955  0.2131
 6651SOL    HW131412   2.025   3.993   1.129 -1.0195  0.7449  0.3441
 6651SOL    HW231413   2.008   3.926   1.256  0.5123  1.3142  3.1331
 6652SOL     OW31414   4.405   0.347   2.106  0.6822  0.1914  0.5055
 6652SOL    HW131415   4.413   0.443   2.104  1.0083  0.0778 -2.7763
 6652SOL    HW231416   4.384   0.339   2.199  0.2595  3.7581  0.7340
 6653SOL     OW31417   2.459   3.845  15.040 -0.0346 -0.4060  0.1689
 6653SOL    HW131418   2.527   3.835  14.973 -2.5310 -0.2737 -2.3692
 6653SOL    HW231419   2.407   3.766  15.033 -3.1282  1.4012  2.7582
 6654SOL     OW31420   0.382   4.113  15.932 -0.7348  0.3150 -0.1113
 6654SOL    HW131421   0.474   4.109  15.906 -0.3678 -2.2390  1.5374
 6654SOL    HW231422   0.379   4.051  16.005 -0.4819 -1.7226 -1.8206
 6655SOL     OW31423   1.305   3.465  15.056 -0.4928  0.1938 -0.3177
 6655SOL    HW131424   1.219   3.486  15.019 -0.3946  2.5309  0.7303
 6655SOL    HW231425   1.352   3.440  14.976  2.3628 -0.2280  1.5117
 6656SOL     OW31426   0.054   0.918   5.441  0.2907 -0.8323 -0.0040
 6656SOL    HW131427   0.011   0.938   5.358  0.5098  0.7062  0.2517
 6656SOL    HW231428   0.010   0.836   5.462  1.1369 -1.4438 -0.6329
 6657SOL     OW31429   2.323   4.215  17.149 -0.1415 -0.2324 -0.2189
 6657SOL    HW131430   2.408   4.182  17.180 -0.8474 -1.7393  0.0979
 6657SOL    HW231431   2.262   4.179  17.213 -0.5473 -0.2835 -0.6334
 6658SOL     OW31432   3.765   0.706   1.206  0.8574  0.1357 -0.2339
 6658SOL    HW131433   3.697   0.758   1.164  0.0997 -0.0334  0.7706
 6658SOL    HW231434   3.722   0.626   1.238  1.1137  0.6774  1.4469
 6659SOL     OW31435   3.672   4.357   2.966  0.1351  0.1116 -0.0771
 6659SOL    HW131436   3.724   4.350   2.886 -1.5079  1.2967 -1.2486
 6659SOL    HW231437   3.720   4.293   3.018 -0.0687  0.1913  0.2087
 6660SOL     OW31438   3.613   3.564   9.016  0.0072 -0.1251  0.4952
 6660SOL    HW131439   3.698   3.530   8.987  0.0641 -1.7538  2.5881
 6660SOL    HW231440   3.637   3.614   9.094 -2.3465  1.7358  0.0276
 6661SOL     OW31441   4.661   3.808  14.944 -0.3128  0.0281 -0.2041
 6661SOL    HW131442   4.622   3.720  14.948 -1.6483  0.7501  2.3618
 6661SOL    HW231443   4.593   3.853  14.994 -1.1201  1.2189 -2.3701
 6662SOL     OW31444   2.227   4.308   7.395 -0.0076 -0.1250 -0.1757
 6662SOL    HW131445   2.285   4.384   7.403  1.1441 -1.2197  2.0619
 6662SOL    HW231446   2.166   4.334   7.326  0.3981  0.1390 -0.4309
 6663SOL     OW31447   2.048   3.570   8.389  0.0897  0.3323 -0.2038
 6663SOL    HW131448   2.133   3.533   8.366 -0.3147 -0.9601  0.4056
 6663SOL    HW231449   2.071   3.647   8.442 -0.8659  1.7082 -1.7904
 6664SOL     OW31450   0.371   0.251  17.651 -0.1493 -0.2637  0.8338
 6664SOL    HW131451   0.439   0.299  17.603  0.4992 -1.1307  0.8804
 6664SOL    HW231452   0.340   0.319  17.710  0.8298  0.9498 -0.0577
 6665SOL     OW31453   4.522   3.873   7.829 -0.6836 -0.2959 -0.2541
 6665SOL    HW131454   4.437   3.893   7.789 -1.1661  0.2778  1.0729
 6665SOL    HW231455   4.494   3.857   7.919 -0.7824  2.6106  0.2259
 6666SOL     OW31456   1.010   1.748  11.748  0.4025 -1.0299 -0.3682
 6666SOL    HW131457   0.986   1.712  11.662 -1.3163  0.7572 -0.6473
 6666SOL    HW231458   0.997   1.666  11.795 -1.6433 -0.6752 -0.3205
 6667SOL     OW31459   2.102   4.418   6.446  0.5312  0.0368 -0.1581
 6667SOL    HW131460   2.188   4.421   6.487  0.1948 -2.1140  0.6466
 6667SOL    HW231461   2.128   4.461   6.364 -0.7940 -1.3435 -1.2862
 6668SOL     OW31462   0.614   0.285   0.211 -0.0925 -0.1706  0.0916
 6668SOL    HW131463   0.521   0.265   0.200 -0.0455  1.0693 -2.4767
 6668SOL    HW231464   0.615   0.366   0.262  2.3319  1.1115 -1.9705
 6669SOL     OW31465   1.589   3.521  10.353  0.3661 -0.4579 -0.8599
 6669SOL    HW131466   1.636   3.554  10.277  1.1040 -1.5914 -0.8896
 6669SOL    HW231467   1.501   3.554  10.333  0.3950  0.4947  0.4862
 6670SOL     OW31468   2.546   4.521   7.802 -0.1829  0.2918 -0.1560
 6670SOL    HW131469   2.532   4.426   7.805 -1.0515  0.4658  1.2801
 6670SOL    HW231470   2.476   4.553   7.745  1.9655  2.8165 -1.3395
 6671SOL     OW31471   0.112   4.222   7.959  0.2216 -0.1380  0.1130
 6671SOL    HW131472   0.187   4.164   7.950 -0.2859 -0.9931  1.3081
 6671SOL    HW231473   0.054   4.193   7.889 -1.0605  3.0536 -0.1505
 6672SOL     OW31474   0.642   2.533   0.710 -0.0556  0.2878 -0.3489
 6672SOL    HW131475   0.560   2.500   0.674 -0.5607 -0.6037  1.6162
 6672SOL    HW231476   0.604   2.608   0.755 -0.1840 -0.7259  1.2288
 6673SOL     OW31477   3.733   2.578   2.746  0.6557  0.0852 -1.0341
 6673SOL    HW131478   3.758   2.586   2.654 -1.4300 -1.6978 -1.7500
 6673SOL    HW231479   3.815   2.547   2.784  0.8993  1.0136 -0.8184
 6674SOL     OW31480   1.417   0.388   5.519 -0.2904 -0.3978 -0.6400
 6674SOL    HW131481   1.405   0.381   5.425 -0.8898  2.3181 -0.7654
 6674SOL    HW231482   1.381   0.475   5.536 -0.1920 -0.4765 -0.0108
 6675SOL     OW31483   2.598   0.403   5.407 -0.2125 -0.6863 -0.7158
 6675SOL    HW131484   2.572   0.409   5.499 -1.9327  2.7289 -1.4353
 6675SOL    HW231485   2.608   0.495   5.382 -1.1996 -0.5285 -0.5506
 6676SOL     OW31486   0.493   2.046  10.341  0.1595  0.2144  0.5903
 6676SOL    HW131487   0.415   1.990  10.341 -0.9214  1.6908  0.5232
 6676SOL    HW231488   0.461   2.121  10.391 -0.7020 -0.7083  1.4348
 6677SOL     OW31489   1.434   1.540   3.287 -0.0837  0.2918  0.2205
 6677SOL    HW131490   1.494   1.492   3.230 -0.6499  0.6592 -0.6807
 6677SOL    HW231491   1.501   1.571   3.348 -1.1423 -0.6516  1.8617
 6678SOL     OW31492   0.743   4.134   4.853  0.7849  0.1757 -0.2037
 6678SOL    HW131493   0.822   4.180   4.824  1.0189  1.4064  2.4150
 6678SOL    HW231494   0.778   4.096   4.934  1.6458  1.6380  0.1014
 6679SOL     OW31495   1.875   1.287  11.729  0.4944  0.6156  0.3940
 6679SOL    HW131496   1.898   1.359  11.788  1.5508  1.4377 -1.0270
 6679SOL    HW231497   1.956   1.295  11.679  0.1255  2.9819  0.1461
 6680SOL     OW31498   1.398   3.603   4.340 -0.0041 -0.2271 -0.1287
 6680SOL    HW131499   1.439   3.569   4.260  0.5305  4.0912 -1.6458
 6680SOL    HW231500   1.392   3.521   4.390 -0.5219  2.0854  3.5382
 6681SOL     OW31501   4.458   3.223   6.897  0.1608 -0.0113 -0.4088
 6681SOL    HW131502   4.520   3.186   6.834  0.6825  0.0731  0.0458
 6681SOL    HW231503   4.521   3.223   6.970 -0.3506 -1.6668  0.0354
 6682SOL     OW31504   2.400   2.348   3.658  0.0142 -0.7337  0.6881
 6682SOL    HW131505   2.328   2.328   3.718  0.9224 -0.7730  1.7624
 6682SOL    HW231506   2.480   2.339   3.709 -0.1212 -0.8352  0.8793
 6683SOL     OW31507   0.851   0.757   4.489 -0.2989 -0.0606 -0.0964
 6683SOL    HW131508   0.858   0.830   4.551  0.1038  0.2654 -0.5277
 6683SOL    HW231509   0.927   0.704   4.513  1.8312  3.2106  0.4382
 6684SOL     OW31510   4.125   2.229   3.559  0.0235 -0.2453  0.4552
 6684SOL    HW131511   4.152   2.320   3.543 -1.2629 -0.0302 -0.4780
 6684SOL    HW231512   4.044   2.234   3.509  0.7293  0.6881 -0.5976
 6685SOL     OW31513   0.678   4.225   5.277 -0.4262 -0.0730  0.0990
 6685SOL    HW131514   0.679   4.132   5.301 -0.9754  0.1307  0.9084
 6685SOL    HW231515   0.769   4.224   5.248 -0.3273  0.5728  0.3964
 6686SOL     OW31516   0.645   1.129   0.475  0.0615 -0.5039 -0.1051
 6686SOL    HW131517   0.618   1.038   0.485  0.9613 -0.5082  2.2815
 6686SOL    HW231518   0.570   1.157   0.422 -0.6263  1.6990  2.0071
 6687SOL     OW31519   2.840   3.611   3.726 -0.6511  0.0805 -0.1972
 6687SOL    HW131520   2.848   3.649   3.639  0.2830 -0.6574 -0.4306
 6687SOL    HW231521   2.894   3.666   3.784  2.0707 -0.7219 -1.9901
 6688SOL     OW31522   3.152   3.092   5.204 -0.3588 -0.0161 -1.1288
 6688SOL    HW131523   3.188   3.065   5.119 -0.1115 -2.8689 -0.1197
 6688SOL    HW231524   3.061   3.113   5.182  0.1496  0.8676 -2.3542
 6689SOL     OW31525   4.386   2.978   6.295  0.4150 -0.4278  0.2010
 6689SOL    HW131526   4.439   3.017   6.365 -0.8212 -0.1907  1.0026
 6689SOL    HW231527   4.427   3.026   6.223 -2.2054  1.2172 -0.2076
 6690SOL     OW31528   2.680   1.907   5.542 -0.1819  0.0280 -0.5672
 6690SOL    HW131529   2.693   1.857   5.622 -0.1352  0.2473 -0.4360
 6690SOL    HW231530   2.716   1.986   5.583 -1.6354 -0.4671  1.7191
 6691SOL     OW31531   4.184   4.192   2.174 -0.4229  0.0978  0.3706
 6691SOL    HW131532   4.170   4.275   2.130  0.7734  0.6529  1.0438
 6691SOL    HW231533   4.199   4.129   2.104 -1.1278 -0.2784  0.5585
 6692SOL     OW31534   1.726   4.364   6.287 -0.0761  0.5427 -0.1566
 6692SOL    HW131535   1.796   4.336   6.346 -0.4076  0.1326  0.0393
 6692SOL    HW231536   1.740   4.295   6.222 -1.5897  1.0731 -1.0572
 6693SOL     OW31537   3.976   0.686   5.218 -0.3987 -0.4801 -0.1418
 6693SOL    HW131538   3.902   0.697   5.278  0.1774 -0.4538  0.5506
 6693SOL    HW231539   3.988   0.593   5.237  0.6946 -0.0406  1.3157
 6694SOL     OW31540   2.269   3.416   7.559  0.1704 -0.1655 -0.0177
 6694SOL    HW131541   2.358   3.452   7.567 -0.1556  0.4611  0.7494
 6694SOL    HW231542   2.278   3.321   7.551 -0.2574 -0.1434 -0.7827
 6695SOL     OW31543   3.300   1.454   6.666 -0.5312 -0.1108  0.2262
 6695SOL    HW131544   3.373   1.514   6.650 -0.7695  0.5761  1.7708
 6695SOL    HW231545   3.285   1.462   6.760 -3.1109 -0.0321 -0.2010
 6696SOL     OW31546   2.635   3.956  10.717  0.2884  0.0825  0.2356
 6696SOL    HW131547   2.667   4.041  10.687  1.7036 -1.8126 -3.5998
 6696SOL    HW231548   2.549   3.942  10.679 -0.1151  1.4392  0.6473
 6697SOL     OW31549   1.814   2.056  16.964 -0.1372 -0.9187 -0.3985
 6697SOL    HW131550   1.763   2.079  16.886  0.6335  2.2827  0.0153
 6697SOL    HW231551   1.881   1.998  16.929  0.2209 -0.4449 -0.5050
 6698SOL     OW31552   0.955   1.420  10.228  0.0068 -0.3380 -0.3109
 6698SOL    HW131553   0.903   1.413  10.308 -0.5115 -2.3882 -0.8179
 6698SOL    HW231554   0.971   1.331  10.195 -3.6562 -1.5798  1.2673
 6699SOL     OW31555   0.844   3.638   4.084  0.0980 -0.1111  0.0598
 6699SOL    HW131556   0.894   3.622   4.164  0.4147  2.0651  0.2971
 6699SOL    HW231557   0.914   3.628   4.019  0.5374 -0.9011  0.6555
 6700SOL     OW31558   4.345   1.280  10.355 -0.3173 -0.7086 -0.4541
 6700SOL    HW131559   4.425   1.291  10.407 -1.3930 -1.8710  1.4843
 6700SOL    HW231560   4.281   1.227  10.403 -1.0568  0.8721  0.2817
 6701SOL     OW31561   1.493   1.071   9.662  0.6309  0.0842  0.0101
 6701SOL    HW131562   1.489   0.981   9.629 -0.9045 -0.1421  0.8086
 6701SOL    HW231563   1.485   1.055   9.757 -0.6286 -1.5346 -0.3713
 6702SOL     OW31564   4.021   3.375   6.606  0.3848  0.0852  0.6428
 6702SOL    HW131565   3.946   3.335   6.562  0.9477  0.5863 -0.8027
 6702SOL    HW231566   3.973   3.451   6.639 -2.1839 -0.7837 -1.0941
 6703SOL     OW31567   0.042   3.538   5.854 -0.6182 -0.3499  0.6093
 6703SOL    HW131568   4.718   3.461   5.831 -0.6311 -0.6006  1.4631
 6703SOL    HW231569   4.718   3.598   5.907 -1.2728  0.0081 -0.4494
 6704SOL     OW31570   3.624   1.805   2.244 -0.6732 -0.2401 -0.2148
 6704SOL    HW131571   3.618   1.820   2.338 -0.2576 -0.7266 -0.1166
 6704SOL    HW231572   3.719   1.808   2.237 -0.7317  0.6205 -0.7496
 6705SOL     OW31573   2.039   3.184  16.984  0.1895 -0.2539 -0.1417
 6705SOL    HW131574   2.052   3.259  16.927 -1.7661  0.9682  1.0389
 6705SOL    HW231575   2.108   3.209  17.046 -0.7426  2.9985 -0.4135
 6706SOL     OW31576   1.318   2.405   5.254  0.3546 -0.1425  0.0547
 6706SOL    HW131577   1.330   2.310   5.249  0.6292 -0.0277 -1.4580
 6706SOL    HW231578   1.368   2.429   5.176  1.7307  1.6263  1.4676
 6707SOL     OW31579   2.571   0.585   9.153 -0.1211  0.1643 -0.4573
 6707SOL    HW131580   2.582   0.527   9.077 -1.8964 -1.6110  0.6358
 6707SOL    HW231581   2.476   0.589   9.163 -0.2326 -0.6934 -1.1534
 6708SOL     OW31582   3.237   0.221   3.703 -0.2416  0.4045 -0.1717
 6708SOL    HW131583   3.146   0.250   3.707 -0.9176 -2.1435  2.3011
 6708SOL    HW231584   3.283   0.305   3.702 -0.5875  0.6115  0.8652
 6709SOL     OW31585   4.234   1.741   3.552  0.6217 -0.2096 -0.2944
 6709SOL    HW131586   4.244   1.834   3.533 -0.1841  0.1177  0.8866
 6709SOL    HW231587   4.162   1.706   3.501  0.5756 -0.7817  0.1600
 6710SOL     OW31588   1.784   2.435  13.812  0.6071  0.4923  0.1878
 6710SOL    HW131589   1.794   2.341  13.824 -0.0595  0.5976  1.5761
 6710SOL    HW231590   1.689   2.430  13.800  0.6939  0.9090 -0.6973
 6711SOL     OW31591   4.145   0.935   3.942  0.1198  0.0468 -0.1464
 6711SOL    HW131592   4.190   0.850   3.943  0.1937  0.1696  4.8635
 6711SOL    HW231593   4.058   0.904   3.916 -0.6806  2.2642 -0.0811
 6712SOL     OW31594   2.444   2.209   2.744  0.0970 -0.2506 -0.2339
 6712SOL    HW131595   2.349   2.221   2.745  0.0565 -0.6114  0.3942
 6712SOL    HW231596   2.441   2.120   2.779 -0.6502 -1.0376 -2.2951
 6713SOL     OW31597   0.282   3.952   2.631  0.0259  0.1293 -0.4638
 6713SOL    HW131598   0.220   4.009   2.677 -0.5106 -0.3161 -0.6384
 6713SOL    HW231599   0.233   3.879   2.594  1.4532 -1.1271  0.1224
 6714SOL     OW31600   0.049   3.050   8.858  0.3489  0.3948  0.1704
 6714SOL    HW131601   0.014   3.135   8.885  0.1775  0.4140 -0.1202
 6714SOL    HW231602   0.034   2.990   8.931  0.6246  0.4846  0.3031
 6715SOL     OW31603   0.250   3.397   4.138  0.1574 -0.1631 -0.1816
 6715SOL    HW131604   0.203   3.475   4.111 -2.6928 -2.5346 -2.0779
 6715SOL    HW231605   0.328   3.400   4.083  0.2427 -0.1333 -0.0602
 6716SOL     OW31606   1.142   0.453   0.313  0.1226 -0.0963  0.2421
 6716SOL    HW131607   1.134   0.376   0.256 -0.6434  0.2132 -0.0673
 6716SOL    HW231608   1.160   0.408   0.395 -0.4996  0.8848  0.9152
 6717SOL     OW31609   3.662   1.030   8.745  0.1119 -0.0387 -0.3758
 6717SOL    HW131610   3.693   0.966   8.681 -0.0388  2.2024 -2.6780
 6717SOL    HW231611   3.722   1.103   8.732  0.0684  0.0400 -0.1277
 6718SOL     OW31612   3.514   3.108   5.771 -0.4826 -0.1257 -0.0870
 6718SOL    HW131613   3.485   3.034   5.717  0.2513 -0.9410  0.6457
 6718SOL    HW231614   3.430   3.150   5.789  0.7503  1.0331  2.8288
 6719SOL     OW31615   1.856   2.940   4.037 -0.3572 -0.0367  0.3647
 6719SOL    HW131616   1.841   2.913   3.946 -1.5194  1.1902  0.1941
 6719SOL    HW231617   1.775   2.989   4.047 -0.0221  0.4664  0.6479
 6720SOL     OW31618   3.347   2.847   0.240 -0.0766 -0.4003 -0.6779
 6720SOL    HW131619   3.388   2.761   0.246 -0.8406 -0.7865 -1.0783
 6720SOL    HW231620   3.266   2.838   0.291  0.7688  0.5428  0.8545
 6721SOL     OW31621   4.644   0.978  13.165  0.1553 -0.8372 -0.5449
 6721SOL    HW131622   4.554   0.980  13.133 -0.6581  0.4248  1.8123
 6721SOL    HW231623   4.644   1.054  13.224 -1.0856  0.0672 -1.7039
 6722SOL     OW31624   0.894   0.107   3.677 -0.6413 -0.1760 -0.0966
 6722SOL    HW131625   0.916   0.108   3.770 -0.8431  0.2293 -0.0553
 6722SOL    HW231626   0.811   0.059   3.677  0.3097 -1.8229  2.5733
 6723SOL     OW31627   2.939   0.484   5.473  0.3237  0.5199 -0.1362
 6723SOL    HW131628   2.939   0.569   5.428  1.1211  0.2289 -0.6780
 6723SOL    HW231629   2.924   0.422   5.401  1.8838  1.3032 -1.1345
 6724SOL     OW31630   2.578   0.210  13.770  0.1572 -0.6546 -0.2005
 6724SOL    HW131631   2.532   0.292  13.755  1.9145  0.5603  1.0258
 6724SOL    HW231632   2.665   0.233  13.735  0.7685 -0.2676  1.5868
 6725SOL     OW31633   0.084   0.193  16.889  0.1025 -0.6610  0.9031
 6725SOL    HW131634   0.089   0.099  16.873  0.4172 -0.2123 -1.6224
 6725SOL    HW231635   0.021   0.202  16.961  0.0524  0.2234  0.7539
 6726SOL     OW31636   1.882   4.474  16.166 -0.2925 -0.1867 -0.6537
 6726SOL    HW131637   1.831   4.433  16.096 -0.1464  1.1867 -1.5678
 6726SOL    HW231638   1.814   4.472  16.232 -1.3588  2.8949 -1.6605
 6727SOL     OW31639   0.501   1.177   3.936 -0.0656  0.2805  0.1701
 6727SOL    HW131640   0.407   1.170   3.921  0.1924 -2.3704 -0.1740
 6727SOL    HW231641   0.518   1.112   3.869 -0.5757 -0.9390  1.2211
 6728SOL     OW31642   2.953   1.397  16.719 -0.0730  0.2246  0.2642
 6728SOL    HW131643   2.969   1.362  16.631 -1.9004 -0.3153  0.1397
 6728SOL    HW231644   2.876   1.446  16.692  1.5565  2.1550 -0.8489
 6729SOL     OW31645   0.717   0.748  14.710 -0.1267  0.4309  0.0435
 6729SOL    HW131646   0.781   0.763  14.640 -0.5966  0.3086 -0.4133
 6729SOL    HW231647   0.629   0.756  14.673  0.7722  2.6399 -1.6496
 6730SOL     OW31648   0.839   4.015   6.367  0.1237  0.3179  0.2772
 6730SOL    HW131649   0.870   3.983   6.282  0.7037  0.6829  0.3558
 6730SOL    HW231650   0.744   4.007   6.371  0.2238 -0.2887  1.4131
 6731SOL     OW31651   4.484   0.561  10.238 -0.0410  0.5255  0.1686
 6731SOL    HW131652   4.563   0.507  10.244 -1.6300 -1.4918  2.8807
 6731SOL    HW231653   4.432   0.548  10.318  0.2439  2.2934  0.6522
 6732SOL     OW31654   3.763   1.472   3.129 -0.3822 -0.5238  0.2294
 6732SOL    HW131655   3.823   1.544   3.149  2.6799 -2.6974 -1.1103
 6732SOL    HW231656   3.729   1.440   3.212 -0.2151 -1.5225 -0.0899
 6733SOL     OW31657   0.730   4.553  17.700 -0.5714 -0.1251  0.0536
 6733SOL    HW131658   0.660   4.617   0.003 -0.8288 -0.4125  0.0930
 6733SOL    HW231659   0.715   4.493   0.060  0.7835 -2.1652 -1.3732
 6734SOL     OW31660   2.557   2.044   7.781  0.1340 -0.0110  0.2849
 6734SOL    HW131661   2.628   2.032   7.845 -0.1617 -1.4283  0.3519
 6734SOL    HW231662   2.482   2.028   7.838 -1.1474  1.2511 -1.0715
 6735SOL     OW31663   0.975   1.644   0.599  0.5242  0.4280 -0.6703
 6735SOL    HW131664   1.026   1.715   0.560  2.2268 -0.6223 -0.3502
 6735SOL    HW231665   0.993   1.656   0.692 -0.6165 -2.6142 -0.0524
 6736SOL     OW31666   3.543   1.050  13.013 -0.2517  0.0961  0.2388
 6736SOL    HW131667   3.582   1.012  13.092 -0.0254 -2.7517 -1.2782
 6736SOL    HW231668   3.521   0.971  12.964 -2.2956  1.4655 -1.0337
 6737SOL     OW31669   1.203   1.131  15.258 -0.4606  0.1077  0.2850
 6737SOL    HW131670   1.126   1.178  15.288  0.3855  1.9022 -0.3801
 6737SOL    HW231671   1.192   1.047  15.303 -0.4114 -0.2556 -0.3803
 6738SOL     OW31672   4.074   1.407   5.618 -0.3835  0.2161  0.0648
 6738SOL    HW131673   4.070   1.502   5.602  1.9922  0.4199  0.7297
 6738SOL    HW231674   3.981   1.384   5.620 -0.0952 -0.9260  0.2449
 6739SOL     OW31675   0.818   1.139   6.595 -0.5316  0.2644  0.2743
 6739SOL    HW131676   0.874   1.131   6.518 -0.8914 -2.6182  0.3406
 6739SOL    HW231677   0.873   1.101   6.664  0.8511 -0.1722 -1.0599
 6740SOL     OW31678   0.989   2.864  11.488 -0.0491 -0.1344  0.4431
 6740SOL    HW131679   0.938   2.800  11.537 -1.4296 -0.1389 -0.9566
 6740SOL    HW231680   0.920   2.885  11.424 -0.4188 -2.3067  0.1209
 6741SOL     OW31681   3.837   4.393   2.253 -0.1052  0.6688  0.0248
 6741SOL    HW131682   3.849   4.352   2.168  1.9060  1.1812  0.0658
 6741SOL    HW231683   3.742   4.392   2.261  0.0181 -1.1510  1.1018
 6742SOL     OW31684   1.930   3.345   4.084  0.1296 -0.4299  0.0380
 6742SOL    HW131685   1.959   3.436   4.077 -0.1104 -0.1344  2.5640
 6742SOL    HW231686   1.857   3.363   4.145  0.2289 -0.4069  0.1508
 6743SOL     OW31687   3.786   1.898   7.492  0.5396  0.2564  0.8636
 6743SOL    HW131688   3.706   1.885   7.543  1.0455  2.3412  2.2141
 6743SOL    HW231689   3.840   1.915   7.570 -0.6737 -1.1792  1.9987
 6744SOL     OW31690   2.833   0.674  15.270 -0.3998  0.0663 -0.3138
 6744SOL    HW131691   2.924   0.678  15.241 -0.3295 -0.9319 -0.2506
 6744SOL    HW231692   2.831   0.592  15.320 -1.2863  0.0567 -0.3545
 6745SOL     OW31693   3.487   0.736   6.706 -0.7043  0.0038 -0.3014
 6745SOL    HW131694   3.478   0.708   6.797 -1.8800 -3.0307 -1.3757
 6745SOL    HW231695   3.413   0.691   6.667 -0.2576 -0.6010 -0.4389
 6746SOL     OW31696   2.862   2.903   4.566  0.3194  0.6060  0.2751
 6746SOL    HW131697   2.867   2.898   4.470  0.6773  0.7793  0.2838
 6746SOL    HW231698   2.787   2.847   4.584  0.4566  0.0948 -0.7078
 6747SOL     OW31699   0.096   1.356   9.904 -0.1735  0.2390  0.4218
 6747SOL    HW131700   0.167   1.370   9.966  0.0538  0.5403  0.0981
 6747SOL    HW231701   0.047   1.438   9.905 -0.3964  0.0971  0.9549
 6748SOL     OW31702   2.917   3.090   5.488  0.5721 -0.2512 -0.7654
 6748SOL    HW131703   2.894   3.089   5.581  1.2512 -0.9185 -0.5958
 6748SOL    HW231704   3.010   3.076   5.505  0.1062  0.8742  2.7487
 6749SOL     OW31705   2.083   0.660   4.058 -0.1418  0.4170 -0.3410
 6749SOL    HW131706   2.141   0.645   4.132  0.7226 -1.0622 -1.3127
 6749SOL    HW231707   2.097   0.579   4.008  1.0046  0.7056 -0.4800
 6750SOL     OW31708   2.461   0.868   3.394  0.3515  0.1272  0.3217
 6750SOL    HW131709   2.485   0.959   3.376  0.9260 -0.3379 -1.2620
 6750SOL    HW231710   2.392   0.861   3.328  1.4798 -2.0141 -0.6300
 6751SOL     OW31711   2.925   2.799   7.969  0.1930  0.6014  0.6745
 6751SOL    HW131712   2.875   2.822   8.047 -1.3781 -1.8269  0.3937
 6751SOL    HW231713   2.895   2.879   7.925 -2.3851 -2.1783 -2.6302
 6752SOL     OW31714   0.633   2.934  11.031  0.1768 -0.0737 -0.3065
 6752SOL    HW131715   0.657   2.855  10.984  0.9050  0.0482 -0.1374
 6752SOL    HW231716   0.713   2.986  11.032 -0.1218  0.3992 -0.7614
 6753SOL     OW31717   2.498   0.576   8.053 -0.8307 -0.2284 -0.5957
 6753SOL    HW131718   2.566   0.572   7.986 -0.1331  0.9012  0.0495
 6753SOL    HW231719   2.556   0.607   8.122 -2.0265 -1.6434  1.0295
 6754SOL     OW31720   3.168   1.316   2.905  0.1291 -0.1936  0.1286
 6754SOL    HW131721   3.257   1.349   2.898  0.3001 -0.4784  1.0266
 6754SOL    HW231722   3.120   1.358   2.833 -0.7077  0.3731  1.0020
 6755SOL     OW31723   0.933   3.563  13.189 -0.6188 -0.1118  0.0878
 6755SOL    HW131724   0.899   3.478  13.215  0.6308 -0.9988 -1.1609
 6755SOL    HW231725   1.004   3.539  13.130 -0.4165 -0.1719  0.3513
 6756SOL     OW31726   2.180   1.408   4.146 -0.0776 -0.1743  0.5085
 6756SOL    HW131727   2.180   1.499   4.175  0.1688  0.5276 -1.7011
 6756SOL    HW231728   2.255   1.417   4.088 -1.0902 -1.7623 -1.0616
 6757SOL     OW31729   2.185   4.092   4.810  0.1852 -0.6413  0.2963
 6757SOL    HW131730   2.146   4.117   4.725  0.2974 -1.5664 -0.0216
 6757SOL    HW231731   2.266   4.143   4.816  0.1074 -0.4054 -0.6110
 6758SOL     OW31732   1.203   0.514  17.354 -0.0675 -0.0674  0.3149
 6758SOL    HW131733   1.202   0.444  17.288  1.0945 -0.0896  0.3156
 6758SOL    HW231734   1.123   0.494  17.402 -0.3191  1.0553  0.3597
 6759SOL     OW31735   1.282   3.814   7.697 -0.1198  0.6587  0.6856
 6759SOL    HW131736   1.309   3.745   7.757 -0.0806 -1.1497 -1.4119
 6759SOL    HW231737   1.216   3.858   7.752 -1.2496 -0.3692  0.1614
 6760SOL     OW31738   1.744   4.369  11.444 -0.0272 -0.5983  0.1171
 6760SOL    HW131739   1.667   4.355  11.499  1.1390 -1.9725  1.3957
 6760SOL    HW231740   1.767   4.277  11.433  0.3425 -0.4832 -0.0599
 6761SOL     OW31741   4.365   2.243   2.280  0.3613 -0.8684 -0.1803
 6761SOL    HW131742   4.426   2.169   2.277 -0.1146 -1.3165  1.0506
 6761SOL    HW231743   4.291   2.205   2.327  1.5993 -2.1615  0.7283
 6762SOL     OW31744   4.436   3.438   6.170 -0.3336  0.3754 -0.1252
 6762SOL    HW131745   4.430   3.534   6.176 -0.9717  0.4600 -2.2846
 6762SOL    HW231746   4.516   3.425   6.120 -0.4485 -1.0386  0.0567
 6763SOL     OW31747   1.618   3.070  15.943 -0.0612  0.4616 -0.2064
 6763SOL    HW131748   1.548   3.034  15.889 -0.5318  2.9331 -1.2671
 6763SOL    HW231749   1.600   3.008  16.014  0.2687 -1.0007 -1.4140
 6764SOL     OW31750   4.162   3.774   1.995  0.0484  0.1593  0.2337
 6764SOL    HW131751   4.143   3.861   1.959  0.9450  0.7871  1.2795
 6764SOL    HW231752   4.176   3.789   2.089  0.7751 -0.4261  0.2144
 6765SOL     OW31753   2.294   0.705   0.928  0.5362  0.1825 -0.4819
 6765SOL    HW131754   2.240   0.681   1.003  0.7033 -0.8880 -0.7015
 6765SOL    HW231755   2.344   0.629   0.898  1.5191  0.1267  1.3135
 6766SOL     OW31756   1.428   0.569  13.753  0.5342 -0.2630  0.2525
 6766SOL    HW131757   1.404   0.661  13.754  0.8301 -0.1862  0.2587
 6766SOL    HW231758   1.499   0.558  13.815  0.4960  0.6900  0.4605
 6767SOL     OW31759   2.736   0.610   8.208 -0.2855 -0.0970  0.1314
 6767SOL    HW131760   2.707   0.682   8.264  3.8138  0.9027  0.9875
 6767SOL    HW231761   2.830   0.628   8.201 -0.5301  1.7181  1.6036
 6768SOL     OW31762   4.402   0.391   7.655 -0.3742 -0.5376  0.4301
 6768SOL    HW131763   4.414   0.342   7.573 -1.9359  1.6556 -1.1325
 6768SOL    HW231764   4.472   0.365   7.714  0.3328  2.2701  0.8237
 6769SOL     OW31765   2.676   3.384  13.605 -0.6294 -0.1878 -0.0701
 6769SOL    HW131766   2.698   3.460  13.659 -2.1326 -2.4757  3.7396
 6769SOL    HW231767   2.675   3.320  13.676 -0.2289 -1.0860 -0.8829
 6770SOL     OW31768   4.725   2.389   7.279 -0.0604 -0.2902 -0.3043
 6770SOL    HW131769   4.703   2.298   7.298 -0.2058 -0.4476 -1.2534
 6770SOL    HW231770   0.021   2.426   7.364  0.9530 -2.0105  0.1629
 6771SOL     OW31771   3.102   2.673   8.824  0.3712 -0.0333  0.1246
 6771SOL    HW131772   3.137   2.654   8.911  3.0768 -0.5160 -1.0458
 6771SOL    HW231773   3.175   2.680   8.763  0.6719 -1.4087  0.3268
 6772SOL     OW31774   0.426   3.757   8.842 -0.1805  0.2845  0.0606
 6772SOL    HW131775   0.388   3.681   8.886 -1.6543 -0.9231 -3.2675
 6772SOL    HW231776   0.455   3.716   8.760  0.2384 -0.0675  0.3852
 6773SOL     OW31777   3.139   0.546   8.525 -0.0067 -0.5184  0.1676
 6773SOL    HW131778   3.119   0.453   8.536 -0.0699 -0.5379 -0.1292
 6773SOL    HW231779   3.235   0.548   8.532  0.1607 -1.3653 -2.0894
 6774SOL     OW31780   3.756   2.831   8.749 -0.8176  0.2813 -0.6692
 6774SOL    HW131781   3.814   2.906   8.734  2.1738 -2.2509 -1.7169
 6774SOL    HW231782   3.803   2.790   8.822 -0.1437  1.1780 -0.6018
 6775SOL     OW31783   1.723   3.913   5.513 -0.4658 -0.3286 -0.2718
 6775SOL    HW131784   1.676   3.983   5.558 -0.2675 -1.2356  1.3526
 6775SOL    HW231785   1.691   3.842   5.569  0.8850 -0.2285  0.6493
 6776SOL     OW31786   4.597   1.658   4.145  0.2992  0.7345 -0.3214
 6776SOL    HW131787   4.663   1.683   4.081 -1.4388  1.4141 -1.8324
 6776SOL    HW231788   4.641   1.694   4.222  0.5084 -1.8708  0.7844
 6777SOL     OW31789   1.790   0.719   5.178 -0.0530  0.3260 -0.1081
 6777SOL    HW131790   1.765   0.726   5.270  0.1912 -0.9965  0.0527
 6777SOL    HW231791   1.865   0.778   5.185  1.1973 -1.4215  0.9937
 6778SOL     OW31792   4.629   3.892   7.423  0.2225 -0.4203  0.0238
 6778SOL    HW131793   4.686   3.842   7.482  0.1821 -0.0293  0.3922
 6778SOL    HW231794   4.689   3.907   7.350  1.1225  1.2726  1.1126
 6779SOL     OW31795   4.671   1.723   8.139 -0.0381  0.3895 -0.1105
 6779SOL    HW131796   4.701   1.805   8.099  2.4349  0.0569  1.0208
 6779SOL    HW231797   4.606   1.763   8.196 -1.1309 -1.8593  0.1849
 6780SOL     OW31798   0.877   0.993   0.993 -0.2392 -0.0785  0.4138
 6780SOL    HW131799   0.875   0.921   1.055  1.1629  0.9618  1.6648
 6780SOL    HW231800   0.970   1.015   0.988  0.1355 -1.8029 -0.0708
 6781SOL     OW31801   4.111   1.460   3.117 -0.1266  0.5293  0.0378
 6781SOL    HW131802   4.196   1.438   3.079  0.6175  1.5416  1.1136
 6781SOL    HW231803   4.130   1.550   3.143  1.8766  0.6598 -1.8395
 6782SOL     OW31804   3.425   2.668  14.140 -0.6455 -0.2159 -0.4227
 6782SOL    HW131805   3.375   2.623  14.208 -2.4973 -0.1812 -1.7517
 6782SOL    HW231806   3.406   2.615  14.062  0.3942 -4.2391  2.0731
 6783SOL     OW31807   3.364   1.602   6.227  0.0076 -0.0233  0.1185
 6783SOL    HW131808   3.363   1.515   6.187  0.5599  0.0113  0.0355
 6783SOL    HW231809   3.424   1.584   6.300  0.6977  0.6699 -0.2859
 6784SOL     OW31810   2.142   3.202  14.626 -0.0051 -0.1251  0.3166
 6784SOL    HW131811   2.164   3.191  14.533  0.1558 -0.4192  0.3908
 6784SOL    HW231812   2.125   3.296  14.628 -2.4007 -0.4910 -1.5012
 6785SOL     OW31813   1.811   4.715  10.624  0.0965 -0.5758  0.4702
 6785SOL    HW131814   1.856   0.036  10.693  0.5520  1.8973 -1.5479
 6785SOL    HW231815   1.759   4.647  10.666 -1.4044  0.7770  0.7948
 6786SOL     OW31816   2.048   4.528  14.823 -0.2358 -0.2678 -0.1593
 6786SOL    HW131817   2.047   4.608  14.770  1.0980  1.1120  1.9047
 6786SOL    HW231818   2.042   4.455  14.762  2.3511 -0.1873 -0.5250
 6787SOL     OW31819   0.199   4.098   7.606  0.2866 -0.4155 -0.4929
 6787SOL    HW131820   0.235   4.016   7.641 -3.5418 -1.8178  0.1428
 6787SOL    HW231821   0.234   4.095   7.516  1.5824  1.7449 -0.0419
 6788SOL     OW31822   4.679   4.372  11.056 -0.4746 -0.4707  0.2701
 6788SOL    HW131823   0.038   4.395  11.087 -0.4084  0.3548 -0.5403
 6788SOL    HW231824   4.655   4.460  11.029 -1.2466 -0.4020  1.1929
 6789SOL     OW31825   3.196   0.651   2.014  0.3979  0.0746 -0.1244
 6789SOL    HW131826   3.133   0.614   1.953  2.6974 -0.0083 -2.4224
 6789SOL    HW231827   3.143   0.713   2.065  0.3231  0.6842 -0.9326
 6790SOL     OW31828   3.498   1.816   1.345  0.4951  0.4088  0.0121
 6790SOL    HW131829   3.482   1.736   1.294 -1.3084  1.5728 -1.2771
 6790SOL    HW231830   3.588   1.834   1.316  0.2449  0.3768 -0.8010
 6791SOL     OW31831   4.582   4.679   4.630  0.0609  0.4576 -0.1727
 6791SOL    HW131832   4.490   4.678   4.656  0.4725 -1.8871  1.1955
 6791SOL    HW231833   4.612   4.722   4.710 -1.7750  1.0418  0.2232
 6792SOL     OW31834   4.280   0.862   7.475 -0.4963  0.0067 -0.0573
 6792SOL    HW131835   4.301   0.770   7.456 -0.7770 -0.2728  0.9549
 6792SOL    HW231836   4.369   0.897   7.484  0.1215 -1.4201 -0.6134
 6793SOL     OW31837   1.399   4.176   1.855 -0.1337 -0.0572  0.0953
 6793SOL    HW131838   1.385   4.270   1.866  1.8996  0.4615 -1.8125
 6793SOL    HW231839   1.358   4.135   1.931 -0.2615  1.6353  0.9446
 6794SOL     OW31840   3.892   1.700   8.634 -0.4184 -0.9563 -0.4260
 6794SOL    HW131841   3.934   1.718   8.718 -1.5800 -0.2285  0.0001
 6794SOL    HW231842   3.802   1.722   8.660  0.4852  0.9956  1.0389
 6795SOL     OW31843   1.546   4.285   0.128  0.2661 -0.5925  0.3459
 6795SOL    HW131844   1.475   4.349   0.118  0.5737 -0.2049  0.6621
 6795SOL    HW231845   1.534   4.232   0.049  1.3517  1.1576 -1.0000
 6796SOL     OW31846   3.398   1.607  17.071  0.9501  0.1818 -0.3107
 6796SOL    HW131847   3.363   1.519  17.061  1.6279 -0.1971  0.7047
 6796SOL    HW231848   3.314   1.646  17.046  0.3546 -0.3415  0.8786
 6797SOL     OW31849   4.478   3.129   8.040  0.4932  0.3151  0.0248
 6797SOL    HW131850   4.568   3.158   8.023  1.2617 -1.9519  0.2263
 6797SOL    HW231851   4.428   3.208   8.018  1.1867  0.4603 -1.0273
 6798SOL     OW31852   4.515   1.626   1.282  0.3333 -0.1362 -0.3059
 6798SOL    HW131853   4.609   1.613   1.289  0.2275 -0.4488  0.5562
 6798SOL    HW231854   4.514   1.721   1.293  1.7940 -0.4202  2.2922
 6799SOL     OW31855   3.690   2.040  11.447  0.1643 -0.1817  0.6334
 6799SOL    HW131856   3.675   2.076  11.359 -0.9792 -0.9303  0.5164
 6799SOL    HW231857   3.736   1.961  11.419  0.0221  0.0257 -0.2133
 6800SOL     OW31858   3.636   1.360  14.579 -0.1025 -0.1038  0.0877
 6800SOL    HW131859   3.660   1.451  14.598  0.0170 -0.3107  0.9329
 6800SOL    HW231860   3.717   1.314  14.603 -0.0834  0.1266  0.4701
 6801SOL     OW31861   1.488   3.777  11.289 -0.7733 -0.5658 -0.6186
 6801SOL    HW131862   1.446   3.862  11.305  0.3592 -0.6594  3.0362
 6801SOL    HW231863   1.579   3.796  11.313 -0.7518 -0.7581 -0.5511
 6802SOL     OW31864   3.367   4.307   5.893 -0.0792 -0.0859  0.2913
 6802SOL    HW131865   3.343   4.399   5.882  2.2357  0.4137 -0.4739
 6802SOL    HW231866   3.462   4.310   5.903  0.1597  0.1069 -2.2081
 6803SOL     OW31867   3.839   4.665   8.261  0.4196 -0.2833  0.3580
 6803SOL    HW131868   3.820   0.030   8.257  1.6625 -0.0113  0.6686
 6803SOL    HW231869   3.914   4.666   8.320  1.6143 -1.6520 -1.1095
 6804SOL     OW31870   1.867   1.844   2.230  0.3490  0.2129  0.1679
 6804SOL    HW131871   1.857   1.757   2.193 -1.5836  0.9584 -1.0407
 6804SOL    HW231872   1.960   1.865   2.225  0.2385  0.4292 -0.8308
 6805SOL     OW31873   3.328   4.161   3.164 -0.2756 -0.3989 -0.2607
 6805SOL    HW131874   3.380   4.096   3.119  2.1749  0.7174  0.9337
 6805SOL    HW231875   3.265   4.112   3.217  0.3448 -1.2438 -0.3120
 6806SOL     OW31876   1.860   0.369  16.292 -0.2100 -0.0278 -0.7040
 6806SOL    HW131877   1.829   0.449  16.251 -0.7386  0.4321  0.5799
 6806SOL    HW231878   1.865   0.393  16.385 -1.9350 -2.4988  0.0433
 6807SOL     OW31879   4.022   3.264   5.002  0.5841  0.2513 -0.6881
 6807SOL    HW131880   3.944   3.278   5.055  2.1473  3.2890  0.7538
 6807SOL    HW231881   3.989   3.219   4.924  0.4479 -1.8642  0.5635
 6808SOL     OW31882   0.373   1.734   7.086  0.1699 -0.1212  0.1963
 6808SOL    HW131883   0.454   1.684   7.097  0.0298 -0.5140 -0.5237
 6808SOL    HW231884   0.318   1.697   7.154  1.5507 -2.4120  0.0534
 6809SOL     OW31885   1.166   1.423  16.023  0.5262 -0.4502  0.0477
 6809SOL    HW131886   1.183   1.509  16.062 -2.4806  0.1896 -0.0907
 6809SOL    HW231887   1.099   1.435  15.956  0.0397  0.3240  0.6706
 6810SOL     OW31888   3.128   1.523   5.403 -0.2234 -0.1173 -0.4946
 6810SOL    HW131889   3.180   1.519   5.484 -0.2757  1.7504 -0.3645
 6810SOL    HW231890   3.137   1.431   5.375  1.2634  0.1321 -0.8603
 6811SOL     OW31891   3.930   2.445   9.119  0.3987 -0.1869 -0.3582
 6811SOL    HW131892   3.848   2.431   9.166  0.1760 -0.0094 -0.6883
 6811SOL    HW231893   3.992   2.452   9.191  0.3335  3.0706 -0.6203
 6812SOL     OW31894   2.428   1.610  13.074  0.2837 -0.0867 -0.2423
 6812SOL    HW131895   2.337   1.605  13.103  0.6406 -3.6064  0.2888
 6812SOL    HW231896   2.462   1.680  13.131 -3.5455  0.9818  0.7412
 6813SOL     OW31897   3.997   0.266  14.963  0.0264 -0.3302  1.1116
 6813SOL    HW131898   4.086   0.297  14.982 -0.5122  1.4829  0.6984
 6813SOL    HW231899   3.943   0.343  14.980  0.4581  0.6642 -2.1172
 6814SOL     OW31900   3.274   2.496   7.540 -0.1146  0.2614  0.2635
 6814SOL    HW131901   3.240   2.419   7.494  2.8923  0.5103 -2.3438
 6814SOL    HW231902   3.204   2.540   7.588  0.7166  0.8369  0.9563
 6815SOL     OW31903   2.872   0.301  16.134  0.3237 -0.7405  0.1984
 6815SOL    HW131904   2.936   0.321  16.203 -0.6514 -0.2991  0.9782
 6815SOL    HW231905   2.920   0.241  16.077  1.4260 -0.3662  0.7302
 6816SOL     OW31906   3.730   3.330   8.352 -0.1998 -0.3260 -0.6756
 6816SOL    HW131907   3.807   3.385   8.367 -1.8734  1.8440 -0.2067
 6816SOL    HW231908   3.740   3.325   8.257  1.5587  1.8566 -0.6046
 6817SOL     OW31909   4.671   3.773   7.012  0.8188  0.2380 -0.1953
 6817SOL    HW131910   4.598   3.781   7.074  1.3244  0.4176  0.3762
 6817SOL    HW231911   4.668   3.683   6.980 -0.8053  0.1682  0.1487
 6818SOL     OW31912   1.507   2.175   2.069  0.1400  0.0460  0.0913
 6818SOL    HW131913   1.499   2.106   2.003 -2.4925 -0.3050  0.7765
 6818SOL    HW231914   1.581   2.144   2.123  2.8451  2.4559 -2.2330
 6819SOL     OW31915   0.853   2.133  12.213 -0.3909  0.4951  0.3453
 6819SOL    HW131916   0.798   2.153  12.288  0.6064 -0.2664  1.2756
 6819SOL    HW231917   0.929   2.173  12.254 -0.0165 -0.9867  1.1099
 6820SOL     OW31918   0.423   0.500   2.905  0.7057 -0.6618 -0.4897
 6820SOL    HW131919   0.335   0.488   2.940  0.3484  2.1863 -0.4362
 6820SOL    HW231920   0.462   0.565   2.964  0.1363  0.2816 -1.1713
 6821SOL     OW31921   4.450   1.769   5.414  0.0299  0.1254  0.6795
 6821SOL    HW131922   4.404   1.813   5.342 -0.6183 -1.9705 -0.1964
 6821SOL    HW231923   4.416   1.814   5.492  1.1144  1.7968  0.1830
 6822SOL     OW31924   2.929   0.735   7.534 -0.1335 -0.0998  0.3975
 6822SOL    HW131925   2.913   0.808   7.594  0.0041  1.4381 -1.4210
 6822SOL    HW231926   3.002   0.692   7.578  0.9893  1.8622  0.4529
 6823SOL     OW31927   3.632   2.983   6.786  0.6632  0.4054 -0.0210
 6823SOL    HW131928   3.714   2.964   6.740  0.7211 -2.4309  1.2368
 6823SOL    HW231929   3.574   2.980   6.710 -3.4618  2.9776  3.0350
 6824SOL     OW31930   3.505   4.122   8.798  0.0451  0.6146 -0.3867
 6824SOL    HW131931   3.505   4.217   8.809 -1.0564  0.4285  1.2030
 6824SOL    HW231932   3.414   4.101   8.814 -0.3923  1.3571 -1.8711
 6825SOL     OW31933   0.805   1.054   2.561 -0.1964 -0.7761  0.2504
 6825SOL    HW131934   0.781   1.147   2.563  2.2872 -0.1122 -1.8378
 6825SOL    HW231935   0.815   1.032   2.653 -0.2779 -2.6301 -0.1787
 6826SOL     OW31936   4.177   2.097   7.228 -0.2542  0.2579 -0.0655
 6826SOL    HW131937   4.245   2.094   7.296  0.3928  0.9266 -0.6877
 6826SOL    HW231938   4.114   2.032   7.260  0.0958 -0.2727 -0.4514
 6827SOL     OW31939   4.150   0.815  11.660 -0.4374  0.2840 -0.4169
 6827SOL    HW131940   4.166   0.816  11.566 -0.0876 -1.5358 -0.3723
 6827SOL    HW231941   4.203   0.741  11.691  1.9613  2.6659  1.1350
 6828SOL     OW31942   3.227   3.485  15.818  0.3871 -0.0190 -0.6868
 6828SOL    HW131943   3.314   3.502  15.784  0.2562 -0.8828 -1.4411
 6828SOL    HW231944   3.232   3.548  15.890  1.3047  0.3138 -1.0434
 6829SOL     OW31945   4.345   0.726   8.640  0.5439 -0.0723 -0.0282
 6829SOL    HW131946   4.440   0.711   8.638  0.1445 -2.5005 -0.8833
 6829SOL    HW231947   4.350   0.820   8.620  0.1185 -0.0286  0.0866
 6830SOL     OW31948   2.902   2.970   7.748 -0.6590 -0.2009  0.0136
 6830SOL    HW131949   2.837   3.029   7.710 -0.5251 -0.7087 -1.0024
 6830SOL    HW231950   2.879   2.889   7.702  0.9132  0.1021 -1.3070
 6831SOL     OW31951   0.433   3.675   5.530 -0.2548 -0.0552 -0.6932
 6831SOL    HW131952   0.389   3.711   5.607  0.1912  0.9198 -0.9016
 6831SOL    HW231953   0.355   3.680   5.474 -0.2539 -0.5560 -0.7425
 6832SOL     OW31954   2.895   3.437   6.350  0.3428 -0.3226 -0.2735
 6832SOL    HW131955   2.949   3.506   6.388 -0.2368 -0.6764  1.1623
 6832SOL    HW231956   2.926   3.364   6.402  0.1443 -0.2225 -0.0169
 6833SOL     OW31957   2.045   1.055   7.408 -0.1567  0.0976  0.0089
 6833SOL    HW131958   1.950   1.054   7.399 -0.2475 -0.0192  0.9301
 6833SOL    HW231959   2.066   1.050   7.502 -0.2058  1.6308  0.1152
 6834SOL     OW31960   1.058   1.294  12.045 -0.0039  0.1061 -0.2818
 6834SOL    HW131961   1.135   1.347  12.067 -0.8379  0.2234  2.3484
 6834SOL    HW231962   0.993   1.323  12.109  0.2963  0.5667 -0.1793
 6835SOL     OW31963   2.994   3.795   9.552  0.1084  0.1828 -0.3946
 6835SOL    HW131964   2.961   3.759   9.634 -2.5563  2.0664 -0.6329
 6835SOL    HW231965   2.989   3.718   9.496  1.5055 -0.5705  0.5154
 6836SOL     OW31966   2.323   1.916  14.192  0.1245 -0.8302 -0.3731
 6836SOL    HW131967   2.273   1.849  14.145 -0.6881 -0.3355 -0.2250
 6836SOL    HW231968   2.401   1.864  14.211 -0.6507 -1.0968  2.1402
 6837SOL     OW31969   1.872   2.600   3.568 -0.0757  0.5601 -0.5821
 6837SOL    HW131970   1.841   2.675   3.517  0.2507  1.8189  1.0528
 6837SOL    HW231971   1.877   2.527   3.506 -2.3297  0.6108 -0.8059
 6838SOL     OW31972   4.669   3.697   3.168  0.0748  0.5642 -0.3187
 6838SOL    HW131973   4.711   3.626   3.121 -0.5371 -2.3437  3.5022
 6838SOL    HW231974   4.640   3.649   3.246 -0.2233  0.4603 -0.4955
 6839SOL     OW31975   0.238   2.204   8.468 -0.5706  0.2137 -0.3051
 6839SOL    HW131976   0.236   2.182   8.561  0.2434 -0.8977 -0.5507
 6839SOL    HW231977   0.145   2.222   8.452 -0.8193 -1.7835 -1.0997
 6840SOL     OW31978   3.909   1.210  17.260 -0.1854 -0.3191  0.4937
 6840SOL    HW131979   3.989   1.204  17.312 -1.3849  2.0727  2.5838
 6840SOL    HW231980   3.848   1.247  17.324 -0.3701  1.2597 -0.5946
 6841SOL     OW31981   4.319   2.359   0.017 -0.0948  0.0352 -0.1870
 6841SOL    HW131982   4.260   2.433   0.004  0.2285  0.5785  1.3520
 6841SOL    HW231983   4.278   2.310   0.089 -0.0872  3.1425  1.9351
 6842SOL     OW31984   0.292   4.259   6.878 -0.0449 -0.8615  0.0792
 6842SOL    HW131985   0.377   4.270   6.835  0.2769 -2.5325  0.3176
 6842SOL    HW231986   0.241   4.323   6.828 -1.2692 -2.2053 -0.3909
 6843SOL     OW31987   1.087   0.260  10.900 -0.0901 -0.3971  0.3354
 6843SOL    HW131988   1.005   0.262  10.851  0.6366  1.5062 -0.8086
 6843SOL    HW231989   1.157   0.283  10.839 -1.4005  1.4154 -0.4792
 6844SOL     OW31990   2.355   0.118   4.775 -0.2780  0.9538  0.0010
 6844SOL    HW131991   2.333   0.062   4.849  2.6099 -0.2669 -0.0888
 6844SOL    HW231992   2.409   0.073   4.711 -0.7829 -0.4413  0.5732
 6845SOL     OW31993   2.636   4.564  13.632 -0.0698  0.1648  0.0863
 6845SOL    HW131994   2.647   4.640  13.575  1.7889 -0.8732 -0.9336
 6845SOL    HW231995   2.599   4.502  13.570 -0.0572 -1.4168  1.6532
 6846SOL     OW31996   2.148   2.636   9.187  0.6550  0.6015  0.4159
 6846SOL    HW131997   2.088   2.580   9.236  0.0193  1.1012  0.2167
 6846SOL    HW231998   2.146   2.574   9.114  2.2924  0.6999  0.2827
 6847SOL     OW31999   2.064   2.295  17.069 -0.0729  0.2916  0.0114
 6847SOL    HW132000   2.121   2.230  17.109  1.0599  0.6573 -1.0209
 6847SOL    HW232001   2.121   2.372  17.069 -1.4657  1.3209  0.1489
 6848SOL     OW32002   4.436   2.684   4.293 -0.0642 -0.5179  0.0277
 6848SOL    HW132003   4.407   2.596   4.269 -1.8074  0.4592 -1.3908
 6848SOL    HW232004   4.429   2.736   4.213 -3.0841 -0.2940  0.4401
 6849SOL     OW32005   1.211   3.214  12.050 -0.3567 -0.2011 -0.1972
 6849SOL    HW132006   1.194   3.265  12.129 -1.0229 -0.7004 -0.0257
 6849SOL    HW232007   1.168   3.284  12.000  1.6568  0.1768 -1.4029
 6850SOL     OW32008   4.481   4.215   7.827 -0.1057 -0.0502 -0.4031
 6850SOL    HW132009   4.564   4.167   7.826  0.1026  0.3113 -0.3058
 6850SOL    HW232010   4.415   4.147   7.811  0.0012 -0.7317  2.0961
 6851SOL     OW32011   1.725   1.070   8.109  0.3211  0.4096  0.3431
 6851SOL    HW132012   1.743   0.976   8.114  0.1196  0.4202  1.4049
 6851SOL    HW232013   1.636   1.064   8.074  0.3109 -0.7769  0.5559
 6852SOL     OW32014   2.442   3.116  10.340 -0.2652 -0.0534 -0.0252
 6852SOL    HW132015   2.485   3.093  10.422  0.3790 -1.0014 -0.6213
 6852SOL    HW232016   2.363   3.062  10.339 -1.3469  1.4954  2.0151
 6853SOL     OW32017   0.471   3.058   2.675  0.4670 -0.0288  0.7345
 6853SOL    HW132018   0.482   2.967   2.646 -1.4663  0.0769 -0.3283
 6853SOL    HW232019   0.520   3.101   2.605  0.5179  0.2982  0.9682
 6854SOL     OW32020   2.835   4.486   1.671 -0.1268  0.1398 -0.0289
 6854SOL    HW132021   2.879   4.544   1.609 -3.9834 -0.0383 -2.9514
 6854SOL    HW232022   2.858   4.508   1.761 -0.9324  2.4428 -0.3793
 6855SOL     OW32023   3.592   0.978   7.882  0.8278  0.5735 -0.4733
 6855SOL    HW132024   3.614   0.954   7.972  1.9139 -1.6194 -1.3339
 6855SOL    HW232025   3.559   1.067   7.898  1.2166  0.3803  1.3091
 6856SOL     OW32026   3.350   0.485   4.598 -0.3586  0.1750  0.2861
 6856SOL    HW132027   3.412   0.417   4.622 -0.2316  0.3196  0.3624
 6856SOL    HW232028   3.270   0.432   4.597 -0.5418  0.4504  0.5979
 6857SOL     OW32029   4.578   3.010   4.024  0.5564 -0.0537 -0.1885
 6857SOL    HW132030   4.554   2.917   4.031  0.7562 -0.2395 -1.9898
 6857SOL    HW232031   4.527   3.029   3.945 -0.0650  1.3524  0.5456
 6858SOL     OW32032   2.830   2.438  15.458 -0.2988 -0.3821 -0.1608
 6858SOL    HW132033   2.909   2.462  15.408  0.7022 -1.8310  0.7179
 6858SOL    HW232034   2.824   2.343  15.449  2.4783 -0.4942 -0.8479
 6859SOL     OW32035   3.877   2.513   3.167 -0.0159 -0.3734  0.4289
 6859SOL    HW132036   3.853   2.562   3.088 -1.8243 -1.1436  0.5098
 6859SOL    HW232037   3.931   2.441   3.135 -0.2323 -0.9404  1.3378
 6860SOL     OW32038   3.890   0.371   1.026  0.3349 -0.2902  0.3351
 6860SOL    HW132039   3.904   0.411   1.112 -0.5668  0.0875  0.3019
 6860SOL    HW232040   3.823   0.306   1.045 -0.9489  0.6874 -0.8970
 6861SOL     OW32041   1.169   0.263  11.366 -0.1707 -0.6858 -0.3887
 6861SOL    HW132042   1.218   0.301  11.294 -0.8535  0.1452 -0.4159
 6861SOL    HW232043   1.239   0.206  11.399 -0.7289 -1.0204  0.2352
 6862SOL     OW32044   1.466   1.614   8.950  0.6369  0.4755 -0.0815
 6862SOL    HW132045   1.499   1.634   9.037  3.2927  2.1542 -1.5032
 6862SOL    HW232046   1.381   1.658   8.954 -1.0964 -2.9009  0.5417
 6863SOL     OW32047   2.040   2.313  10.516  0.3139  0.4895 -0.1258
 6863SOL    HW132048   1.979   2.385  10.498  0.6938  1.2057  1.4799
 6863SOL    HW232049   2.110   2.359  10.562  0.3001  0.0088  0.3665
 6864SOL     OW32050   3.993   3.494   1.042 -0.1321  0.3271 -0.2408
 6864SOL    HW132051   3.929   3.444   0.991  1.0876 -2.4235  0.8823
 6864SOL    HW232052   4.076   3.464   1.003  0.2100  1.6715 -0.5529
 6865SOL     OW32053   3.887   1.475  14.490  0.2448  0.2777  0.6246
 6865SOL    HW132054   3.968   1.426  14.505 -0.1083 -0.7842 -0.8588
 6865SOL    HW232055   3.899   1.535  14.563 -0.1062  0.3159  0.6499
 6866SOL     OW32056   2.761   4.288   9.308 -0.3246 -0.4447  0.0619
 6866SOL    HW132057   2.854   4.269   9.321 -1.1404 -4.3759  0.1856
 6866SOL    HW232058   2.721   4.202   9.295  0.5873 -0.7941 -0.3582
 6867SOL     OW32059   2.493   4.538  16.089  0.4509  0.1966 -0.2464
 6867SOL    HW132060   2.439   4.603  16.134  2.7862  0.6425  1.9316
 6867SOL    HW232061   2.519   4.587  16.011  2.9170  1.2014  1.2054
 6868SOL     OW32062   3.942   1.265   3.168  0.3214  0.5851 -0.1567
 6868SOL    HW132063   3.859   1.301   3.135 -0.4570 -1.8518 -0.8583
 6868SOL    HW232064   3.991   1.342   3.138 -0.0344  1.0741  0.5134
 6869SOL     OW32065   0.552   2.654   5.432 -0.0940  0.4495  0.5521
 6869SOL    HW132066   0.564   2.567   5.394  0.8848  2.1962 -3.1424
 6869SOL    HW232067   0.492   2.696   5.371  1.0619  1.2439 -0.0310
 6870SOL     OW32068   2.195   4.361  14.212 -0.0491  0.1767 -0.3997
 6870SOL    HW132069   2.202   4.290  14.277 -0.6666 -1.0248 -1.6548
 6870SOL    HW232070   2.267   4.416  14.243  0.7168 -2.3748  2.4387
 6871SOL     OW32071   4.325   4.310   2.512  0.6770 -0.2266 -0.0278
 6871SOL    HW132072   4.373   4.233   2.478 -0.7127 -0.0845 -2.3373
 6871SOL    HW232073   4.240   4.272   2.534  1.4924 -2.3868 -0.5164
 6872SOL     OW32074   3.019   4.710  10.630  0.4732  0.1236  0.3099
 6872SOL    HW132075   2.986   0.017  10.547  0.6472  2.0492  1.0581
 6872SOL    HW232076   2.955   4.713  10.701 -0.4885  0.2910 -0.5614
 6873SOL     OW32077   3.799   0.461   6.854 -0.3477  0.1315 -0.0035
 6873SOL    HW132078   3.810   0.552   6.884 -1.3070  1.3515 -3.3242
 6873SOL    HW232079   3.887   0.432   6.832 -1.2059 -2.0113 -0.5709
 6874SOL     OW32080   0.010   0.934   8.656 -0.3617  0.0955  0.1307
 6874SOL    HW132081   0.098   0.958   8.626 -0.1543 -0.6609  0.1405
 6874SOL    HW232082   0.012   0.966   8.747  1.9106 -0.8446  0.4106
 6875SOL     OW32083   3.654   2.732   1.266  0.3945  0.0514 -0.1349
 6875SOL    HW132084   3.711   2.805   1.241  0.7636 -0.5050 -0.9384
 6875SOL    HW232085   3.607   2.721   1.183  0.6034  0.0470 -0.2523
 6876SOL     OW32086   1.374   3.688   9.967  0.0494  0.5572 -0.5004
 6876SOL    HW132087   1.439   3.743   9.924 -0.4881  1.5207 -0.0738
 6876SOL    HW232088   1.328   3.642   9.896 -0.0574  0.3399 -0.2877
 6877SOL     OW32089   1.336   2.863   8.219  0.5257 -0.0188  0.1856
 6877SOL    HW132090   1.284   2.844   8.140 -1.0369  2.1652  0.6630
 6877SOL    HW232091   1.264   2.856   8.282  0.3611 -1.4170 -0.1693
 6878SOL     OW32092   4.365   1.032   7.109 -0.4007 -0.2731 -0.1597
 6878SOL    HW132093   4.444   1.042   7.057 -1.8636 -1.3941 -2.5666
 6878SOL    HW232094   4.312   1.103   7.074  1.1651  0.0385 -1.8667
 6879SOL     OW32095   0.102   2.464   2.722  0.3946  0.1559 -0.3999
 6879SOL    HW132096   0.064   2.387   2.681 -0.3382 -0.4336  1.4094
 6879SOL    HW232097   0.068   2.456   2.811 -0.9402  0.3136 -0.8840
 6880SOL     OW32098   4.304   4.412   6.092 -0.2278  0.8288  0.0231
 6880SOL    HW132099   4.283   4.479   6.157 -2.2406  0.3306 -0.1092
 6880SOL    HW232100   4.370   4.450   6.033  2.4765 -0.9692  1.9073
 6881SOL     OW32101   4.302   1.352   9.684  0.2175 -0.6098  0.2414
 6881SOL    HW132102   4.208   1.361   9.697  0.2969 -0.5258  0.7552
 6881SOL    HW232103   4.311   1.256   9.688  0.7651 -0.5114  1.5415
 6882SOL     OW32104   3.632   4.727  13.315 -0.1770  0.5481  0.0004
 6882SOL    HW132105   3.561   0.045  13.271 -0.3014 -0.7253 -1.0920
 6882SOL    HW232106   3.708   0.057  13.306 -1.3955  1.9313 -1.4382
 6883SOL     OW32107   1.072   4.024   1.995 -0.3402  0.4120  0.2651
 6883SOL    HW132108   1.161   4.027   2.031 -0.1862 -0.5448 -0.0503
 6883SOL    HW232109   1.048   4.115   2.014 -1.0690  0.2560  0.1054
 6884SOL     OW32110   2.916   3.012   7.193  0.1188 -0.0039 -0.1430
 6884SOL    HW132111   2.865   2.940   7.156  1.0071 -1.3896  1.3303
 6884SOL    HW232112   2.851   3.083   7.195  0.1864  0.0806 -1.6139
 6885SOL     OW32113   0.409   0.846   7.267  0.1501 -0.1974  0.0857
 6885SOL    HW132114   0.391   0.807   7.182 -0.0372 -0.3936  0.2151
 6885SOL    HW232115   0.496   0.817   7.294  0.6099  0.1814 -1.0016
 6886SOL     OW32116   4.067   4.625  15.530  0.2353 -0.6112 -0.5889
 6886SOL    HW132117   4.059   4.653  15.439 -0.5050  0.8833 -0.0542
 6886SOL    HW232118   4.021   4.694  15.576 -2.2966 -3.6547  1.4775
 6887SOL     OW32119   1.942   0.153   6.375 -0.1861 -0.1547 -0.3324
 6887SOL    HW132120   1.998   0.119   6.305  0.4469  3.4825 -1.6454
 6887SOL    HW232121   1.909   0.066   6.394  0.0786  0.3512  2.4672
 6888SOL     OW32122   1.061   3.718   5.055  0.5800  0.5285  0.5865
 6888SOL    HW132123   1.141   3.771   5.062  1.4983 -1.0431  1.8259
 6888SOL    HW232124   1.092   3.628   5.062  0.0542  0.2095 -1.1204
 6889SOL     OW32125   1.485   1.228   8.267  0.1977  0.0221  0.2343
 6889SOL    HW132126   1.496   1.135   8.284 -1.4370 -0.0321  1.0031
 6889SOL    HW232127   1.561   1.245   8.211 -0.4248  2.3125  0.0713
 6890SOL     OW32128   1.048   0.094  11.812  0.1599 -1.1054 -0.1634
 6890SOL    HW132129   1.035   0.179  11.770 -1.6524 -0.7349  1.1136
 6890SOL    HW232130   1.084   0.045  11.738 -1.4456 -0.7829 -1.1517
 6891SOL     OW32131   2.215   2.671   1.976  0.0696 -0.1655 -0.1602
 6891SOL    HW132132   2.232   2.762   1.954  0.3675 -0.1083  0.2877
 6891SOL    HW232133   2.160   2.641   1.904 -0.6936 -1.5997  1.0132
 6892SOL     OW32134   1.112   3.999   1.714 -0.1307 -0.4116  0.1350
 6892SOL    HW132135   1.030   3.955   1.692 -2.3725  2.9526  1.6204
 6892SOL    HW232136   1.118   3.994   1.810  1.1823  4.3329  0.3096
 6893SOL     OW32137   4.516   2.680  14.509  0.0984  0.4240  0.1168
 6893SOL    HW132138   4.528   2.688  14.604 -1.2602  0.8572  0.2522
 6893SOL    HW232139   4.432   2.635  14.499  0.2415  0.7470 -2.5696
 6894SOL     OW32140   3.470   4.186   0.964  0.1552  0.2409  0.2114
 6894SOL    HW132141   3.485   4.269   1.009  0.0441  0.9664 -1.0891
 6894SOL    HW232142   3.453   4.218   0.876  3.3802 -0.9047 -0.8112
 6895SOL     OW32143   1.041   2.530   6.985  0.0227 -0.2863 -0.5773
 6895SOL    HW132144   1.116   2.551   6.929 -1.9657  0.4742 -2.9410
 6895SOL    HW232145   1.075   2.448   7.021  0.8096 -1.1382 -3.2456
 6896SOL     OW32146   3.062   4.264   5.757 -0.3754 -0.0917  0.0507
 6896SOL    HW132147   3.135   4.264   5.819 -2.2357  1.0561  2.2010
 6896SOL    HW232148   3.073   4.181   5.710  2.3650 -0.5172  1.3884
 6897SOL     OW32149   3.421   1.666  14.472 -0.5719 -0.4450 -0.0747
 6897SOL    HW132150   3.403   1.750  14.430  2.8743 -0.1188 -0.9580
 6897SOL    HW232151   3.508   1.687  14.508 -0.3701 -1.1477 -0.1511
 6898SOL     OW32152   2.775   1.865  15.742 -0.3874  0.3202  0.1353
 6898SOL    HW132153   2.854   1.850  15.691  0.7460  1.0965  1.6904
 6898SOL    HW232154   2.736   1.777  15.750 -0.6620  0.9203  5.1380
 6899SOL     OW32155   4.386   0.234   9.522  0.1282 -0.3545  0.4313
 6899SOL    HW132156   4.322   0.294   9.559 -2.2009 -0.7231 -2.9628
 6899SOL    HW232157   4.376   0.244   9.427 -0.6173 -0.1059  0.5383
 6900SOL     OW32158   2.525   3.553  16.944  0.1259 -0.6784 -0.2840
 6900SOL    HW132159   2.463   3.504  16.889 -0.6130  0.7585 -0.7210
 6900SOL    HW232160   2.550   3.616  16.877  1.1281 -3.5684 -2.6484
 6901SOL     OW32161   3.898   4.540   8.004  0.0109 -0.3643 -0.0125
 6901SOL    HW132162   3.876   4.447   8.006 -0.5208 -0.1915  1.5636
 6901SOL    HW232163   3.856   4.561   8.087 -2.8475  1.4243 -1.8904
 6902SOL     OW32164   4.311   0.285  14.861 -0.6650 -0.4284 -0.7128
 6902SOL    HW132165   4.308   0.314  14.952  2.3362 -0.9304 -0.4602
 6902SOL    HW232166   4.253   0.346  14.813 -0.0879  1.9921  1.6564
 6903SOL     OW32167   4.676   1.277   1.268 -0.5846  0.4120  0.0383
 6903SOL    HW132168   4.685   1.186   1.240  1.2549  0.4667  0.4985
 6903SOL    HW232169   4.649   1.312   1.182  0.4518  0.4707 -0.2553
 6904SOL     OW32170   1.413   1.094   5.237  0.3293  0.4121  0.0546
 6904SOL    HW132171   1.336   1.060   5.192  1.0141 -1.0509 -0.0100
 6904SOL    HW232172   1.471   1.019   5.225  0.5225  0.0467  3.3413
 6905SOL     OW32173   0.247   1.762   0.089  0.4132  0.9761  0.2414
 6905SOL    HW132174   0.159   1.796   0.102 -0.3257 -0.7946 -0.0278
 6905SOL    HW232175   0.283   1.829   0.031  0.3715 -0.4764 -1.4712
 6906SOL     OW32176   4.453   1.870   0.904  0.2043  0.1390  0.2854
 6906SOL    HW132177   4.493   1.944   0.858  0.3330 -0.0249  0.1325
 6906SOL    HW232178   4.375   1.842   0.856 -0.1276 -0.0936  0.9599
 6907SOL     OW32179   1.119   1.716   6.121  0.3913 -0.2612  0.9006
 6907SOL    HW132180   1.166   1.651   6.069 -0.0924 -0.7583  1.0903
 6907SOL    HW232181   1.053   1.660   6.161 -0.8942  1.6822  1.5395
 6908SOL     OW32182   2.492   0.807   3.681 -0.0216  0.3752  0.0112
 6908SOL    HW132183   2.438   0.841   3.610 -0.4424  1.1038  0.6901
 6908SOL    HW232184   2.555   0.879   3.681 -0.3518  0.6779  2.2227
 6909SOL     OW32185   4.053   1.282  10.633  0.0898 -0.6332 -0.0685
 6909SOL    HW132186   4.008   1.341  10.572  1.7995 -1.6940 -2.3319
 6909SOL    HW232187   4.144   1.304  10.615  0.5111 -1.2526  1.3379
 6910SOL     OW32188   3.346   1.002   8.397  0.4013 -0.2471  0.2118
 6910SOL    HW132189   3.257   0.998   8.434  0.2999 -1.3172 -0.1295
 6910SOL    HW232190   3.364   0.915   8.361 -1.4465 -1.3732  1.9407
 6911SOL     OW32191   1.025   2.226   5.199  0.4899 -0.0966 -0.2889
 6911SOL    HW132192   0.955   2.283   5.229  0.2937 -0.3705 -0.2257
 6911SOL    HW232193   0.981   2.141   5.191 -2.4408  1.2400  1.8442
 6912SOL     OW32194   3.807   2.510   8.154 -0.3933  0.1584 -0.3929
 6912SOL    HW132195   3.795   2.417   8.131  0.6217 -0.1849  0.4601
 6912SOL    HW232196   3.809   2.554   8.069 -0.6178 -0.0632 -0.5129
 6913SOL     OW32197   1.387   3.221   0.764  0.2972 -0.0040  0.1524
 6913SOL    HW132198   1.294   3.234   0.781 -0.0673  0.9864 -2.6333
 6913SOL    HW232199   1.418   3.299   0.718 -1.0012  0.4398  0.0503
 6914SOL     OW32200   3.629   0.457   5.389  0.3080  0.2602  0.3941
 6914SOL    HW132201   3.665   0.385   5.442  0.1174 -0.1445 -0.0348
 6914SOL    HW232202   3.669   0.446   5.303 -1.3812  1.9713 -0.6030
 6915SOL     OW32203   1.695   3.047   8.178 -0.1010  0.9056  0.0742
 6915SOL    HW132204   1.639   3.069   8.103 -0.8855  0.0784  0.4240
 6915SOL    HW232205   1.646   3.094   8.245 -0.4045 -0.8871  1.1107
 6916SOL     OW32206   1.037   1.174  11.160  0.0122 -0.0791  0.3685
 6916SOL    HW132207   1.012   1.082  11.170 -0.0679 -0.1431 -0.3894
 6916SOL    HW232208   1.095   1.167  11.083 -0.0784  0.6795  0.2371
 6917SOL     OW32209   1.720   2.088   4.905  0.4583 -0.1025  0.4475
 6917SOL    HW132210   1.804   2.056   4.937 -0.3335 -1.2442  1.3869
 6917SOL    HW232211   1.700   2.140   4.983  1.1621  0.1978  0.4295
 6918SOL     OW32212   3.936   0.700   8.374 -0.2538 -0.3060 -0.5305
 6918SOL    HW132213   3.997   0.627   8.374  1.5401  1.1956  0.3495
 6918SOL    HW232214   3.989   0.778   8.394  0.7409 -0.8133 -1.2179
 6919SOL     OW32215   0.817   3.891   7.860  0.4929  0.4542  0.1451
 6919SOL    HW132216   0.880   3.839   7.911  1.6714  0.1922 -1.5982
 6919SOL    HW232217   0.767   3.824   7.814  1.4705 -0.7269  0.7865
 6920SOL     OW32218   1.707   4.524   7.600  0.4716  0.1335 -0.1514
 6920SOL    HW132219   1.669   4.608   7.573  0.2750  0.2295  0.4327
 6920SOL    HW232220   1.636   4.465   7.622 -0.2363 -0.3240 -3.6023
 6921SOL     OW32221   1.814   3.649   6.886 -0.6044  0.0501  0.2634
 6921SOL    HW132222   1.891   3.700   6.863  0.5452 -2.2656 -1.1085
 6921SOL    HW232223   1.861   3.602   6.955 -0.0584 -0.1889 -0.2645
 6922SOL     OW32224   4.221   1.691  11.158  0.1626  0.4020 -0.1750
 6922SOL    HW132225   4.181   1.604  11.148 -0.2742  0.8338 -2.0900
 6922SOL    HW232226   4.311   1.673  11.130  0.5796  1.1292  0.7113
 6923SOL     OW32227   4.119   3.150   3.305  0.1058 -0.4365 -0.3504
 6923SOL    HW132228   4.151   3.105   3.227 -0.3015 -0.7600 -0.3262
 6923SOL    HW232229   4.195   3.135   3.361 -0.3284  0.6866  0.5489
 6924SOL     OW32230   4.536   1.993   2.811 -0.1151 -0.0132 -0.5064
 6924SOL    HW132231   4.497   2.043   2.883  2.2893  2.5942 -0.9880
 6924SOL    HW232232   4.462   1.983   2.750 -0.4723  1.5646 -0.3248
 6925SOL     OW32233   3.996   3.291   4.412  0.0635 -0.9274  0.1822
 6925SOL    HW132234   4.047   3.242   4.348  0.2837  0.1459 -0.4639
 6925SOL    HW232235   3.924   3.333   4.364 -0.0367 -1.6529 -0.3058
 6926SOL     OW32236   3.695   1.545  17.608  0.5804  0.1294  0.1826
 6926SOL    HW132237   3.633   1.582  17.544  1.8241  4.5399  1.5846
 6926SOL    HW232238   3.625   1.528  17.671  0.6805 -0.1337  0.2227
 6927SOL     OW32239   3.203   2.295   2.670  0.1107  0.7645 -0.3277
 6927SOL    HW132240   3.148   2.357   2.621  2.1422 -0.5626 -4.2866
 6927SOL    HW232241   3.268   2.276   2.602 -1.1561  1.8884 -1.8488
 6928SOL     OW32242   0.012   0.248  10.170  0.6040  0.2628 -0.0542
 6928SOL    HW132243   0.043   0.286  10.252 -0.4707 -0.0956  0.5173
 6928SOL    HW232244   4.647   0.241  10.191  0.9059  0.6616  1.3920
 6929SOL     OW32245   1.380   0.692   4.209 -0.2780  0.3204  0.2407
 6929SOL    HW132246   1.360   0.599   4.205  0.9162  0.0283  0.9380
 6929SOL    HW232247   1.461   0.688   4.157  0.9010  3.1056  1.8682
 6930SOL     OW32248   1.183   0.268  14.559  0.0507 -0.1468 -0.0688
 6930SOL    HW132249   1.161   0.331  14.628 -0.8135  2.0862 -2.3913
 6930SOL    HW232250   1.157   0.197  14.618 -3.5086  1.3908  0.2265
 6931SOL     OW32251   3.124   3.555   8.848 -0.6609  0.5708 -0.2869
 6931SOL    HW132252   3.201   3.557   8.790 -0.3103 -0.2048  0.1467
 6931SOL    HW232253   3.168   3.512   8.921  0.9186 -0.0630 -1.5845
 6932SOL     OW32254   0.591   0.630   2.227 -0.8651  0.2608  0.0727
 6932SOL    HW132255   0.682   0.621   2.258 -0.6631 -1.7320 -1.1614
 6932SOL    HW232256   0.552   0.563   2.283 -0.3162 -0.2120 -0.1053
 6933SOL     OW32257   0.952   2.419   2.119 -0.1042 -0.0889  0.9304
 6933SOL    HW132258   1.039   2.440   2.088 -0.0106 -0.3373  1.0238
 6933SOL    HW232259   0.965   2.421   2.214  2.3350  0.5394  0.5925
 6934SOL     OW32260   1.542   0.429   1.877  0.1542  0.4938  1.0318
 6934SOL    HW132261   1.518   0.338   1.891  0.4767  0.3545  0.6681
 6934SOL    HW232262   1.602   0.438   1.952  1.5123  0.8722 -0.0997
 6935SOL     OW32263   4.237   2.646   4.911 -0.0922 -0.0669 -0.1479
 6935SOL    HW132264   4.237   2.602   4.826  2.4992 -2.7477  1.2423
 6935SOL    HW232265   4.300   2.717   4.900  0.7933 -1.1505 -1.9069
 6936SOL     OW32266   0.648   0.997   6.868 -0.5915 -0.1401  0.6886
 6936SOL    HW132267   0.564   0.952   6.861 -0.9740  0.7581 -0.4888
 6936SOL    HW232268   0.651   1.042   6.784 -1.4550 -0.8569  0.2772
 6937SOL     OW32269   0.693   0.088  12.241 -0.5455  0.7248 -0.1271
 6937SOL    HW132270   0.785   0.111  12.250 -0.0355 -0.9993 -0.9096
 6937SOL    HW232271   0.699   0.074  12.146  2.6536  1.4481 -0.0235
 6938SOL     OW32272   2.008   0.355   2.796 -0.2105 -0.0557  0.0845
 6938SOL    HW132273   1.952   0.295   2.746 -1.4376 -0.7085  2.2405
 6938SOL    HW232274   2.085   0.349   2.740  0.2757 -0.9564  0.8633
 6939SOL     OW32275   0.905   0.585   4.056 -0.7581  0.1083  0.0183
 6939SOL    HW132276   0.880   0.513   4.114  1.4377 -0.9941 -0.3900
 6939SOL    HW232277   1.000   0.586   4.068 -1.0618 -1.0273  2.6025
 6940SOL     OW32278   1.498   2.787  15.146  0.6498  0.2962  0.4342
 6940SOL    HW132279   1.447   2.840  15.084 -0.1143 -1.1346 -0.1714
 6940SOL    HW232280   1.529   2.713  15.093  0.9374 -1.1357  2.6266
 6941SOL     OW32281   4.241   2.213   9.514  0.4790 -0.2639  0.2038
 6941SOL    HW132282   4.299   2.150   9.470 -0.3124  0.4795 -1.8820
 6941SOL    HW232283   4.282   2.294   9.485 -0.5349  0.6887  1.4516
 6942SOL     OW32284   4.333   3.466  14.186 -0.5048  0.3419 -0.0218
 6942SOL    HW132285   4.425   3.472  14.159 -0.4626  0.9472  0.2473
 6942SOL    HW232286   4.315   3.559  14.197  2.1918  0.7541  1.1050
 6943SOL     OW32287   3.049   0.931   3.555  0.2166 -0.3477  0.4233
 6943SOL    HW132288   3.096   1.014   3.558 -0.8915  0.3797 -2.0524
 6943SOL    HW232289   3.122   0.886   3.513 -2.0992 -2.6052 -1.2241
 6944SOL     OW32290   0.204   2.226   6.623 -0.3666 -0.7625  0.1365
 6944SOL    HW132291   0.144   2.166   6.669  1.2432 -2.3274  0.1826
 6944SOL    HW232292   0.145   2.259   6.554  2.9742  0.5878 -2.0420
 6945SOL     OW32293   0.046   1.727  13.693 -0.4361 -0.5684 -0.2461
 6945SOL    HW132294   4.694   1.703  13.644 -0.4169 -0.2223 -0.4465
 6945SOL    HW232295   0.062   1.811  13.649  0.4113 -0.2802  0.6138
 6946SOL     OW32296   0.840   2.745   8.317 -0.0590 -0.4301  0.0705
 6946SOL    HW132297   0.779   2.770   8.386 -0.2333 -2.1118  0.5171
 6946SOL    HW232298   0.794   2.765   8.235  1.1335 -0.7727 -0.6914
 6947SOL     OW32299   0.878   2.135   4.097  0.2385  0.4923  0.2700
 6947SOL    HW132300   0.867   2.123   4.191 -0.9085 -0.8993 -0.0310
 6947SOL    HW232301   0.806   2.081   4.063  1.5522 -1.3126  0.3980
 6948SOL     OW32302   2.503   2.596   7.196  0.5325 -0.1723  0.0778
 6948SOL    HW132303   2.414   2.615   7.168  0.2853 -1.3485  0.0736
 6948SOL    HW232304   2.520   2.519   7.141  1.0999 -1.7860  2.4873
 6949SOL     OW32305   0.268   2.135   9.066  0.5582  0.5300  0.1120
 6949SOL    HW132306   0.343   2.077   9.074  0.3637  0.2204 -0.3446
 6949SOL    HW232307   0.306   2.205   9.120 -1.0717  2.1160 -0.7813
 6950SOL     OW32308   4.684   1.216   9.084 -0.1201 -0.2416  0.2192
 6950SOL    HW132309   4.662   1.239   8.994  1.5962 -2.5629 -0.8033
 6950SOL    HW232310   0.008   1.138   9.062  1.6702  1.8167 -2.8706
 6951SOL     OW32311   1.057   2.071   2.635 -0.7914  0.6526 -0.0358
 6951SOL    HW132312   1.142   2.087   2.676  0.5356  0.0520 -2.5399
 6951SOL    HW232313   1.080   2.087   2.544 -1.0539  1.2326  0.0020
 6952SOL     OW32314   4.667   0.582   9.576  0.4978 -0.1845 -0.2542
 6952SOL    HW132315   0.006   0.597   9.643  0.3491 -1.1582  0.1146
 6952SOL    HW232316   4.587   0.592   9.628  0.5178 -1.2448 -0.0017
 6953SOL     OW32317   2.812   3.311   2.342  0.3166 -0.4385 -0.2166
 6953SOL    HW132318   2.850   3.256   2.274  0.1654 -0.8682  0.0513
 6953SOL    HW232319   2.868   3.273   2.410 -0.7612 -1.5640  0.0207
 6954SOL     OW32320   3.723   3.012   2.802  0.6563 -0.1886 -0.5327
 6954SOL    HW132321   3.670   2.990   2.725  0.5078 -1.9001  0.0632
 6954SOL    HW232322   3.805   2.970   2.780 -0.1896 -3.7301  3.0782
 6955SOL     OW32323   1.825   4.276   1.209  0.4755  0.1542  0.7238
 6955SOL    HW132324   1.850   4.235   1.292 -1.3291 -3.4532 -0.5499
 6955SOL    HW232325   1.912   4.298   1.175  1.2328  1.1018  3.2313
 6956SOL     OW32326   4.474   4.119   3.001 -0.3329 -0.0450  0.4921
 6956SOL    HW132327   4.520   4.047   2.959 -1.2533  0.0424 -0.6801
 6956SOL    HW232328   4.481   4.191   2.938  1.1389 -2.1932 -1.7909
 6957SOL     OW32329   3.828   3.561   8.594 -0.1742  0.2519 -0.2511
 6957SOL    HW132330   3.912   3.523   8.618  0.3278  1.5148  0.0323
 6957SOL    HW232331   3.864   3.618   8.527 -1.7325  0.3228 -1.0459
 6958SOL     OW32332   2.329   4.488  17.079  0.5481  0.4626  0.2437
 6958SOL    HW132333   2.328   4.393  17.086  0.4460  0.4072 -0.5568
 6958SOL    HW232334   2.285   4.513  17.161  2.0592  0.8347  0.9343
 6959SOL     OW32335   0.446   2.915   7.404 -0.3662  0.0024 -0.2684
 6959SOL    HW132336   0.473   2.979   7.338  1.4416 -1.1186 -0.6089
 6959SOL    HW232337   0.353   2.938   7.403 -0.4005 -0.0731  1.3351
 6960SOL     OW32338   4.192   1.051  16.316  0.9936 -0.0281 -0.1493
 6960SOL    HW132339   4.186   1.015  16.404  0.3861  1.5853  0.4720
 6960SOL    HW232340   4.277   1.095  16.316  0.9523  0.0527 -0.0925
 6961SOL     OW32341   0.307   3.681   1.887  0.2182 -0.4382  0.1691
 6961SOL    HW132342   0.343   3.637   1.964  0.9218 -0.0399  0.0697
 6961SOL    HW232343   0.233   3.621   1.880 -0.8586  0.4125  4.1247
 6962SOL     OW32344   3.182   0.049   7.556  0.0086 -0.2637 -0.0861
 6962SOL    HW132345   3.180   0.035   7.461 -0.0068 -1.2368  0.0493
 6962SOL    HW232346   3.200   0.142   7.562 -2.2251  0.0662  1.3964
 6963SOL     OW32347   4.019   0.272   6.830  0.0322  0.2709 -0.2915
 6963SOL    HW132348   3.961   0.196   6.831 -1.4271  1.3894 -0.0089
 6963SOL    HW232349   4.045   0.263   6.922 -0.3957  0.3977 -0.1581
 6964SOL     OW32350   0.684   2.335   5.687  0.3990  0.6703 -0.0654
 6964SOL    HW132351   0.598   2.292   5.681  0.7078 -0.0638  0.7490
 6964SOL    HW232352   0.661   2.410   5.742  1.6433  1.3521 -0.4865
 6965SOL     OW32353   1.483   4.037  16.027  0.0516  0.0090  0.1822
 6965SOL    HW132354   1.442   3.972  15.970 -1.4721  1.7210 -0.6761
 6965SOL    HW232355   1.573   4.035  15.994  0.9803  0.2479  2.7585
 6966SOL     OW32356   2.968   3.714  14.849  0.1597  0.3650  0.8918
 6966SOL    HW132357   2.956   3.693  14.756 -1.2714  0.4157  1.0712
 6966SOL    HW232358   3.022   3.640  14.878  1.0513  0.7802  0.3155
 6967SOL     OW32359   3.145   3.090  12.439 -0.5422  0.1625 -0.1773
 6967SOL    HW132360   3.222   3.115  12.491 -0.7414  0.8534 -0.2214
 6967SOL    HW232361   3.165   2.999  12.415  1.9494  0.8213 -0.6403
 6968SOL     OW32362   2.267   3.433   6.445  0.2137  0.3761  0.0802
 6968SOL    HW132363   2.191   3.436   6.387  0.0888  0.2643  0.2380
 6968SOL    HW232364   2.334   3.481   6.397 -1.3072  0.7330 -1.6999
 6969SOL     OW32365   1.013   0.814   0.234  0.3611 -0.1054  0.1001
 6969SOL    HW132366   0.999   0.903   0.203 -1.5944 -0.0353  1.2390
 6969SOL    HW232367   1.096   0.802   0.188  0.1236 -0.1972 -0.3050
 6970SOL     OW32368   2.878   1.361   7.497  0.4031  0.2883 -0.0913
 6970SOL    HW132369   2.849   1.276   7.465  0.2487 -0.3501  1.7598
 6970SOL    HW232370   2.848   1.422   7.429 -1.5623  0.8882  1.3041
 6971SOL     OW32371   0.945   4.240   9.306  0.1252  1.0300  0.1595
 6971SOL    HW132372   0.967   4.315   9.361  1.3831  0.3901  0.5373
 6971SOL    HW232373   0.853   4.258   9.289  0.4802  1.4681 -1.3135
 6972SOL     OW32374   3.481   3.451   0.622  0.2201 -0.2439  0.1440
 6972SOL    HW132375   3.407   3.492   0.668 -0.6344 -0.9494 -0.5847
 6972SOL    HW232376   3.540   3.520   0.593 -2.0596  1.1063 -1.2376
 6973SOL     OW32377   0.900   2.539   8.651  0.3136  0.1805 -0.1315
 6973SOL    HW132378   0.910   2.478   8.724 -1.1921  0.2918  0.1760
 6973SOL    HW232379   0.865   2.486   8.579  2.7042  0.4671 -1.5104
 6974SOL     OW32380   2.486   4.229  14.171 -0.3164 -0.4903  0.1172
 6974SOL    HW132381   2.447   4.218  14.257 -2.3853  1.0482 -0.6155
 6974SOL    HW232382   2.455   4.318  14.154 -1.4489 -1.3700 -2.5092
 6975SOL     OW32383   2.927   2.098   4.866 -0.1659  0.3765  0.5580
 6975SOL    HW132384   2.837   2.125   4.846 -0.3545 -0.0994  0.7644
 6975SOL    HW232385   2.922   2.016   4.915 -1.1188  0.5031  0.6778
 6976SOL     OW32386   0.550   0.102   6.876  0.6355  0.6004  0.3905
 6976SOL    HW132387   0.503   0.179   6.845  0.4888  0.0042 -0.8357
 6976SOL    HW232388   0.644   0.108   6.858  0.1189  2.2879 -1.7216
 6977SOL     OW32389   3.444   1.176   0.603  0.0650  0.0899 -0.0717
 6977SOL    HW132390   3.351   1.191   0.586  0.2428 -2.1751 -3.1680
 6977SOL    HW232391   3.484   1.199   0.519 -0.9403  0.1731 -0.5285
 6978SOL     OW32392   2.795   4.549   7.607  0.0290  0.0965 -0.0244
 6978SOL    HW132393   2.734   4.621   7.594  2.7298  2.2792 -0.6247
 6978SOL    HW232394   2.774   4.489   7.536  0.5352  0.6021 -0.6016
 6979SOL     OW32395   0.201   2.983   7.358  0.1384 -0.3388  0.1972
 6979SOL    HW132396   0.133   3.049   7.373 -0.2703 -0.7103 -0.0062
 6979SOL    HW232397   0.173   2.962   7.269 -0.1326 -0.6532  0.3556
 6980SOL     OW32398   3.535   2.131   9.499 -0.3130 -0.3406  0.4889
 6980SOL    HW132399   3.497   2.093   9.578 -0.0315 -1.4871  0.0662
 6980SOL    HW232400   3.514   2.076   9.424  1.7691 -1.0439  0.4317
 6981SOL     OW32401   3.078   0.125   5.504  0.2026  0.2049 -0.0584
 6981SOL    HW132402   3.066   0.056   5.440 -0.2541 -0.6612  0.9587
 6981SOL    HW232403   2.998   0.176   5.488 -0.8361 -0.1298  4.0048
 6982SOL     OW32404   0.420   4.293   3.054  0.5672 -0.4126  0.5976
 6982SOL    HW132405   0.337   4.253   3.077  0.2787 -0.4731 -0.5889
 6982SOL    HW232406   0.459   4.218   3.009  2.8272  0.5918  0.8329
 6983SOL     OW32407   2.081   2.642  12.776  0.0973 -0.0042  0.3681
 6983SOL    HW132408   2.070   2.723  12.726  0.0918 -0.1253  0.1743
 6983SOL    HW232409   2.170   2.655  12.810 -0.2522 -0.3867  1.4350
 6984SOL     OW32410   3.802   4.541   7.664  0.3740 -0.0699 -0.5522
 6984SOL    HW132411   3.863   4.609   7.692 -0.3280 -0.2352  1.3435
 6984SOL    HW232412   3.733   4.594   7.623  2.4224  2.4448 -0.6953
 6985SOL     OW32413   4.718   2.740   3.696 -0.0405 -0.0100 -0.2650
 6985SOL    HW132414   0.039   2.702   3.769 -0.4226 -0.8234 -0.4315
 6985SOL    HW232415   4.668   2.812   3.733  1.5545  0.1653  1.5526
 6986SOL     OW32416   3.620   2.612   5.555  0.3055 -0.1631  0.1763
 6986SOL    HW132417   3.683   2.567   5.498  0.3827 -0.7481  0.7296
 6986SOL    HW232418   3.543   2.632   5.501  1.8831  0.1549 -1.9693
 6987SOL     OW32419   4.600   0.878   3.232  0.2093  0.5535  0.1538
 6987SOL    HW132420   4.692   0.889   3.257 -0.4424  0.6477  2.5023
 6987SOL    HW232421   4.585   0.961   3.187 -0.5368  0.4706  0.2453
 6988SOL     OW32422   3.380   1.276   4.072  0.0966  0.2603  0.2773
 6988SOL    HW132423   3.432   1.307   4.146  0.0717  1.4495 -0.2168
 6988SOL    HW232424   3.292   1.295   4.105 -1.3167 -3.0132 -1.6138
 6989SOL     OW32425   1.302   1.622   0.340 -0.2988  0.4006  0.3135
 6989SOL    HW132426   1.264   1.598   0.255  0.5061  1.5060 -0.3583
 6989SOL    HW232427   1.397   1.618   0.331 -0.3841 -3.0328  0.7601
 6990SOL     OW32428   2.224   2.179  13.884 -0.7857  0.6564  0.2762
 6990SOL    HW132429   2.276   2.109  13.843 -2.6598  0.5370 -1.9109
 6990SOL    HW232430   2.249   2.165  13.975  0.9082 -1.6042 -0.5052
 6991SOL     OW32431   2.455   3.633   6.312 -0.4290  0.6633 -0.1062
 6991SOL    HW132432   2.496   3.567   6.256 -0.5760  1.5762 -1.2893
 6991SOL    HW232433   2.383   3.663   6.257  0.4104  1.8832 -0.5472
 6992SOL     OW32434   2.546   4.213   1.216 -0.3648  0.0521  0.0048
 6992SOL    HW132435   2.452   4.206   1.200 -0.7745  0.5670  2.1994
 6992SOL    HW232436   2.555   4.163   1.297 -1.8018  1.9686  1.3474
 6993SOL     OW32437   2.312   1.040   3.821 -0.2429 -0.0705  0.4078
 6993SOL    HW132438   2.407   1.038   3.836 -0.1601  0.1838 -0.0813
 6993SOL    HW232439   2.267   1.037   3.905 -3.4754  2.0072 -1.2443
 6994SOL     OW32440   0.223   1.661   8.093 -0.1557 -0.6104  0.2784
 6994SOL    HW132441   0.137   1.620   8.084  0.1418 -0.8295 -1.6015
 6994SOL    HW232442   0.263   1.621   8.170  1.2331 -0.6028 -0.4403
 6995SOL     OW32443   1.391   3.936  12.608 -0.5420  0.2782  1.0017
 6995SOL    HW132444   1.416   4.027  12.589  0.2816 -0.2684 -0.5375
 6995SOL    HW232445   1.383   3.900  12.520 -2.4593  1.5010  0.6770
 6996SOL     OW32446   0.071   1.072   5.847 -0.4348 -0.2536 -0.9192
 6996SOL    HW132447   0.164   1.052   5.857 -0.2737  1.9826  2.0410
 6996SOL    HW232448   0.065   1.119   5.764  1.4091  0.4363 -0.6531
 6997SOL     OW32449   0.689   2.508  17.477 -0.2668 -0.3595 -0.0375
 6997SOL    HW132450   0.712   2.586  17.428  2.2530 -0.4207  1.0591
 6997SOL    HW232451   0.612   2.529  17.529 -0.9266  1.8412 -1.9157
 6998SOL     OW32452   1.654   0.523   6.150 -0.7067  0.0220  0.4697
 6998SOL    HW132453   1.681   0.432   6.159  1.9633  0.7026 -0.8427
 6998SOL    HW232454   1.592   0.511   6.078  1.8273 -0.3777 -1.6272
 6999SOL     OW32455   0.501   2.336   0.183  0.3232  0.0997 -0.0985
 6999SOL    HW132456   0.595   2.336   0.164 -0.1984 -0.3000 -2.7926
 6999SOL    HW232457   0.470   2.385   0.107 -0.0406 -1.3234 -0.8674
 7000SOL     OW32458   0.162   3.740  15.112  0.3632 -0.5393  0.3756
 7000SOL    HW132459   0.072   3.771  15.105  1.8230  3.8681  1.6147
 7000SOL    HW232460   0.183   3.702  15.027 -3.0787 -0.0171 -0.7103
 7001SOL     OW32461   3.119   0.765  11.860 -0.1996  0.1567 -0.5876
 7001SOL    HW132462   3.157   0.769  11.772 -0.5309 -0.1147 -0.7417
 7001SOL    HW232463   3.093   0.855  11.876  1.5449  0.6082 -0.2716
 7002SOL     OW32464   1.232   1.976   8.508 -0.5527  0.1538 -0.1070
 7002SOL    HW132465   1.221   1.945   8.598  0.4878  1.0633  0.3359
 7002SOL    HW232466   1.150   2.024   8.491 -1.6476 -2.2978 -1.6848
 7003SOL     OW32467   3.517   1.801   0.794 -0.2637  0.3227  0.0185
 7003SOL    HW132468   3.521   1.848   0.878 -0.1140  0.5806 -0.1350
 7003SOL    HW232469   3.434   1.833   0.758 -1.4116 -0.6377  1.7598
 7004SOL     OW32470   4.212   2.919   1.011 -0.6722  0.1144  0.7736
 7004SOL    HW132471   4.290   2.909   1.066 -1.4090 -1.4041  1.5308
 7004SOL    HW232472   4.244   2.955   0.928  0.1655  0.9938  1.4807
 7005SOL     OW32473   3.534   0.247   6.769  0.0599  0.3360 -0.4247
 7005SOL    HW132474   3.577   0.328   6.740 -0.2189  0.4371 -0.5647
 7005SOL    HW232475   3.592   0.181   6.732  0.5027  0.7686 -0.5040
 7006SOL     OW32476   2.542   0.428   6.356 -0.0390 -0.4537 -0.5220
 7006SOL    HW132477   2.526   0.356   6.295 -1.0538 -0.7397  0.0830
 7006SOL    HW232478   2.462   0.418   6.408 -0.0299  0.3145 -0.3632
 7007SOL     OW32479   1.552   0.563  17.207 -0.1459 -0.3693 -0.5198
 7007SOL    HW132480   1.550   0.479  17.161  0.9798 -1.3798  1.2881
 7007SOL    HW232481   1.532   0.535  17.296  0.4039  2.2480  0.4310
 7008SOL     OW32482   3.883   2.730   0.397  0.8158  0.2729  0.5237
 7008SOL    HW132483   3.937   2.753   0.473 -0.6666  2.4360  0.9328
 7008SOL    HW232484   3.921   2.774   0.321 -1.0203  2.2995  0.7749
 7009SOL     OW32485   0.700   0.478   0.910  0.5556  0.5309  0.2327
 7009SOL    HW132486   0.620   0.492   0.860  1.7840 -0.6770 -2.0514
 7009SOL    HW232487   0.680   0.519   0.994 -0.8304 -1.9958  1.1611
 7010SOL     OW32488   2.176   2.969   6.961  0.0519  0.6166  0.3868
 7010SOL    HW132489   2.163   3.005   6.873  0.9941 -2.0777 -0.8397
 7010SOL    HW232490   2.095   2.995   7.005 -1.3739  0.3539 -2.0779
 7011SOL     OW32491   4.694   4.135   9.588  0.0502  0.3173 -0.4854
 7011SOL    HW132492   4.651   4.054   9.615 -3.6109  1.5556 -2.6273
 7011SOL    HW232493   4.622   4.172   9.536 -0.4842  0.1924  0.1621
 7012SOL     OW32494   4.063   0.212   1.414  0.1125  0.0687  0.5285
 7012SOL    HW132495   4.144   0.256   1.387  0.4748 -0.2757  1.0625
 7012SOL    HW232496   4.002   0.284   1.399 -1.8992 -1.5705  0.9084
 7013SOL     OW32497   0.765   2.272   5.227 -0.0272  0.0971  0.5955
 7013SOL    HW132498   0.759   2.241   5.317  0.4003 -0.3913  0.4537
 7013SOL    HW232499   0.717   2.204   5.180  0.5697 -0.7863  1.2660
 7014SOL     OW32500   3.684   4.629   4.585  0.6527  0.5204 -0.3631
 7014SOL    HW132501   3.655   4.537   4.590 -3.4594  1.7319 -1.8265
 7014SOL    HW232502   3.720   4.627   4.496 -0.1235 -1.6017 -0.6397
 7015SOL     OW32503   2.368   2.314   1.966 -0.2354  0.3531  0.3812
 7015SOL    HW132504   2.336   2.364   1.891  1.4552 -2.4883 -2.2561
 7015SOL    HW232505   2.423   2.255   1.914 -1.1828  1.1464 -1.5445
 7016SOL     OW32506   1.035   0.528   1.318  0.1573 -0.7606 -0.3092
 7016SOL    HW132507   1.127   0.506   1.326  0.0956 -0.5122  1.0595
 7016SOL    HW232508   1.012   0.469   1.247 -3.0859 -1.5728  1.4371
 7017SOL     OW32509   3.389   0.208   3.134 -0.8370 -0.3855  0.3603
 7017SOL    HW132510   3.332   0.132   3.122  0.0163 -0.9154 -0.3475
 7017SOL    HW232511   3.392   0.256   3.051 -1.4985  1.2688  1.2843
 7018SOL     OW32512   2.175   1.745   6.253  0.5576  0.2231  0.2894
 7018SOL    HW132513   2.182   1.657   6.217 -4.2507 -0.1361  0.1923
 7018SOL    HW232514   2.131   1.714   6.333 -0.8646  1.6533  0.0847
 7019SOL     OW32515   1.456   3.443   0.603 -0.1032  0.2333  0.5732
 7019SOL    HW132516   1.544   3.481   0.597 -0.2771  0.6278  0.5955
 7019SOL    HW232517   1.413   3.508   0.547  1.7997 -0.5470 -1.8035
 7020SOL     OW32518   0.592   0.680   2.616 -0.0235 -0.3259  0.3822
 7020SOL    HW132519   0.553   0.739   2.680 -0.2460 -0.6665  0.5645
 7020SOL    HW232520   0.680   0.683   2.653 -0.6978 -0.4990  2.0151
 7021SOL     OW32521   0.924   1.932   1.957 -0.2931 -0.7161  0.2369
 7021SOL    HW132522   0.922   1.842   1.924 -0.0193 -1.2380  1.6340
 7021SOL    HW232523   1.015   1.959   1.942 -1.5211  2.6003 -1.1322
 7022SOL     OW32524   1.098   3.223   6.668 -0.2256  0.1080 -0.1660
 7022SOL    HW132525   1.016   3.186   6.632  1.6531 -3.3950 -0.8863
 7022SOL    HW232526   1.119   3.288   6.601  1.0613 -2.1288 -1.9501
 7023SOL     OW32527   1.359   3.551   7.133  0.5615  0.5704  0.6366
 7023SOL    HW132528   1.437   3.513   7.093  1.0027  0.3341  1.7126
 7023SOL    HW232529   1.326   3.613   7.068 -0.5595  0.5903  1.2260
 7024SOL     OW32530   0.605   1.068   8.794  0.0910 -0.3714 -0.0857
 7024SOL    HW132531   0.520   1.089   8.831  0.6539  0.5444  0.6867
 7024SOL    HW232532   0.628   0.989   8.842 -1.8114 -1.0814 -0.3374
 7025SOL     OW32533   3.354   2.781  12.598  0.3499 -1.1989 -0.5774
 7025SOL    HW132534   3.333   2.781  12.505  0.1086 -0.3583 -0.5200
 7025SOL    HW232535   3.354   2.874  12.621  0.5055 -1.4671  0.5342
 7026SOL     OW32536   3.699   1.026   6.215  0.4723  0.2464  0.1102
 7026SOL    HW132537   3.662   1.084   6.148  4.8323  1.9420 -0.8611
 7026SOL    HW232538   3.621   1.004   6.265  0.2598  0.6505 -0.0451
 7027SOL     OW32539   3.299   4.106   6.920  0.0066  0.5162  0.2606
 7027SOL    HW132540   3.258   4.119   7.006  0.0590 -0.8727  0.4945
 7027SOL    HW232541   3.289   4.011   6.926  0.7330  0.4165 -0.2425
 7028SOL     OW32542   3.396   2.031   4.191 -0.0156  0.6928 -0.5705
 7028SOL    HW132543   3.311   1.988   4.194  0.6039 -0.3466  2.3490
 7028SOL    HW232544   3.417   2.035   4.285  0.1998  0.3352 -0.6034
 7029SOL     OW32545   1.966   4.004  15.899 -0.0074  0.1724  0.1961
 7029SOL    HW132546   1.979   4.019  15.805 -0.0231 -1.2061 -0.0214
 7029SOL    HW232547   1.906   3.931  15.888  0.6256 -0.0720 -1.5637
 7030SOL     OW32548   3.546   2.841  11.799  0.0573 -0.6662 -0.0906
 7030SOL    HW132549   3.478   2.908  11.797 -0.2457 -0.9706 -0.0942
 7030SOL    HW232550   3.534   2.807  11.888  1.3878 -2.1021 -0.4474
 7031SOL     OW32551   1.787   1.783   0.124  0.0845 -0.0771 -0.2363
 7031SOL    HW132552   1.858   1.775   0.188 -1.3043 -2.1331  1.0939
 7031SOL    HW232553   1.760   1.874   0.134 -0.5273 -0.5238  2.3703
 7032SOL     OW32554   0.191   2.289   5.510  0.5325 -0.1851 -0.2401
 7032SOL    HW132555   0.258   2.330   5.455 -0.1517  1.6868  0.3291
 7032SOL    HW232556   0.131   2.267   5.439  1.0783 -0.8545 -0.4893
 7033SOL     OW32557   1.599   1.365   8.040 -0.0920  0.2665  0.0457
 7033SOL    HW132558   1.538   1.382   7.969 -0.6645  2.8728  1.1539
 7033SOL    HW232559   1.582   1.433   8.106  2.0514 -1.6474  2.6161
 7034SOL     OW32560   1.304   3.161   4.812  0.4487  0.2418  0.0955
 7034SOL    HW132561   1.358   3.124   4.742  0.8539  0.4861  0.2777
 7034SOL    HW232562   1.296   3.090   4.876  2.0698  0.3356  0.4131
 7035SOL     OW32563   2.946   0.828   0.687  0.2915  0.0985  0.1270
 7035SOL    HW132564   2.911   0.835   0.598  1.0305 -1.9393 -0.3203
 7035SOL    HW232565   2.887   0.766   0.730  1.9159 -1.2354  0.4175
 7036SOL     OW32566   3.807   0.845  10.648 -0.1116  0.2497 -0.2958
 7036SOL    HW132567   3.834   0.907  10.581  0.3938  0.2905 -0.0553
 7036SOL    HW232568   3.823   0.764  10.600 -0.2649 -0.4198  0.7844
 7037SOL     OW32569   0.608   0.029  16.802  0.5720 -0.4550  0.4316
 7037SOL    HW132570   0.651   4.678  16.769  0.5460  0.6693 -2.2348
 7037SOL    HW232571   0.553   0.046  16.727 -0.5541 -0.5816  1.2329
 7038SOL     OW32572   2.256   0.736   8.289  0.1865  0.3846  0.0123
 7038SOL    HW132573   2.173   0.694   8.270  0.7751 -0.9941  0.5002
 7038SOL    HW232574   2.290   0.689   8.365  1.3757  2.3363  0.7082
 7039SOL     OW32575   4.660   2.361  10.373 -0.5072  0.6941 -0.1585
 7039SOL    HW132576   4.675   2.308  10.451  0.2743  0.0677 -0.7332
 7039SOL    HW232577   4.704   2.440  10.406 -3.2739  0.4353  4.1096
 7040SOL     OW32578   2.662   0.037  16.006  0.3011 -0.1200  0.5293
 7040SOL    HW132579   2.729   4.712  16.050  1.0005  0.5647  0.2930
 7040SOL    HW232580   2.595   0.046  16.073 -0.3673  1.6860 -0.3880
 7041SOL     OW32581   1.176   3.675  16.484  0.5243  0.0182 -0.0987
 7041SOL    HW132582   1.184   3.661  16.389 -1.2085 -1.3631 -0.0282
 7041SOL    HW232583   1.214   3.763  16.495 -2.9825  1.4030  0.9228
 7042SOL     OW32584   3.165   4.165   7.164  0.5149  0.2231  0.3449
 7042SOL    HW132585   3.094   4.225   7.142  1.0121  0.8099  0.3512
 7042SOL    HW232586   3.200   4.207   7.243  0.9068  0.9082 -0.1899
 7043SOL     OW32587   3.455   0.162   9.105 -0.2226 -0.0069 -0.1259
 7043SOL    HW132588   3.365   0.175   9.133  0.0310 -0.0719  0.7153
 7043SOL    HW232589   3.506   0.173   9.185 -1.2386  0.5157  0.4489
 7044SOL     OW32590   0.673   2.280  14.061 -0.3483  0.3007 -0.0822
 7044SOL    HW132591   0.626   2.197  14.069 -0.8737  0.6779  0.6290
 7044SOL    HW232592   0.753   2.245  14.020 -0.4825 -0.4276  0.2872
 7045SOL     OW32593   4.548   4.559   5.537  0.4434 -0.0097  0.0988
 7045SOL    HW132594   4.566   4.524   5.449 -0.4892 -2.8918  1.0739
 7045SOL    HW232595   4.460   4.524   5.544 -0.0419  0.7055 -2.2996
 7046SOL     OW32596   1.331   2.718   5.919 -0.1115 -0.0201  0.0367
 7046SOL    HW132597   1.398   2.777   5.954  2.4290 -3.0854  0.3831
 7046SOL    HW232598   1.302   2.758   5.837  1.2434  1.4288  0.2627
 7047SOL     OW32599   0.571   1.558   7.114 -0.3083  0.6104  0.3023
 7047SOL    HW132600   0.584   1.479   7.167  0.5451  1.0979  0.8130
 7047SOL    HW232601   0.655   1.601   7.126  0.5364 -0.5909 -1.3133
 7048SOL     OW32602   4.665   0.072   3.032  0.1241 -0.7883  0.1334
 7048SOL    HW132603   4.597   0.139   3.040  1.4253  0.5357  0.0882
 7048SOL    HW232604   0.009   0.130   3.058  1.2698 -1.7534 -0.9160
 7049SOL     OW32605   0.300   0.363   5.000  0.1958 -0.6848  0.0182
 7049SOL    HW132606   0.286   0.425   5.071 -1.8265  0.4901 -1.4004
 7049SOL    HW232607   0.248   0.401   4.929  1.2037  0.4465 -0.1081
 7050SOL     OW32608   2.664   0.465   2.702 -0.1148  0.7541  0.0315
 7050SOL    HW132609   2.738   0.432   2.753  0.3312  0.0567 -1.0707
 7050SOL    HW232610   2.711   0.521   2.640  0.5606 -0.3313 -0.4370
 7051SOL     OW32611   0.043   1.319   2.043  0.2113 -0.2435 -0.3260
 7051SOL    HW132612   0.091   1.236   2.052 -0.6982 -0.9566 -2.0375
 7051SOL    HW232613   4.678   1.299   2.026 -0.0736 -0.3022  1.2702
 7052SOL     OW32614   3.909   2.335   6.809  0.2871  0.0326  0.0378
 7052SOL    HW132615   3.873   2.339   6.898 -0.5317 -1.2426 -0.2338
 7052SOL    HW232616   3.969   2.409   6.823 -0.8572  0.9360  0.1613
 7053SOL     OW32617   3.620   4.638   3.093  0.2538 -0.4621  0.5452
 7053SOL    HW132618   3.575   4.699   3.034  0.7698  0.3096  0.9433
 7053SOL    HW232619   3.636   4.569   3.030  0.8553 -1.3549  1.6715
 7054SOL     OW32620   1.268   0.284   8.901  0.1230  0.2191 -0.0547
 7054SOL    HW132621   1.245   0.275   8.808  1.6265 -0.4279 -0.3693
 7054SOL    HW232622   1.362   0.266   8.897  0.3025  1.6393 -2.9170
 7055SOL     OW32623   0.915   3.325   3.075 -0.1393 -0.0539 -0.2399
 7055SOL    HW132624   0.975   3.336   3.148  0.4812 -1.5398 -0.5120
 7055SOL    HW232625   0.887   3.411   3.043  1.4768 -0.0179 -1.5730
 7056SOL     OW32626   2.647   2.537   2.775  0.1146 -0.3666  0.4832
 7056SOL    HW132627   2.629   2.444   2.766  1.7060 -0.8522  2.2937
 7056SOL    HW232628   2.722   2.535   2.715  1.0165 -1.2732  1.6594
 7057SOL     OW32629   0.194   4.248   6.030  0.0010  0.2785 -0.3315
 7057SOL    HW132630   0.192   4.281   6.120 -0.4185 -1.3736  0.2640
 7057SOL    HW232631   0.270   4.289   5.991 -0.7461  0.9246 -1.0920
 7058SOL     OW32632   2.041   3.435   6.286  0.1182 -0.1683 -0.1201
 7058SOL    HW132633   1.963   3.408   6.333  0.0404  0.9334  0.3754
 7058SOL    HW232634   1.999   3.432   6.200 -0.4854 -0.1532  0.1764
 7059SOL     OW32635   1.281   1.263   0.352  0.1215 -0.1457  0.3246
 7059SOL    HW132636   1.375   1.264   0.371  0.2923 -1.6497 -0.4672
 7059SOL    HW232637   1.276   1.248   0.258 -0.9951  0.1305  0.3418
 7060SOL     OW32638   1.116   2.106   1.290  0.6069  0.2348 -0.0847
 7060SOL    HW132639   1.180   2.119   1.219  1.4934  1.9264  1.0271
 7060SOL    HW232640   1.152   2.174   1.347 -1.1688 -0.2345  1.5871
 7061SOL     OW32641   3.139   1.933  13.855  0.0098  0.0787 -0.0970
 7061SOL    HW132642   3.081   1.870  13.811  0.3862 -1.3245  1.4206
 7061SOL    HW232643   3.197   1.941  13.780  0.6954  0.4432  0.4683
 7062SOL     OW32644   0.072   3.740  14.082  0.2169 -0.0134  0.6834
 7062SOL    HW132645   0.057   3.771  14.171 -2.6421  1.7875 -0.4175
 7062SOL    HW232646   0.160   3.769  14.057 -0.4163  0.5235 -0.9182
 7063SOL     OW32647   0.529   4.583  10.565 -0.2414 -0.5066 -0.1290
 7063SOL    HW132648   0.546   4.670  10.528  2.9790 -0.6773  0.9143
 7063SOL    HW232649   0.440   4.585  10.600 -0.6840 -1.5605 -1.2241
 7064SOL     OW32650   2.679   4.409   8.986 -0.1189 -0.0204  0.1990
 7064SOL    HW132651   2.698   4.392   9.079 -0.3740  2.7677  0.7605
 7064SOL    HW232652   2.662   4.320   8.955  2.2772 -0.0913 -0.8813
 7065SOL     OW32653   2.141   0.632   0.138 -0.3431 -0.6654  0.1441
 7065SOL    HW132654   2.130   0.713   0.088  2.7718 -0.2879  0.0657
 7065SOL    HW232655   2.212   0.591   0.089  0.3609  1.5056 -0.6156
 7066SOL     OW32656   4.080   1.861   9.161  0.5750 -0.4370 -0.2097
 7066SOL    HW132657   3.999   1.904   9.130  1.4117  2.1847  1.2713
 7066SOL    HW232658   4.146   1.919   9.122 -0.9755  2.2918  1.2161
 7067SOL     OW32659   3.291   1.074  11.924  0.1941 -0.0481  0.2801
 7067SOL    HW132660   3.294   0.995  11.977  0.8635  0.7383  1.4041
 7067SOL    HW232661   3.366   1.125  11.955 -0.0798  1.1807 -1.0865
 7068SOL     OW32662   3.560   2.699   9.403  1.2759  0.0071  0.1264
 7068SOL    HW132663   3.616   2.720   9.329 -0.4662  0.5574 -1.0357
 7068SOL    HW232664   3.477   2.722   9.361  0.2483 -1.4012  1.3917
 7069SOL     OW32665   4.143   3.137   0.719  0.5438 -0.2288  0.2933
 7069SOL    HW132666   4.176   3.185   0.644 -0.1409 -0.6910 -0.3071
 7069SOL    HW232667   4.151   3.049   0.683  0.6156 -0.6251  1.2751
 7070SOL     OW32668   0.861   0.781   3.504 -0.4935  0.2861  0.8483
 7070SOL    HW132669   0.944   0.736   3.517 -1.0508 -1.1323 -0.5416
 7070SOL    HW232670   0.895   0.860   3.463 -0.1037  0.4137  1.4194
 7071SOL     OW32671   0.014   3.354   4.485  0.0272  0.5672  0.8229
 7071SOL    HW132672   0.104   3.378   4.465 -0.9023  1.3163 -2.3733
 7071SOL    HW232673   4.712   3.327   4.398  0.7455 -0.1157  0.7923
 7072SOL     OW32674   1.793   2.671   2.695 -0.6031 -0.1716 -0.5498
 7072SOL    HW132675   1.800   2.705   2.606 -2.1401 -1.4891 -1.1718
 7072SOL    HW232676   1.703   2.675   2.727 -1.2617 -0.9571 -2.2863
 7073SOL     OW32677   1.294   4.477  12.895 -0.0927  0.0016 -0.1905
 7073SOL    HW132678   1.206   4.473  12.932 -0.6085 -0.0915 -1.4276
 7073SOL    HW232679   1.265   4.535  12.824  1.1661 -1.2105 -1.6816
 7074SOL     OW32680   4.059   0.956   5.786 -0.7022  0.0790 -0.1847
 7074SOL    HW132681   4.083   1.040   5.747  1.5011  0.4176  1.9181
 7074SOL    HW232682   3.965   0.963   5.766 -1.0719 -2.9040  0.6396
 7075SOL     OW32683   4.251   0.106   3.727  0.7997  0.2128  0.1545
 7075SOL    HW132684   4.195   0.088   3.803  2.6334  0.2107  1.5210
 7075SOL    HW232685   4.273   0.017   3.700  0.6104  0.5164 -0.9980
 7076SOL     OW32686   2.548   1.475   7.145 -0.1667  0.6393 -0.6069
 7076SOL    HW132687   2.524   1.549   7.089 -1.5478 -0.6543 -1.7248
 7076SOL    HW232688   2.468   1.470   7.199  0.4810  2.7846  0.5537
 7077SOL     OW32689   2.364   4.715   8.654 -0.0374  0.4162 -0.2354
 7077SOL    HW132690   2.345   4.717   8.560 -1.4345 -0.7896  0.0132
 7077SOL    HW232691   2.315   4.640   8.689 -1.1165 -0.3357 -3.3298
 7078SOL     OW32692   3.071   2.534   3.258 -0.0368 -0.2158 -0.0190
 7078SOL    HW132693   3.121   2.615   3.250 -1.9303  1.1728  2.3764
 7078SOL    HW232694   3.083   2.489   3.174 -1.2225 -1.3809  0.4439
 7079SOL     OW32695   1.184   4.576   4.344  0.2157 -0.0208 -0.0054
 7079SOL    HW132696   1.268   4.540   4.316 -0.4437  0.6347 -2.7249
 7079SOL    HW232697   1.221   4.660   4.372  0.5479  0.2389 -1.2195
 7080SOL     OW32698   0.676   1.315   1.678  0.0803 -0.4937 -0.0392
 7080SOL    HW132699   0.593   1.275   1.648  0.8839 -0.7019 -2.0180
 7080SOL    HW232700   0.742   1.260   1.636  1.5082  0.0435  1.5487
 7081SOL     OW32701   2.711   2.152   2.134  0.1192 -0.6800  0.3070
 7081SOL    HW132702   2.701   2.124   2.225  0.0037  0.0135  0.5035
 7081SOL    HW232703   2.633   2.108   2.100 -0.3105  0.4130 -0.1007
 7082SOL     OW32704   0.094   0.215   8.784  0.3823 -0.2596  1.1371
 7082SOL    HW132705   0.154   0.152   8.745 -1.4594  0.5885 -3.0764
 7082SOL    HW232706   0.067   0.175   8.866  0.2691  0.9930  1.7008
 7083SOL     OW32707   1.743   0.620   2.570 -0.0398  0.0342  0.0376
 7083SOL    HW132708   1.733   0.678   2.494 -1.6327  0.3088  0.4537
 7083SOL    HW232709   1.677   0.554   2.550 -1.3603  1.0244  1.1538
 7084SOL     OW32710   3.253   3.824   4.299  0.0965 -0.3810 -0.0948
 7084SOL    HW132711   3.328   3.883   4.298  0.6842 -1.1302 -0.3708
 7084SOL    HW232712   3.292   3.747   4.258 -1.4179 -1.4238  0.4226
 7085SOL     OW32713   3.404   2.778   0.734 -1.0350 -0.6099 -0.9134
 7085SOL    HW132714   3.399   2.853   0.674  1.4812  0.4447  0.1954
 7085SOL    HW232715   3.326   2.791   0.787  0.4561  1.6352  0.7333
 7086SOL     OW32716   0.432   0.148   2.583 -0.4968  0.2000 -0.6333
 7086SOL    HW132717   0.343   0.153   2.617 -0.3702 -0.9774 -0.1069
 7086SOL    HW232718   0.460   0.239   2.583 -1.2035  0.4160 -1.1283
 7087SOL     OW32719   1.054   2.577   2.593  1.0197  0.2586 -0.0903
 7087SOL    HW132720   0.969   2.543   2.620 -0.2560  1.6044 -2.4239
 7087SOL    HW232721   1.108   2.545   2.665  1.2298 -0.2771 -0.4903
 7088SOL     OW32722   0.806   3.972   5.058 -0.3339  0.5814  0.1835
 7088SOL    HW132723   0.738   3.983   5.125 -0.2968  0.1206  0.2968
 7088SOL    HW232724   0.786   3.884   5.028  1.6741 -0.2211  1.1693
 7089SOL     OW32725   1.313   1.522   2.702  0.1426  0.1558  0.1928
 7089SOL    HW132726   1.316   1.569   2.619 -4.2503  1.1229  0.5893
 7089SOL    HW232727   1.324   1.432   2.671  0.5342 -0.0018  0.7904
 7090SOL     OW32728   2.480   1.934   2.201  0.1957  0.3448  0.2026
 7090SOL    HW132729   2.437   1.853   2.175  2.3424 -1.0017  0.8712
 7090SOL    HW232730   2.450   1.941   2.291  1.3222 -1.8707  0.7492
 7091SOL     OW32731   3.065   2.457   6.458  0.6859 -0.0373  0.0563
 7091SOL    HW132732   3.061   2.362   6.451 -2.6074  0.2324 -1.6605
 7091SOL    HW232733   3.087   2.466   6.551 -2.1078  1.5360  0.5826
 7092SOL     OW32734   1.790   2.115   4.156  0.5093  0.2998  0.0236
 7092SOL    HW132735   1.770   2.205   4.129  1.3294  0.3453 -0.4482
 7092SOL    HW232736   1.809   2.070   4.074 -1.9373 -0.8883  0.1403
 7093SOL     OW32737   1.394   2.395  15.118  0.1311 -0.3730  0.1063
 7093SOL    HW132738   1.398   2.303  15.093  1.1166  0.2049 -1.8607
 7093SOL    HW232739   1.319   2.404  15.177  0.2965  0.6010  0.1646
 7094SOL     OW32740   0.342   1.883   8.234 -0.3399 -0.1937  0.1496
 7094SOL    HW132741   0.277   1.823   8.197  0.1594  1.0408 -2.6650
 7094SOL    HW232742   0.363   1.833   8.313  1.4996  1.0735  0.4552
 7095SOL     OW32743   2.237   1.526   9.018 -0.9201  0.1078 -0.5599
 7095SOL    HW132744   2.218   1.619   9.004  1.7095  0.7922  0.5322
 7095SOL    HW232745   2.281   1.531   9.103 -0.6096  0.9069 -0.7698
 7096SOL     OW32746   2.301   4.613   4.317 -0.2072  0.1800 -0.9181
 7096SOL    HW132747   2.254   4.695   4.330  0.5990  0.4989 -0.0223
 7096SOL    HW232748   2.279   4.580   4.404  2.3666  2.0832  0.4498
 7097SOL     OW32749   3.604   4.334   7.523  0.4414  0.0031 -0.1584
 7097SOL    HW132750   3.550   4.330   7.602  1.8068  2.8359  0.9255
 7097SOL    HW232751   3.691   4.355   7.556 -0.1106 -0.6152  1.6699
 7098SOL     OW32752   3.175   3.153   7.846 -0.1239 -0.3436  0.0843
 7098SOL    HW132753   3.159   3.180   7.755  0.3259 -0.3859 -0.0062
 7098SOL    HW232754   3.163   3.058   7.839 -0.8322 -0.3085  0.8139
 7099SOL     OW32755   0.435   1.242  12.523  0.0300 -0.3335  0.4495
 7099SOL    HW132756   0.519   1.269  12.560  1.6171 -1.3529 -2.4190
 7099SOL    HW232757   0.388   1.211  12.600  0.1406  1.6507  1.3289
 7100SOL     OW32758   0.874   0.362   9.213  0.0017 -0.1352  0.2953
 7100SOL    HW132759   0.899   0.454   9.222 -1.5000  0.3905 -0.9448
 7100SOL    HW232760   0.959   0.320   9.195 -0.6138 -0.9335 -0.7328
 7101SOL     OW32761   0.455   0.158  13.009 -0.4609  0.0681 -0.0537
 7101SOL    HW132762   0.550   0.168  13.015 -0.6167  1.1950  0.5796
 7101SOL    HW232763   0.433   0.182  12.919 -1.1195  2.7518  0.8214
 7102SOL     OW32764   1.854   2.779  17.568 -0.1435  0.1092  0.5082
 7102SOL    HW132765   1.790   2.730  17.517 -0.9807  1.1073  0.5944
 7102SOL    HW232766   1.921   2.715  17.592  0.1280  0.4463  0.6541
 7103SOL     OW32767   2.226   0.883  14.619  0.6053 -0.1400  0.4684
 7103SOL    HW132768   2.156   0.827  14.585 -2.3619  1.6698  3.6701
 7103SOL    HW232769   2.249   0.842  14.702 -0.1440 -0.6058  0.4467
 7104SOL     OW32770   2.104   3.259   2.917 -0.1646 -0.3803  0.0985
 7104SOL    HW132771   2.060   3.208   2.849 -0.3669  1.3852 -1.1025
 7104SOL    HW232772   2.032   3.320   2.934  0.8936  0.8390  0.1520
 7105SOL     OW32773   0.762   4.293   2.926 -0.4843  0.2951 -0.0281
 7105SOL    HW132774   0.757   4.357   2.996  0.7728  0.5590 -0.1788
 7105SOL    HW232775   0.778   4.212   2.974 -0.2447 -0.5223 -1.4646
 7106SOL     OW32776   3.297   1.919  14.075 -0.2274  0.1649 -0.6204
 7106SOL    HW132777   3.233   1.934  14.006 -0.4638  1.6080 -0.0857
 7106SOL    HW232778   3.362   1.886  14.014  1.2814 -2.0382  2.1658
 7107SOL     OW32779   1.391   2.928  13.699  0.1318  0.8505 -0.1862
 7107SOL    HW132780   1.482   2.933  13.672  0.9867  0.3428  2.6702
 7107SOL    HW232781   1.385   2.907  13.792 -0.2198  1.8949  0.0263
 7108SOL     OW32782   4.152   2.496   6.811 -0.1448 -0.6961 -0.4078
 7108SOL    HW132783   4.200   2.494   6.729 -0.3093 -1.4441 -0.4856
 7108SOL    HW232784   4.133   2.587   6.837  0.8267 -1.3797  2.7797
 7109SOL     OW32785   1.571   2.385  17.337 -0.4463 -0.8565  0.4831
 7109SOL    HW132786   1.596   2.335  17.259  2.3181  3.4740 -1.4158
 7109SOL    HW232787   1.481   2.406  17.311 -0.0040 -0.2806 -0.5985
 7110SOL     OW32788   2.307   0.839  12.808 -0.1578 -0.4505 -0.0096
 7110SOL    HW132789   2.263   0.882  12.735  2.1014 -0.0029 -1.1042
 7110SOL    HW232790   2.375   0.792  12.759  0.6895  0.3989  0.3253
 7111SOL     OW32791   3.594   2.260   4.832 -0.1398 -0.0634 -0.5930
 7111SOL    HW132792   3.636   2.175   4.823 -1.1109 -0.6171  0.2558
 7111SOL    HW232793   3.655   2.308   4.889 -0.1796 -1.2121  0.4002
 7112SOL     OW32794   4.590   0.416   1.029 -0.0893 -0.3788  0.0840
 7112SOL    HW132795   4.554   0.444   1.113  0.7291 -2.1841  1.0469
 7112SOL    HW232796   4.657   0.483   1.016  0.1150 -0.7625 -0.8834
 7113SOL     OW32797   0.434   3.335   7.624  0.0838  0.0635 -0.1271
 7113SOL    HW132798   0.457   3.386   7.547  0.1029 -1.6760 -1.2933
 7113SOL    HW232799   0.491   3.263   7.596 -0.1744  0.4359 -1.6038
 7114SOL     OW32800   4.441   0.731  13.267 -0.1790 -0.4909 -0.4262
 7114SOL    HW132801   4.378   0.773  13.325  1.0399 -1.4927  1.6399
 7114SOL    HW232802   4.508   0.692  13.323 -1.7669 -0.3643  1.5289
 7115SOL     OW32803   3.696   4.002   4.049  0.3690 -0.0092  0.4746
 7115SOL    HW132804   3.721   4.054   3.972  0.1297 -0.1934  0.2715
 7115SOL    HW232805   3.777   3.986   4.097  0.4069  1.8778  1.0441
 7116SOL     OW32806   4.464   2.483   4.674  0.0515  0.7483  0.1899
 7116SOL    HW132807   4.455   2.576   4.653 -0.3166  0.8191  0.6798
 7116SOL    HW232808   4.371   2.459   4.674  0.5402 -1.1669 -0.7734
 7117SOL     OW32809   0.850   1.682   2.953  0.8576 -0.1578  0.2587
 7117SOL    HW132810   0.772   1.736   2.949 -1.0352 -2.9049 -0.1219
 7117SOL    HW232811   0.815   1.605   2.997 -0.1738  0.8354  1.1614
 7118SOL     OW32812   0.267   2.199   8.794  0.3911  0.1919 -0.3551
 7118SOL    HW132813   0.273   2.185   8.888  1.9856  3.3145  0.0240
 7118SOL    HW232814   0.172   2.209   8.781  0.3484  1.2569  0.7829
 7119SOL     OW32815   1.507   1.906   8.441  0.6542 -1.2330 -0.7397
 7119SOL    HW132816   1.486   1.900   8.534  2.0735 -0.7803 -0.3967
 7119SOL    HW232817   1.459   1.827   8.416 -3.9861  0.6810  1.9480
 7120SOL     OW32818   4.016   0.756   7.151  0.1429  0.4748 -0.4177
 7120SOL    HW132819   4.044   0.848   7.161  1.7980 -0.1042  0.2523
 7120SOL    HW232820   4.031   0.718   7.238  1.6480 -1.9748 -1.7890
 7121SOL     OW32821   1.260   3.714   4.557 -0.3803 -0.0457 -0.0208
 7121SOL    HW132822   1.313   3.723   4.478 -1.2566  0.5740 -0.5355
 7121SOL    HW232823   1.206   3.637   4.541 -1.7061  0.8748 -0.0145
 7122SOL     OW32824   4.006   1.352   4.482  0.6548  0.1027 -0.3639
 7122SOL    HW132825   4.041   1.285   4.541 -0.5986  0.4793  0.7945
 7122SOL    HW232826   4.056   1.426   4.516 -1.6159  2.1243 -1.5171
 7123SOL     OW32827   0.661   0.108   4.366 -0.1298  0.0890 -0.3245
 7123SOL    HW132828   0.664   0.126   4.272 -0.7340 -0.6260 -0.4852
 7123SOL    HW232829   0.586   0.050   4.380 -0.4406  0.4870 -0.3566
 7124SOL     OW32830   1.269   2.492  15.342  0.5615  0.0725 -0.0525
 7124SOL    HW132831   1.263   2.587  15.338 -1.4491  0.0817  2.6200
 7124SOL    HW232832   1.197   2.487  15.405 -0.5414 -1.0108 -1.3969
 7125SOL     OW32833   4.357   0.198  16.418 -0.0989  0.0080  0.4583
 7125SOL    HW132834   4.393   0.193  16.507  2.6868 -2.0586 -0.7747
 7125SOL    HW232835   4.403   0.127  16.373 -0.5086  1.3347 -2.0394
 7126SOL     OW32836   0.204   1.292   4.532  0.6701  0.8041  0.1380
 7126SOL    HW132837   0.271   1.238   4.574 -0.8151  0.4875  2.1248
 7126SOL    HW232838   0.135   1.229   4.512 -1.4528  2.9824  0.4663
 7127SOL     OW32839   2.001   3.032   1.957  0.1769  0.0060  0.1262
 7127SOL    HW132840   2.077   3.076   1.995 -1.0230 -0.0878  2.6502
 7127SOL    HW232841   1.945   3.065   2.027  0.8479 -0.2014  0.7532
 7128SOL     OW32842   1.724   3.433   4.251  0.1759  0.6338  0.1416
 7128SOL    HW132843   1.687   3.358   4.299  1.4921 -1.2298 -1.7613
 7128SOL    HW232844   1.649   3.464   4.202 -0.1681  2.1230  1.6030
 7129SOL     OW32845   0.866   1.292   7.196  0.3643  0.3631  0.2075
 7129SOL    HW132846   0.777   1.321   7.215  0.2645 -0.7491  1.5098
 7129SOL    HW232847   0.876   1.212   7.249 -0.6195  0.3639  0.3897
 7130SOL     OW32848   3.092   1.040  11.299  0.0397  0.3039  0.2437
 7130SOL    HW132849   3.056   0.997  11.222  1.0908  0.4396 -0.3083
 7130SOL    HW232850   3.026   1.015  11.364  0.3351 -0.2451  0.3347
 7131SOL     OW32851   1.247   0.106   3.815  0.4787  0.2097 -0.3667
 7131SOL    HW132852   1.180   0.172   3.833  0.1664 -0.4508  0.8729
 7131SOL    HW232853   1.249   0.088   3.721 -1.5014 -0.4950 -0.2767
 7132SOL     OW32854   0.071   2.038   4.498  0.2638 -0.3363 -0.3996
 7132SOL    HW132855   0.145   1.989   4.534 -0.4910 -1.0936  0.0966
 7132SOL    HW232856   0.108   2.127   4.502  0.5982 -0.4911 -0.0186
 7133SOL     OW32857   2.400   3.317   4.711 -0.5438  0.0608 -0.1947
 7133SOL    HW132858   2.491   3.347   4.713 -0.0382 -1.3790 -1.6713
 7133SOL    HW232859   2.349   3.392   4.680 -0.0322  0.3560 -0.3310
 7134SOL     OW32860   0.167   1.075   2.019 -0.3528 -0.4399  0.0540
 7134SOL    HW132861   0.261   1.092   2.017  0.1007 -3.1978 -1.4859
 7134SOL    HW232862   0.161   0.990   2.062  2.1450 -0.8330 -0.4069
 7135SOL     OW32863   4.068   2.970   8.048  0.5673  0.1992  0.7687
 7135SOL    HW132864   4.085   3.059   8.017  0.3629  0.2743  0.8693
 7135SOL    HW232865   3.976   2.979   8.074  0.4518  2.2587 -0.3778
 7136SOL     OW32866   2.575   1.059   3.845  0.0252  0.3890  0.9791
 7136SOL    HW132867   2.624   1.116   3.786 -1.3655  1.3978  0.7804
 7136SOL    HW232868   2.651   1.040   3.899  0.4760  0.5810  0.4112
 7137SOL     OW32869   2.562   1.337   4.131  0.3297 -0.3343 -0.2544
 7137SOL    HW132870   2.586   1.246   4.114  1.5031 -0.2599  0.9504
 7137SOL    HW232871   2.500   1.348   4.060  1.5493 -0.9612 -1.4106
 7138SOL     OW32872   0.626   4.406   8.967  0.0023 -0.1170  0.1191
 7138SOL    HW132873   0.663   4.330   9.012 -0.7338 -1.3169 -1.3281
 7138SOL    HW232874   0.666   4.477   9.018  0.6008 -0.7280  0.5048
 7139SOL     OW32875   4.502   4.090   7.559  0.2994  0.2307  0.7216
 7139SOL    HW132876   4.407   4.091   7.568  0.1022 -0.3553 -1.3503
 7139SOL    HW232877   4.524   4.013   7.506  0.2895  0.8097 -0.1343
 7140SOL     OW32878   0.811   0.122  11.956  0.0587 -0.2551  0.1469
 7140SOL    HW132879   0.851   0.138  11.870 -1.4227  0.4109 -0.4187
 7140SOL    HW232880   0.724   0.160  11.945  0.3798  0.4431 -0.0145
 7141SOL     OW32881   2.453   2.896  12.985  0.1732  0.1764 -0.1369
 7141SOL    HW132882   2.473   2.913  13.077 -1.1354 -1.2513  0.4091
 7141SOL    HW232883   2.376   2.954  12.991 -0.3375 -0.0283 -4.9869
 7142SOL     OW32884   1.096   4.078   5.958  0.5453 -0.2697 -0.0319
 7142SOL    HW132885   1.166   4.109   5.901  0.9065 -1.1607 -0.0745
 7142SOL    HW232886   1.032   4.143   5.932  1.5486  2.0044  3.1627
 7143SOL     OW32887   2.056   3.729  14.562 -0.1616  0.2571 -0.1467
 7143SOL    HW132888   2.009   3.704  14.482 -1.5938  0.6424  0.5740
 7143SOL    HW232889   1.994   3.788  14.606  0.1458  0.4487  0.0297
 7144SOL     OW32890   1.711   1.785   4.119  0.2521  0.5270 -0.1807
 7144SOL    HW132891   1.628   1.785   4.071  0.0760  0.2729  0.1296
 7144SOL    HW232892   1.777   1.845   4.084  1.6169 -1.0980 -0.4290
 7145SOL     OW32893   3.750   2.523   0.438 -0.4341 -0.1556  0.0220
 7145SOL    HW132894   3.686   2.547   0.505 -0.5624 -0.6466  0.0773
 7145SOL    HW232895   3.791   2.608   0.424  2.1429 -1.1581  1.4897
 7146SOL     OW32896   3.243   3.671  14.728 -0.2944  0.0144 -0.3271
 7146SOL    HW132897   3.332   3.636  14.734 -0.2508  0.1936  0.0557
 7146SOL    HW232898   3.210   3.663  14.817  0.4069 -3.0716 -0.3317
 7147SOL     OW32899   4.284   4.175   8.461 -0.1293  0.1063  0.4852
 7147SOL    HW132900   4.294   4.098   8.517 -1.9123  1.0043  2.0279
 7147SOL    HW232901   4.228   4.230   8.516 -2.1598 -2.1814  0.7079
 7148SOL     OW32902   0.293   0.392   7.447  0.1584  0.3817  0.4960
 7148SOL    HW132903   0.216   0.354   7.490  0.1756  2.0259  1.9878
 7148SOL    HW232904   0.295   0.323   7.381 -0.2778  0.4917  0.3660
 7149SOL     OW32905   3.909   2.054   6.842 -0.1990  0.0600 -0.0926
 7149SOL    HW132906   3.989   2.070   6.892 -1.3197  2.3227  0.9813
 7149SOL    HW232907   3.891   2.147   6.829  2.3526  0.1081 -3.1553
 7150SOL     OW32908   4.472   2.986   2.455 -0.1844  0.4966 -0.4142
 7150SOL    HW132909   4.483   3.061   2.397 -0.1577  1.6811  1.1149
 7150SOL    HW232910   4.531   3.020   2.522  1.0800  0.8440 -1.6952
 7151SOL     OW32911   2.481   3.215  14.341  0.0297  0.3838  0.4251
 7151SOL    HW132912   2.519   3.134  14.375 -0.4709  0.6813  1.6792
 7151SOL    HW232913   2.560   3.253  14.303  1.5773 -3.3201 -0.1027
 7152SOL     OW32914   2.542   4.231   2.230 -0.0162 -0.3561  0.4277
 7152SOL    HW132915   2.620   4.188   2.196 -0.4785  0.0675 -1.1723
 7152SOL    HW232916   2.589   4.288   2.292 -0.1834  0.2578 -0.0154
 7153SOL     OW32917   1.160   3.282  11.245 -0.0634 -0.1478  0.1775
 7153SOL    HW132918   1.249   3.299  11.276 -0.1574 -0.6069  0.7054
 7153SOL    HW232919   1.183   3.278  11.152  0.8668  1.5473  0.3382
 7154SOL     OW32920   1.798   0.257   4.416 -0.6705 -0.1148 -0.8677
 7154SOL    HW132921   1.824   0.343   4.383 -0.5231  0.4132  0.6236
 7154SOL    HW232922   1.808   0.202   4.339 -1.6273 -0.4338 -0.7645
 7155SOL     OW32923   1.549   0.360   3.256  0.3305 -0.0127 -0.6307
 7155SOL    HW132924   1.598   0.403   3.186  0.9317  1.9212  0.9842
 7155SOL    HW232925   1.517   0.283   3.209  0.7733 -0.3062 -0.4527
 7156SOL     OW32926   3.442   2.297   4.280  0.1832  0.0335 -0.3368
 7156SOL    HW132927   3.407   2.236   4.215  0.1821 -0.9985  0.6488
 7156SOL    HW232928   3.390   2.291   4.360 -1.6122 -1.2975 -1.6146
 7157SOL     OW32929   1.234   0.427   1.893  0.0458 -0.6418 -0.4475
 7157SOL    HW132930   1.158   0.397   1.843  0.1662  0.5440 -1.3413
 7157SOL    HW232931   1.313   0.420   1.839 -2.4933  1.2186 -4.3584
 7158SOL     OW32932   0.318   2.614   2.687  0.1046 -0.6777  0.2744
 7158SOL    HW132933   0.263   2.670   2.631  2.0237  0.2346 -0.6863
 7158SOL    HW232934   0.252   2.549   2.710 -2.3009  1.4559 -0.5707
 7159SOL     OW32935   2.561   4.656  17.266 -0.1278 -0.3555  0.6801
 7159SOL    HW132936   2.622   4.726  17.289 -0.6676  0.9678 -1.8818
 7159SOL    HW232937   2.504   4.698  17.202  0.1157  0.0495  0.7312
 7160SOL     OW32938   3.625   1.885   4.149 -0.2995  0.6846  0.0840
 7160SOL    HW132939   3.597   1.847   4.232 -0.8108 -3.6231 -2.0368
 7160SOL    HW232940   3.568   1.962   4.148 -0.2565  0.7292  1.9292
 7161SOL     OW32941   1.558   3.411   8.149  0.4502  0.3929 -0.4699
 7161SOL    HW132942   1.621   3.445   8.086 -0.3290  1.2440 -0.7814
 7161SOL    HW232943   1.481   3.400   8.093  0.4798 -0.8271 -0.2708
 7162SOL     OW32944   1.135   0.230   0.185 -0.1937 -0.2208 -0.0767
 7162SOL    HW132945   1.178   0.154   0.145 -2.0753 -0.8460 -0.8973
 7162SOL    HW232946   1.047   0.214   0.150  0.9917  0.4002 -3.3713
 7163SOL     OW32947   0.115   1.628   0.838  0.0367  0.2166  0.0704
 7163SOL    HW132948   0.114   1.603   0.930 -1.8299 -1.6388 -0.4687
 7163SOL    HW232949   0.197   1.595   0.801  0.2710 -0.1692  0.9313
 7164SOL     OW32950   2.883   0.902  10.505  0.0879 -1.1793 -0.1412
 7164SOL    HW132951   2.848   0.853  10.430  1.8921 -0.5656 -1.4097
 7164SOL    HW232952   2.814   0.888  10.570  0.6622 -0.8904  0.5264
 7165SOL     OW32953   3.005   3.956   8.736 -0.7695  0.4682  0.2600
 7165SOL    HW132954   2.922   3.912   8.756 -0.7366 -0.3743 -1.4358
 7165SOL    HW232955   2.971   3.993   8.655 -0.0702 -0.9320 -0.6809
 7166SOL     OW32956   2.576   2.658  10.733  0.1218 -0.0211 -0.1365
 7166SOL    HW132957   2.631   2.600  10.786 -1.2378 -2.2849 -1.1657
 7166SOL    HW232958   2.605   2.746  10.756  0.4824 -0.4449  1.0285
 7167SOL     OW32959   2.517   1.225   4.525 -0.1104 -0.0360  0.9302
 7167SOL    HW132960   2.549   1.296   4.469  1.1072 -0.7940  0.6622
 7167SOL    HW232961   2.588   1.218   4.589 -0.9666 -3.8423  1.4076
 7168SOL     OW32962   0.979   4.388   1.768 -0.1859 -0.6216  0.0726
 7168SOL    HW132963   1.018   4.474   1.749  1.2339 -0.7454  2.4837
 7168SOL    HW232964   1.009   4.333   1.696 -1.4109  0.3814 -1.2153
 7169SOL     OW32965   1.620   2.333   3.241 -0.2215  0.6493 -0.6154
 7169SOL    HW132966   1.596   2.283   3.164  1.7772 -0.5056 -0.4969
 7169SOL    HW232967   1.534   2.354   3.278  0.2751 -0.9838  1.5075
 7170SOL     OW32968   2.720   0.867   8.311 -0.1391 -0.1937  0.5109
 7170SOL    HW132969   2.661   0.943   8.310  1.6383  1.2013  0.2185
 7170SOL    HW232970   2.771   0.903   8.384  0.1311  1.2706 -0.3796
 7171SOL     OW32971   2.032   4.027  15.655 -0.4683 -0.6406 -0.0167
 7171SOL    HW132972   2.102   3.992  15.600 -0.7530 -0.6607 -0.3658
 7171SOL    HW232973   1.969   4.031  15.583 -0.9396  0.3100  0.4562
 7172SOL     OW32974   3.978   3.916   3.447  0.2148  0.4108  0.3151
 7172SOL    HW132975   3.977   3.998   3.496  1.0364  0.6567 -0.0738
 7172SOL    HW232976   4.071   3.895   3.448  0.1305 -0.0397 -0.8652
 7173SOL     OW32977   0.600   1.443   3.906 -0.0204  0.2389  0.3400
 7173SOL    HW132978   0.545   1.374   3.941 -0.6021 -0.1557 -1.3407
 7173SOL    HW232979   0.598   1.434   3.811  2.3106  2.4625  0.0751
 7174SOL     OW32980   1.794   1.057   4.849  1.0705  0.0127  0.1390
 7174SOL    HW132981   1.720   1.046   4.789 -0.0855 -0.4335  1.6312
 7174SOL    HW232982   1.763   1.127   4.907  2.8226  0.1141  0.9391
 7175SOL     OW32983   3.097   0.841   8.267 -0.2529 -0.0214  0.5705
 7175SOL    HW132984   3.103   0.829   8.172  0.9719 -0.6403  0.7292
 7175SOL    HW232985   3.184   0.828   8.302 -0.7501 -1.0236  1.4298
 7176SOL     OW32986   4.280   1.660   8.451  0.3668  0.1544 -0.7833
 7176SOL    HW132987   4.329   1.643   8.371 -2.2792  0.3138 -2.4354
 7176SOL    HW232988   4.272   1.572   8.489  0.4090  0.4891  0.0152
 7177SOL     OW32989   2.985   1.236  16.118  0.1934  0.0899  0.2468
 7177SOL    HW132990   3.061   1.244  16.060  0.2626  0.3865  0.3752
 7177SOL    HW232991   2.956   1.326  16.099  1.1142  0.1639 -0.7758
 7178SOL     OW32992   0.536   2.857   8.803 -0.1770  0.6634 -0.4781
 7178SOL    HW132993   0.584   2.783   8.841 -0.8027  0.9581  0.8818
 7178SOL    HW232994   0.444   2.837   8.818 -0.1133 -0.3612 -1.4496
 7179SOL     OW32995   2.316   2.535  15.047 -0.3305 -0.1053  0.2751
 7179SOL    HW132996   2.393   2.478  15.052  1.4406  2.1928 -1.0972
 7179SOL    HW232997   2.267   2.503  14.971 -0.5125 -2.0905  1.2236
 7180SOL     OW32998   2.906   3.352   6.705 -0.6223  0.2709  0.1123
 7180SOL    HW132999   2.910   3.310   6.790 -1.4439  1.2352  0.6257
 7180SOL    HW233000   2.895   3.444   6.731 -0.3738 -0.0283  1.2718
 7181SOL     OW33001   3.593   1.406   6.562 -0.5016  0.4152  0.1060
 7181SOL    HW133002   3.573   1.498   6.543  0.7264  0.2617 -1.9030
 7181SOL    HW233003   3.578   1.370   6.475  0.1451  0.2600  0.0609
 7182SOL     OW33004   4.042   1.621   4.671 -0.6304 -0.5555  0.4632
 7182SOL    HW133005   4.089   1.668   4.740 -0.7579 -0.7843  0.7031
 7182SOL    HW233006   4.034   1.532   4.707 -0.9043 -0.3016  1.0313
 7183SOL     OW33007   2.686   4.524   8.743 -0.8728 -0.2920  0.1341
 7183SOL    HW133008   2.693   4.508   8.837  0.0467 -1.4882 -0.1382
 7183SOL    HW233009   2.602   4.482   8.728 -0.9426  0.1166 -0.6670
 7184SOL     OW33010   2.167   4.149   8.807 -0.1775 -0.1747  0.1823
 7184SOL    HW133011   2.127   4.073   8.849  0.8493 -0.2331  1.0562
 7184SOL    HW233012   2.107   4.208   8.851  0.4910  0.0745  0.7648
 7185SOL     OW33013   0.856   3.148  11.079 -0.1383  0.8048  0.1792
 7185SOL    HW133014   0.895   3.195  11.005 -2.2704  0.9644 -0.8526
 7185SOL    HW233015   0.867   3.217  11.145 -1.2003 -0.5166  1.7237
 7186SOL     OW33016   1.860   0.627   5.768  0.1758  0.6014 -0.2658
 7186SOL    HW133017   1.910   0.686   5.711  0.8233  0.5421  0.2397
 7186SOL    HW233018   1.907   0.547   5.743 -1.8292 -0.8720  0.7623
 7187SOL     OW33019   1.653   4.658   2.474  0.0859  0.1463 -0.2352
 7187SOL    HW133020   1.607   4.608   2.408 -0.1501  0.2987 -0.1871
 7187SOL    HW233021   1.587   4.723   2.500 -1.5277 -0.4189 -2.9489
 7188SOL     OW33022   3.026   2.562   3.572 -0.8096 -0.3753  0.2469
 7188SOL    HW133023   3.097   2.623   3.552 -1.2379  0.1105  0.2096
 7188SOL    HW233024   3.018   2.517   3.487 -0.1112  0.3329 -0.1860
 7189SOL     OW33025   2.293   3.715  14.717 -0.0691 -0.2475 -0.2334
 7189SOL    HW133026   2.264   3.717  14.626 -2.2707  0.0616  0.4899
 7189SOL    HW233027   2.385   3.690  14.709  0.0584  0.1588 -0.0088
 7190SOL     OW33028   2.268   3.211  17.120  0.2468  0.0111  0.0845
 7190SOL    HW133029   2.343   3.196  17.062 -0.9164 -2.2704 -0.8279
 7190SOL    HW233030   2.278   3.305  17.138  2.0324 -0.3091  0.7380
 7191SOL     OW33031   1.423   1.708   4.433 -0.1515  0.0143 -0.4707
 7191SOL    HW133032   1.486   1.774   4.404 -0.5663  0.4774 -0.2934
 7191SOL    HW233033   1.392   1.680   4.346 -0.3838  0.0575 -0.4008
 7192SOL     OW33034   2.750   0.560   1.810 -0.3717 -0.9789  0.0550
 7192SOL    HW133035   2.731   0.643   1.767 -2.3155 -1.8905 -0.8931
 7192SOL    HW233036   2.686   0.507   1.762 -0.4615 -0.2008 -0.6927
 7193SOL     OW33037   3.506   1.510  13.336  0.6458 -0.3146 -0.3981
 7193SOL    HW133038   3.504   1.542  13.426  0.2940  2.5267 -1.4023
 7193SOL    HW233039   3.486   1.590  13.287  0.1577 -0.0993  0.1438
 7194SOL     OW33040   2.928   0.203   3.089 -0.0018  0.4124  0.4196
 7194SOL    HW133041   2.973   0.284   3.113  2.6374 -1.2020  0.8967
 7194SOL    HW233042   2.848   0.249   3.063  0.8721  0.9398 -1.3215
 7195SOL     OW33043   2.722   2.879  11.306  0.0143  0.1413  0.2830
 7195SOL    HW133044   2.657   2.811  11.324 -0.7796  0.8855  0.2102
 7195SOL    HW233045   2.673   2.957  11.332  0.2494 -0.1257  1.5132
 7196SOL     OW33046   0.253   0.745   4.471  0.4564 -0.4947  0.3911
 7196SOL    HW133047   0.339   0.716   4.499 -0.3245 -0.2107  3.0724
 7196SOL    HW233048   0.285   0.809   4.407  2.1213 -1.8310 -0.1095
 7197SOL     OW33049   1.837   1.955   3.943  0.1669  0.2708  0.0103
 7197SOL    HW133050   1.789   1.945   3.860 -0.0580 -1.8123  0.3797
 7197SOL    HW233051   1.918   1.913   3.912  0.5270  0.3654  0.8356
 7198SOL     OW33052   3.170   0.731  13.885 -0.4444 -0.4886  0.3523
 7198SOL    HW133053   3.115   0.806  13.907 -0.5766 -0.6668  0.6248
 7198SOL    HW233054   3.153   0.677  13.962  0.0118 -0.3735  0.5348
 7199SOL     OW33055   0.020   2.649   5.572 -0.1652  0.1187  0.0247
 7199SOL    HW133056   4.653   2.663   5.580 -0.1909 -0.9489  1.4712
 7199SOL    HW233057   0.015   2.569   5.520 -0.7074 -0.3915  0.8587
 7200SOL     OW33058   4.462   2.864   1.815  0.7299 -0.0746 -0.5455
 7200SOL    HW133059   4.399   2.932   1.839 -0.4430 -0.5041 -2.4157
 7200SOL    HW233060   4.493   2.902   1.733  2.7677  3.1173  1.7286
 7201SOL     OW33061   3.251   4.511   9.215  0.0413 -0.3359 -0.2289
 7201SOL    HW133062   3.251   4.596   9.173 -2.0151  0.1568  0.7519
 7201SOL    HW233063   3.235   4.453   9.141 -0.4059 -0.6967  0.1469
 7202SOL     OW33064   1.373   3.648  10.264  0.3555  0.5917  0.8211
 7202SOL    HW133065   1.357   3.674  10.174 -0.1949 -1.6421  0.2601
 7202SOL    HW233066   1.358   3.731  10.309 -1.2683  1.8939 -2.1247
 7203SOL     OW33067   3.214   0.960   4.476 -0.3844  0.4075 -0.2039
 7203SOL    HW133068   3.222   0.882   4.421  2.9993 -0.7459  1.9051
 7203SOL    HW233069   3.122   0.957   4.504 -1.0125 -1.5930 -2.4714
 7204SOL     OW33070   0.735   1.149   4.291  0.4300 -0.4408 -0.0334
 7204SOL    HW133071   0.652   1.126   4.248 -0.0892  1.9147 -0.2473
 7204SOL    HW233072   0.796   1.097   4.238 -0.7212  0.1512 -1.9385
 7205SOL     OW33073   3.173   1.418   8.161 -0.4227  0.1358  0.1375
 7205SOL    HW133074   3.200   1.408   8.252  1.8239 -1.0230 -0.6564
 7205SOL    HW233075   3.232   1.361   8.111 -1.8318 -2.3122  1.2903
 7206SOL     OW33076   4.133   1.867   8.671 -0.1535 -0.3410  0.3576
 7206SOL    HW133077   4.098   1.941   8.721  0.0286  0.0853 -0.1512
 7206SOL    HW233078   4.132   1.911   8.587  1.1236 -1.3944 -0.2086
 7207SOL     OW33079   0.085   1.354   6.156  0.6412  0.1238 -0.5477
 7207SOL    HW133080   0.138   1.395   6.088  1.4214 -0.2765 -0.1758
 7207SOL    HW233081   0.042   1.438   6.177 -0.6502 -0.4717 -0.8332
 7208SOL     OW33082   1.530   1.373   0.473  0.6233 -0.0863 -0.2414
 7208SOL    HW133083   1.539   1.446   0.412 -3.1506 -0.0255 -0.7203
 7208SOL    HW233084   1.530   1.415   0.558  0.0704  0.5348 -0.5480
 7209SOL     OW33085   0.555   4.161   7.559 -0.5422 -0.1859  0.0154
 7209SOL    HW133086   0.537   4.217   7.634 -0.6301 -0.6577  0.3479
 7209SOL    HW233087   0.511   4.210   7.489  2.1159 -1.3477 -2.4819
 7210SOL     OW33088   0.734   2.965   2.802 -0.5677  0.1638  0.0933
 7210SOL    HW133089   0.725   3.018   2.881 -1.7017 -1.4259  1.0358
 7210SOL    HW233090   0.695   3.022   2.736 -1.0716 -1.5810 -1.1057
 7211SOL     OW33091   1.004   1.988   6.608  0.0940 -1.1768 -0.0108
 7211SOL    HW133092   0.912   1.964   6.604 -0.5154  1.3240 -1.7150
 7211SOL    HW233093   1.004   2.084   6.602 -1.3918 -1.2053 -0.3230
 7212SOL     OW33094   3.043   3.970   5.140 -0.5161  0.4306 -0.6992
 7212SOL    HW133095   3.105   4.007   5.202 -0.8238 -0.6240  0.2160
 7212SOL    HW233096   3.098   3.952   5.064  0.1328 -0.5667  0.0106
 7213SOL     OW33097   3.359   4.069  16.951 -0.3835 -0.2366  0.3758
 7213SOL    HW133098   3.348   4.067  16.856 -0.1687 -0.0316  0.3453
 7213SOL    HW233099   3.337   3.979  16.976 -1.0376  0.5494  2.6437
 7214SOL     OW33100   0.372   2.361   5.252  0.0694  0.0275 -0.8509
 7214SOL    HW133101   0.455   2.401   5.225 -0.0374  0.7109 -0.1804
 7214SOL    HW233102   0.349   2.315   5.172  0.6402 -1.1535 -0.3366
 7215SOL     OW33103   3.137   3.995   2.532 -0.2187  0.1416  0.5809
 7215SOL    HW133104   3.074   3.949   2.587  0.5030  0.8778  2.0507
 7215SOL    HW233105   3.176   4.053   2.598 -0.7967 -1.3556  2.2445
 7216SOL     OW33106   4.056   2.934   2.495 -0.1211  0.0314  0.7465
 7216SOL    HW133107   4.088   2.895   2.413  1.5830  0.9099  0.9924
 7216SOL    HW233108   4.104   3.016   2.507 -0.2328  0.0824  0.8405
 7217SOL     OW33109   1.908   2.179   5.543  0.6627  0.0823  0.2173
 7217SOL    HW133110   1.970   2.125   5.593  2.0414  1.4422 -0.0470
 7217SOL    HW233111   1.833   2.119   5.547  1.2767 -0.6900  0.0182
 7218SOL     OW33112   3.936   2.819   7.173  0.3826  0.3448  0.2246
 7218SOL    HW133113   3.950   2.871   7.093 -0.0813 -1.0544 -0.7652
 7218SOL    HW233114   3.965   2.880   7.241  0.2282  0.1594  0.4580
 7219SOL     OW33115   1.770   0.546   9.160 -0.6596 -0.1176 -0.1397
 7219SOL    HW133116   1.804   0.468   9.203  1.4856 -0.2547 -2.1271
 7219SOL    HW233117   1.697   0.507   9.111  0.6746 -2.0368 -0.5924
 7220SOL     OW33118   0.150   1.409   5.032 -0.1534 -0.1233 -0.4463
 7220SOL    HW133119   0.140   1.501   5.009  0.4122  0.1518  0.4178
 7220SOL    HW233120   0.057   1.389   5.034  0.2426 -1.8610  0.8793
 7221SOL     OW33121   0.208   1.869  13.331  0.4981  0.5352 -0.4153
 7221SOL    HW133122   0.165   1.926  13.266 -0.4084  2.2700  1.7146
 7221SOL    HW233123   0.163   1.878  13.415 -2.2804 -2.3063 -1.5922
 7222SOL     OW33124   1.721   4.644   9.819 -0.3053 -0.4925  0.6173
 7222SOL    HW133125   1.750   4.569   9.871  0.6153 -0.9768 -0.5734
 7222SOL    HW233126   1.654   4.604   9.763 -1.6974  0.5103  1.5669
 7223SOL     OW33127   3.993   0.954  13.633 -0.1049  0.2484 -0.0489
 7223SOL    HW133128   3.960   1.025  13.577 -0.7477  1.3851  1.7511
 7223SOL    HW233129   4.085   0.974  13.650  0.0942  1.4710 -2.6445
 7224SOL     OW33130   1.296   3.985   5.631 -0.2571  0.5475 -0.3021
 7224SOL    HW133131   1.352   3.911   5.607 -0.6533  0.0528  0.3130
 7224SOL    HW233132   1.219   3.946   5.673  0.3338 -0.9905 -0.6545
 7225SOL     OW33133   2.378   2.867   1.131  0.3755 -0.0338  0.0051
 7225SOL    HW133134   2.440   2.938   1.113 -0.1650  0.0158 -1.5781
 7225SOL    HW233135   2.439   2.795   1.118  1.6634  0.7951  1.3613
 7226SOL     OW33136   3.939   4.662   6.303  0.2070  0.5713 -0.1932
 7226SOL    HW133137   3.862   4.696   6.347  0.5207 -1.8492  2.2428
 7226SOL    HW233138   3.978   0.014   6.268 -0.5292  0.8491 -0.3673
 7227SOL     OW33139   4.303   1.896  17.504  0.3224 -0.1793  0.0794
 7227SOL    HW133140   4.215   1.924  17.530 -0.0263 -2.4103  1.3171
 7227SOL    HW233141   4.349   1.885  17.587  2.0662  1.1525 -0.7083
 7228SOL     OW33142   1.443   0.531  17.480 -0.0978  0.1510  0.3982
 7228SOL    HW133143   1.354   0.505  17.456 -0.8595  0.7964  2.5686
 7228SOL    HW233144   1.492   0.455  17.510  0.6553 -0.3542 -2.0331
 7229SOL     OW33145   3.002   1.715  14.794 -0.5469  0.0983  0.0616
 7229SOL    HW133146   3.032   1.690  14.706  1.2354  1.0580  0.4172
 7229SOL    HW233147   2.962   1.635  14.827 -0.3942  0.0793  0.1937
 7230SOL     OW33148   0.361   1.216  10.632 -0.0820  0.9216  0.0092
 7230SOL    HW133149   0.353   1.140  10.690  0.5869  0.7000 -0.1953
 7230SOL    HW233150   0.419   1.268  10.688  0.3444 -0.4991  0.8922
 7231SOL     OW33151   4.708   0.686   6.163 -0.0080 -0.3865  0.2395
 7231SOL    HW133152   0.045   0.735   6.214  0.4964  1.1246 -1.8445
 7231SOL    HW233153   4.678   0.765   6.117 -4.1009 -1.6291  0.7424
 7232SOL     OW33154   3.268   4.607   0.018 -0.2167 -0.2369 -0.0240
 7232SOL    HW133155   3.305   4.690   0.047  0.1004  0.0956 -1.3731
 7232SOL    HW233156   3.350   4.564  17.706  1.0668  0.9983  2.1791
 7233SOL     OW33157   0.726   2.881  13.200  0.1754  0.4885  0.4449
 7233SOL    HW133158   0.702   2.798  13.241  1.7870 -1.1503 -1.9351
 7233SOL    HW233159   0.637   2.917  13.211  0.3888  1.9236 -2.4549
 7234SOL     OW33160   1.823   1.968  10.585 -0.7442 -0.2319  0.1729
 7234SOL    HW133161   1.775   1.890  10.556  0.8906 -1.6983  1.3719
 7234SOL    HW233162   1.814   1.956  10.680 -2.5445  0.7945  0.1410
 7235SOL     OW33163   4.594   3.715   5.928 -0.2434 -0.1986  0.0845
 7235SOL    HW133164   4.522   3.754   5.977 -1.0224 -0.5542 -0.7712
 7235SOL    HW233165   4.562   3.707   5.839  1.0573  3.0248 -0.6710
 7236SOL     OW33166   1.722   1.598   6.527 -0.0351  0.4890 -0.7160
 7236SOL    HW133167   1.732   1.505   6.547 -1.0242  0.6948  0.7126
 7236SOL    HW233168   1.629   1.596   6.506 -0.2788 -1.2732  0.5702
 7237SOL     OW33169   1.469   2.357   6.817  0.1672  0.3314  0.1251
 7237SOL    HW133170   1.431   2.276   6.851  1.3556 -0.9543 -1.6360
 7237SOL    HW233171   1.563   2.340   6.816 -0.1490 -1.3095 -1.2474
 7238SOL     OW33172   2.341   1.827  17.578  0.7482  0.5882 -0.3295
 7238SOL    HW133173   2.328   1.863  17.490  0.0520  1.3712  0.0931
 7238SOL    HW233174   2.350   1.898  17.641  1.0304 -0.5932  0.9636
 7239SOL     OW33175   4.461   4.002   9.708  0.2822 -0.3269 -0.8187
 7239SOL    HW133176   4.414   4.084   9.720  0.7631 -0.2829  0.8956
 7239SOL    HW233177   4.413   3.956   9.777  3.6468 -0.4722  1.4575
 7240SOL     OW33178   1.109   4.705   8.406 -0.2870  0.1234 -0.7171
 7240SOL    HW133179   1.076   0.007   8.490 -2.2280 -2.4757 -0.5455
 7240SOL    HW233180   1.086   0.057   8.358  1.2672  0.8076 -0.3165
 7241SOL     OW33181   0.422   1.401   5.123 -0.0095 -0.6857 -0.6560
 7241SOL    HW133182   0.466   1.350   5.056  0.6043 -1.3748  0.2749
 7241SOL    HW233183   0.328   1.391   5.109 -0.3375 -0.5671  1.4650
 7242SOL     OW33184   2.410   4.180   4.094  0.3437  0.2994  0.2986
 7242SOL    HW133185   2.377   4.269   4.087  0.7107  0.3575 -0.7509
 7242SOL    HW233186   2.435   4.166   4.186  0.5595  1.0529  0.3534
 7243SOL     OW33187   0.790   2.149   6.908  0.2956 -0.3731 -0.5080
 7243SOL    HW133188   0.723   2.183   6.848  0.0011 -0.4516 -0.2238
 7243SOL    HW233189   0.786   2.062   6.869  0.0450 -0.8496  0.5863
 7244SOL     OW33190   4.003   4.377   3.900 -0.0008 -0.1459 -0.0725
 7244SOL    HW133191   3.917   4.344   3.926  0.2479  0.6369  1.6846
 7244SOL    HW233192   3.996   4.403   3.808 -2.4225 -1.7984 -0.3628
 7245SOL     OW33193   1.718   4.328   5.805 -0.4201 -0.5201 -0.2224
 7245SOL    HW133194   1.709   4.391   5.876 -2.6410  0.1652 -1.1106
 7245SOL    HW233195   1.664   4.368   5.737 -2.6362 -2.8599  0.1592
 7246SOL     OW33196   2.747   2.767   9.051 -0.1609 -0.0183  0.2830
 7246SOL    HW133197   2.800   2.841   9.021 -1.2753  0.7404  0.2074
 7246SOL    HW233198   2.810   2.735   9.116  1.4932 -1.4010 -1.9994
 7247SOL     OW33199   3.845   1.295   7.884 -0.5267 -0.1065 -0.0216
 7247SOL    HW133200   3.923   1.352   7.875 -0.9613  0.3370 -0.9960
 7247SOL    HW233201   3.777   1.351   7.847  0.4783  1.4512  0.4482
 7248SOL     OW33202   1.273   4.617   5.909  0.3574  0.1253  0.3249
 7248SOL    HW133203   1.279   4.603   5.814  0.6499  1.0975  0.2041
 7248SOL    HW233204   1.326   4.543   5.938 -0.7049 -1.3513 -1.4270
 7249SOL     OW33205   3.913   0.646  10.251 -0.4321  0.4966 -0.2801
 7249SOL    HW133206   3.981   0.596  10.296 -0.9854 -1.4476 -1.6031
 7249SOL    HW233207   3.850   0.590  10.205  1.8773 -0.9921 -1.6011
 7250SOL     OW33208   2.611   4.241   8.574  0.0139  0.0138  0.2905
 7250SOL    HW133209   2.571   4.277   8.494 -0.5486 -0.4553  0.3673
 7250SOL    HW233210   2.561   4.289   8.640  0.8912 -2.6290  2.8234
 7251SOL     OW33211   2.083   1.536  12.138 -0.6196  0.1588 -0.8499
 7251SOL    HW133212   2.041   1.527  12.223 -3.1235 -0.2645 -2.1353
 7251SOL    HW233213   2.146   1.465  12.145  0.2691  0.9820 -0.5031
 7252SOL     OW33214   0.341   2.211   1.257 -0.9312  0.0079 -0.2277
 7252SOL    HW133215   0.402   2.196   1.185 -1.3318  1.8981 -0.9610
 7252SOL    HW233216   0.363   2.137   1.312 -0.2869 -0.0840 -0.6115
 7253SOL     OW33217   1.424   2.877   3.351 -0.7025 -0.1858 -0.0706
 7253SOL    HW133218   1.443   2.911   3.264  3.6320 -1.4867  0.3830
 7253SOL    HW233219   1.456   2.944   3.411  0.7989 -1.7303  0.8387
 7254SOL     OW33220   4.593   2.651   7.441  0.0184 -0.3892  0.1323
 7254SOL    HW133221   4.564   2.664   7.351  2.3001 -0.9681 -0.6656
 7254SOL    HW233222   4.639   2.733   7.459 -0.0505 -0.0585 -1.2255
 7255SOL     OW33223   1.442   4.180  14.712  0.2158 -0.6202  0.0146
 7255SOL    HW133224   1.485   4.150  14.632  2.1125  0.3557  0.6831
 7255SOL    HW233225   1.519   4.176  14.769  0.1433 -1.9184  0.0243
 7256SOL     OW33226   1.271   4.706   9.168 -0.1685  0.1673  0.3790
 7256SOL    HW133227   1.364   4.718   9.188  0.5441 -1.3599 -1.9406
 7256SOL    HW233228   1.277   4.692   9.073  0.1337  0.4091  0.3639
 7257SOL     OW33229   0.639   0.097  14.824 -0.0025 -0.2714 -0.1408
 7257SOL    HW133230   0.651   0.180  14.780 -1.5547 -0.4941 -0.9935
 7257SOL    HW233231   0.704   0.113  14.893  1.2940  1.1394 -1.7096
 7258SOL     OW33232   2.906   4.288   7.057  1.6567  0.5416  0.5835
 7258SOL    HW133233   2.864   4.240   6.986  0.0122  3.0473 -0.1798
 7258SOL    HW233234   2.869   4.376   7.047  2.5582  0.7207 -1.0026
 7259SOL     OW33235   3.917   4.277   3.127 -0.1612  0.3975  0.3379
 7259SOL    HW133236   3.880   4.313   3.208 -0.6767 -0.9640  0.7154
 7259SOL    HW233237   3.954   4.190   3.140  0.0573  0.2744 -1.1286
 7260SOL     OW33238   3.428   1.165  17.025  0.2118 -0.1562 -0.2597
 7260SOL    HW133239   3.520   1.192  17.032 -0.2219  0.9365  1.2287
 7260SOL    HW233240   3.384   1.236  17.071  0.0517 -0.5222  0.1514
 7261SOL     OW33241   2.531   0.392   5.681 -0.5112  0.5206  0.4202
 7261SOL    HW133242   2.565   0.361   5.765 -0.5580  0.0343  0.2607
 7261SOL    HW233243   2.448   0.344   5.681  0.4042 -1.0452  0.3056
 7262SOL     OW33244   0.144   3.314   8.186 -0.0763 -0.5631  0.0922
 7262SOL    HW133245   0.226   3.362   8.191  0.0138 -0.8586  1.5498
 7262SOL    HW233246   0.080   3.386   8.185  0.2434 -0.2259  3.0049
 7263SOL     OW33247   4.509   0.295   3.075 -0.3648 -0.2889  0.2621
 7263SOL    HW133248   4.421   0.268   3.050 -0.0982 -0.3182 -0.6295
 7263SOL    HW233249   4.489   0.341   3.157 -1.6560 -0.6770  0.1650
 7264SOL     OW33250   3.753   2.691   6.624 -0.7561 -0.2343 -0.1464
 7264SOL    HW133251   3.764   2.662   6.715 -0.3331  0.6367  0.0834
 7264SOL    HW233252   3.793   2.777   6.620  1.7908 -1.5055 -1.8625
 7265SOL     OW33253   2.911   2.866   6.066  0.1800  0.0498 -0.1481
 7265SOL    HW133254   2.856   2.790   6.045 -0.4010  1.0855 -2.3718
 7265SOL    HW233255   2.864   2.942   6.031 -2.0796 -0.8222  1.0216
 7266SOL     OW33256   4.636   4.097  13.375 -0.2558  0.1955 -0.1324
 7266SOL    HW133257   4.557   4.117  13.426  0.8325 -0.4038  1.7857
 7266SOL    HW233258   4.691   4.052  13.439  0.1131  1.7730  0.6565
 7267SOL     OW33259   2.799   0.724  17.621  0.2422 -0.3853  0.1029
 7267SOL    HW133260   2.708   0.740  17.643  0.0994 -0.7490 -0.2122
 7267SOL    HW233261   2.827   0.815  17.610 -0.8966  0.1555  1.6948
 7268SOL     OW33262   4.159   1.178  11.578 -0.2709 -0.3411 -0.1799
 7268SOL    HW133263   4.202   1.092  11.577  0.2478 -0.1070  2.2440
 7268SOL    HW233264   4.170   1.202  11.670 -1.4078 -2.4843  0.5076
 7269SOL     OW33265   0.771   1.846   0.753 -0.2050 -0.3095 -0.3813
 7269SOL    HW133266   0.798   1.804   0.834 -3.5825 -0.0934  0.8689
 7269SOL    HW233267   0.843   1.830   0.692  0.3437  0.4654  0.0586
 7270SOL     OW33268   3.183   1.834   1.693 -0.2133 -0.0499  0.5233
 7270SOL    HW133269   3.177   1.865   1.603 -0.0570 -3.2888 -0.6089
 7270SOL    HW233270   3.145   1.747   1.678 -1.9549  1.0137 -1.0268
 7271SOL     OW33271   4.199   4.163  10.007  0.4809 -0.0607  0.1957
 7271SOL    HW133272   4.209   4.252   9.976  1.2858 -0.3354 -0.3280
 7271SOL    HW233273   4.177   4.110   9.930 -1.4080  3.3923 -1.6200
 7272SOL     OW33274   2.892   1.127  13.756 -0.0255 -0.1677 -0.1792
 7272SOL    HW133275   2.959   1.072  13.717 -0.1822  0.4638 -1.3286
 7272SOL    HW233276   2.813   1.093  13.713  1.0721 -0.4953 -1.9182
 7273SOL     OW33277   3.237   1.680   5.802 -0.0981 -0.2295 -0.0226
 7273SOL    HW133278   3.171   1.684   5.871 -1.5259  0.4511 -1.4273
 7273SOL    HW233279   3.308   1.722   5.850  1.5659  0.7494 -3.3008
 7274SOL     OW33280   1.435   2.616   4.557 -0.3119 -0.5299  0.1086
 7274SOL    HW133281   1.345   2.643   4.576  0.4684 -0.2369  3.4610
 7274SOL    HW233282   1.432   2.580   4.469 -1.1026 -0.5483  0.1448
 7275SOL     OW33283   2.490   4.678   7.154  0.3273  0.0474 -0.3130
 7275SOL    HW133284   2.507   4.589   7.123 -3.1204 -0.8413  0.3406
 7275SOL    HW233285   2.470   4.650   7.243 -0.4550 -2.6495 -1.3176
 7276SOL     OW33286   2.605   0.488   8.400  0.2891 -0.3241  0.2831
 7276SOL    HW133287   2.657   0.480   8.480  0.8393 -0.2829 -0.0684
 7276SOL    HW233288   2.667   0.510   8.331  1.7998 -1.1045  1.3847
 7277SOL     OW33289   2.618   2.793   1.870 -0.1187 -0.6690  0.9781
 7277SOL    HW133290   2.568   2.728   1.820  0.0676  0.6512 -0.8997
 7277SOL    HW233291   2.707   2.784   1.837 -0.5292  2.4420 -0.9684
 7278SOL     OW33292   2.087   0.251   6.583 -0.2421  1.4216  0.0059
 7278SOL    HW133293   2.011   0.268   6.639  0.5201 -0.2761  1.5609
 7278SOL    HW233294   2.035   0.244   6.503  1.7519  1.1325 -1.2750
 7279SOL     OW33295   2.479   1.510   1.638  0.3155 -0.5669 -0.1431
 7279SOL    HW133296   2.446   1.520   1.728  0.5331  2.1806 -0.3855
 7279SOL    HW233297   2.572   1.507   1.661  0.3231  0.6871  0.0108
 7280SOL     OW33298   2.582   4.090   9.934 -0.2846 -0.3303  0.1115
 7280SOL    HW133299   2.611   4.113   9.846  0.4386  1.4176  0.8039
 7280SOL    HW233300   2.525   4.165   9.953  2.5704  2.2016 -1.3261
 7281SOL     OW33301   1.886   4.004   6.769  0.0035 -0.1208  0.4599
 7281SOL    HW133302   1.840   3.963   6.842 -0.7230 -0.1206  0.0110
 7281SOL    HW233303   1.853   3.939   6.707 -3.2248 -1.2804  3.4101
 7282SOL     OW33304   1.828   2.832   8.109 -0.0977 -0.6153  0.6649
 7282SOL    HW133305   1.776   2.768   8.158  0.5754 -1.3365  0.4374
 7282SOL    HW233306   1.775   2.911   8.104 -0.6618 -1.0976 -0.7990
 7283SOL     OW33307   3.486   3.396   2.515 -0.2126  0.0167 -0.1536
 7283SOL    HW133308   3.558   3.370   2.572  0.1871 -0.1690 -0.7419
 7283SOL    HW233309   3.533   3.426   2.437 -0.2636 -1.4548 -0.7441
 7284SOL     OW33310   4.436   2.604   3.308  0.1676  0.9204 -0.4284
 7284SOL    HW133311   4.438   2.525   3.254  0.1369 -0.6170  1.8206
 7284SOL    HW233312   4.391   2.664   3.248 -0.0394 -0.5029 -1.7063
 7285SOL     OW33313   2.702   0.960  13.630  0.1580 -0.3025  0.1133
 7285SOL    HW133314   2.719   0.965  13.536 -0.4968 -0.8745 -0.0335
 7285SOL    HW233315   2.607   0.955  13.630  0.3111 -2.8146 -1.6794
 7286SOL     OW33316   0.904   4.388   5.428 -0.1906  0.4103  0.1489
 7286SOL    HW133317   0.859   4.437   5.358 -1.2991 -0.8874 -0.0469
 7286SOL    HW233318   0.962   4.337   5.371  0.2396 -0.2908  1.2298
 7287SOL     OW33319   2.034   2.085  17.437  0.1777  0.5372 -0.1175
 7287SOL    HW133320   1.955   2.044  17.402  0.8937  0.5923 -1.8108
 7287SOL    HW233321   2.097   2.045  17.376  0.4582 -0.9635  1.1327
 7288SOL     OW33322   3.651   3.643   6.769 -0.3000  0.0056  0.1523
 7288SOL    HW133323   3.696   3.560   6.753 -1.6083 -1.0966  2.1706
 7288SOL    HW233324   3.601   3.626   6.849 -0.0736  0.5706  0.4209
 7289SOL     OW33325   3.420   4.203   2.459 -0.1234  0.2674  0.0134
 7289SOL    HW133326   3.360   4.251   2.402  0.2782  1.7144  0.7985
 7289SOL    HW233327   3.436   4.127   2.403  1.3354  0.7305 -0.1877
 7290SOL     OW33328   2.677   1.167   3.598 -0.2996  0.8461  0.0964
 7290SOL    HW133329   2.614   1.230   3.633  1.1488  0.4131  3.4514
 7290SOL    HW233330   2.681   1.199   3.507  1.0706  1.0812  0.2434
 7291SOL     OW33331   4.361   0.192   9.951 -0.3584 -0.6377 -0.6569
 7291SOL    HW133332   4.383   0.166  10.041 -2.8863 -1.6249 -0.3172
 7291SOL    HW233333   4.436   0.250   9.935 -0.9819  0.5036  0.5241
 7292SOL     OW33334   0.784   3.658   5.654  0.5057  0.1242  0.3167
 7292SOL    HW133335   0.818   3.569   5.663 -0.0028 -0.0934  0.1318
 7292SOL    HW233336   0.760   3.659   5.561 -0.7185  0.6536  0.6322
 7293SOL     OW33337   3.291   3.623  14.048 -0.0334 -0.1822  0.5826
 7293SOL    HW133338   3.338   3.673  14.115 -1.0198  2.8047 -0.9325
 7293SOL    HW233339   3.223   3.689  14.032 -0.8941 -1.7595 -2.1932
 7294SOL     OW33340   2.048   3.750   2.830 -0.1989  0.1982 -0.0158
 7294SOL    HW133341   1.983   3.796   2.777 -0.5891 -0.4775 -0.1169
 7294SOL    HW233342   2.114   3.726   2.764  1.2280  0.0615  1.4577
 7295SOL     OW33343   3.802   3.271   0.924 -0.2296  0.1633  0.1219
 7295SOL    HW133344   3.728   3.215   0.902  1.4576  0.0534 -5.4339
 7295SOL    HW233345   3.821   3.327   0.848 -0.2182  2.0496  1.5191
 7296SOL     OW33346   2.036   3.201   9.198 -0.6147 -0.2058  0.3439
 7296SOL    HW133347   2.124   3.170   9.177 -0.1491  1.4165 -0.1000
 7296SOL    HW233348   1.991   3.123   9.229  1.8104 -0.6820  2.6094
 7297SOL     OW33349   2.189   2.550   7.665  1.0621  0.2238  0.1295
 7297SOL    HW133350   2.270   2.508   7.637  1.5618 -0.7664  3.0450
 7297SOL    HW233351   2.214   2.611   7.735 -0.8595  0.8913  0.2575
 7298SOL     OW33352   0.992   2.409   6.211  0.2310 -0.3348 -0.4930
 7298SOL    HW133353   1.020   2.321   6.234  0.9165 -0.3362 -1.3431
 7298SOL    HW233354   1.076   2.453   6.195  0.6557 -1.1270 -0.4035
 7299SOL     OW33355   3.745   4.186   3.818 -0.4380  0.0553  0.1099
 7299SOL    HW133356   3.668   4.184   3.760 -0.1947 -0.8117 -0.1884
 7299SOL    HW233357   3.784   4.104   3.786  0.5550 -0.2510  2.0993
 7300SOL     OW33358   3.889   3.231  14.843 -0.1948 -0.2020  0.3711
 7300SOL    HW133359   3.977   3.256  14.872  0.4530 -1.2679 -0.6392
 7300SOL    HW233360   3.902   3.146  14.801  0.6659  0.7815 -1.3575
 7301SOL     OW33361   0.687   3.798  11.613 -0.1964  0.2622  0.0383
 7301SOL    HW133362   0.665   3.886  11.583  2.6289  1.3329  1.1148
 7301SOL    HW233363   0.616   3.789  11.676 -0.7518 -1.4997 -0.8213
 7302SOL     OW33364   2.967   1.676   7.725 -0.5086 -0.2002  0.2136
 7302SOL    HW133365   2.954   1.770   7.730  1.1247 -0.0348  1.4768
 7302SOL    HW233366   2.880   1.638   7.710 -0.2512 -0.6024 -0.2364
 7303SOL     OW33367   4.297   3.129  17.174  0.1167  0.3649 -0.0743
 7303SOL    HW133368   4.359   3.056  17.184  0.1707  0.1246 -2.2879
 7303SOL    HW233369   4.307   3.159  17.265  1.6117 -0.8370  0.1683
 7304SOL     OW33370   0.686   4.612   7.034  0.6017  0.7302  0.6176
 7304SOL    HW133371   0.734   4.677   7.086  0.7920  0.2285  1.0703
 7304SOL    HW233372   0.611   4.655   6.994  0.6716  0.8794  0.6471
 7305SOL     OW33373   0.033   2.053   5.630  0.1772  0.0822  0.2401
 7305SOL    HW133374   0.038   1.969   5.584 -0.3357  0.0499  0.2414
 7305SOL    HW233375   0.068   2.114   5.564 -0.4784 -0.9801 -1.0904
 7306SOL     OW33376   3.125   0.618  14.133  0.2481  0.4278  0.1250
 7306SOL    HW133377   3.114   0.656  14.220 -3.4757 -1.5147  0.4847
 7306SOL    HW233378   3.198   0.556  14.144 -1.8253 -2.1382 -0.5055
 7307SOL     OW33379   3.803   3.637   2.805  0.0618 -0.6973 -0.1821
 7307SOL    HW133380   3.853   3.678   2.875 -1.6196 -0.9596  1.1620
 7307SOL    HW233381   3.834   3.690   2.732 -1.2399  0.0794 -0.1626
 7308SOL     OW33382   4.703   1.940   1.637 -0.7642 -0.0995  0.5713
 7308SOL    HW133383   4.720   1.988   1.556  3.2215 -1.4538  0.5594
 7308SOL    HW233384   0.012   1.856   1.607 -0.0832  0.0775  0.9069
 7309SOL     OW33385   1.222   0.130   4.693  0.2720 -0.4462  0.2712
 7309SOL    HW133386   1.173   0.212   4.700 -0.9237 -1.2529  1.2776
 7309SOL    HW233387   1.310   0.154   4.720 -0.8850  2.6481  1.3435
 7310SOL     OW33388   4.606   4.244   6.297 -0.1224  0.2213  0.3746
 7310SOL    HW133389   4.558   4.183   6.241  0.8566 -0.0707 -0.1467
 7310SOL    HW233390   4.630   4.312   6.234 -3.3329 -0.3498 -1.4539
 7311SOL     OW33391   0.537   0.535   0.296 -0.3835  0.1350  0.0850
 7311SOL    HW133392   0.459   0.525   0.241 -0.7981 -0.7168  0.8306
 7311SOL    HW233393   0.590   0.599   0.248 -0.1947  0.5723  0.8792
 7312SOL     OW33394   1.461   0.002   0.210  0.0343 -0.3023  0.3396
 7312SOL    HW133395   1.504   4.649   0.239  3.2369  1.4130  0.3952
 7312SOL    HW233396   1.370   4.724   0.240  0.0149  0.5296  0.4289
 7313SOL     OW33397   0.325   2.286   1.720  0.4908  0.3134  0.4123
 7313SOL    HW133398   0.402   2.336   1.691 -0.1107  0.3866 -1.0822
 7313SOL    HW233399   0.357   2.196   1.707  1.2093  0.6105  0.1015
 7314SOL     OW33400   2.297   1.345   8.490  0.2733 -0.2419  0.2149
 7314SOL    HW133401   2.334   1.262   8.520  0.2379 -0.0993  0.6577
 7314SOL    HW233402   2.304   1.326   8.397  1.7325 -0.3919  0.3544
 7315SOL     OW33403   0.931   3.174   5.639  0.4467  0.3624  0.4979
 7315SOL    HW133404   0.962   3.085   5.623 -1.7384  0.0860 -2.0807
 7315SOL    HW233405   0.894   3.190   5.553 -0.7208 -0.0534  0.9230
 7316SOL     OW33406   3.738   1.822   6.277 -0.0077  0.0440 -0.1598
 7316SOL    HW133407   3.820   1.807   6.324  0.8610  0.0645 -1.6506
 7316SOL    HW233408   3.763   1.912   6.256 -0.2386 -0.1007 -1.0535
 7317SOL     OW33409   1.616   2.454   7.676 -0.6512 -0.0623 -0.0777
 7317SOL    HW133410   1.547   2.388   7.668 -0.3230 -0.3036 -0.8956
 7317SOL    HW233411   1.550   2.522   7.692 -1.4917 -0.4301 -1.9755
 7318SOL     OW33412   1.124   0.434   3.212  0.5712  0.0921 -0.0446
 7318SOL    HW133413   1.209   0.431   3.256  1.0638  0.6086 -0.9660
 7318SOL    HW233414   1.132   0.353   3.162 -0.3464  0.0419 -0.1065
 7319SOL     OW33415   0.435   3.026   7.819 -0.3167 -0.9148  0.0320
 7319SOL    HW133416   0.420   2.978   7.900  0.0041  0.9123  1.1594
 7319SOL    HW233417   0.485   3.097   7.860 -1.7407 -1.1927  2.2504
 7320SOL     OW33418   1.667   0.903  10.827 -0.4050 -0.3648  0.3773
 7320SOL    HW133419   1.712   0.983  10.852 -0.0621 -0.5675  0.4079
 7320SOL    HW233420   1.605   0.929  10.758  0.8606 -1.9556 -1.3597
 7321SOL     OW33421   1.467   0.166   3.052  0.8038 -0.0217  0.0859
 7321SOL    HW133422   1.457   0.252   3.012  0.5037  0.5287  1.3601
 7321SOL    HW233423   1.538   0.130   3.000  1.1909  1.6111 -0.4923
 7322SOL     OW33424   1.843   2.004   9.718  0.1280  0.0031 -0.4442
 7322SOL    HW133425   1.845   2.094   9.686  1.0061  0.1967  0.1470
 7322SOL    HW233426   1.754   1.972   9.703  0.0217  0.7136 -1.3292
 7323SOL     OW33427   2.732   3.730   9.727  0.8946  0.5194  0.0848
 7323SOL    HW133428   2.734   3.702   9.636  1.0113 -0.3407  0.3533
 7323SOL    HW233429   2.760   3.645   9.761 -2.0150 -1.4467 -2.4701
 7324SOL     OW33430   4.727   0.151  16.602  0.2015 -0.0961  0.5036
 7324SOL    HW133431   0.046   0.218  16.652 -1.2659  0.7143  0.8129
 7324SOL    HW233432   0.070   0.092  16.577 -0.6566 -0.6890 -0.5557
 7325SOL     OW33433   1.810   1.970   7.681  0.2437  0.7124 -0.1588
 7325SOL    HW133434   1.897   1.973   7.719  1.1683  0.9972 -2.2539
 7325SOL    HW233435   1.789   2.063   7.671  0.7441  0.8484  0.0584
 7326SOL     OW33436   0.217   4.126   9.492  0.2791 -0.7547  0.1173
 7326SOL    HW133437   0.129   4.098   9.517  1.2717 -3.6650  0.2876
 7326SOL    HW233438   0.230   4.188   9.564 -0.5208 -1.3165  0.7538
 7327SOL     OW33439   1.878   1.042   3.945 -0.1353 -0.3813  0.2718
 7327SOL    HW133440   1.913   1.123   3.983  0.5698  0.3356 -1.8810
 7327SOL    HW233441   1.862   1.069   3.855 -3.3769 -0.1523  0.9045
 7328SOL     OW33442   3.947   1.209  14.319 -0.5500 -0.1305  0.1787
 7328SOL    HW133443   3.955   1.208  14.414  1.2235  1.2613  0.0503
 7328SOL    HW233444   3.856   1.236  14.308 -0.9020 -1.6118 -0.5858
 7329SOL     OW33445   2.780   4.543   6.266  0.0160 -0.6081 -0.0754
 7329SOL    HW133446   2.863   4.524   6.309  1.1893  0.5878 -1.8329
 7329SOL    HW233447   2.808   4.544   6.174 -0.4928  0.1762 -0.2291
 7330SOL     OW33448   1.204   3.106   4.407  0.3881 -0.1861 -0.3474
 7330SOL    HW133449   1.192   3.011   4.400  0.3735 -0.3008  1.2892
 7330SOL    HW233450   1.128   3.125   4.461 -0.0147  0.8989 -1.3225
 7331SOL     OW33451   2.696   2.535   2.119 -0.4445 -0.0862  0.3701
 7331SOL    HW133452   2.607   2.549   2.086 -1.4294 -1.0030  2.6924
 7331SOL    HW233453   2.728   2.622   2.095 -2.7761  1.1705  1.7578
 7332SOL     OW33454   0.245   1.485   5.988  0.0239  0.0073  0.2032
 7332SOL    HW133455   0.308   1.413   5.985 -0.6243 -0.4949 -1.0415
 7332SOL    HW233456   0.276   1.520   6.072  1.5247  0.4353 -0.5280
 7333SOL     OW33457   2.113   3.459   6.659  0.2361  0.2668  0.0384
 7333SOL    HW133458   2.025   3.448   6.623  0.4279 -0.3486 -0.2394
 7333SOL    HW233459   2.163   3.454   6.578  1.3820  3.1894  0.5670
 7334SOL     OW33460   2.122   1.099   8.770 -0.3635 -0.3473  0.2583
 7334SOL    HW133461   2.183   1.171   8.785  0.7467 -1.0958 -0.6543
 7334SOL    HW233462   2.177   1.029   8.806 -0.7094 -0.7419  0.0218
 7335SOL     OW33463   2.863   4.692  14.549 -0.4641 -0.2241  0.4064
 7335SOL    HW133464   2.915   0.033  14.510  1.8430 -1.9468  0.4708
 7335SOL    HW233465   2.781   4.721  14.509 -0.4332  1.2596  1.3982
 7336SOL     OW33466   4.501   4.350   4.791  0.3853 -0.1985  0.1806
 7336SOL    HW133467   4.526   4.399   4.869  2.5263 -0.4533 -0.3278
 7336SOL    HW233468   4.420   4.310   4.823  0.8371 -1.6895 -0.5402
 7337SOL     OW33469   0.489   2.793   4.530 -0.4528 -0.0414  0.4248
 7337SOL    HW133470   0.396   2.803   4.506 -0.2044  3.0797  0.8541
 7337SOL    HW233471   0.529   2.769   4.446 -3.3998  1.8106 -1.5039
 7338SOL     OW33472   4.560   3.527   3.381 -0.0905  0.6122  0.8521
 7338SOL    HW133473   4.580   3.481   3.463  0.1768  0.7351  0.8571
 7338SOL    HW233474   4.586   3.456   3.322  0.9778  1.2777  0.5068
 7339SOL     OW33475   3.950   4.430  11.311  0.1598  0.4598 -0.1161
 7339SOL    HW133476   4.033   4.427  11.359  1.0297  1.4634 -1.5486
 7339SOL    HW233477   3.968   4.359  11.249 -0.0929 -0.6595  1.0980
 7340SOL     OW33478   4.483   1.964   8.100 -0.3650 -0.0075 -0.1338
 7340SOL    HW133479   4.442   1.913   8.030  0.9640  0.5250 -1.3051
 7340SOL    HW233480   4.527   2.043   8.067  0.1920 -0.3770 -0.2688
 7341SOL     OW33481   2.026   0.616  15.380  0.5244 -0.7193 -0.1890
 7341SOL    HW133482   1.936   0.605  15.411  1.1774 -2.4283  1.1116
 7341SOL    HW233483   2.072   0.541  15.418 -0.0393 -2.1959 -2.3998
 7342SOL     OW33484   2.752   1.583   4.688 -0.3152  0.5759 -0.2306
 7342SOL    HW133485   2.738   1.567   4.594 -1.6208 -0.2003  0.0936
 7342SOL    HW233486   2.848   1.574   4.689 -0.3094  0.3559 -2.8597
 7343SOL     OW33487   4.287   2.460   4.201 -0.7378  0.6744 -0.3638
 7343SOL    HW133488   4.310   2.367   4.205  1.3008  1.2940  2.1439
 7343SOL    HW233489   4.262   2.464   4.109  0.0921 -1.4910 -0.6848
 7344SOL     OW33490   4.089   2.037  12.474 -0.0642 -0.3029 -0.1303
 7344SOL    HW133491   4.005   2.082  12.476 -0.7328 -1.4599 -1.7337
 7344SOL    HW233492   4.115   2.052  12.383  0.9216  1.1678  0.3948
 7345SOL     OW33493   1.077   3.252   0.664  0.1771  0.4538  0.1679
 7345SOL    HW133494   1.028   3.285   0.739  1.5743  0.7270  0.9603
 7345SOL    HW233495   1.095   3.330   0.612  0.0815 -0.9448 -1.9457
 7346SOL     OW33496   3.888   4.629   3.167  0.3667  0.7865  0.4290
 7346SOL    HW133497   3.936   4.595   3.092 -2.3885 -0.2282 -0.8526
 7346SOL    HW233498   3.802   4.647   3.129  0.8171 -1.0712 -1.4611
 7347SOL     OW33499   3.233   4.058   8.835  0.2940  0.1567  1.1705
 7347SOL    HW133500   3.199   3.995   8.898  1.9872 -0.8992  1.0465
 7347SOL    HW233501   3.155   4.061   8.779 -1.5676 -3.9029  3.5705
 7348SOL     OW33502   1.298   0.156   7.317 -0.3886  0.0869 -0.3301
 7348SOL    HW133503   1.315   0.095   7.389  1.1905 -1.0493 -1.6600
 7348SOL    HW233504   1.216   0.131   7.274  0.2863 -1.2575 -0.8411
 7349SOL     OW33505   2.231   3.062  13.016 -0.1618  0.3922 -0.1373
 7349SOL    HW133506   2.145   3.072  13.059  0.5945 -1.2990  1.8010
 7349SOL    HW233507   2.283   3.119  13.073 -0.2099  1.4102 -1.1170
 7350SOL     OW33508   1.980   1.882   5.918 -0.9784  0.1280 -0.0396
 7350SOL    HW133509   2.032   1.903   5.996  1.7337  0.8113 -2.0382
 7350SOL    HW233510   1.988   1.787   5.925 -0.3554  0.0396 -2.0694
 7351SOL     OW33511   3.417   1.354  15.092 -0.2487  0.4278 -0.1409
 7351SOL    HW133512   3.348   1.342  15.026 -0.0224 -1.4870 -0.0191
 7351SOL    HW233513   3.408   1.272  15.140 -0.5712 -0.5726 -1.9167
 7352SOL     OW33514   2.272   0.969   0.888 -0.6017 -0.2998  0.1067
 7352SOL    HW133515   2.261   0.874   0.895 -0.4600 -0.4854 -1.9150
 7352SOL    HW233516   2.339   0.996   0.951 -0.1782  0.1410 -0.5257
 7353SOL     OW33517   3.934   1.892   6.450 -0.1474 -0.7364 -0.0702
 7353SOL    HW133518   4.018   1.881   6.406 -0.9713 -0.6286 -1.6714
 7353SOL    HW233519   3.931   1.988   6.451  0.7595 -0.7011 -0.3845
 7354SOL     OW33520   2.311   2.930   5.604  0.0779 -0.1260  0.0527
 7354SOL    HW133521   2.345   2.997   5.545 -1.6994 -0.2656 -1.0975
 7354SOL    HW233522   2.346   2.847   5.569 -0.8076 -1.9465  3.4875
 7355SOL     OW33523   3.690   3.961   5.034 -0.7933  0.4390  0.2044
 7355SOL    HW133524   3.760   3.897   5.042 -2.2817 -1.0309  1.4770
 7355SOL    HW233525   3.734   4.041   5.006  0.0732 -0.3790 -0.7484
 7356SOL     OW33526   1.732   4.347   2.219 -0.3045 -0.3323 -0.7573
 7356SOL    HW133527   1.693   4.363   2.305  0.3748  0.2972 -0.5652
 7356SOL    HW233528   1.822   4.378   2.227 -0.0137 -2.0792  2.7099
 7357SOL     OW33529   3.347   4.040  16.672  0.3327  0.1698  0.5653
 7357SOL    HW133530   3.262   3.996  16.674 -0.2608  1.3733  1.3208
 7357SOL    HW233531   3.401   3.973  16.629 -0.5590 -1.6414  2.2650
 7358SOL     OW33532   0.851   1.448   1.326 -0.1480  0.2593 -0.1132
 7358SOL    HW133533   0.859   1.398   1.245  1.2267  0.5001 -0.1366
 7358SOL    HW233534   0.773   1.502   1.311  1.0946  2.9379  3.2669
 7359SOL     OW33535   0.783   4.076   9.578  0.2416  0.1831  0.2633
 7359SOL    HW133536   0.753   4.152   9.528 -1.3024  0.3153  1.3719
 7359SOL    HW233537   0.876   4.083   9.558 -0.2795 -1.2511 -2.5435
 7360SOL     OW33538   0.831   0.766  16.411 -0.1231  0.1965  0.4146
 7360SOL    HW133539   0.779   0.805  16.341 -1.0433  3.5875  3.0067
 7360SOL    HW233540   0.907   0.738  16.360  1.5457  0.2242  2.9089
 7361SOL     OW33541   0.986   1.986   7.368 -0.0612 -0.2201  1.1892
 7361SOL    HW133542   0.942   1.902   7.382 -0.2934  0.0241  1.9221
 7361SOL    HW233543   0.915   2.049   7.361  0.6778  0.6910  1.8319
 7362SOL     OW33544   1.670   2.704   1.478  0.7590 -0.1681 -0.2132
 7362SOL    HW133545   1.599   2.758   1.512  1.0854  0.0555  0.1176
 7362SOL    HW233546   1.741   2.766   1.497  1.4996 -0.7349 -1.1011
 7363SOL     OW33547   2.743   0.204  11.664  0.9633 -0.6866 -0.1943
 7363SOL    HW133548   2.791   0.184  11.584  2.9972 -1.1423  1.1342
 7363SOL    HW233549   2.794   0.278  11.697 -0.9323  0.5257 -0.0382
 7364SOL     OW33550   4.080   0.104   6.137  0.0040  0.9097 -0.4747
 7364SOL    HW133551   4.016   0.132   6.071  0.4977 -1.0341 -1.7984
 7364SOL    HW233552   4.161   0.107   6.085  1.0617  0.5250  1.1403
 7365SOL     OW33553   1.069   1.970   0.687  0.1708  0.0244 -0.1150
 7365SOL    HW133554   1.082   1.931   0.774 -1.2704 -0.6080 -0.1921
 7365SOL    HW233555   1.155   1.947   0.650  0.6130  1.5227 -0.0235
 7366SOL     OW33556   4.358   1.229   8.735  0.2751 -0.4331 -0.0039
 7366SOL    HW133557   4.372   1.136   8.753 -0.1006 -0.2363  1.2589
 7366SOL    HW233558   4.444   1.261   8.760 -0.2227  1.1059 -0.2770
 7367SOL     OW33559   3.267   2.242  10.520 -0.2781  0.5711  0.0658
 7367SOL    HW133560   3.279   2.337  10.517 -0.3011  0.6282  1.5277
 7367SOL    HW233561   3.238   2.225  10.431  0.5398 -0.9733  0.0979
 7368SOL     OW33562   2.359   2.666   7.847  0.2711 -0.3374  0.0872
 7368SOL    HW133563   2.377   2.622   7.930  2.2214  1.9670  0.8808
 7368SOL    HW233564   2.438   2.654   7.793  0.2864 -1.3670  0.3299
 7369SOL     OW33565   1.847   2.874   5.144  0.0248  0.3810  0.1415
 7369SOL    HW133566   1.807   2.950   5.102  0.5748  0.8132  0.4079
 7369SOL    HW233567   1.925   2.925   5.166 -0.5369  0.6982  1.4106
 7370SOL     OW33568   4.610   4.535   7.637  0.8208  0.1316  0.0979
 7370SOL    HW133569   4.632   4.442   7.646 -0.8176 -0.1869  0.8436
 7370SOL    HW233570   4.547   4.533   7.709  0.6618  1.8312  0.0101
 7371SOL     OW33571   0.835   1.796   3.320 -0.0559  0.4594 -0.1068
 7371SOL    HW133572   0.801   1.719   3.275 -1.8718  0.8692  0.5426
 7371SOL    HW233573   0.908   1.826   3.266 -1.4210  0.8697 -1.7112
 7372SOL     OW33574   0.520   1.525   4.772  0.3885  0.9709  0.1982
 7372SOL    HW133575   0.518   1.557   4.862  1.8189  0.5651  0.3816
 7372SOL    HW233576   0.429   1.527   4.743  0.2257 -0.7184  0.5720
 7373SOL     OW33577   1.888   2.949   6.335 -0.0407  0.0074 -0.7146
 7373SOL    HW133578   1.933   2.881   6.386  0.7712  1.2580  0.2359
 7373SOL    HW233579   1.864   3.009   6.406  1.8741  0.3873 -0.3826
 7374SOL     OW33580   2.731   0.226   3.866 -0.1101  0.1096 -0.3963
 7374SOL    HW133581   2.678   0.286   3.813 -1.0277  0.5822  1.0590
 7374SOL    HW233582   2.810   0.223   3.812  0.2792  1.3062  0.1078
 7375SOL     OW33583   4.194   4.196   7.275  0.0774  0.3601 -0.1609
 7375SOL    HW133584   4.129   4.247   7.227  0.4422  0.3880 -0.6370
 7375SOL    HW233585   4.278   4.236   7.253  0.4180 -0.0839  0.3501
 7376SOL     OW33586   0.761   1.345   0.284  0.1456  0.4037  0.1068
 7376SOL    HW133587   0.856   1.358   0.279  0.4925 -2.2771 -0.1662
 7376SOL    HW233588   0.759   1.272   0.346 -1.5161  0.7573  0.4775
 7377SOL     OW33589   0.586   1.555   7.633 -0.5016 -0.2960 -0.0486
 7377SOL    HW133590   0.578   1.630   7.574  0.9168 -1.4461 -1.7220
 7377SOL    HW233591   0.651   1.591   7.694  0.6105 -1.4659 -0.5530
 7378SOL     OW33592   3.756   3.314   8.099  0.5575  0.0487  0.6987
 7378SOL    HW133593   3.816   3.319   8.025 -0.5390  0.0870 -0.1742
 7378SOL    HW233594   3.716   3.233   8.068 -0.9842  0.2283  2.2468
 7379SOL     OW33595   3.642   1.657   3.585 -0.0109  0.0962  0.4324
 7379SOL    HW133596   3.658   1.570   3.546 -4.5365 -0.3452 -0.4299
 7379SOL    HW233597   3.555   1.635   3.618 -0.4519 -1.4669 -1.7275
 7380SOL     OW33598   1.185   3.152  16.464  0.1363  0.8093  0.2142
 7380SOL    HW133599   1.214   3.239  16.434 -0.0380 -0.1108 -2.5851
 7380SOL    HW233600   1.175   3.163  16.559 -2.1368 -1.0014  0.1553
 7381SOL     OW33601   1.180   2.981  13.537  0.6114  1.6463 -0.0080
 7381SOL    HW133602   1.110   2.966  13.601  0.9287 -1.6075 -0.4180
 7381SOL    HW233603   1.250   2.965  13.601 -1.8004 -0.9493  2.0104
 7382SOL     OW33604   1.999   2.366   8.017  0.4213  0.2099  0.7722
 7382SOL    HW133605   1.905   2.374   8.033 -0.0346  1.4988 -2.5319
 7382SOL    HW233606   2.007   2.358   7.922 -0.7024  1.9340  0.5258
 7383SOL     OW33607   0.680   1.990   1.861  0.1370 -0.1927 -0.5668
 7383SOL    HW133608   0.609   1.964   1.918 -0.0584 -0.0265 -0.7334
 7383SOL    HW233609   0.758   1.974   1.914  0.5477 -0.9443 -1.4050
 7384SOL     OW33610   1.653   3.073   2.162 -0.2079 -0.4978  0.2034
 7384SOL    HW133611   1.695   3.068   2.248  0.2120  0.1960  0.0394
 7384SOL    HW233612   1.716   3.121   2.109 -2.4577  0.8388 -1.2648
 7385SOL     OW33613   2.025   2.799  17.233 -0.4921  0.5563  0.0648
 7385SOL    HW133614   2.080   2.804  17.155 -0.1116 -0.2196  0.2804
 7385SOL    HW233615   2.025   2.888  17.269  0.2063  0.7234 -0.3413
 7386SOL     OW33616   0.333   1.336  11.346  0.1733  0.2526  0.0337
 7386SOL    HW133617   0.298   1.425  11.347 -0.7986 -0.1448  2.5121
 7386SOL    HW233618   0.416   1.368  11.381 -0.1732  1.5069 -0.2907
 7387SOL     OW33619   0.366   1.928  10.636 -0.2088 -0.3365 -0.2518
 7387SOL    HW133620   0.305   2.000  10.618 -1.2338 -1.7318 -2.4331
 7387SOL    HW233621   0.409   1.974  10.708 -2.1702 -0.1569  0.7870
 7388SOL     OW33622   4.338   3.750   0.142  0.0025  0.3941 -0.1182
 7388SOL    HW133623   4.414   3.754   0.200 -0.1899 -1.1717  0.2299
 7388SOL    HW233624   4.348   3.828   0.088 -1.2425  1.2748  0.9177
 7389SOL     OW33625   1.822   3.178   9.035  0.3234  0.1970 -0.1240
 7389SOL    HW133626   1.867   3.168   8.952 -0.0793 -1.4075 -0.1388
 7389SOL    HW233627   1.901   3.197   9.085 -0.2236  1.0418  0.4294
 7390SOL     OW33628   2.620   2.165  13.854  0.1818 -0.0559 -0.1076
 7390SOL    HW133629   2.679   2.153  13.929  1.2539  0.5315 -0.8622
 7390SOL    HW233630   2.551   2.099  13.861 -1.0824  1.3426  0.7536
 7391SOL     OW33631   2.546   0.362  17.357 -0.9848  0.3845  0.2622
 7391SOL    HW133632   2.605   0.340  17.429 -1.3953  0.4972  0.6384
 7391SOL    HW233633   2.488   0.435  17.379 -0.6194  0.4983  0.8531
 7392SOL     OW33634   0.242   2.742   2.257  0.2735 -0.1786 -0.1248
 7392SOL    HW133635   0.158   2.768   2.220  0.3378 -1.0167 -0.8804
 7392SOL    HW233636   0.218   2.753   2.349  0.3943 -0.0692 -0.1064
 7393SOL     OW33637   0.473   3.884   7.065  0.5156 -0.6391 -0.1044
 7393SOL    HW133638   0.510   3.835   7.137  1.4506  0.1241 -0.0660
 7393SOL    HW233639   0.521   3.965   7.080  0.3756 -0.2926 -1.5321
 7394SOL     OW33640   3.822   2.854   3.288  0.4852 -0.0293  0.1005
 7394SOL    HW133641   3.782   2.834   3.203  1.0818 -0.0542 -0.1745
 7394SOL    HW233642   3.816   2.949   3.292  0.6899 -0.0633  1.3475
 7395SOL     OW33643   4.467   2.482   2.441 -0.2577  0.3937  0.4843
 7395SOL    HW133644   4.545   2.504   2.391  0.5743  0.3559  1.7828
 7395SOL    HW233645   4.414   2.432   2.379 -0.3732  1.0483  0.0522
 7396SOL     OW33646   0.868   4.488   2.341 -0.4661 -0.0427 -0.2908
 7396SOL    HW133647   0.857   4.514   2.250  2.8466 -0.8630 -0.9258
 7396SOL    HW233648   0.776   4.470   2.358 -0.3009 -0.0347  0.6284
 7397SOL     OW33649   1.755   2.941   8.430  0.2381 -0.1824  0.3959
 7397SOL    HW133650   1.778   2.850   8.409  0.5245  0.2542 -1.1860
 7397SOL    HW233651   1.738   2.976   8.343  0.0559 -1.1722  0.0275
 7398SOL     OW33652   4.086   3.748   7.805  0.1944  0.9861  0.6660
 7398SOL    HW133653   4.120   3.790   7.726 -0.2096  0.0006 -0.0193
 7398SOL    HW233654   4.011   3.805   7.825 -1.6143 -0.5763 -1.6999
 7399SOL     OW33655   3.644   0.620   8.342  0.8115  0.3373 -0.6017
 7399SOL    HW133656   3.736   0.625   8.369 -0.1603  0.1538  2.6977
 7399SOL    HW233657   3.637   0.553   8.274  1.0423  1.5840 -1.8425
 7400SOL     OW33658   2.844   3.941   5.362  0.0052 -0.6438 -0.2510
 7400SOL    HW133659   2.799   3.930   5.446 -0.2626  1.0390 -0.1751
 7400SOL    HW233660   2.799   3.876   5.308  1.0396 -2.3785  0.9572
 7401SOL     OW33661   2.997   1.176   1.149 -0.0337 -0.5727  0.6196
 7401SOL    HW133662   3.083   1.191   1.111 -0.9555 -0.1577 -1.3144
 7401SOL    HW233663   2.968   1.106   1.090  1.7656 -1.0343  0.2696
 7402SOL     OW33664   3.424   3.821   1.034 -0.1381  0.9630 -0.1062
 7402SOL    HW133665   3.422   3.821   0.939  0.5399  0.1056 -0.1201
 7402SOL    HW233666   3.341   3.865   1.052 -1.4200 -1.9347  1.1036
 7403SOL     OW33667   1.710   2.194   8.278  0.2777 -0.2338 -0.1413
 7403SOL    HW133668   1.770   2.168   8.348  0.0826 -0.3824 -0.0275
 7403SOL    HW233669   1.716   2.111   8.232  3.8505  1.7622 -3.2547
 7404SOL     OW33670   1.898   1.178  17.458 -0.5029 -0.0221  0.8345
 7404SOL    HW133671   1.945   1.124  17.394 -1.0525 -0.6547  0.9659
 7404SOL    HW233672   1.861   1.241  17.395  0.0344  1.8751  2.4016
 7405SOL     OW33673   2.301   1.809  14.849  0.3120  0.0613  0.5052
 7405SOL    HW133674   2.318   1.878  14.912  0.5629  0.1670  0.3238
 7405SOL    HW233675   2.211   1.836  14.828  0.3808  0.1162  0.2777
 7406SOL     OW33676   0.831   3.857   8.387 -0.1229  0.1060 -0.2160
 7406SOL    HW133677   0.737   3.869   8.372 -0.2786  0.1253  0.7543
 7406SOL    HW233678   0.850   3.906   8.467 -0.8224  1.8407 -1.1115
 7407SOL     OW33679   1.601   2.891   7.310 -0.3081  0.3714 -0.2591
 7407SOL    HW133680   1.550   2.813   7.288 -1.0098  0.7310  0.0946
 7407SOL    HW233681   1.612   2.938   7.227  2.2923 -1.1104 -0.7330
 7408SOL     OW33682   3.019   0.504   1.875 -0.4013  0.1569  0.5227
 7408SOL    HW133683   2.925   0.519   1.865  0.0825  2.9511  0.0555
 7408SOL    HW233684   3.015   0.410   1.889 -0.8975 -0.1583 -1.7479
 7409SOL     OW33685   1.511   1.691  17.563 -0.2365 -0.2295  0.1750
 7409SOL    HW133686   1.519   1.601  17.531  0.4710 -0.3811  0.7621
 7409SOL    HW233687   1.604   1.715  17.568 -0.7688  2.0812 -0.7202
 7410SOL     OW33688   0.220   3.819  10.540 -0.8213 -0.3082  0.0125
 7410SOL    HW133689   0.164   3.765  10.484  0.5092 -1.2740 -0.3747
 7410SOL    HW233690   0.301   3.806  10.491 -1.8366 -4.4002 -0.5794
 7411SOL     OW33691   0.823   3.902   9.781  0.0285 -0.5864 -0.2235
 7411SOL    HW133692   0.746   3.884   9.834 -0.6015 -0.2942 -1.0255
 7411SOL    HW233693   0.799   3.968   9.715  1.2614  0.1967  0.0961
 7412SOL     OW33694   3.600   3.467   3.137 -0.2514 -0.3647 -0.4693
 7412SOL    HW133695   3.605   3.551   3.091 -1.5985  0.5877  1.1169
 7412SOL    HW233696   3.632   3.409   3.068  1.9407  0.0575  0.1892
 7413SOL     OW33697   4.118   0.263   0.907 -0.2650  0.2641  0.3237
 7413SOL    HW133698   4.044   0.302   0.955 -1.4805 -0.4052 -0.9796
 7413SOL    HW233699   4.188   0.280   0.969  1.6088 -0.2289 -1.6836
 7414SOL     OW33700   2.126   1.839   3.899 -0.9476 -0.1656  0.2767
 7414SOL    HW133701   2.179   1.867   3.824 -1.3630  1.5473  0.6116
 7414SOL    HW233702   2.186   1.836   3.974  0.6569 -0.1061 -1.0009
 7415SOL     OW33703   1.993   0.886   5.208  0.3498 -0.0332  0.9193
 7415SOL    HW133704   2.057   0.955   5.190 -0.4622  0.2331 -1.0073
 7415SOL    HW233705   1.940   0.942   5.265 -2.8525 -0.6082 -1.4566
 7416SOL     OW33706   1.267   4.659  15.571 -0.4116  0.2055 -0.4370
 7416SOL    HW133707   1.328   4.606  15.622  0.7727  0.0547 -1.9967
 7416SOL    HW233708   1.285   4.605  15.494  1.1095 -1.1093  0.8335
 7417SOL     OW33709   0.404   0.188  11.345  0.8266 -0.2538 -0.2271
 7417SOL    HW133710   0.421   0.108  11.296  1.0098  0.9488 -2.1189
 7417SOL    HW233711   0.457   0.167  11.422  0.9354  0.5246 -0.0907
 7418SOL     OW33712   4.452   3.808   7.235 -0.6240 -0.0629  0.1222
 7418SOL    HW133713   4.401   3.729   7.254 -0.5708  0.1575  1.2132
 7418SOL    HW233714   4.508   3.824   7.311  0.8719  1.5841 -1.3233
 7419SOL     OW33715   2.041   0.689   1.421  0.0544  0.0586 -0.1684
 7419SOL    HW133716   2.127   0.729   1.411  0.2572 -0.3496 -0.0753
 7419SOL    HW233717   2.038   0.658   1.512  1.1427 -0.9467 -0.4735
 7420SOL     OW33718   1.490   4.291   3.337  0.0369 -0.6338 -0.1599
 7420SOL    HW133719   1.451   4.207   3.313 -0.0915 -0.6867  0.2260
 7420SOL    HW233720   1.456   4.307   3.425  2.7336 -1.3714  1.0032
 7421SOL     OW33721   1.122   3.659   9.306 -0.2519  0.1022 -0.0458
 7421SOL    HW133722   1.081   3.603   9.372 -0.3488 -0.0467 -0.2298
 7421SOL    HW233723   1.053   3.724   9.293  1.3685  1.3683 -2.4335
 7422SOL     OW33724   1.630   1.790  10.519  0.5484 -0.5815 -0.6264
 7422SOL    HW133725   1.611   1.739  10.441 -1.7482 -3.3447  1.7532
 7422SOL    HW233726   1.585   1.738  10.585  0.4804  1.2020  0.7352
 7423SOL     OW33727   1.158   1.280   8.579 -0.2557  0.7889 -1.2492
 7423SOL    HW133728   1.081   1.333   8.602  0.5023  0.8673  1.0531
 7423SOL    HW233729   1.173   1.317   8.492  0.5561  1.6407 -0.7488
 7424SOL     OW33730   2.119   2.418   9.680 -0.4791 -0.4345  0.1190
 7424SOL    HW133731   2.086   2.428   9.769 -1.0347  0.7472 -0.2182
 7424SOL    HW233732   2.049   2.366   9.642  0.3845 -0.1859 -1.8294
 7425SOL     OW33733   0.455   4.514   5.530 -0.5534 -0.0443 -0.3125
 7425SOL    HW133734   0.380   4.454   5.521 -0.5140  0.2219 -2.3242
 7425SOL    HW233735   0.526   4.450   5.525 -0.3154  0.3656 -2.1949
 7426SOL     OW33736   0.900   3.789   4.852 -0.1409  0.2223 -1.0848
 7426SOL    HW133737   0.937   3.758   4.935 -0.9066 -0.9846 -1.2066
 7426SOL    HW233738   0.853   3.710   4.826 -0.9840  0.6340 -0.8016
 7427SOL     OW33739   4.561   1.843   7.694  0.3939 -0.8173 -0.1935
 7427SOL    HW133740   4.472   1.830   7.660 -0.1093  2.4865 -0.0840
 7427SOL    HW233741   4.546   1.859   7.787  1.5957  1.5238 -0.3989
 7428SOL     OW33742   0.398   4.416   4.004 -0.2444 -0.3019 -0.0581
 7428SOL    HW133743   0.324   4.356   3.996 -0.1781 -0.4593  0.5129
 7428SOL    HW233744   0.368   4.482   3.943  0.0619  1.0159  1.2117
 7429SOL     OW33745   2.888   3.594   8.629  0.4349  0.4421 -0.1708
 7429SOL    HW133746   2.794   3.614   8.626  0.2935 -0.2059 -0.0383
 7429SOL    HW233747   2.901   3.564   8.719  2.1273 -0.3607 -0.6972
 7430SOL     OW33748   0.493   2.138  16.950 -0.0845  0.7367 -0.4044
 7430SOL    HW133749   0.469   2.227  16.978 -0.0122  0.3722  0.7966
 7430SOL    HW233750   0.428   2.112  16.885  0.3175 -2.2543  0.3955
 7431SOL     OW33751   3.616   2.083   1.927  0.0850 -0.1770 -0.0055
 7431SOL    HW133752   3.529   2.113   1.900 -0.5963 -3.5299 -1.6274
 7431SOL    HW233753   3.592   1.997   1.964 -0.5827 -0.9119 -2.1386
 7432SOL     OW33754   1.098   3.227   4.078 -0.1338 -0.0039 -0.1670
 7432SOL    HW133755   1.116   3.144   4.121  0.1099 -0.7364 -1.6678
 7432SOL    HW233756   1.018   3.208   4.030 -1.0350 -0.8595  1.6848
 7433SOL     OW33757   3.638   1.978   4.851  0.0001  0.0560  0.5371
 7433SOL    HW133758   3.628   1.883   4.844 -1.0433  0.1625  0.6014
 7433SOL    HW233759   3.730   1.983   4.824  0.2268  0.8769  1.4426
 7434SOL     OW33760   0.871   3.534  10.744  1.2485  0.0633  0.3060
 7434SOL    HW133761   0.862   3.541  10.649 -1.6943 -1.0536  0.5113
 7434SOL    HW233762   0.785   3.575  10.749  1.3311  0.2008  0.5559
 7435SOL     OW33763   2.494   0.667   7.296 -0.3130 -0.5129  0.1942
 7435SOL    HW133764   2.508   0.689   7.204 -0.7596  1.2537  0.5541
 7435SOL    HW233765   2.492   0.755   7.335 -1.1242 -0.3326 -0.2693
 7436SOL     OW33766   1.593   0.818  14.158 -0.0986 -0.4386 -0.0938
 7436SOL    HW133767   1.614   0.877  14.230 -0.7680  1.9435 -1.8316
 7436SOL    HW233768   1.583   0.734  14.202 -1.6898  0.6264  1.5767
 7437SOL     OW33769   4.435   2.917  12.656  0.1400  0.3760 -0.0677
 7437SOL    HW133770   4.400   2.832  12.683  2.9935 -1.3225 -1.8056
 7437SOL    HW233771   4.363   2.943  12.598  1.1969  1.2036 -1.0028
 7438SOL     OW33772   3.485   2.540  15.674 -0.0792  0.4393  0.0474
 7438SOL    HW133773   3.511   2.629  15.651  0.1125  1.2737  3.3810
 7438SOL    HW233774   3.390   2.540  15.662 -0.1387 -0.8027  0.4688
 7439SOL     OW33775   3.933   0.232  16.288 -0.1988  0.0589  0.4069
 7439SOL    HW133776   3.980   0.160  16.329 -0.7192 -0.6694 -0.2695
 7439SOL    HW233777   4.000   0.300  16.287  0.5546 -0.7237 -1.4410
 7440SOL     OW33778   1.767   0.134   6.623  0.4200  0.1308 -0.0583
 7440SOL    HW133779   1.782   0.219   6.664 -0.6463  0.6326 -0.6930
 7440SOL    HW233780   1.779   0.160   6.531  2.1374 -1.8380 -0.3788
 7441SOL     OW33781   2.001   2.414  13.665  0.0942  0.1481  0.0944
 7441SOL    HW133782   1.926   2.462  13.630 -1.4488 -1.9122  0.6290
 7441SOL    HW233783   1.973   2.355  13.735  1.4093  0.0131  0.5071
 7442SOL     OW33784   4.404   4.533   3.417  0.2904 -0.0678  0.2136
 7442SOL    HW133785   4.428   4.511   3.328  0.9834  0.1855  0.3417
 7442SOL    HW233786   4.413   4.628   3.408  1.0362 -0.1531  0.0910
 7443SOL     OW33787   3.879   4.474   6.076 -0.2926 -0.6405  0.0194
 7443SOL    HW133788   3.831   4.432   6.148 -2.4190  0.8093 -0.5386
 7443SOL    HW233789   3.929   4.534   6.131 -1.3820  0.4310 -0.1470
 7444SOL     OW33790   0.093   3.179   3.745  0.4638  0.1387 -1.1028
 7444SOL    HW133791   0.038   3.241   3.792  1.6318  0.0661  0.3709
 7444SOL    HW233792   0.158   3.161   3.813  0.7018 -1.4015 -1.7355
 7445SOL     OW33793   1.306   0.771  14.555  0.2284 -0.0339 -0.2147
 7445SOL    HW133794   1.329   0.864  14.561 -2.8218  0.8004 -1.5591
 7445SOL    HW233795   1.211   0.782  14.560  0.4100  1.3228  0.2683
 7446SOL     OW33796   2.281   1.826  16.639 -0.0373  0.0117  0.5601
 7446SOL    HW133797   2.257   1.916  16.663 -2.2339  0.0985 -1.9075
 7446SOL    HW233798   2.219   1.772  16.688 -1.3394  0.9113 -0.1000
 7447SOL     OW33799   1.034   3.544   3.482  0.0611  0.2477  0.1552
 7447SOL    HW133800   1.037   3.615   3.418 -0.6794  0.8466  0.7809
 7447SOL    HW233801   1.030   3.466   3.428  3.2432  1.0216 -1.1649
 7448SOL     OW33802   3.683   1.961   2.774 -0.0973 -0.7764  0.2006
 7448SOL    HW133803   3.739   1.884   2.776 -1.3447 -1.6392  1.9424
 7448SOL    HW233804   3.614   1.948   2.839  0.1283  2.3130  1.0717
 7449SOL     OW33805   3.947   0.128   5.692  0.1791 -0.2481 -0.3869
 7449SOL    HW133806   4.010   0.200   5.694  0.4148 -0.3810 -3.0577
 7449SOL    HW233807   3.967   0.062   5.758  1.3814  0.3184 -0.1936
 7450SOL     OW33808   3.693   4.001   2.480 -0.5356 -0.2967 -0.2334
 7450SOL    HW133809   3.752   3.961   2.545  1.0232  4.5396  1.3542
 7450SOL    HW233810   3.634   3.929   2.457 -2.5015  1.0804  0.4811
 7451SOL     OW33811   3.037   2.595   7.630  0.2805 -0.3969  0.0566
 7451SOL    HW133812   2.972   2.651   7.587 -0.1803 -1.0295 -0.0650
 7451SOL    HW233813   2.984   2.577   7.708 -0.7629  1.0828 -0.2934
 7452SOL     OW33814   1.324   3.930  10.042 -0.1480 -0.3374  0.2830
 7452SOL    HW133815   1.238   3.920  10.001 -0.4010  1.7272  0.3219
 7452SOL    HW233816   1.347   3.838  10.032 -2.1179 -0.6862 -1.0383
 7453SOL     OW33817   4.090   1.659   5.285 -0.7735 -0.8822 -0.0260
 7453SOL    HW133818   4.080   1.705   5.368  0.1983 -0.5591 -0.0876
 7453SOL    HW233819   4.163   1.603   5.313  1.0135  0.3233 -2.3130
 7454SOL     OW33820   2.239   2.694   6.632 -0.1310 -0.0543  0.3231
 7454SOL    HW133821   2.184   2.682   6.554 -0.2346 -0.0755  0.3995
 7454SOL    HW233822   2.323   2.718   6.594 -0.5302  1.8240  0.6314
 7455SOL     OW33823   2.785   0.900  15.937  0.2481  0.0774 -0.1886
 7455SOL    HW133824   2.822   0.977  15.894 -0.3688  0.5153  0.0632
 7455SOL    HW233825   2.778   0.947  16.020  0.2568  0.8011 -0.5954
 7456SOL     OW33826   3.977   0.069   0.027 -0.0559 -0.5656 -0.3319
 7456SOL    HW133827   3.943   4.709   0.038  2.2415 -1.3560  0.4950
 7456SOL    HW233828   3.902   0.124   0.049  0.5643  0.2762 -0.2748
 7457SOL     OW33829   0.806   3.196  16.391 -0.0177  0.3539 -0.0928
 7457SOL    HW133830   0.769   3.114  16.423  1.1358  0.7251  2.2059
 7457SOL    HW233831   0.852   3.216  16.473  1.4486 -0.3048 -0.7754
 7458SOL     OW33832   0.101   0.394   6.426 -0.8091  0.5790 -0.5266
 7458SOL    HW133833   0.164   0.463   6.406 -0.7470  0.6313 -0.1582
 7458SOL    HW233834   0.034   0.405   6.359  0.8785 -0.9875 -2.4334
 7459SOL     OW33835   0.150   3.632   6.685 -0.8839  0.3106  0.3672
 7459SOL    HW133836   0.215   3.678   6.738  0.4240  0.5969 -1.4836
 7459SOL    HW233837   0.204   3.595   6.616 -2.8411 -3.5624  0.9085
 7460SOL     OW33838   3.845   3.012   5.069 -0.0262  0.0015 -0.1286
 7460SOL    HW133839   3.927   3.001   5.117 -0.5668 -1.3409  0.5035
 7460SOL    HW233840   3.818   3.098   5.099 -1.4192 -0.2275 -0.6842
 7461SOL     OW33841   0.703   0.879   5.753 -0.4457 -0.6323 -0.1179
 7461SOL    HW133842   0.747   0.815   5.809  2.3950  1.8801  0.5124
 7461SOL    HW233843   0.610   0.876   5.775 -0.3591  2.1934  0.6040
 7462SOL     OW33844   0.210   0.012  16.567 -0.4555  0.0582 -0.1404
 7462SOL    HW133845   0.216   4.656  16.520  0.7628  0.8242 -1.3620
 7462SOL    HW233846   0.303   0.031  16.577 -0.2268 -1.0307 -0.1298
 7463SOL     OW33847   3.694   1.680   3.949  0.0805  0.0752  0.1258
 7463SOL    HW133848   3.601   1.676   3.972 -0.2345 -1.3506 -1.3833
 7463SOL    HW233849   3.690   1.769   3.913 -2.3716  0.4809  1.3628
 7464SOL     OW33850   0.824   2.742   5.521 -0.3153  0.1272  0.5768
 7464SOL    HW133851   0.787   2.804   5.584 -1.0608 -0.3590  0.6253
 7464SOL    HW233852   0.743   2.693   5.501 -1.3288  1.6122  1.0513
 7465SOL     OW33853   3.714   4.318   9.320  0.1862  0.2825  0.1135
 7465SOL    HW133854   3.631   4.332   9.275 -0.1520  1.3252  1.0800
 7465SOL    HW233855   3.764   4.301   9.240 -0.3344 -2.9759  0.4609
 7466SOL     OW33856   3.235   1.464   5.628 -0.5204  0.2274  0.2045
 7466SOL    HW133857   3.324   1.481   5.596  0.1880 -2.1751  0.9495
 7466SOL    HW233858   3.232   1.513   5.710 -0.5951  1.7204 -0.6740
 7467SOL     OW33859   2.063   4.722   4.725 -0.0853  0.2464 -0.1076
 7467SOL    HW133860   2.082   0.085   4.702 -2.9768  0.6353 -0.8911
 7467SOL    HW233861   2.086   4.713   4.818  2.2086  0.8459 -0.6212
 7468SOL     OW33862   0.416   2.426  16.688  0.3321 -0.3513 -0.0815
 7468SOL    HW133863   0.489   2.441  16.748 -0.8363  1.7026  0.8512
 7468SOL    HW233864   0.389   2.340  16.721  1.1071  0.3670  2.4075
 7469SOL     OW33865   0.814   2.696   6.485  0.4138  0.1534  0.0172
 7469SOL    HW133866   0.891   2.714   6.432 -0.5983  0.0552 -1.4959
 7469SOL    HW233867   0.829   2.765   6.549 -2.6073  1.5097 -0.6972
 7470SOL     OW33868   2.071   1.467   0.120  0.3911  0.1217  0.6689
 7470SOL    HW133869   2.079   1.537   0.054 -0.9132  1.0747  1.5244
 7470SOL    HW233870   2.006   1.409   0.080  1.7614 -1.9673  1.4632
 7471SOL     OW33871   3.674   1.556  11.168  0.0864 -0.8769 -0.5588
 7471SOL    HW133872   3.646   1.471  11.134  0.1969 -0.4883 -1.6377
 7471SOL    HW233873   3.721   1.583  11.089  2.1223  1.9579  1.6202
 7472SOL     OW33874   1.984   3.435   2.150 -0.1305  0.4219 -0.0339
 7472SOL    HW133875   2.008   3.444   2.242  1.6913  2.4181 -0.7092
 7472SOL    HW233876   2.022   3.515   2.114  0.4733 -0.5937 -1.6485
 7473SOL     OW33877   4.223   4.027  15.403  0.7426  0.4976  0.3874
 7473SOL    HW133878   4.310   4.065  15.417 -0.0716  2.0554  1.2304
 7473SOL    HW233879   4.247   3.965  15.334  2.4167  2.0032 -0.3849
 7474SOL     OW33880   4.304   1.524   5.376 -0.7712  0.1856  0.3846
 7474SOL    HW133881   4.354   1.597   5.411 -0.6579 -0.2059  1.0353
 7474SOL    HW233882   4.311   1.466   5.452  0.6081 -0.8657 -0.5424
 7475SOL     OW33883   1.076   3.145  16.981 -0.2035  0.3334  0.5000
 7475SOL    HW133884   1.007   3.194  17.027 -0.7470  0.5050 -0.4898
 7475SOL    HW233885   1.052   3.055  17.003 -0.5358  1.0735  3.1604
 7476SOL     OW33886   3.563   1.371   7.601 -0.5780  0.3965  0.0306
 7476SOL    HW133887   3.592   1.458   7.571 -2.6848  0.4028 -2.0018
 7476SOL    HW233888   3.555   1.327   7.517 -1.4495 -0.5427  0.6136
 7477SOL     OW33889   1.041   1.841  10.744 -0.1038  0.5421 -0.3207
 7477SOL    HW133890   0.984   1.771  10.776 -0.1898  0.8585  0.2196
 7477SOL    HW233891   1.108   1.859  10.810 -0.8146  0.4125  0.4357
 7478SOL     OW33892   3.705   0.255   3.766  0.6436 -0.1619 -0.8168
 7478SOL    HW133893   3.696   0.327   3.703  0.0408 -0.1607 -0.7355
 7478SOL    HW233894   3.649   0.188   3.726 -0.9096  0.1173  0.8855
 7479SOL     OW33895   2.711   3.193   8.003 -1.0810 -1.0576 -0.0360
 7479SOL    HW133896   2.674   3.230   8.083 -0.2866  0.0016 -0.1544
 7479SOL    HW233897   2.804   3.214   8.000 -1.4852  0.9474  1.3462
 7480SOL     OW33898   2.866   4.031   9.492 -0.1706  0.1326  0.5528
 7480SOL    HW133899   2.921   3.953   9.499  0.9456  0.9930  1.2298
 7480SOL    HW233900   2.884   4.067   9.405  1.2292 -4.4682 -1.0679
 7481SOL     OW33901   3.779   1.548  10.907  0.0035 -0.4828 -0.0221
 7481SOL    HW133902   3.738   1.477  10.858 -0.7252 -0.7927  1.0366
 7481SOL    HW233903   3.753   1.626  10.857  1.8305  0.5489  0.6018
 7482SOL     OW33904   3.109   4.229  15.964 -0.0039 -0.5924  0.1916
 7482SOL    HW133905   3.168   4.216  15.890 -0.0950 -0.5460  0.1114
 7482SOL    HW233906   3.061   4.300  15.922 -2.4328 -2.4506 -0.1579
 7483SOL     OW33907   2.018   2.926   1.685 -0.2109 -0.1655 -0.1825
 7483SOL    HW133908   1.982   2.846   1.721  0.9741 -0.0434  1.3196
 7483SOL    HW233909   2.028   2.972   1.769  1.2227 -0.4328 -0.1985
 7484SOL     OW33910   4.368   0.045  17.464  0.2336  0.2633 -0.0528
 7484SOL    HW133911   4.350   0.125  17.514 -2.2747 -1.2820  1.5117
 7484SOL    HW233912   4.461   0.063  17.449 -0.1368  1.1487 -1.3438
 7485SOL     OW33913   4.074   3.431  11.526 -0.0754  0.6227 -0.4645
 7485SOL    HW133914   4.024   3.470  11.598 -0.0113  0.4781 -0.3396
 7485SOL    HW233915   4.116   3.508  11.487  0.5045  1.7289  2.3526
 7486SOL     OW33916   3.127   0.667  15.287 -0.1652 -0.5212 -0.2104
 7486SOL    HW133917   3.099   0.660  15.196 -0.2270  1.7515 -0.3431
 7486SOL    HW233918   3.219   0.674  15.263  0.5747  0.3876  2.8367
 7487SOL     OW33919   4.593   2.090   8.899 -0.2742 -0.2918  0.8309
 7487SOL    HW133920   4.625   2.052   8.982  0.7059 -1.7855 -0.2183
 7487SOL    HW233921   4.515   2.132   8.935 -0.3616  1.3861 -1.3439
 7488SOL     OW33922   4.384   2.577   0.913  0.3611  0.5339 -0.1479
 7488SOL    HW133923   4.335   2.574   0.831  0.4522  0.6999 -0.2090
 7488SOL    HW233924   4.317   2.555   0.977  0.7602  0.4445  0.2413
 7489SOL     OW33925   2.801   2.342  11.523  0.2517 -0.2986  0.0971
 7489SOL    HW133926   2.852   2.264  11.547 -0.9214 -1.3060 -0.7102
 7489SOL    HW233927   2.838   2.410  11.580  0.0897 -0.3497  0.2618
 7490SOL     OW33928   3.775   3.258   5.146  0.2399  0.3329  0.6258
 7490SOL    HW133929   3.712   3.327   5.126 -2.2169 -2.1196 -0.0842
 7490SOL    HW233930   3.799   3.295   5.231  0.0066  0.6999  0.5283
 7491SOL     OW33931   0.072   3.627   8.650 -0.5253  0.4404 -0.0639
 7491SOL    HW133932   0.002   3.577   8.609 -0.1876 -0.2966  0.2514
 7491SOL    HW233933   0.126   3.564   8.699  3.9496  3.3728 -1.1800
 7492SOL     OW33934   2.757   2.203   8.672 -0.0123 -1.1366 -0.4362
 7492SOL    HW133935   2.846   2.237   8.677 -1.2704  2.2596 -1.0321
 7492SOL    HW233936   2.710   2.275   8.628  0.9548 -2.1221 -3.0701
 7493SOL     OW33937   0.498   4.049   4.811 -0.3233  0.0521  0.3383
 7493SOL    HW133938   0.577   4.101   4.824  0.9793 -2.0070  0.6385
 7493SOL    HW233939   0.448   4.120   4.769  0.8952  1.7868  1.8257
 7494SOL     OW33940   4.391   1.025  17.503 -0.2505  0.0563 -0.2282
 7494SOL    HW133941   4.473   1.067  17.476  0.5517 -1.1646  0.2978
 7494SOL    HW233942   4.393   1.040  17.598  1.0077 -1.4440 -0.0020
 7495SOL     OW33943   1.425   2.926   3.078  0.1504 -0.1337  0.4454
 7495SOL    HW133944   1.423   2.843   3.030  0.4349  1.3941 -2.2197
 7495SOL    HW233945   1.335   2.954   3.061 -0.1863 -3.2947 -3.1691
 7496SOL     OW33946   2.881   3.134   4.723  0.1705 -0.1151  0.3539
 7496SOL    HW133947   2.959   3.098   4.766  0.3043  0.3123  0.4725
 7496SOL    HW233948   2.856   3.067   4.659 -1.5070 -1.4043  2.3476
 7497SOL     OW33949   1.291   3.876   4.987 -0.0868  0.3216  0.1584
 7497SOL    HW133950   1.255   3.870   4.899  2.3207  1.0131 -0.8510
 7497SOL    HW233951   1.349   3.800   4.987  0.7489  0.9723 -2.4304
 7498SOL     OW33952   0.200   0.765   9.014 -0.3123  0.2500 -0.4491
 7498SOL    HW133953   0.161   0.678   9.002  1.4547 -0.9382  2.3362
 7498SOL    HW233954   0.200   0.775   9.109  2.1117  1.6965 -0.6095
 7499SOL     OW33955   4.231   4.336   3.250  0.0834 -0.0405 -0.4151
 7499SOL    HW133956   4.256   4.298   3.334 -0.9128  2.5303  1.0399
 7499SOL    HW233957   4.178   4.408   3.285 -0.4324 -0.3257 -0.5973
 7500SOL     OW33958   1.602   3.786  17.672  0.3505 -0.6739  0.2861
 7500SOL    HW133959   1.684   3.739  17.686  2.0404  1.4081 -2.5635
 7500SOL    HW233960   1.598   3.768  17.578 -0.5061 -0.1325  0.2170
 7501SOL     OW33961   1.250   0.950   8.796 -0.7623  0.3178  0.0223
 7501SOL    HW133962   1.300   0.885   8.747 -1.1877 -0.4920  0.6809
 7501SOL    HW233963   1.211   0.896   8.864  1.8477 -2.6581 -0.8510
 7502SOL     OW33964   1.461   3.364  14.778  0.4900  0.3070 -0.2292
 7502SOL    HW133965   1.445   3.426  14.708 -2.3607 -0.0112  0.1530
 7502SOL    HW233966   1.556   3.368  14.792  0.2653  0.9093  1.1553
 7503SOL     OW33967   2.297   4.083   7.226 -0.2952  0.0332  0.2196
 7503SOL    HW133968   2.287   4.167   7.272 -0.2259  0.8785 -1.3131
 7503SOL    HW233969   2.357   4.116   7.159 -0.5221  0.0290  0.0147
 7504SOL     OW33970   1.522   3.528   4.105  0.8251  0.3628 -0.0128
 7504SOL    HW133971   1.472   3.449   4.084 -0.0583  1.1008 -0.7557
 7504SOL    HW233972   1.512   3.572   4.020 -4.3258 -0.1902  0.2731
 7505SOL     OW33973   0.492   4.655   4.498  0.3535 -0.7635 -0.0026
 7505SOL    HW133974   0.399   4.678   4.500  0.9586  1.9079 -3.0698
 7505SOL    HW233975   0.499   4.581   4.559  3.0182 -1.5690 -1.2464
 7506SOL     OW33976   2.234   0.123   3.291 -0.4745  0.1922  0.4146
 7506SOL    HW133977   2.302   0.185   3.265  0.4410 -1.1020 -0.2564
 7506SOL    HW233978   2.150   0.160   3.262 -0.1764  0.5389 -0.0026
 7507SOL     OW33979   3.325   2.196   6.580 -0.2423 -0.0723  0.0531
 7507SOL    HW133980   3.333   2.126   6.645  2.4364  1.8774  1.8361
 7507SOL    HW233981   3.416   2.218   6.558  0.0375 -1.8434 -0.6218
 7508SOL     OW33982   0.090   3.812   7.623  0.3112  0.0985  0.1149
 7508SOL    HW133983   0.163   3.759   7.591  0.6532  0.9816 -0.5596
 7508SOL    HW233984   0.046   3.760   7.690  1.1495  0.4853  0.9773
 7509SOL     OW33985   4.060   3.627  10.862 -0.8035  0.5545 -0.7172
 7509SOL    HW133986   4.021   3.699  10.912  1.9987  1.6020  0.0211
 7509SOL    HW233987   4.128   3.665  10.805 -0.6526  0.4140 -0.6307
 7510SOL     OW33988   4.478   0.278   2.753  0.2893 -0.3923  0.4026
 7510SOL    HW133989   4.383   0.283   2.764  0.2554  0.4904 -0.3158
 7510SOL    HW233990   4.488   0.188   2.724 -1.9426 -0.6338  0.3932
 7511SOL     OW33991   1.788   2.928   6.701 -0.2441 -0.0486  0.0192
 7511SOL    HW133992   1.797   2.866   6.773 -2.8816 -0.7169 -0.2270
 7511SOL    HW233993   1.697   2.913   6.675  0.6080 -0.6380 -2.6232
 7512SOL     OW33994   1.664   0.334  10.461 -0.2965  0.1814  0.2747
 7512SOL    HW133995   1.624   0.259  10.504  0.9170 -1.1010 -0.8473
 7512SOL    HW233996   1.659   0.407  10.522 -1.6940 -1.7776  2.4785
 7513SOL     OW33997   1.727   0.468   3.102  0.2606  0.2871 -0.6140
 7513SOL    HW133998   1.737   0.503   3.013  2.0300 -0.3580 -0.6620
 7513SOL    HW233999   1.704   0.544   3.155 -3.2227 -3.1997  2.7863
 7514SOL     OW34000   2.255   1.808   8.945  0.0973 -0.1147 -0.1025
 7514SOL    HW134001   2.282   1.900   8.937  1.8161 -0.5713  0.3858
 7514SOL    HW234002   2.208   1.788   8.864 -1.3125 -0.1363  0.7399
 7515SOL     OW34003   2.138   3.776   8.535  0.2991  0.1556 -0.1239
 7515SOL    HW134004   2.204   3.837   8.502  2.5228 -1.7808  0.7394
 7515SOL    HW234005   2.181   3.738   8.611  3.2250  1.1080 -1.3258
 7516SOL     OW34006   2.549   4.182   4.774 -0.2346 -0.1418  0.0783
 7516SOL    HW134007   2.509   4.233   4.844 -0.1858  0.5995 -0.4282
 7516SOL    HW234008   2.490   4.196   4.700 -1.8704 -1.7161  1.1081
 7517SOL     OW34009   2.115   2.962   5.201  0.2167  0.1711 -0.2321
 7517SOL    HW134010   2.184   2.931   5.143  0.4628  1.2465 -0.5278
 7517SOL    HW234011   2.143   3.054   5.202  1.6663 -0.2559 -1.0487
 7518SOL     OW34012   1.357   0.963   4.824 -0.2246  0.0256 -0.5366
 7518SOL    HW134013   1.331   1.033   4.884  1.3954  0.6314 -0.5226
 7518SOL    HW234014   1.271   0.929   4.801  0.1891  0.6928 -3.1617
 7519SOL     OW34015   4.563   1.479   6.772  0.0493  0.0648 -0.2565
 7519SOL    HW134016   4.492   1.457   6.831  0.1685  0.7277  0.1321
 7519SOL    HW234017   4.610   1.396   6.761  1.0318  0.4118  1.3787
 7520SOL     OW34018   4.715   0.513   7.004 -0.4192  0.1687 -0.5391
 7520SOL    HW134019   0.005   0.557   7.087 -2.6267  0.4090 -0.1869
 7520SOL    HW234020   0.062   0.453   6.999  0.3946  1.2805 -1.5843
 7521SOL     OW34021   2.891   2.965   9.272 -0.1601  0.3886  0.2159
 7521SOL    HW134022   2.816   2.988   9.326  0.3566 -2.6463  2.2081
 7521SOL    HW234023   2.876   3.000   9.184 -0.2357  0.5668  0.3004
 7522SOL     OW34024   2.468   0.874  13.537 -0.1472 -0.3670  0.0764
 7522SOL    HW134025   2.396   0.849  13.595  0.5989 -1.3030  0.6129
 7522SOL    HW234026   2.422   0.921  13.468  0.1392 -1.0593 -0.5840
 7523SOL     OW34027   4.491   3.506   4.207  0.1274 -0.2785  0.1937
 7523SOL    HW134028   4.484   3.432   4.147 -1.4714 -0.1695  0.2553
 7523SOL    HW234029   4.413   3.495   4.261  0.8873  3.1936  2.0559
 7524SOL     OW34030   0.070   1.604   1.109 -0.0637  0.1709  0.3599
 7524SOL    HW134031   0.152   1.571   1.146  0.2077  0.2700 -0.1450
 7524SOL    HW234032   0.065   1.693   1.145 -2.4423  0.1893 -0.0446
 7525SOL     OW34033   0.507   1.473   5.393 -0.9566  0.3002 -0.4721
 7525SOL    HW134034   0.475   1.459   5.304 -0.2432  1.3346 -0.8870
 7525SOL    HW234035   0.433   1.446   5.448 -0.3955  0.9330  0.5942
 7526SOL     OW34036   0.132   4.554   9.442 -0.1990  0.1846 -0.3635
 7526SOL    HW134037   0.053   4.519   9.402 -0.7019  0.2381  0.5871
 7526SOL    HW234038   0.112   4.545   9.535  1.7120 -0.1337  0.0216
 7527SOL     OW34039   2.502   3.519   0.602 -0.0645  1.0785 -0.0055
 7527SOL    HW134040   2.542   3.563   0.677  2.2826  2.0023 -1.7962
 7527SOL    HW234041   2.532   3.573   0.529 -2.3099 -0.2162 -1.8838
 7528SOL     OW34042   0.661   3.868   1.567  0.0392  0.3147  0.1037
 7528SOL    HW134043   0.754   3.890   1.573  0.0164 -0.0189  1.5272
 7528SOL    HW234044   0.653   3.793   1.626  1.0484  1.1987  1.3777
 7529SOL     OW34045   1.887   1.182   8.881  0.4722  0.3144  0.2807
 7529SOL    HW134046   1.816   1.120   8.863 -0.8330  2.7132 -2.7348
 7529SOL    HW234047   1.953   1.136   8.829  1.4239  2.4376 -0.3853
 7530SOL     OW34048   1.512   2.048   3.496 -0.2412  0.4517  0.2447
 7530SOL    HW134049   1.447   2.011   3.437  0.6669 -0.7045 -0.0393
 7530SOL    HW234050   1.500   2.141   3.479  0.2675  0.7067  1.2942
 7531SOL     OW34051   2.959   1.401   8.579 -0.1345 -0.0255 -0.4812
 7531SOL    HW134052   2.998   1.357   8.503  0.0977 -3.4585  1.6263
 7531SOL    HW234053   3.011   1.361   8.649 -0.2825  2.2869  0.9196
 7532SOL     OW34054   1.237   1.129  12.730  0.7405 -0.0387  0.4897
 7532SOL    HW134055   1.241   1.050  12.784  0.1655 -1.9734 -2.2690
 7532SOL    HW234056   1.331   1.141  12.713  0.1840  1.0446 -1.7975
 7533SOL     OW34057   2.610   4.276   9.686  0.2857 -0.8939  0.0432
 7533SOL    HW134058   2.623   4.183   9.665 -1.5944 -1.3304  0.8053
 7533SOL    HW234059   2.679   4.315   9.633  0.4649 -0.7423  0.3864
 7534SOL     OW34060   1.600   0.422   5.886 -0.0575  0.2840  0.2687
 7534SOL    HW134061   1.527   0.362   5.874 -1.7197  2.1076  1.2555
 7534SOL    HW234062   1.645   0.364   5.948  0.0288  0.7233  0.6187
 7535SOL     OW34063   0.578   2.600   6.404  0.1818 -0.7439 -0.1431
 7535SOL    HW134064   0.659   2.650   6.412  0.4970 -1.4905  1.3797
 7535SOL    HW234065   0.560   2.608   6.310  1.0925 -0.5108 -0.3000
 7536SOL     OW34066   0.252   3.473  12.185 -0.2666 -0.0082 -0.3130
 7536SOL    HW134067   0.201   3.553  12.171 -1.7530 -0.7461  1.0246
 7536SOL    HW234068   0.256   3.465  12.280  1.0393  0.0967 -0.3511
 7537SOL     OW34069   2.424   0.653   6.444 -0.4747  0.2570  0.5138
 7537SOL    HW134070   2.469   0.587   6.392 -0.5700  1.8061 -1.5322
 7537SOL    HW234071   2.360   0.682   6.380 -0.0149 -1.1883 -0.5957
 7538SOL     OW34072   4.051   1.636   7.350  0.2865 -0.0722  0.0774
 7538SOL    HW134073   4.140   1.602   7.362  0.6933  0.2182 -2.2163
 7538SOL    HW234074   3.990   1.599   7.413 -0.0402 -0.7054 -0.6099
 7539SOL     OW34075   1.111   0.011  17.676 -0.3871 -0.3495 -0.4644
 7539SOL    HW134076   1.171   0.034  17.605  0.4957 -0.5665  0.2034
 7539SOL    HW234077   1.036   0.004  17.618  0.3465 -0.5841 -1.3936
 7540SOL     OW34078   1.818   3.314   5.319  0.3238 -0.3138  0.0885
 7540SOL    HW134079   1.867   3.241   5.358 -0.3841 -1.1761 -0.6309
 7540SOL    HW234080   1.885   3.373   5.285 -0.1832  0.6067  0.7079
 7541SOL     OW34081   3.190   3.862  13.199 -0.0502  0.2334 -0.7189
 7541SOL    HW134082   3.097   3.863  13.174 -0.5059  1.2319  0.9706
 7541SOL    HW234083   3.197   3.810  13.280 -0.4694  0.8623 -0.2727
 7542SOL     OW34084   1.986   3.846   9.351 -0.1734  0.0226 -0.0919
 7542SOL    HW134085   2.056   3.865   9.414 -1.2113  1.7523  0.5278
 7542SOL    HW234086   2.020   3.894   9.276 -3.5072  2.2684 -0.1456
 7543SOL     OW34087   0.797   1.655   6.903 -0.2628 -0.1614 -0.2946
 7543SOL    HW134088   0.799   1.654   6.999  0.2711  3.2780 -0.2378
 7543SOL    HW234089   0.713   1.692   6.875 -1.4502 -3.0742 -0.5190
 7544SOL     OW34090   3.214   2.823  11.101 -0.0814  0.6137 -0.1026
 7544SOL    HW134091   3.127   2.827  11.139  0.7876  4.5527  1.4475
 7544SOL    HW234092   3.223   2.900  11.045 -0.6701  0.2123 -0.7407
 7545SOL     OW34093   3.189   1.398   6.065 -0.2005  0.1657 -0.2577
 7545SOL    HW134094   3.126   1.467   6.044  1.1122  1.0361 -1.3985
 7545SOL    HW234095   3.150   1.359   6.143  0.2075 -0.4776 -0.3720
 7546SOL     OW34096   0.980   0.721  16.196 -0.0473 -0.2090  0.0181
 7546SOL    HW134097   0.965   0.640  16.148 -0.3269 -0.5833  0.7493
 7546SOL    HW234098   1.018   0.786  16.136  0.4889 -2.1616 -1.7468
 7547SOL     OW34099   3.174   2.171  14.183  0.2264 -0.5233  0.3724
 7547SOL    HW134100   3.237   2.150  14.114 -0.3887  1.0130 -0.6455
 7547SOL    HW234101   3.091   2.143  14.144  0.2409 -1.4923  1.0344
 7548SOL     OW34102   3.583   2.316   9.908 -0.1752  0.4610  0.0434
 7548SOL    HW134103   3.625   2.303   9.993 -3.8733 -2.8644  1.3914
 7548SOL    HW234104   3.568   2.411   9.903  1.5012  0.7093 -0.2630
 7549SOL     OW34105   4.577   0.132   6.350 -0.2636 -0.0709  0.4062
 7549SOL    HW134106   4.672   0.140   6.343 -0.0199 -1.5860  1.8500
 7549SOL    HW234107   4.565   0.185   6.429 -2.2811  0.5787 -0.3293
 7550SOL     OW34108   2.488   1.717  13.524  0.5249 -0.3889  0.2211
 7550SOL    HW134109   2.553   1.710  13.454  0.2449 -0.7871  0.0009
 7550SOL    HW234110   2.540   1.740  13.601 -0.7552  2.3206  0.2908
 7551SOL     OW34111   0.187   0.822   4.809 -0.3089 -0.7808  0.5144
 7551SOL    HW134112   0.267   0.781   4.778 -0.5890 -1.8386  1.1901
 7551SOL    HW234113   0.120   0.800   4.745 -2.5895  1.0707  2.2294
 7552SOL     OW34114   0.814   4.151  12.276 -0.0565 -0.2296 -0.2239
 7552SOL    HW134115   0.734   4.150  12.328  1.2732 -2.8631  1.7811
 7552SOL    HW234116   0.870   4.083  12.314  0.7763  1.5698  1.7845
 7553SOL     OW34117   2.296   3.230   9.790  0.1434  0.1645 -0.0810
 7553SOL    HW134118   2.256   3.182   9.717  0.6688  1.4108 -1.1835
 7553SOL    HW234119   2.265   3.176   9.863 -0.7823  0.0798 -0.5388
 7554SOL     OW34120   0.614   0.189   9.822 -0.3388  0.9108  0.2685
 7554SOL    HW134121   0.531   0.167   9.780  1.0264  0.3438 -2.1413
 7554SOL    HW234122   0.597   0.206   9.915 -0.3355  0.8304  0.2843
 7555SOL     OW34123   2.150   4.221   7.644 -0.2494  0.3528  0.3553
 7555SOL    HW134124   2.199   4.273   7.580 -0.4475  2.0774  1.6148
 7555SOL    HW234125   2.157   4.289   7.711  0.9095 -1.5914  2.1969
 7556SOL     OW34126   2.962   2.543   8.615  0.0185 -0.1314  0.7376
 7556SOL    HW134127   3.013   2.601   8.672  0.6993  0.5304 -0.5240
 7556SOL    HW234128   2.959   2.468   8.675 -0.3299  0.5503  1.5735
 7557SOL     OW34129   2.660   3.979   9.647 -0.5869 -0.0554  0.1194
 7557SOL    HW134130   2.744   4.000   9.606  0.1734 -1.0926  1.1519
 7557SOL    HW234131   2.683   3.901   9.698  1.4492 -0.9766 -2.2371
 7558SOL     OW34132   0.664   3.404   3.375 -0.1696  0.0563  0.3686
 7558SOL    HW134133   0.651   3.325   3.323 -1.7058  1.3042 -1.1288
 7558SOL    HW234134   0.724   3.455   3.321 -0.3464 -0.5182 -0.3764
 7559SOL     OW34135   2.670   3.593   7.860 -0.5391 -0.8874  0.1242
 7559SOL    HW134136   2.635   3.506   7.878  0.8772 -2.0570 -2.9395
 7559SOL    HW234137   2.760   3.575   7.835  0.2223  2.1531  0.6202
 7560SOL     OW34138   4.029   0.287  10.576  0.0919 -0.5920 -0.1610
 7560SOL    HW134139   4.004   0.260  10.665 -1.1724 -1.2359 -0.7090
 7560SOL    HW234140   4.037   0.201  10.533  0.5387  1.4493 -4.1245
 7561SOL     OW34141   0.037   3.180   7.457 -0.4855  0.0051 -0.0176
 7561SOL    HW134142   4.689   3.198   7.512  0.9685  1.0497  1.6565
 7561SOL    HW234143   0.087   3.260   7.472 -0.6347  0.1573 -0.3518
 7562SOL     OW34144   4.323   3.213   5.992  0.3934  0.0485 -0.4645
 7562SOL    HW134145   4.306   3.281   6.058  0.3974  0.0699 -0.4856
 7562SOL    HW234146   4.234   3.180   5.980  0.8479 -1.1648 -0.4602
 7563SOL     OW34147   3.222   2.206   8.173 -0.1869  0.2938 -0.1111
 7563SOL    HW134148   3.245   2.129   8.122  0.2396  0.3183  0.0451
 7563SOL    HW234149   3.267   2.271   8.119  0.1127  0.3656  0.2261
 7564SOL     OW34150   4.301   4.457  14.908  0.1751 -0.2681 -0.4801
 7564SOL    HW134151   4.326   4.549  14.901 -0.0889  0.0404  2.5480
 7564SOL    HW234152   4.234   4.455  14.839 -0.3522 -0.4095  0.0331
 7565SOL     OW34153   2.565   4.622   4.305 -0.2041  0.1543  0.2082
 7565SOL    HW134154   2.472   4.633   4.284 -0.0693  1.3965  0.2252
 7565SOL    HW234155   2.561   4.603   4.398 -1.1488 -0.3819  0.0604
 7566SOL     OW34156   4.460   4.078   4.266 -0.3673  0.8271 -0.2546
 7566SOL    HW134157   4.391   4.016   4.242  0.4351 -0.0245 -0.3580
 7566SOL    HW234158   4.514   4.034   4.332 -1.2108  1.2084  0.7054
 7567SOL     OW34159   1.610   3.935   5.081 -0.1582  0.2659 -0.4061
 7567SOL    HW134160   1.530   3.921   5.132  0.1438  0.4222  0.1042
 7567SOL    HW234161   1.651   4.017   5.108  0.4562 -0.0149 -0.4870
 7568SOL     OW34162   0.997   3.923  12.676  0.1803  0.3360 -0.4315
 7568SOL    HW134163   1.058   3.954  12.743 -1.3427  1.9769  0.2194
 7568SOL    HW234164   0.925   3.904  12.737  0.3888  0.3735 -0.1757
 7569SOL     OW34165   2.937   1.264   3.457 -0.0740 -0.0555  0.5996
 7569SOL    HW134166   2.994   1.215   3.516  1.0952 -0.0543 -0.5428
 7569SOL    HW234167   2.892   1.324   3.517  0.3603 -0.0163  0.8849
 7570SOL     OW34168   4.224   4.573   6.322 -0.2360  0.0509  0.1486
 7570SOL    HW134169   4.210   4.493   6.373 -0.6382 -0.3784 -0.6382
 7570SOL    HW234170   4.134   4.588   6.293  0.7631  0.5082 -2.6683
 7571SOL     OW34171   1.282   0.751   4.594 -0.3473  0.0189  0.1493
 7571SOL    HW134172   1.341   0.813   4.551  0.2707 -0.7689 -0.1371
 7571SOL    HW234173   1.350   0.686   4.609 -1.1070 -0.2853  2.2181
 7572SOL     OW34174   0.252   4.556  10.620  0.2769 -0.2116  0.0266
 7572SOL    HW134175   0.199   4.614  10.565  0.7000  0.5606  0.4237
 7572SOL    HW234176   0.189   4.539  10.691 -1.8018 -0.6583 -1.9212
 7573SOL     OW34177   4.341   3.376   3.083  0.0140 -0.6866  0.0533
 7573SOL    HW134178   4.260   3.328   3.098 -0.1929 -0.3657 -0.0298
 7573SOL    HW234179   4.355   3.437   3.156 -0.3026 -1.4685  0.7609
 7574SOL     OW34180   2.102   4.403   7.862 -0.1258 -0.3101 -0.2662
 7574SOL    HW134181   2.145   4.472   7.811  0.9034 -1.4373 -0.9116
 7574SOL    HW234182   2.134   4.424   7.949 -0.9346  0.8734 -0.2410
 7575SOL     OW34183   2.647   4.720  11.472  0.2365  0.0922 -0.3610
 7575SOL    HW134184   2.645   4.705  11.567 -0.3867  1.8147 -0.0918
 7575SOL    HW234185   2.641   0.088  11.481  0.9752  0.1692 -0.7214
 7576SOL     OW34186   2.109   0.322  16.543 -0.3230  0.4370  0.4516
 7576SOL    HW134187   2.105   0.372  16.624  1.4078 -0.3121  1.0142
 7576SOL    HW234188   2.126   0.389  16.477 -0.8059 -0.0243 -0.1399
 7577SOL     OW34189   1.757   0.051  10.364 -0.1563  0.5584  0.6399
 7577SOL    HW134190   1.756   0.022  10.455 -3.5689 -0.4674  0.2680
 7577SOL    HW234191   1.827   4.722  10.332  0.5458  1.6641  0.1878
 7578SOL     OW34192   1.973   2.152  14.113  0.5188  0.4950  0.3744
 7578SOL    HW134193   1.961   2.079  14.173  2.5237 -1.1911 -1.2439
 7578SOL    HW234194   1.987   2.222  14.177 -0.0233  2.4562 -1.6295
 7579SOL     OW34195   1.195   1.055  12.049 -0.0207 -0.0012  0.3756
 7579SOL    HW134196   1.124   0.993  12.032 -0.5209  0.6428  0.1163
 7579SOL    HW234197   1.150   1.139  12.043 -1.4164 -0.6304  2.0070
 7580SOL     OW34198   2.353   4.374  13.719  0.7265 -0.8513  0.4418
 7580SOL    HW134199   2.382   4.286  13.744  0.3475 -1.2522 -0.5244
 7580SOL    HW234200   2.333   4.404  13.808  1.5677  1.9189 -0.3032
 7581SOL     OW34201   1.256   0.852   0.135 -0.1228  0.2651 -0.4964
 7581SOL    HW134202   1.345   0.833   0.164 -1.1761 -0.9339  2.0169
 7581SOL    HW234203   1.275   0.898   0.054 -1.3052  1.6163 -0.0111
 7582SOL     OW34204   2.727   2.688   4.919 -0.1835 -0.3597  1.2833
 7582SOL    HW134205   2.711   2.775   4.955 -1.0921 -0.3473  0.8774
 7582SOL    HW234206   2.807   2.697   4.868 -1.7989 -2.6132 -1.6397
 7583SOL     OW34207   0.788   4.472   7.400 -0.2387  0.0183  0.0398
 7583SOL    HW134208   0.802   4.402   7.464  0.3847  0.3893  0.3129
 7583SOL    HW234209   0.759   4.542   7.457  1.4528  1.6295 -1.0665
 7584SOL     OW34210   4.585   4.613   4.330 -0.1308  0.6582 -0.3241
 7584SOL    HW134211   4.564   4.532   4.284 -2.4069  0.2462  1.4201
 7584SOL    HW234212   4.541   4.605   4.415  1.9044  2.6297  0.9137
 7585SOL     OW34213   1.531   4.171  12.608 -0.1648 -0.0424  0.4832
 7585SOL    HW134214   1.527   4.200  12.517  0.1325  1.6037  1.0054
 7585SOL    HW234215   1.603   4.231  12.629 -1.3188  1.7376 -0.6753
 7586SOL     OW34216   1.665   0.205   0.209 -0.3921  0.1558  0.0034
 7586SOL    HW134217   1.728   0.165   0.269 -0.8063 -2.2795 -1.2082
 7586SOL    HW234218   1.602   0.134   0.196 -0.7308 -0.0856  2.8980
 7587SOL     OW34219   2.238   2.540   5.148 -0.0369 -0.7344 -0.4499
 7587SOL    HW134220   2.145   2.538   5.170  0.2339  0.2418  0.8554
 7587SOL    HW234221   2.249   2.598   5.073  0.6563  0.1745  0.3482
 7588SOL     OW34222   2.460   0.749   6.865 -0.1008 -0.4114  0.2368
 7588SOL    HW134223   2.455   0.693   6.943  1.5908  0.7914  1.2218
 7588SOL    HW234224   2.546   0.738   6.826  1.4414 -0.9284  3.7314
 7589SOL     OW34225   1.929   2.916   8.865  0.4706 -0.5421  0.3392
 7589SOL    HW134226   1.883   2.836   8.837  0.1598  0.3853 -1.7881
 7589SOL    HW234227   1.847   2.961   8.886 -0.2457 -2.0369  0.8331
 7590SOL     OW34228   1.844   2.257   7.054  0.1528  0.0911 -0.3833
 7590SOL    HW134229   1.842   2.190   6.985 -1.8614  1.5306 -1.7232
 7590SOL    HW234230   1.930   2.235   7.089 -1.0919 -0.7869  2.0950
 7591SOL     OW34231   4.670   4.016  14.372 -0.0715  0.1778 -0.2625
 7591SOL    HW134232   4.634   3.930  14.395  3.8971 -0.7306  2.6663
 7591SOL    HW234233   0.021   4.015  14.426 -0.4187 -2.4406  0.1969
 7592SOL     OW34234   3.862   2.159   0.020 -0.1736 -0.0451  0.3872
 7592SOL    HW134235   3.909   2.215   0.082  1.7739 -0.7308 -0.4532
 7592SOL    HW234236   3.772   2.165   0.051 -0.6079  2.9798 -1.4758
 7593SOL     OW34237   0.394   3.697   4.460  0.1377  0.4512 -0.4845
 7593SOL    HW134238   0.479   3.667   4.427 -1.1953 -0.8669 -2.7606
 7593SOL    HW234239   0.421   3.748   4.536 -1.1890 -0.1170  0.3581
 7594SOL     OW34240   0.920   3.759   7.451  0.0259  0.1933  0.6923
 7594SOL    HW134241   0.876   3.815   7.515 -0.2560 -0.5582  1.1545
 7594SOL    HW234242   0.937   3.819   7.379 -1.3227 -0.0551  0.1635
 7595SOL     OW34243   2.272   0.995  10.215 -0.4695  0.3084 -0.3899
 7595SOL    HW134244   2.361   1.011  10.184 -0.3655 -0.6224 -0.5656
 7595SOL    HW234245   2.222   0.987  10.134 -0.4250  0.2230 -0.4093
 7596SOL     OW34246   1.422   3.821  15.822  0.4814  0.4635  0.1099
 7596SOL    HW134247   1.449   3.731  15.804  0.6838  0.6136 -0.3128
 7596SOL    HW234248   1.434   3.855  15.733  3.2510  1.6374  0.9354
 7597SOL     OW34249   3.581   3.589   8.104 -0.2378  1.1197 -0.1354
 7597SOL    HW134250   3.540   3.518   8.055  3.4519 -1.0589 -0.0814
 7597SOL    HW234251   3.672   3.583   8.074 -0.2012 -0.2168  0.2354
 7598SOL     OW34252   0.626   4.682   7.881 -0.3474  0.0526  0.0443
 7598SOL    HW134253   0.680   4.648   7.952  1.2069 -0.4534 -1.3770
 7598SOL    HW234254   0.601   0.037   7.923  1.4871  0.0645  1.1062
 7599SOL     OW34255   0.930   1.755   8.245 -0.0930 -0.4487  0.0446
 7599SOL    HW134256   1.006   1.697   8.252  0.1516 -0.1166  0.1341
 7599SOL    HW234257   0.920   1.778   8.338 -2.0298  2.5901 -0.9111
 7600SOL     OW34258   1.999   2.419   6.608  0.1114  0.4609 -0.3952
 7600SOL    HW134259   1.983   2.493   6.549  2.1716  2.7901  1.9559
 7600SOL    HW234260   2.031   2.349   6.552 -2.5664  0.6081 -2.1018
 7601SOL     OW34261   4.221   2.217   7.726  0.2919  0.1715 -0.4670
 7601SOL    HW134262   4.243   2.220   7.820  0.0741  1.7713 -0.4653
 7601SOL    HW234263   4.309   2.210   7.689  0.6716  3.6894 -0.2324
 7602SOL     OW34264   0.282   4.159   5.289  0.3553 -0.0612 -0.0750
 7602SOL    HW134265   0.279   4.226   5.221 -2.0163 -0.5495 -0.4519
 7602SOL    HW234266   0.316   4.090   5.232 -2.5222 -1.0084 -0.6594
 7603SOL     OW34267   2.633   0.108  12.821  0.0322  0.1816  0.5956
 7603SOL    HW134268   2.699   0.072  12.762  1.5040  0.8363  1.8240
 7603SOL    HW234269   2.573   0.140  12.754 -0.3855 -0.0692  0.8490
 7604SOL     OW34270   0.166   1.990   5.065 -0.3242 -0.3556  0.2604
 7604SOL    HW134271   0.219   1.976   5.144 -0.8397 -0.2952  0.6166
 7604SOL    HW234272   0.075   1.984   5.092 -0.9597  1.3228 -1.4872
 7605SOL     OW34273   4.262   2.255   7.999 -0.7603  0.2455  0.1007
 7605SOL    HW134274   4.343   2.252   8.050 -1.4091  0.2368  1.1303
 7605SOL    HW234275   4.267   2.350   7.983 -1.3695  0.0560 -1.2184
 7606SOL     OW34276   3.189   2.759   3.470  0.2272 -0.0620 -0.0378
 7606SOL    HW134277   3.282   2.757   3.450  0.3079  4.8126  0.0322
 7606SOL    HW234278   3.166   2.804   3.389  1.0578  1.8176  0.7816
 7607SOL     OW34279   2.640   3.450  17.284 -0.4275  0.3093 -0.0061
 7607SOL    HW134280   2.609   3.360  17.293  1.1658 -0.1455  0.9881
 7607SOL    HW234281   2.721   3.442  17.335  1.0456  1.5244 -2.1513
 7608SOL     OW34282   1.783   0.588  11.751  0.2547  0.2259 -0.0224
 7608SOL    HW134283   1.833   0.656  11.795  0.4811 -1.0133  1.6415
 7608SOL    HW234284   1.692   0.608  11.771 -0.1866 -0.8202 -0.9538
 7609SOL     OW34285   3.153   3.845   4.553  0.2471  0.2046  0.0522
 7609SOL    HW134286   3.185   3.848   4.463  3.3494  1.1085  1.1836
 7609SOL    HW234287   3.116   3.756   4.549  0.3832  0.1088  0.9403
 7610SOL     OW34288   3.541   3.039   0.214  0.2430 -0.7418 -0.0122
 7610SOL    HW134289   3.476   2.971   0.231  0.0971  0.0277  2.6255
 7610SOL    HW234290   3.487   3.117   0.226  0.7932 -0.1740 -1.2861
 7611SOL     OW34291   0.026   0.016   2.448  0.1312  0.2773  0.0599
 7611SOL    HW134292   4.676   0.022   2.503  0.1908  0.8192  0.0898
 7611SOL    HW234293   0.058   4.658   2.474  0.4043  1.2435  2.9428
 7612SOL     OW34294   4.194   2.275  15.017 -0.0118 -0.3843  0.2138
 7612SOL    HW134295   4.107   2.273  14.976 -0.6703 -0.7416  1.6041
 7612SOL    HW234296   4.195   2.186  15.054 -1.1563 -0.1691  0.7798
 7613SOL     OW34297   2.509   2.079   3.895  0.2062 -0.6387  0.4339
 7613SOL    HW134298   2.447   2.143   3.929  0.7790  0.4981 -0.6361
 7613SOL    HW234299   2.577   2.140   3.868  0.8886 -0.6384  2.2131
 7614SOL     OW34300   1.887   0.584   6.502 -0.4373 -0.4666 -0.1786
 7614SOL    HW134301   1.835   0.640   6.444  1.3790  1.2032 -0.2095
 7614SOL    HW234302   1.943   0.558   6.430  0.1935  4.6855 -1.5632
 7615SOL     OW34303   0.534   4.226   8.742  0.3792 -0.5118  0.1706
 7615SOL    HW134304   0.551   4.274   8.823  0.9809 -0.4013 -0.0245
 7615SOL    HW234305   0.470   4.280   8.697  0.8454 -0.1718 -0.0798
 7616SOL     OW34306   3.400   4.510   7.064  0.0524 -0.2956  0.2560
 7616SOL    HW134307   3.309   4.481   7.059  0.2709 -0.9083 -0.0652
 7616SOL    HW234308   3.412   4.575   6.994 -1.5284 -0.1048  0.1680
 7617SOL     OW34309   2.906   3.832   9.170 -0.0356 -0.1720  0.5475
 7617SOL    HW134310   2.996   3.827   9.138 -0.2592  0.7709 -0.2317
 7617SOL    HW234311   2.914   3.761   9.233  0.7055 -1.0826 -0.5708
 7618SOL     OW34312   1.414   4.545   2.383 -0.0870 -0.3149  0.4898
 7618SOL    HW134313   1.364   4.577   2.458 -1.8057 -2.4655  0.2842
 7618SOL    HW234314   1.343   4.493   2.345 -0.4392  1.4690 -1.3217
 7619SOL     OW34315   1.139   0.604   0.026 -0.2548  0.2904 -0.4454
 7619SOL    HW134316   1.111   0.575   0.113 -1.7761 -1.4179 -1.5077
 7619SOL    HW234317   1.203   0.671   0.050 -0.5268  0.0351  0.9738
 7620SOL     OW34318   2.948   3.456   1.875  0.6842  0.0942 -0.2721
 7620SOL    HW134319   2.990   3.371   1.890 -0.5590  0.2072  3.8810
 7620SOL    HW234320   2.955   3.449   1.779  0.4086  2.6060 -0.4715
 7621SOL     OW34321   4.099   2.564   3.883  0.3288 -0.4218  0.0794
 7621SOL    HW134322   4.157   2.488   3.892  0.1444 -0.4206  1.2999
 7621SOL    HW234323   4.020   2.545   3.933  0.2510 -0.0824  0.0819
 7622SOL     OW34324   4.496   0.924  10.468  0.0604 -0.2529  0.5631
 7622SOL    HW134325   4.547   0.916  10.549  0.5524  2.5732  0.5365
 7622SOL    HW234326   4.540   0.991  10.416 -0.3790 -0.9741 -0.7211
 7623SOL     OW34327   3.124   0.125  17.296  0.0151  0.0052 -0.1666
 7623SOL    HW134328   3.220   0.120  17.304  0.0511 -2.6877 -2.3563
 7623SOL    HW234329   3.112   0.175  17.216 -2.0048 -2.8291 -1.6441
 7624SOL     OW34330   1.991   3.471  17.586 -0.4740  0.5376 -0.3602
 7624SOL    HW134331   2.060   3.465  17.520 -0.4117 -1.8730 -0.0682
 7624SOL    HW234332   1.941   3.391  17.569  1.0706 -0.4710 -0.1679
 7625SOL     OW34333   3.753   2.473   7.641 -0.3584 -0.2043 -0.0036
 7625SOL    HW134334   3.818   2.472   7.711 -0.9183 -0.2135  0.5109
 7625SOL    HW234335   3.787   2.547   7.590 -0.7438  1.0975  1.6259
 7626SOL     OW34336   1.206   1.281   4.688 -0.1797 -0.0891  0.3053
 7626SOL    HW134337   1.208   1.207   4.629  1.4242 -0.1868  0.4841
 7626SOL    HW234338   1.156   1.337   4.629 -2.7915 -0.1224  2.4838
 7627SOL     OW34339   0.845   4.545  10.625  0.4274 -0.1634 -0.0229
 7627SOL    HW134340   0.840   4.638  10.646  0.6444 -0.3095  0.6785
 7627SOL    HW234341   0.928   4.520  10.667  0.2512  1.5539  1.3586
 7628SOL     OW34342   0.957   1.791   9.891 -0.1093 -0.0374  0.0242
 7628SOL    HW134343   1.034   1.747   9.927  0.0099 -0.3256 -0.5918
 7628SOL    HW234344   0.998   1.820   9.810  1.7809  1.5473  1.5271
 7629SOL     OW34345   2.984   2.411   2.598  0.2660 -0.0640  0.2461
 7629SOL    HW134346   2.954   2.376   2.514  2.6051 -1.6012  0.0356
 7629SOL    HW234347   2.954   2.501   2.590  0.1961 -0.0775  0.3565
 7630SOL     OW34348   0.589   2.758  11.754 -0.1046  0.0836 -0.2464
 7630SOL    HW134349   0.523   2.823  11.778  0.9028  1.8667 -2.2607
 7630SOL    HW234350   0.667   2.812  11.746 -0.0741 -0.3351 -2.9110
 7631SOL     OW34351   2.265   2.710   0.191 -0.3259 -0.0593  0.3033
 7631SOL    HW134352   2.356   2.735   0.210 -0.2527  1.9682 -2.6025
 7631SOL    HW234353   2.244   2.629   0.237  1.2186 -0.5103  0.2079
 7632SOL     OW34354   0.839   2.113   4.384  0.7640  0.4443  0.2534
 7632SOL    HW134355   0.785   2.164   4.444  1.1100  0.3358  0.6519
 7632SOL    HW234356   0.925   2.132   4.422  1.2018 -0.4857 -0.2803
 7633SOL     OW34357   4.262   0.500   5.018  0.6907 -0.4555  0.6080
 7633SOL    HW134358   4.283   0.415   5.054  1.1652 -0.1335  1.0881
 7633SOL    HW234359   4.311   0.555   5.079  1.6504 -0.5350 -0.0887
 7634SOL     OW34360   2.970   2.170   7.638  0.8241 -0.1550  0.8649
 7634SOL    HW134361   2.910   2.204   7.704 -1.3432  0.4922 -1.4552
 7634SOL    HW234362   3.038   2.238   7.637 -0.1088  0.7568 -2.6739
 7635SOL     OW34363   3.127   1.208   0.676  0.2197 -0.6011  0.5301
 7635SOL    HW134364   3.133   1.199   0.581 -0.4758 -2.5042  0.6587
 7635SOL    HW234365   3.138   1.114   0.692  2.1488 -0.3992  0.3628
 7636SOL     OW34366   4.445   3.444   2.830 -0.6985 -0.5491  0.4082
 7636SOL    HW134367   4.532   3.414   2.855 -0.3504  0.3727  0.3326
 7636SOL    HW234368   4.391   3.400   2.896  0.4328 -0.6561  1.2534
 7637SOL     OW34369   0.507   2.942   8.223 -0.4449  0.3027 -0.2655
 7637SOL    HW134370   0.560   3.022   8.219 -0.7924  0.5466  0.0693
 7637SOL    HW234371   0.577   2.878   8.207 -0.3319  0.4037 -0.1708
 7638SOL     OW34372   4.278   0.857   4.316  0.0683 -0.0865  0.5716
 7638SOL    HW134373   4.243   0.874   4.403 -0.6337  1.9240 -0.0926
 7638SOL    HW234374   4.245   0.928   4.260  0.8364  0.3293  0.6447
 7639SOL     OW34375   0.735   0.127   5.578  0.2504 -0.5437  0.0353
 7639SOL    HW134376   0.740   0.078   5.496 -0.5687 -0.9868  0.2549
 7639SOL    HW234377   0.653   0.173   5.558 -1.3815 -2.5875  2.0580
 7640SOL     OW34378   1.361   3.533   5.668  0.3759  0.0642 -0.1060
 7640SOL    HW134379   1.283   3.550   5.617 -0.4477 -0.4361  0.9879
 7640SOL    HW234380   1.415   3.490   5.602  0.2508 -1.2145  0.6213
 7641SOL     OW34381   0.801   1.417   0.846 -0.1493  0.4464  0.2776
 7641SOL    HW134382   0.885   1.459   0.862  0.0660 -0.0060  0.3360
 7641SOL    HW234383   0.808   1.401   0.752 -0.8457  0.4905  0.2152
 7642SOL     OW34384   0.127   2.170  10.260  0.0161 -0.2833 -0.3844
 7642SOL    HW134385   0.042   2.198  10.295  0.4475 -0.0701  0.5150
 7642SOL    HW234386   0.173   2.160  10.344  2.4784  0.9207 -1.5790
 7643SOL     OW34387   0.364   0.948  11.391 -0.0073 -0.4145  0.1717
 7643SOL    HW134388   0.375   0.855  11.410  0.3439  0.0948  2.4615
 7643SOL    HW234389   0.314   0.956  11.310 -2.1353  2.5950  1.7715
 7644SOL     OW34390   1.956   3.189  12.875 -0.3018 -0.0567  0.0913
 7644SOL    HW134391   1.965   3.162  12.966  0.5548 -0.7844 -0.2063
 7644SOL    HW234392   1.868   3.161  12.852  0.3915 -1.6242 -0.6471
 7645SOL     OW34393   2.395   2.681   5.504 -1.0390  0.3798 -0.4923
 7645SOL    HW134394   2.385   2.615   5.435 -0.8146  0.2051 -0.3602
 7645SOL    HW234395   2.486   2.658   5.522 -1.4265 -0.3675  0.5565
 7646SOL     OW34396   3.270   4.015   2.075  0.7938  0.4062  0.3230
 7646SOL    HW134397   3.346   4.063   2.041  0.9243  0.3556  0.5471
 7646SOL    HW234398   3.246   4.069   2.150 -2.0147 -1.9390  1.1093
 7647SOL     OW34399   1.852   3.876   8.404 -0.1201 -0.7579 -0.2106
 7647SOL    HW134400   1.917   3.891   8.336 -1.4570  0.5791 -1.1941
 7647SOL    HW234401   1.839   3.781   8.403  0.6095 -0.8513 -0.5620
 7648SOL     OW34402   2.936   1.438   0.100  0.5354 -0.6160 -0.3441
 7648SOL    HW134403   2.931   1.529   0.127 -2.0556 -0.3230 -1.7802
 7648SOL    HW234404   2.884   1.439   0.019  0.0636  2.4670 -0.0039
 7649SOL     OW34405   0.743   0.442   9.950 -0.1118  0.7564 -0.1712
 7649SOL    HW134406   0.658   0.414   9.986  0.1944  0.0830  0.0294
 7649SOL    HW234407   0.800   0.396  10.011  0.3228 -0.1782 -1.2795
 7650SOL     OW34408   3.990   1.040   7.920  0.2196  0.1620  0.3559
 7650SOL    HW134409   4.023   1.018   7.832  0.3342  0.3568  0.3496
 7650SOL    HW234410   3.945   1.124   7.907 -1.2583 -0.4549  1.5866
 7651SOL     OW34411   4.549   0.722   1.920  0.1873 -0.0322 -0.0338
 7651SOL    HW134412   4.512   0.656   1.979  0.0536  1.1265  1.1776
 7651SOL    HW234413   4.555   0.807   1.963  2.9761 -1.1140  1.7555
 7652SOL     OW34414   0.427   2.027   9.990  0.3536  0.1520 -0.5776
 7652SOL    HW134415   0.397   2.007  10.078  2.3912 -0.8600 -0.1015
 7652SOL    HW234416   0.483   1.950   9.979 -0.1054 -0.0324 -1.5613
 7653SOL     OW34417   0.961   4.259   6.411  0.4032  0.1955 -0.0094
 7653SOL    HW134418   0.913   4.302   6.482  1.3272 -2.0687  1.9813
 7653SOL    HW234419   0.914   4.176   6.403 -0.5230  0.5791  1.4933
 7654SOL     OW34420   3.041   2.668   4.438 -0.3173 -0.5290 -0.5257
 7654SOL    HW134421   3.113   2.605   4.435 -0.5514 -0.8387  0.6942
 7654SOL    HW234422   2.977   2.621   4.491  2.0662 -1.9668  1.1031
 7655SOL     OW34423   4.394   2.361   2.844  0.3631  0.0580  0.4725
 7655SOL    HW134424   4.484   2.330   2.854  0.4234  0.4029  1.0261
 7655SOL    HW234425   4.349   2.281   2.818  0.9954  0.5528 -2.1264
 7656SOL     OW34426   3.238   4.700   6.494 -0.2101 -0.0924 -0.5483
 7656SOL    HW134427   3.326   4.719   6.462 -0.4733  0.4312 -0.9535
 7656SOL    HW234428   3.217   4.634   6.428  0.7512 -0.0178 -0.9338
 7657SOL     OW34429   3.909   4.539  11.841  0.1668  0.3949 -0.0437
 7657SOL    HW134430   3.951   4.489  11.771 -1.1427 -0.7750  0.0129
 7657SOL    HW234431   3.971   4.609  11.862 -1.4525  2.0977 -1.0679
 7658SOL     OW34432   0.204   0.638   6.607 -0.2626  0.0642 -0.0239
 7658SOL    HW134433   0.123   0.603   6.644  0.3001 -1.7255 -0.4986
 7658SOL    HW234434   0.266   0.591   6.662 -0.4738 -1.1782 -0.8621
 7659SOL     OW34435   3.532   0.845   3.877 -0.3663  0.1881 -0.0325
 7659SOL    HW134436   3.542   0.918   3.939 -1.2509  2.3388 -2.4143
 7659SOL    HW234437   3.599   0.787   3.913 -1.2571 -1.3876 -0.9140
 7660SOL     OW34438   1.672   0.128   2.156  1.0275 -0.6327 -0.4628
 7660SOL    HW134439   1.584   0.108   2.187  0.7462  2.7421  0.9414
 7660SOL    HW234440   1.645   0.149   2.066  0.7675  2.8725  0.4413
 7661SOL     OW34441   4.727   3.954   3.071 -0.2384  0.4811  0.3320
 7661SOL    HW134442   0.021   3.965   3.163 -0.7239  0.1131  0.4888
 7661SOL    HW234443   4.672   3.876   3.079  2.0903 -1.4076 -2.0483
 7662SOL     OW34444   4.089   2.200   3.822 -0.1137  0.2086  0.3024
 7662SOL    HW134445   4.110   2.203   3.728 -0.9756 -1.2843  0.0552
 7662SOL    HW234446   4.167   2.225   3.871  1.5479 -0.5496 -1.9364
 7663SOL     OW34447   4.442   1.251   7.435  0.1849  0.3166 -0.2383
 7663SOL    HW134448   4.438   1.156   7.439  3.5075  0.2353  0.5515
 7663SOL    HW234449   4.456   1.277   7.345 -0.2666  2.9757  0.4481
 7664SOL     OW34450   2.018   3.523   7.023  0.4358 -0.2252  0.0403
 7664SOL    HW134451   2.070   3.504   7.100 -0.9877 -0.1995  1.0120
 7664SOL    HW234452   2.016   3.443   6.970  1.2527 -0.4274  0.3165
 7665SOL     OW34453   2.369   1.570  12.783  0.3657  0.4398 -0.1173
 7665SOL    HW134454   2.397   1.580  12.692  0.9652  2.7153  0.3028
 7665SOL    HW234455   2.401   1.651  12.824 -0.3590  0.0139  1.2983
 7666SOL     OW34456   0.045   2.249   4.248  0.0183 -0.1441  0.0857
 7666SOL    HW134457   0.007   2.325   4.292 -1.5985 -0.8252 -0.1322
 7666SOL    HW234458   4.718   2.224   4.174  0.3858  0.8494 -0.5307
 7667SOL     OW34459   3.006   2.760   8.388 -0.2527 -0.7076  0.0693
 7667SOL    HW134460   2.989   2.798   8.474 -0.6661  0.4482 -0.5250
 7667SOL    HW234461   3.029   2.844   8.348  1.5884 -1.2406  0.0094
 7668SOL     OW34462   3.082   3.720   7.262 -0.1711  0.1639 -0.0418
 7668SOL    HW134463   3.087   3.803   7.311  0.8986  0.9711 -1.5266
 7668SOL    HW234464   2.993   3.737   7.230 -0.4743  0.9261  1.1999
 7669SOL     OW34465   1.628   2.997   4.832  0.1451  0.2672  0.0555
 7669SOL    HW134466   1.654   3.036   4.915 -1.7554  0.3578  0.6133
 7669SOL    HW234467   1.717   2.978   4.802 -0.2053 -1.4245  0.0682
 7670SOL     OW34468   3.613   2.879  12.177 -0.6996  0.0640 -0.4141
 7670SOL    HW134469   3.557   2.834  12.114 -0.4784 -0.1177 -0.4766
 7670SOL    HW234470   3.645   2.800  12.220  0.3556  0.5709 -0.2880
 7671SOL     OW34471   1.625   2.814   5.306  0.2432  0.0284 -0.0687
 7671SOL    HW134472   1.706   2.845   5.267 -0.1999  1.3341  0.0614
 7671SOL    HW234473   1.643   2.836   5.397  0.2043  0.6308 -0.2097
 7672SOL     OW34474   3.527   1.323   3.846  0.1840  0.6304  0.1890
 7672SOL    HW134475   3.456   1.300   3.906  0.4028 -0.7871 -0.0875
 7672SOL    HW234476   3.589   1.369   3.902 -0.2635 -1.6269  2.5470
 7673SOL     OW34477   1.082   3.744   8.378 -0.6427 -0.5892  0.4668
 7673SOL    HW134478   1.003   3.794   8.357  0.0613  0.2839 -0.1234
 7673SOL    HW234479   1.134   3.770   8.302  0.5898 -0.0672  1.4873
 7674SOL     OW34480   1.172   0.012   2.450 -0.1261  0.3365  0.3534
 7674SOL    HW134481   1.138   0.101   2.442 -0.4513  0.4052  2.5943
 7674SOL    HW234482   1.107   4.689   2.499 -0.3267  1.2184  1.0132
 7675SOL     OW34483   0.473   0.620  17.289 -0.7897  0.1883 -0.0279
 7675SOL    HW134484   0.497   0.688  17.226  2.1375 -1.2523 -0.4604
 7675SOL    HW234485   0.479   0.544  17.232  2.2501  0.6112 -0.3043
 7676SOL     OW34486   3.127   0.509   4.868  0.4221  0.2365  0.4315
 7676SOL    HW134487   3.199   0.448   4.857  1.8754  2.3083 -1.3965
 7676SOL    HW234488   3.167   0.595   4.858  0.7928 -0.2244 -1.8838
 7677SOL     OW34489   0.696   0.774   1.728  0.7489  0.2116 -0.7164
 7677SOL    HW134490   0.663   0.857   1.692 -0.5271 -1.3325 -3.1247
 7677SOL    HW234491   0.685   0.792   1.821  2.0685 -0.8912 -0.3589
 7678SOL     OW34492   0.322   0.733   3.921  0.1896  0.0489 -0.3172
 7678SOL    HW134493   0.347   0.684   3.843 -0.2850  1.3357 -1.2607
 7678SOL    HW234494   0.385   0.695   3.984 -2.2859 -0.8218  1.6399
 7679SOL     OW34495   2.028   1.364  15.680  0.2515  0.4401  0.4681
 7679SOL    HW134496   1.951   1.383  15.733 -0.6294 -1.3285 -0.1752
 7679SOL    HW234497   1.997   1.393  15.594 -0.5940  1.5374  1.1514
 7680SOL     OW34498   4.510   1.316  10.961 -0.5987 -0.3091  0.3622
 7680SOL    HW134499   4.533   1.317  11.054 -0.3954  0.5798  0.3033
 7680SOL    HW234500   4.463   1.399  10.955 -0.1029 -0.0496  0.1433
 7681SOL     OW34501   0.818   3.034   2.153  0.1010 -0.1574 -0.4367
 7681SOL    HW134502   0.819   3.044   2.058 -0.7233  1.2332 -0.3080
 7681SOL    HW234503   0.785   2.944   2.150  2.9942 -1.2227  0.1382
 7682SOL     OW34504   4.537   2.872  14.950 -0.4216 -0.5051  0.1603
 7682SOL    HW134505   4.536   2.832  15.038 -0.7619  1.1753  0.9112
 7682SOL    HW234506   4.523   2.790  14.902  0.5048 -1.1948  1.0396
 7683SOL     OW34507   2.026   3.670  15.465 -0.3029 -0.1703  0.0513
 7683SOL    HW134508   2.009   3.583  15.428  0.8695 -0.0911 -0.6731
 7683SOL    HW234509   2.089   3.653  15.535 -0.9480 -2.1310  0.1585
 7684SOL     OW34510   2.654   4.696   9.696  0.2005 -0.2510  0.3063
 7684SOL    HW134511   2.568   4.726   9.668  0.5029  1.4454  1.2434
 7684SOL    HW234512   2.685   0.054   9.724  2.6671 -1.0343  0.0106
 7685SOL     OW34513   3.783   1.777   6.629 -0.0161  0.4169  0.7553
 7685SOL    HW134514   3.739   1.848   6.676  0.4577  0.3696  1.2786
 7685SOL    HW234515   3.840   1.817   6.564  0.0466 -0.3579  0.3339
 7686SOL     OW34516   0.545   1.116   2.531  0.4151 -0.1448  0.1749
 7686SOL    HW134517   0.605   1.042   2.541  0.7135 -0.0108 -0.5825
 7686SOL    HW234518   0.516   1.139   2.619  2.7537  0.5857  0.7647
 7687SOL     OW34519   0.447   3.034   4.323 -0.4303 -0.5058 -0.0302
 7687SOL    HW134520   0.521   2.979   4.295 -1.4848 -1.6092 -0.6440
 7687SOL    HW234521   0.478   3.066   4.407  2.4336 -0.1538 -1.2064
 7688SOL     OW34522   1.888   3.267   8.270  0.0392 -0.4315  0.1759
 7688SOL    HW134523   1.880   3.359   8.244  0.8342 -0.4125  0.0060
 7688SOL    HW234524   1.824   3.229   8.209  0.8656 -0.5849 -0.6003
 7689SOL     OW34525   0.092   0.988   2.285  0.0377  0.4352 -0.3605
 7689SOL    HW134526   0.159   0.932   2.325 -1.1754 -0.0112  1.0519
 7689SOL    HW234527   0.099   1.070   2.334 -1.0932  0.7166 -0.6709
 7690SOL     OW34528   3.277   2.469   6.270 -0.3566 -0.5025 -0.1614
 7690SOL    HW134529   3.201   2.490   6.324 -0.6090  1.0155 -1.1161
 7690SOL    HW234530   3.347   2.499   6.329 -1.4331 -0.4439  1.0762
 7691SOL     OW34531   2.648   0.278   5.893  0.1173  0.3447 -0.1514
 7691SOL    HW134532   2.627   0.188   5.916  0.3654  0.5254  0.7693
 7691SOL    HW234533   2.702   0.313   5.964  0.4218  3.7703 -2.0595
 7692SOL     OW34534   1.585   1.732   1.223 -0.0475  0.4154  0.6532
 7692SOL    HW134535   1.601   1.718   1.130 -0.1485  1.2571  0.5083
 7692SOL    HW234536   1.636   1.663   1.265 -0.4519 -0.4200 -0.2099
 7693SOL     OW34537   4.612   4.453   9.331  0.0234  0.1324  0.3725
 7693SOL    HW134538   4.586   4.366   9.361 -1.7786  0.5809  0.1444
 7693SOL    HW234539   4.576   4.503   9.405  1.4825  0.6163  0.7565
 7694SOL     OW34540   1.095   4.258   9.735 -0.1398  0.2158 -0.5376
 7694SOL    HW134541   1.082   4.192   9.667  0.6913 -0.7333  0.2095
 7694SOL    HW234542   1.180   4.301   9.725  0.1460 -0.0057  0.9592
 7695SOL     OW34543   3.710   3.140  10.372  0.5498  0.0057 -0.1240
 7695SOL    HW134544   3.778   3.203  10.397 -1.0866  1.7517 -0.1317
 7695SOL    HW234545   3.640   3.193  10.336  1.4038  1.6572  0.6753
 7696SOL     OW34546   0.056   2.852   8.348 -0.0250  0.1787 -0.1120
 7696SOL    HW134547   0.045   2.893   8.433  1.1015  1.2956 -0.5029
 7696SOL    HW234548   0.117   2.915   8.310  0.6622 -0.3574  0.0999
 7697SOL     OW34549   1.752   4.609   6.721  0.3561 -0.1638 -0.0224
 7697SOL    HW134550   1.836   4.567   6.705  0.2793 -0.8246  1.3971
 7697SOL    HW234551   1.760   4.690   6.670  0.9307 -0.4064 -0.3165
 7698SOL     OW34552   3.948   4.275   5.912  0.0522 -0.2537 -0.0489
 7698SOL    HW134553   3.942   4.346   5.976  0.3079 -0.2698 -0.0067
 7698SOL    HW234554   3.980   4.202   5.965  1.4802 -0.1002 -0.6781
 7699SOL     OW34555   0.297   4.153   1.561  0.4795 -0.2325 -0.3771
 7699SOL    HW134556   0.338   4.199   1.488  0.6426 -0.3217 -0.3403
 7699SOL    HW234557   0.279   4.075   1.509 -0.7064  0.0073 -0.3248
 7700SOL     OW34558   0.932   4.284   5.157  0.1864 -0.6322  0.1189
 7700SOL    HW134559   0.992   4.234   5.102 -3.0203 -4.7508  0.3470
 7700SOL    HW234560   0.918   4.360   5.101  3.1633  0.1233  0.3896
 7701SOL     OW34561   2.970   2.809   4.789 -0.1861  0.1354 -1.0184
 7701SOL    HW134562   3.037   2.876   4.803 -1.1169  1.1084 -1.2106
 7701SOL    HW234563   2.949   2.836   4.700  0.4637  1.5131 -0.7498
 7702SOL     OW34564   4.244   3.499  13.930 -0.2303  0.4017 -0.6867
 7702SOL    HW134565   4.192   3.421  13.908  0.6448 -0.3725 -0.0210
 7702SOL    HW234566   4.289   3.467  14.008 -0.4839 -0.3763 -0.8534
 7703SOL     OW34567   0.497   2.700  15.821  0.4556  0.3603 -0.7709
 7703SOL    HW134568   0.532   2.726  15.736 -0.3622  2.4767 -0.4513
 7703SOL    HW234569   0.406   2.682  15.795  1.1167 -0.6423 -2.3447
 7704SOL     OW34570   2.954   4.088   3.543 -0.5371 -0.8404 -0.5614
 7704SOL    HW134571   2.916   4.061   3.626  0.8691  0.0598  0.3756
 7704SOL    HW234572   3.043   4.055   3.551 -1.1994 -2.2987  0.6684
 7705SOL     OW34573   1.362   2.122   6.971  0.2004  0.5688  0.2147
 7705SOL    HW134574   1.297   2.084   7.032  1.0445 -1.2778 -0.0388
 7705SOL    HW234575   1.421   2.164   7.034  0.2107  0.6699  0.1360
 7706SOL     OW34576   4.517   0.246   7.224 -0.1600  0.4154  0.1257
 7706SOL    HW134577   4.567   0.170   7.193  0.3705  0.2101  1.5050
 7706SOL    HW234578   4.488   0.273   7.136  0.6516 -1.9345 -0.8764
 7707SOL     OW34579   0.929   2.322   4.865  0.3601 -0.1764  0.2686
 7707SOL    HW134580   0.988   2.251   4.842 -0.3720 -1.6696  2.9536
 7707SOL    HW234581   0.983   2.368   4.929 -0.0076  0.3266  0.2275
 7708SOL     OW34582   1.451   2.251   7.703  0.3699  0.8968  0.0433
 7708SOL    HW134583   1.467   2.238   7.797 -0.0805  2.7601  0.3887
 7708SOL    HW234584   1.438   2.159   7.683  0.3108  0.7967  0.5435
 7709SOL     OW34585   4.127   2.687  11.486  0.2408  0.1165  0.1129
 7709SOL    HW134586   4.189   2.628  11.531  1.0496  1.0534  0.2328
 7709SOL    HW234587   4.167   2.773  11.501 -0.6139  0.0025  3.1194
 7710SOL     OW34588   1.748   3.563   0.299  0.0592 -0.3437 -0.3185
 7710SOL    HW134589   1.773   3.487   0.352  1.6234  0.2792 -0.1768
 7710SOL    HW234590   1.730   3.626   0.369 -0.9258  0.6980 -1.5142
 7711SOL     OW34591   0.039   1.736   3.944  0.1178 -0.3038  0.1569
 7711SOL    HW134592   0.076   1.655   3.910 -0.2381 -0.1057 -0.7275
 7711SOL    HW234593   0.100   1.802   3.911  0.9608 -0.4236  1.5003
 7712SOL     OW34594   4.245   4.555   3.637 -1.0582 -0.6281  0.0123
 7712SOL    HW134595   4.298   4.556   3.558  0.9726 -1.5984  1.3740
 7712SOL    HW234596   4.297   4.496   3.691 -0.5318 -1.6513 -1.6362
 7713SOL     OW34597   4.060   3.444   8.719 -0.1590 -0.0819  0.3038
 7713SOL    HW134598   4.133   3.403   8.765  0.3065  1.2138  0.7049
 7713SOL    HW234599   4.003   3.463   8.793  0.1167 -0.4570  0.6070
 7714SOL     OW34600   3.882   0.229   5.993 -0.4632  0.4170 -0.2844
 7714SOL    HW134601   3.834   0.151   6.019 -0.6217  0.8024  0.5767
 7714SOL    HW234602   3.824   0.296   6.030  0.8161  1.2244  0.2651
 7715SOL     OW34603   1.756   0.129   8.418 -0.2996  0.5266 -0.0091
 7715SOL    HW134604   1.711   0.076   8.352 -0.1197 -0.7139  0.8577
 7715SOL    HW234605   1.804   0.193   8.366  0.2492 -0.6548 -0.9593
 7716SOL     OW34606   3.397   2.377   9.642  0.9411  0.4589  0.6813
 7716SOL    HW134607   3.428   2.287   9.646  0.7935  0.2615 -2.3415
 7716SOL    HW234608   3.328   2.366   9.576  0.6277  0.1879  1.0538
 7717SOL     OW34609   3.591   3.644   5.109  0.1777 -0.0688 -0.4899
 7717SOL    HW134610   3.499   3.668   5.099  0.1431  0.3024  0.7223
 7717SOL    HW234611   3.587   3.575   5.043 -1.1088  0.1818 -0.6650
 7718SOL     OW34612   4.281   3.627  10.512  0.0294 -1.0301  0.5867
 7718SOL    HW134613   4.354   3.671  10.469 -0.4043  1.3211  2.2663
 7718SOL    HW234614   4.248   3.693  10.573 -0.1111 -1.2028  0.6962
 7719SOL     OW34615   3.843   3.330   0.229  0.0888 -0.4420  0.7954
 7719SOL    HW134616   3.897   3.377   0.166  0.4734  0.2176  1.6173
 7719SOL    HW234617   3.880   3.351   0.315  1.2932  0.0307  0.1567
 7720SOL     OW34618   1.057   1.511   1.519 -0.0868 -0.2865  0.0385
 7720SOL    HW134619   1.135   1.457   1.522  1.7624  2.3048 -1.5175
 7720SOL    HW234620   1.011   1.467   1.447  0.3844  0.9386 -1.0210
 7721SOL     OW34621   3.501   3.399   3.837  0.4626 -0.1517 -0.6490
 7721SOL    HW134622   3.424   3.455   3.847  0.3582 -0.1656 -1.3996
 7721SOL    HW234623   3.474   3.348   3.761  0.4171 -1.0619 -0.0265
 7722SOL     OW34624   2.564   2.845   6.211  0.3784  0.4703 -0.2885
 7722SOL    HW134625   2.595   2.936   6.211  2.3912 -0.2245 -0.3808
 7722SOL    HW234626   2.478   2.855   6.251 -0.5566  1.6157 -2.5571
 7723SOL     OW34627   3.150   3.565  14.959  1.0348 -0.3587 -0.2245
 7723SOL    HW134628   3.207   3.491  14.939 -0.4073 -1.6479  0.4765
 7723SOL    HW234629   3.148   3.554  15.054 -2.2162  1.8790 -0.0308
 7724SOL     OW34630   2.215   0.597   4.297  0.1364 -0.1627 -0.1505
 7724SOL    HW134631   2.250   0.525   4.244  1.5069  0.1307  0.3653
 7724SOL    HW234632   2.287   0.660   4.301 -0.0034 -0.0388  0.3742
 7725SOL     OW34633   4.224   0.851   2.534 -0.4669 -0.4521  0.7209
 7725SOL    HW134634   4.303   0.866   2.585 -0.3962  1.6929  0.0051
 7725SOL    HW234635   4.245   0.785   2.468 -1.2825 -0.4115  0.4145
 7726SOL     OW34636   1.620   2.537  10.444 -0.3018 -0.1978 -0.1202
 7726SOL    HW134637   1.624   2.547  10.540  1.9182  1.3639 -0.3776
 7726SOL    HW234638   1.550   2.472  10.433 -0.5449 -0.1043  0.8152
 7727SOL     OW34639   0.324   4.217   2.462  0.2217  0.1445 -0.2485
 7727SOL    HW134640   0.343   4.223   2.555  1.6005 -1.8106 -0.4023
 7727SOL    HW234641   0.321   4.122   2.448 -0.8764  0.3096 -1.1477
 7728SOL     OW34642   0.359   2.031  16.070  0.1261 -0.1031 -0.4071
 7728SOL    HW134643   0.370   2.124  16.092 -0.2247 -0.1421 -0.0749
 7728SOL    HW234644   0.284   2.019  16.013 -1.0343  3.0067  0.4533
 7729SOL     OW34645   4.275   0.789   9.372 -0.1508  0.0181  0.1608
 7729SOL    HW134646   4.202   0.805   9.432 -0.0270 -1.5707  0.7345
 7729SOL    HW234647   4.279   0.881   9.346 -1.7784 -0.1689 -0.8089
 7730SOL     OW34648   2.868   0.574  13.955 -0.1900 -0.0778  0.2082
 7730SOL    HW134649   2.949   0.604  13.997  0.5524 -2.2448  0.3071
 7730SOL    HW234650   2.882   0.607  13.866  0.1858 -0.1181  0.2511
 7731SOL     OW34651   4.701   0.391   1.316 -0.3597  0.4410  0.0537
 7731SOL    HW134652   4.691   0.305   1.275 -2.3934  0.2271  1.0377
 7731SOL    HW234653   0.063   0.403   1.286 -0.0356  1.1538  1.3141
 7732SOL     OW34654   4.448   3.897   0.900 -0.1966 -0.5301  0.4371
 7732SOL    HW134655   4.359   3.928   0.914 -0.0518  0.2120 -0.3478
 7732SOL    HW234656   4.510   3.958   0.939  1.0973 -2.7617  1.9000
 7733SOL     OW34657   0.641   1.785   5.392 -0.0445  0.0121  0.0706
 7733SOL    HW134658   0.692   1.754   5.467  1.5100 -1.0452 -1.4358
 7733SOL    HW234659   0.608   1.701   5.361 -0.4333  1.2890 -2.9172
 7734SOL     OW34660   2.252   4.413   6.959  0.2840 -0.0826 -0.0369
 7734SOL    HW134661   2.240   4.463   6.878 -0.5675  2.1948  1.4907
 7734SOL    HW234662   2.181   4.350   6.948  0.0915  0.3029 -1.0100
 7735SOL     OW34663   1.002   3.056   7.790  0.1072  0.7029 -0.1032
 7735SOL    HW134664   1.006   3.121   7.860  0.2887 -2.1595  2.5239
 7735SOL    HW234665   1.032   3.111   7.718  1.8730 -0.3905 -0.2127
 7736SOL     OW34666   2.835   2.865  10.896 -0.2629  0.0843 -0.0527
 7736SOL    HW134667   2.878   2.852  10.812 -3.6936 -2.7195 -1.3615
 7736SOL    HW234668   2.863   2.956  10.911  1.2777 -0.6807  1.7491
 7737SOL     OW34669   0.929   4.694   0.334 -0.4545 -0.0016 -0.2286
 7737SOL    HW134670   0.845   4.714   0.374  0.3660  0.6369  1.1492
 7737SOL    HW234671   0.940   0.053   0.295  1.6973 -0.4720 -0.6824
 7738SOL     OW34672   2.065   2.444  15.171  0.7332  0.4707 -0.1693
 7738SOL    HW134673   2.050   2.492  15.253 -4.1581  1.5396 -1.7018
 7738SOL    HW234674   2.159   2.463  15.171  0.9509 -0.6087  1.2611
 7739SOL     OW34675   4.403   0.082   3.331 -0.2130 -0.1109 -0.1509
 7739SOL    HW134676   4.384   0.052   3.242 -0.1867  0.4763 -0.3541
 7739SOL    HW234677   4.412   0.177   3.322 -1.3077 -0.0463 -0.5621
 7740SOL     OW34678   2.904   0.268   4.065  0.4013  0.2848 -0.1730
 7740SOL    HW134679   2.820   0.258   4.020 -0.6705  2.5173  1.3074
 7740SOL    HW234680   2.892   0.186   4.112 -1.6485  1.0333  0.5955
 7741SOL     OW34681   2.906   3.580   6.833 -0.5712 -0.1561 -0.2579
 7741SOL    HW134682   2.934   3.583   6.924 -0.5743 -0.0680 -0.2600
 7741SOL    HW234683   2.813   3.582   6.854 -0.0991 -1.1439  1.8952
 7742SOL     OW34684   1.925   0.340   9.302 -0.3597 -0.1614  0.1916
 7742SOL    HW134685   2.008   0.366   9.342  0.1705 -0.3247 -0.8097
 7742SOL    HW234686   1.954   0.348   9.211 -1.5004  2.4343  0.0411
 7743SOL     OW34687   3.202   2.959   4.008 -0.7926  0.6007  0.2079
 7743SOL    HW134688   3.165   2.878   4.042  0.4593 -0.1275 -0.1617
 7743SOL    HW234689   3.118   2.993   3.979 -0.8479 -0.3804 -0.7812
 7744SOL     OW34690   4.479   3.317   4.651 -0.4674 -0.1185  0.2316
 7744SOL    HW134691   4.485   3.271   4.568 -1.6927 -0.1408  0.1560
 7744SOL    HW234692   4.482   3.406   4.617  1.7429  0.0898  1.0260
 7745SOL     OW34693   0.396   0.123   0.249  0.4455 -0.0479  0.0680
 7745SOL    HW134694   0.365   0.039   0.214  0.7074  0.6269 -1.8339
 7745SOL    HW234695   0.436   0.090   0.328  1.9089 -0.5668 -0.8914
 7746SOL     OW34696   2.883   3.472  10.512 -0.1734  0.1513 -0.4493
 7746SOL    HW134697   2.915   3.411  10.446 -1.1599  0.1021 -0.8703
 7746SOL    HW234698   2.890   3.557  10.468  2.3049  0.6012  0.7786
 7747SOL     OW34699   2.538   2.852   9.205  0.7088 -0.2635  0.1373
 7747SOL    HW134700   2.610   2.806   9.162 -0.3212 -1.0612 -0.7484
 7747SOL    HW234701   2.471   2.847   9.137  0.6468  1.1214  0.0966
 7748SOL     OW34702   0.951   0.048   4.671 -0.9250 -0.0749 -0.7291
 7748SOL    HW134703   1.033   0.095   4.691 -1.3664  0.2819  0.2581
 7748SOL    HW234704   0.902   0.123   4.638 -1.4092 -0.4171 -0.7718
 7749SOL     OW34705   3.287   0.903  12.147  0.3167  0.0203 -0.0268
 7749SOL    HW134706   3.347   0.935  12.214  2.1889  0.1058 -1.7126
 7749SOL    HW234707   3.208   0.922  12.197 -0.9108 -1.6693 -1.3209
 7750SOL     OW34708   2.222   4.477   6.220  0.8656 -0.2529 -0.2114
 7750SOL    HW134709   2.179   4.553   6.179  1.1886  0.2154  0.3234
 7750SOL    HW234710   2.303   4.463   6.171  1.1477  1.7504 -0.3182
 7751SOL     OW34711   3.727   2.870   3.919  0.7950  0.1446  0.0139
 7751SOL    HW134712   3.751   2.959   3.893  0.4606  0.3088  0.2611
 7751SOL    HW234713   3.724   2.821   3.836 -0.5070  1.4853 -0.7232
 7752SOL     OW34714   0.054   3.692  13.545 -0.0601 -0.2309  0.7554
 7752SOL    HW134715   0.057   3.679  13.639  1.8424  2.3344  1.0394
 7752SOL    HW234716   0.064   3.787  13.550  1.0928 -0.3482  0.6779
 7753SOL     OW34717   4.090   1.131   9.588 -0.2013  0.3887  0.3006
 7753SOL    HW134718   4.038   1.172   9.519  0.5715  0.5102 -0.2121
 7753SOL    HW234719   4.071   1.200   9.652 -2.3040  0.4276 -0.3495
 7754SOL     OW34720   0.692   2.294  12.918 -0.0983  0.1514  0.0225
 7754SOL    HW134721   0.756   2.229  12.888  1.2250  1.1545  0.6517
 7754SOL    HW234722   0.718   2.307  13.010  0.2921  0.0004 -0.0643
 7755SOL     OW34723   3.703   4.298   6.295  0.1369  0.0048  0.1261
 7755SOL    HW134724   3.732   4.237   6.363 -1.4566  0.4431  1.1995
 7755SOL    HW234725   3.723   4.244   6.219  0.3496  0.0365  0.1589
 7756SOL     OW34726   0.048   4.023  15.470 -0.3071 -0.1407  0.2678
 7756SOL    HW134727   0.127   3.978  15.439 -1.5890 -1.4236 -1.1352
 7756SOL    HW234728   4.717   3.995  15.400  0.0099 -1.1968  0.4172
 7757SOL     OW34729   1.078   1.494   0.872  0.0493  0.0917  0.0946
 7757SOL    HW134730   1.146   1.554   0.902 -0.0755 -0.2904  1.1224
 7757SOL    HW234731   1.119   1.446   0.799 -0.7004 -3.6122  2.1120
 7758SOL     OW34732   3.575   3.781  17.174  0.2164  0.4955 -0.0681
 7758SOL    HW134733   3.659   3.740  17.193 -0.6033 -0.7588  0.8116
 7758SOL    HW234734   3.536   3.790  17.262 -0.7710  0.6932 -0.5252
 7759SOL     OW34735   0.097   3.113   4.059 -0.1515  0.5268  0.3030
 7759SOL    HW134736   0.082   3.207   4.069 -1.4843  0.6705 -2.8286
 7759SOL    HW234737   0.008   3.077   4.050  0.2663 -0.4212  0.0143
 7760SOL     OW34738   1.119   2.518   3.135 -0.4596 -0.9756  0.4968
 7760SOL    HW134739   1.190   2.455   3.149  0.9315  0.1117 -1.6351
 7760SOL    HW234740   1.146   2.591   3.191 -2.6910 -0.6083  1.1035
 7761SOL     OW34741   4.097   1.546   9.501 -0.3592  0.4472  0.1074
 7761SOL    HW134742   4.154   1.501   9.439 -1.7910  0.8257 -1.4691
 7761SOL    HW234743   4.149   1.612   9.547 -0.2192 -0.3003  1.0358
 7762SOL     OW34744   0.429   3.351   6.530  0.0955 -0.7177 -0.2733
 7762SOL    HW134745   0.520   3.343   6.502 -0.5945 -1.0690 -2.4205
 7762SOL    HW234746   0.396   3.420   6.473 -2.1403  1.4956  3.7257
 7763SOL     OW34747   2.515   4.245   5.856  0.1001  0.1686 -0.1111
 7763SOL    HW134748   2.593   4.245   5.801  2.1306 -0.0174  2.7177
 7763SOL    HW234749   2.515   4.155   5.890 -1.7860 -0.6244 -2.2822
 7764SOL     OW34750   0.473   1.151   4.196  0.3539  0.0647  0.0767
 7764SOL    HW134751   0.449   1.240   4.221 -2.1464 -0.4443 -0.5102
 7764SOL    HW234752   0.480   1.170   4.103 -1.7456 -0.4497 -0.1856
 7765SOL     OW34753   0.373   3.223   3.054  0.6471 -0.0875  0.7098
 7765SOL    HW134754   0.365   3.232   2.959 -0.0009 -0.5805  0.7164
 7765SOL    HW234755   0.423   3.302   3.076  2.9567 -1.5227  0.6438
 7766SOL     OW34756   2.301   0.557   8.777  0.5112  0.1492 -0.9252
 7766SOL    HW134757   2.395   0.573   8.775  0.5793 -0.1860 -0.3015
 7766SOL    HW234758   2.294   0.463   8.765  1.8730  0.1088 -1.4398
 7767SOL     OW34759   2.369   0.636  11.019 -0.0702  0.3700 -0.1379
 7767SOL    HW134760   2.381   0.584  11.098 -0.4055  2.9422  1.6094
 7767SOL    HW234761   2.393   0.574  10.950  1.1587 -1.1071  1.6209
 7768SOL     OW34762   1.922   0.468  11.388 -0.3289 -0.5227  0.5784
 7768SOL    HW134763   1.837   0.447  11.428 -1.2390  1.5342 -0.2894
 7768SOL    HW234764   1.977   0.453  11.465 -0.9451  0.0757  1.1436
 7769SOL     OW34765   3.396   4.436   3.925 -0.0383 -0.9424 -0.3210
 7769SOL    HW134766   3.415   4.455   3.833  0.0709  2.1738  0.3448
 7769SOL    HW234767   3.412   4.345   3.949  1.4959 -0.2814  1.1698
 7770SOL     OW34768   3.428   0.563   2.482 -0.2029  0.7632 -0.4556
 7770SOL    HW134769   3.341   0.551   2.443 -1.2624  0.6471  1.9057
 7770SOL    HW234770   3.426   0.658   2.479  0.4179  0.8255  1.0940
 7771SOL     OW34771   2.173   2.253   2.762 -0.3079 -0.1843  0.4459
 7771SOL    HW134772   2.104   2.235   2.698  0.2138  2.4609 -0.8707
 7771SOL    HW234773   2.124   2.246   2.844  1.6656 -0.5012  1.5965
 7772SOL     OW34774   4.592   2.678   1.991 -0.0170  0.2053  0.1751
 7772SOL    HW134775   4.671   2.731   1.978  0.2440  0.0968  1.3619
 7772SOL    HW234776   4.526   2.737   1.954  0.9174 -0.2013 -2.1820
 7773SOL     OW34777   2.134   4.120  10.961  0.3454  0.0856  0.3262
 7773SOL    HW134778   2.202   4.186  10.952  1.0196 -0.3163  2.5957
 7773SOL    HW234779   2.182   4.054  11.012  0.7770 -0.4405 -0.7571
 7774SOL     OW34780   4.303   3.002   8.215  0.0127 -0.1961  0.0681
 7774SOL    HW134781   4.240   2.978   8.147 -0.7177 -1.7731  1.3132
 7774SOL    HW234782   4.367   3.046   8.159 -0.0067  0.0523  0.2398
 7775SOL     OW34783   3.222   1.159  11.678 -0.1621 -0.1566  0.1530
 7775SOL    HW134784   3.250   1.116  11.759  0.5286  1.1680  0.6031
 7775SOL    HW234785   3.256   1.247  11.694  0.5809 -0.6667  1.3967
 7776SOL     OW34786   1.631   0.364  17.029 -0.1901  0.1586  0.0065
 7776SOL    HW134787   1.639   0.275  17.064  0.2401 -0.2057 -1.0145
 7776SOL    HW234788   1.698   0.367  16.961  0.6734  0.0039  0.8502
 7777SOL     OW34789   1.868   4.238   6.994  0.0502 -0.1635 -0.0485
 7777SOL    HW134790   1.881   4.211   7.085 -0.8527  1.1932  0.4879
 7777SOL    HW234791   1.952   4.211   6.957 -1.0362 -2.0140 -1.1463
 7778SOL     OW34792   3.538   2.507  13.455 -0.3435 -0.4748 -0.2090
 7778SOL    HW134793   3.449   2.504  13.490 -0.0295  0.3095  0.6561
 7778SOL    HW234794   3.553   2.599  13.478  0.0552 -0.3196 -1.0893
 7779SOL     OW34795   3.909   1.685   3.184 -0.1722 -0.0196  0.3563
 7779SOL    HW134796   3.933   1.759   3.128 -0.0789 -0.7391 -0.5582
 7779SOL    HW234797   3.994   1.677   3.226 -0.7061  0.4985  1.5184
 7780SOL     OW34798   4.614   0.590   7.809 -0.3283  0.2693 -0.2610
 7780SOL    HW134799   4.613   0.496   7.791 -2.2489  0.1597  0.4775
 7780SOL    HW234800   4.548   0.600   7.878  1.4838  1.2755  1.3396
 7781SOL     OW34801   4.195   0.126   1.671 -0.1788  0.3288 -0.5466
 7781SOL    HW134802   4.107   0.157   1.649 -1.2900 -2.3302  0.1590
 7781SOL    HW234803   4.200   0.123   1.767 -1.4821  1.1866 -0.4496
 7782SOL     OW34804   1.312   3.892   4.092  0.5430 -0.6791 -0.0644
 7782SOL    HW134805   1.229   3.844   4.093 -0.0744  0.3389 -2.2297
 7782SOL    HW234806   1.312   3.948   4.170  1.9946 -0.1967 -0.3974
 7783SOL     OW34807   2.121   3.482   4.291  0.1288  0.6250 -0.1904
 7783SOL    HW134808   2.132   3.394   4.254  0.0060  1.0876 -1.3182
 7783SOL    HW234809   2.071   3.522   4.220 -2.4613 -1.0282  0.7009
 7784SOL     OW34810   2.494   2.561  15.793 -0.4082  0.3515  0.2041
 7784SOL    HW134811   2.431   2.598  15.856 -0.1231  0.5343  0.3787
 7784SOL    HW234812   2.542   2.638  15.765 -3.0159  2.0200  0.2779
 7785SOL     OW34813   1.694   4.563   0.296 -0.4732  0.4798  0.0164
 7785SOL    HW134814   1.695   4.523   0.383 -1.4970 -2.0771 -1.1278
 7785SOL    HW234815   1.748   4.641   0.307  1.6381 -1.4020  3.0312
 7786SOL     OW34816   3.860   0.188   9.674 -0.0969  0.3566  0.1173
 7786SOL    HW134817   3.931   0.249   9.693  0.6204 -0.5767  0.4322
 7786SOL    HW234818   3.895   0.140   9.599  0.7979  1.2907 -0.0581
 7787SOL     OW34819   1.545   4.675   3.527 -0.7708  0.0219 -0.2592
 7787SOL    HW134820   1.539   4.602   3.588  0.6971  1.1256  1.1837
 7787SOL    HW234821   1.562   4.626   3.446  0.4183  0.5942 -0.3544
 7788SOL     OW34822   0.881   4.149   2.281  0.2103  0.4100 -0.3412
 7788SOL    HW134823   0.829   4.222   2.313  1.2035  0.0425  2.1111
 7788SOL    HW234824   0.878   4.167   2.187 -0.2559 -0.3290 -0.4666
 7789SOL     OW34825   2.260   0.832   5.003 -0.7347  0.0182  1.1454
 7789SOL    HW134826   2.224   0.748   4.974 -2.0639  0.3336  1.8968
 7789SOL    HW234827   2.182   0.869   5.043 -0.1012  3.3311 -0.7009
 7790SOL     OW34828   2.682   3.988   9.232 -0.7157 -0.8087 -0.6507
 7790SOL    HW134829   2.653   3.906   9.272  1.9125 -2.1469 -1.4873
 7790SOL    HW234830   2.772   3.972   9.204 -1.2018 -1.2818 -1.9757
 7791SOL     OW34831   0.875   0.527  13.744  0.0402 -0.0985 -0.2482
 7791SOL    HW134832   0.913   0.476  13.673 -0.5182  1.2043 -1.4948
 7791SOL    HW234833   0.781   0.511  13.734 -0.0941 -0.4103  1.5969
 7792SOL     OW34834   1.799   2.139   2.966 -0.0274 -0.2219 -0.1177
 7792SOL    HW134835   1.828   2.069   2.907  0.2143 -0.2071 -0.0150
 7792SOL    HW234836   1.770   2.211   2.910 -1.8797 -1.5797 -0.8874
 7793SOL     OW34837   1.620   1.693   0.965 -0.5967  0.3383 -0.0770
 7793SOL    HW134838   1.585   1.644   0.891  2.1660 -0.4478 -0.8731
 7793SOL    HW234839   1.676   1.763   0.931  0.8429 -0.4996  0.5867
 7794SOL     OW34840   0.792   1.026   2.007 -0.1006 -0.3149 -0.5786
 7794SOL    HW134841   0.872   1.018   1.955 -0.1009 -1.7254 -0.3409
 7794SOL    HW234842   0.764   0.935   2.015  0.9566 -0.5913 -0.0173
 7795SOL     OW34843   2.989   0.555   8.021 -0.3280 -0.0633 -0.2459
 7795SOL    HW134844   3.048   0.621   7.986  0.4623  0.0940  1.3744
 7795SOL    HW234845   3.024   0.543   8.109 -1.8706  1.3057  0.5637
 7796SOL     OW34846   4.257   0.972  10.601  0.3955 -0.4104  0.0513
 7796SOL    HW134847   4.287   1.017  10.681 -0.8802 -1.6729  1.2507
 7796SOL    HW234848   4.345   0.958  10.565  0.9042 -0.2468  1.2243
 7797SOL     OW34849   0.624   3.818  16.677 -0.3223 -0.1247 -0.0317
 7797SOL    HW134850   0.555   3.792  16.738  0.6400  0.1691  1.1743
 7797SOL    HW234851   0.618   3.744  16.615  0.7835 -1.4401  1.4345
 7798SOL     OW34852   2.797   0.202   9.437 -0.6026  0.0949  0.1083
 7798SOL    HW134853   2.864   0.264   9.464 -3.0324  2.0435  1.6376
 7798SOL    HW234854   2.745   0.239   9.366 -0.5788 -1.7231 -0.8602
 7799SOL     OW34855   4.624   4.561  13.042 -0.1919  0.3276  0.4632
 7799SOL    HW134856   4.602   4.468  13.037 -1.2572  0.8036 -3.6568
 7799SOL    HW234857   4.540   4.590  13.076  0.3464  0.8383  1.3488
 7800SOL     OW34858   3.653   0.198   8.923 -0.5555 -0.0269 -0.0782
 7800SOL    HW134859   3.697   0.118   8.952 -1.6636 -0.1432  1.2586
 7800SOL    HW234860   3.575   0.188   8.977 -0.5742 -1.2386 -0.3321
 7801SOL     OW34861   0.160   4.713   4.475  0.3244  0.3292 -0.0288
 7801SOL    HW134862   0.138   0.077   4.495  1.7246  0.4586  1.0064
 7801SOL    HW234863   0.074   4.692   4.439  0.2890 -2.4665  1.6866
 7802SOL     OW34864   4.345   2.236  10.168 -0.4072 -0.6704  0.4480
 7802SOL    HW134865   4.432   2.256  10.134 -1.2513  1.5453 -0.4330
 7802SOL    HW234866   4.302   2.312  10.128  0.0173 -0.5282  0.2589
 7803SOL     OW34867   2.534   4.724   4.567 -0.2375  0.1438 -0.0824
 7803SOL    HW134868   2.620   0.038   4.570 -0.9298  1.4095  2.1957
 7803SOL    HW234869   2.488   0.056   4.509 -1.2672 -1.0297 -0.4908
 7804SOL     OW34870   0.245   2.820   4.421  0.3575  0.1359 -0.1822
 7804SOL    HW134871   0.219   2.912   4.414 -0.4318 -0.0997 -0.2815
 7804SOL    HW234872   0.217   2.790   4.335 -2.1216  0.6830  0.4192
 7805SOL     OW34873   0.975   3.149   9.132  0.0059 -0.0060 -0.3432
 7805SOL    HW134874   1.061   3.183   9.107 -0.1881  1.4464  0.9086
 7805SOL    HW234875   0.965   3.080   9.068 -0.1186  0.0681 -0.4034
 7806SOL     OW34876   1.608   1.407   7.172 -0.1493 -0.2237  0.0994
 7806SOL    HW134877   1.552   1.329   7.164  1.3649 -1.0386 -2.7387
 7806SOL    HW234878   1.572   1.458   7.244 -1.6284 -0.1672 -0.6753
 7807SOL     OW34879   3.788   2.944  13.186 -0.4162 -0.6414  0.3865
 7807SOL    HW134880   3.768   2.909  13.099  1.1706 -1.7980  0.4997
 7807SOL    HW234881   3.803   2.864  13.235  1.1057 -0.0177  0.9170
 7808SOL     OW34882   3.826   4.147  12.776  0.5582 -0.2400 -0.5842
 7808SOL    HW134883   3.869   4.169  12.693  1.7460 -1.2945 -0.2542
 7808SOL    HW234884   3.747   4.201  12.767  0.3474 -0.5601 -0.6427
 7809SOL     OW34885   3.237   3.123   8.106  0.0698 -0.1752  0.3981
 7809SOL    HW134886   3.159   3.091   8.152 -0.3060 -1.4089 -1.0540
 7809SOL    HW234887   3.204   3.119   8.015  1.9291 -1.2053 -0.2193
 7810SOL     OW34888   1.668   3.880   6.855 -0.0037  0.2816 -0.1645
 7810SOL    HW134889   1.603   3.823   6.813 -0.3707  0.6408 -0.0766
 7810SOL    HW234890   1.688   3.817   6.925  0.9659  2.1512  1.2520
 7811SOL     OW34891   3.747   4.522   4.309 -0.3977  0.0732 -0.3229
 7811SOL    HW134892   3.700   4.506   4.227 -1.0724  1.4024 -0.2037
 7811SOL    HW234893   3.838   4.515   4.281 -0.3450 -0.5627  0.0259
 7812SOL     OW34894   0.435   2.800  11.143  0.3918  0.1010 -0.1059
 7812SOL    HW134895   0.382   2.865  11.189  0.5086 -2.0657  3.1237
 7812SOL    HW234896   0.506   2.852  11.106  0.3233 -0.7936 -1.5112
 7813SOL     OW34897   4.324   3.660   3.266  0.2235 -0.0627  0.3932
 7813SOL    HW134898   4.273   3.679   3.345  0.7721  0.3065  0.6581
 7813SOL    HW234899   4.399   3.611   3.298  0.3136 -0.2706 -0.1514
 7814SOL     OW34900   4.073   1.476   6.285 -0.2430 -0.3807  0.5969
 7814SOL    HW134901   4.089   1.398   6.337  0.3489 -0.4661  0.2888
 7814SOL    HW234902   4.046   1.541   6.351 -1.1290 -0.1915  0.0365
 7815SOL     OW34903   2.599   1.252   2.248  0.0378  0.2940  0.1653
 7815SOL    HW134904   2.624   1.185   2.312  0.6262  1.3745  1.0600
 7815SOL    HW234905   2.674   1.261   2.189 -0.0853  0.3846  0.0233
 7816SOL     OW34906   0.698   1.524   6.502 -0.0222  0.3768  0.1190
 7816SOL    HW134907   0.617   1.484   6.471 -0.4384  1.5411 -0.3093
 7816SOL    HW234908   0.707   1.464   6.576 -2.1721 -1.9016 -1.4969
 7817SOL     OW34909   1.895   2.744   2.151 -0.4820 -0.0094 -0.7576
 7817SOL    HW134910   1.911   2.838   2.152 -1.4427  0.1481 -0.4381
 7817SOL    HW234911   1.808   2.734   2.112 -0.9435 -0.5244  0.3962
 7818SOL     OW34912   0.344   2.706  14.713 -0.3829 -0.1614  0.1969
 7818SOL    HW134913   0.322   2.714  14.620  3.2063 -2.0197 -0.7758
 7818SOL    HW234914   0.305   2.786  14.749  0.4549 -0.3764  1.5880
 7819SOL     OW34915   4.256   3.010  12.467 -0.1368  0.3574 -0.3613
 7819SOL    HW134916   4.186   3.012  12.402 -1.2523  0.9881  0.8783
 7819SOL    HW234917   4.314   3.084  12.446 -1.3771  1.3042 -0.4860
 7820SOL     OW34918   2.113   3.727   5.215  0.4935  0.3868  0.2714
 7820SOL    HW134919   2.193   3.697   5.259  0.8008  2.0128  0.7978
 7820SOL    HW234920   2.147   3.745   5.127  2.6367 -0.9049  0.8230
 7821SOL     OW34921   2.006   3.840  10.498 -0.5552 -0.1625 -0.6703
 7821SOL    HW134922   2.066   3.904  10.461 -0.0803  0.6864  1.5269
 7821SOL    HW234923   2.016   3.853  10.593  0.6429 -0.0427 -0.8137
 7822SOL     OW34924   1.500   2.132   3.086 -0.2854  0.1005 -0.0492
 7822SOL    HW134925   1.532   2.077   3.015 -1.0833 -1.3489  0.7079
 7822SOL    HW234926   1.476   2.059   3.144 -1.1414  0.9850  0.7080
 7823SOL     OW34927   0.172   0.474   8.713 -0.9092 -0.7379 -0.3718
 7823SOL    HW134928   0.151   0.500   8.802  2.4418  2.1464 -0.4363
 7823SOL    HW234929   0.128   0.389   8.713 -3.6681  0.6853  0.0782
 7824SOL     OW34930   3.003   3.153   2.113 -0.0046  0.0511  0.6008
 7824SOL    HW134931   3.072   3.103   2.157 -1.2259 -1.7326  0.5144
 7824SOL    HW234932   3.042   3.158   2.026 -1.2897 -1.2626 -0.0550
 7825SOL     OW34933   0.111   1.104   7.393 -0.0980  0.1096  0.0930
 7825SOL    HW134934   0.108   1.198   7.376  0.9241  0.6618  3.0812
 7825SOL    HW234935   0.099   1.105   7.488  0.2740 -1.4016  0.1542
 7826SOL     OW34936   2.591   2.228  13.603 -0.0325 -0.1238 -0.2737
 7826SOL    HW134937   2.673   2.276  13.590 -1.1744  1.7007 -0.5981
 7826SOL    HW234938   2.580   2.214  13.697  4.3152 -0.0227  0.2469
 7827SOL     OW34939   1.466   4.051   8.223 -0.5178 -0.1436  0.2336
 7827SOL    HW134940   1.468   3.964   8.263  0.1911 -0.0568  0.4000
 7827SOL    HW234941   1.389   4.091   8.262 -0.4073  1.6062 -1.3419
 7828SOL     OW34942   0.264   3.794   6.920 -0.1864  0.7380 -0.1136
 7828SOL    HW134943   0.209   3.872   6.910 -0.0094  1.1198  1.9799
 7828SOL    HW234944   0.327   3.828   6.983  0.8118  0.0957 -0.7691
 7829SOL     OW34945   2.046   2.004   5.690  0.3679 -0.6465  0.3457
 7829SOL    HW134946   2.002   2.013   5.774  1.3441 -0.8258  0.8823
 7829SOL    HW234947   2.130   1.964   5.712  0.4366 -1.4153 -1.3323
 7830SOL     OW34948   0.764   3.902   4.659 -0.6238 -0.4496  0.2827
 7830SOL    HW134949   0.757   3.989   4.697 -0.4671 -0.9533  1.4569
 7830SOL    HW234950   0.814   3.855   4.725 -0.1779 -1.7317 -0.9569
 7831SOL     OW34951   0.673   1.284   6.970  0.2938 -0.0110  0.0266
 7831SOL    HW134952   0.676   1.189   6.979  0.0439  0.1183  1.4376
 7831SOL    HW234953   0.607   1.308   7.035 -0.1235 -1.6480  0.1943
 7832SOL     OW34954   3.739   1.736   5.269 -0.0781  0.0419 -0.2483
 7832SOL    HW134955   3.770   1.736   5.359  1.9417  1.6842 -0.9546
 7832SOL    HW234956   3.703   1.824   5.258 -0.5050 -0.0649  0.2870
 7833SOL     OW34957   4.197   1.137  13.339 -0.5575  0.6553 -0.3095
 7833SOL    HW134958   4.128   1.073  13.357  1.0758 -1.0881 -0.2341
 7833SOL    HW234959   4.243   1.081  13.277  3.7450  1.5298  2.1324
 7834SOL     OW34960   4.098   2.697  14.235 -0.0542 -0.2293  0.7988
 7834SOL    HW134961   4.156   2.649  14.176 -0.2562  1.7502 -1.0169
 7834SOL    HW234962   4.014   2.715  14.191  1.4505  0.1181 -1.9234
 7835SOL     OW34963   4.424   0.825   6.680  0.3924  0.6552  0.6264
 7835SOL    HW134964   4.416   0.737   6.643 -1.9520  1.0421  0.2082
 7835SOL    HW234965   4.482   0.817   6.756 -0.3501 -0.9400  1.0339
 7836SOL     OW34966   1.390   0.006   7.557 -0.1124  0.0395 -0.7030
 7836SOL    HW134967   1.479   0.040   7.551 -0.0835  0.3484  1.2713
 7836SOL    HW234968   1.396   4.639   7.551 -1.4557 -0.0214 -1.1065
 7837SOL     OW34969   4.365   2.325   6.343 -0.3082  0.1009  0.0059
 7837SOL    HW134970   4.362   2.414   6.377 -0.6006  0.1468 -0.1436
 7837SOL    HW234971   4.291   2.326   6.283 -1.5179  0.7688  1.5215
 7838SOL     OW34972   4.561   1.557   7.622  0.5367 -0.3248 -0.2467
 7838SOL    HW134973   4.634   1.559   7.560  1.0940  0.4300  0.4226
 7838SOL    HW234974   4.549   1.651   7.636  0.2767 -0.5398  0.9082
 7839SOL     OW34975   3.729   3.054  11.339 -0.9798 -0.0760 -0.1404
 7839SOL    HW134976   3.725   2.976  11.284  1.0145 -1.7901  2.1787
 7839SOL    HW234977   3.676   3.028  11.414 -0.7542  0.7850  0.3224
 7840SOL     OW34978   2.826   2.012   6.875 -0.1126  0.2935 -0.1718
 7840SOL    HW134979   2.880   2.005   6.796  0.2165 -0.0405  0.0817
 7840SOL    HW234980   2.892   1.990   6.941 -2.0392  0.8107  1.8930
 7841SOL     OW34981   1.968   0.090   8.703 -0.2679  0.7170 -0.4584
 7841SOL    HW134982   1.925   0.110   8.787  1.1990  3.1216 -0.2737
 7841SOL    HW234983   1.892   0.041   8.672 -0.5578  0.0665  1.2839
 7842SOL     OW34984   4.510   3.879  13.643  0.0372  0.3913 -0.4078
 7842SOL    HW134985   4.450   3.807  13.661  1.1759  0.0587  1.9172
 7842SOL    HW234986   4.589   3.826  13.639  1.0269  1.8543 -0.2990
 7843SOL     OW34987   2.362   1.789   4.075  0.1175  0.4766  0.4851
 7843SOL    HW134988   2.407   1.753   3.999 -2.7413 -0.6648 -0.6747
 7843SOL    HW234989   2.429   1.833   4.127  0.4260 -2.0280  2.2336
 7844SOL     OW34990   0.274   2.952  15.531 -0.0290  0.2136 -0.3884
 7844SOL    HW134991   0.323   2.952  15.449  0.2719 -1.1486 -0.2072
 7844SOL    HW234992   0.352   2.926  15.581 -0.4577  1.8163  1.1199
 7845SOL     OW34993   3.165   1.578   5.105 -0.2915  0.0141 -0.5007
 7845SOL    HW134994   3.173   1.597   5.198  0.7431 -1.9110 -0.2203
 7845SOL    HW234995   3.201   1.490   5.106  0.3193  0.2601 -0.6597
 7846SOL     OW34996   4.480   2.450  12.620 -0.2223 -0.6666 -0.0958
 7846SOL    HW134997   4.429   2.447  12.539  0.9656 -2.6066 -0.7617
 7846SOL    HW234998   4.559   2.491  12.585 -0.9096  0.4477 -0.3384
 7847SOL     OW34999   3.301   0.321   7.027 -0.4889 -0.7869 -0.2881
 7847SOL    HW135000   3.329   0.262   7.097  0.3514 -0.7270 -0.5673
 7847SOL    HW235001   3.211   0.287   7.031 -0.3409 -1.0437  0.8543
 7848SOL     OW35002   2.816   2.219  13.360 -0.0275  0.2385  0.2543
 7848SOL    HW135003   2.894   2.263  13.393 -0.0760 -0.1916  0.9514
 7848SOL    HW235004   2.829   2.245  13.269 -0.7591 -2.1039 -0.5288
 7849SOL     OW35005   0.374   0.113   4.158 -0.0244 -0.3486  0.0764
 7849SOL    HW135006   0.304   0.170   4.190 -0.4329 -0.2345 -1.0377
 7849SOL    HW235007   0.341   0.080   4.075 -1.4356 -1.7286  1.1709
 7850SOL     OW35008   1.901   4.240   6.463  0.3211  0.1825  0.2589
 7850SOL    HW135009   1.967   4.310   6.458 -2.0965  2.7219  3.7607
 7850SOL    HW235010   1.874   4.239   6.555  1.2948 -0.3030  0.5413
 7851SOL     OW35011   3.241   1.599  17.382  0.4458 -0.2078  0.1643
 7851SOL    HW135012   3.172   1.582  17.446 -1.6204  0.6565 -1.8889
 7851SOL    HW235013   3.184   1.573  17.311 -1.5136 -0.6769  1.9168
 7852SOL     OW35014   0.556   3.701   8.602  0.3119 -0.4710 -0.4379
 7852SOL    HW135015   0.498   3.709   8.527  0.8651  2.2420 -0.5887
 7852SOL    HW235016   0.593   3.790   8.609 -0.6703 -0.0199 -0.9776
 7853SOL     OW35017   1.613   2.675   4.155  0.2609 -0.6102 -0.1543
 7853SOL    HW135018   1.650   2.628   4.230  0.2264 -0.0343  0.2238
 7853SOL    HW235019   1.659   2.644   4.077  0.0711 -0.0299 -0.4927
 7854SOL     OW35020   2.074   1.835   9.189 -0.2865  0.5168 -0.1631
 7854SOL    HW135021   2.123   1.864   9.112  0.9502  1.4608  0.9940
 7854SOL    HW235022   2.140   1.774   9.222 -0.3561  1.1624  1.1543
 7855SOL     OW35023   2.975   4.590   3.749  0.2139 -0.3151 -0.1851
 7855SOL    HW135024   3.008   4.511   3.792 -0.6991  0.6218  2.2662
 7855SOL    HW235025   2.988   4.658   3.815 -1.7563 -0.4182  0.3013
 7856SOL     OW35026   1.326   0.520   8.241 -0.3628 -0.1138 -0.0532
 7856SOL    HW135027   1.320   0.612   8.265 -0.6395 -0.0451 -0.3871
 7856SOL    HW235028   1.281   0.467   8.307 -0.0782  2.1474  1.9403
 7857SOL     OW35029   1.588   1.876   5.726 -0.6947  0.3232  0.4855
 7857SOL    HW135030   1.634   1.793   5.713 -0.1694  0.8361 -0.9570
 7857SOL    HW235031   1.607   1.906   5.815 -1.3262  0.2550  0.6422
 7858SOL     OW35032   2.386   3.696  14.431 -0.3698 -0.0782 -0.2980
 7858SOL    HW135033   2.356   3.754  14.361  0.9473  0.9479 -0.0200
 7858SOL    HW235034   2.355   3.613  14.397 -1.7089  1.1188 -2.0139
 7859SOL     OW35035   2.999   0.234   5.874 -0.0488 -0.5200 -0.0789
 7859SOL    HW135036   2.930   0.286   5.832 -1.0112 -2.6782 -1.1647
 7859SOL    HW235037   2.953   0.151   5.890 -0.4821 -0.6639 -2.0719
 7860SOL     OW35038   2.342   3.023   1.416 -0.0193 -0.0371  0.2591
 7860SOL    HW135039   2.401   2.948   1.407  0.2553  0.0583  1.3013
 7860SOL    HW235040   2.257   3.000   1.378  1.0243 -3.2478 -0.1166
 7861SOL     OW35041   0.748   1.193   1.427 -0.3223 -0.0751 -0.3193
 7861SOL    HW135042   0.796   1.259   1.377  0.4651 -0.5736 -0.2255
 7861SOL    HW235043   0.660   1.220   1.402 -1.3389 -0.6155  2.6152
 7862SOL     OW35044   3.919   0.984   5.186  0.6567 -0.2923 -0.0971
 7862SOL    HW135045   3.860   0.909   5.175  0.4652  0.0323 -1.2601
 7862SOL    HW235046   3.906   1.014   5.276  1.7300 -1.7443  0.5306
 7863SOL     OW35047   0.705   2.753  15.576  0.0933  0.8281  0.5421
 7863SOL    HW135048   0.710   2.661  15.550 -2.6786  1.2634 -1.5587
 7863SOL    HW235049   0.766   2.791  15.513 -1.2971  0.9731 -0.7314
 7864SOL     OW35050   1.970   2.599   5.176 -0.0136  0.2078  0.2150
 7864SOL    HW135051   1.925   2.682   5.160  0.8031  0.8383  1.1801
 7864SOL    HW235052   1.916   2.538   5.126  3.1439 -2.2329 -0.2100
 7865SOL     OW35053   1.577   3.217   6.493 -0.0236  0.1814 -0.2253
 7865SOL    HW135054   1.543   3.134   6.527 -2.5403  0.9214 -0.9400
 7865SOL    HW235055   1.608   3.194   6.406  1.2760 -0.0795  0.3008
 7866SOL     OW35056   2.930   3.437   7.307 -0.1243  0.8739 -0.1088
 7866SOL    HW135057   2.867   3.506   7.327 -1.8004 -0.9162  0.7900
 7866SOL    HW235058   2.975   3.432   7.391 -2.5737 -1.5675  1.0256
 7867SOL     OW35059   0.838   2.202  11.911 -0.3752  0.2011  0.4167
 7867SOL    HW135060   0.865   2.182  12.001  1.3243  1.4855  0.1740
 7867SOL    HW235061   0.836   2.115  11.871  0.2037  0.1717  0.4603
 7868SOL     OW35062   0.078   3.405   9.183  0.2039 -0.4440 -0.5371
 7868SOL    HW135063   0.013   3.363   9.127  0.7778 -1.3815 -0.4888
 7868SOL    HW235064   0.155   3.348   9.175  0.5101  0.1677 -2.0354
 7869SOL     OW35065   0.586   3.226  15.143  0.0900 -0.3099 -0.3262
 7869SOL    HW135066   0.505   3.253  15.184  0.0507 -2.6006  1.1221
 7869SOL    HW235067   0.614   3.156  15.203  1.9211  0.8140  0.1422
 7870SOL     OW35068   1.663   3.143   2.701 -0.1231 -0.5043  0.0857
 7870SOL    HW135069   1.572   3.156   2.727  1.1017  2.5315  2.9353
 7870SOL    HW235070   1.687   3.087   2.774 -1.3467 -3.4692 -1.7888
 7871SOL     OW35071   3.547   2.334  14.732  0.6371  0.0723  0.0913
 7871SOL    HW135072   3.496   2.329  14.813 -1.3056  3.0723 -0.9386
 7871SOL    HW235073   3.599   2.410  14.758 -0.0008  0.6399 -0.3048
 7872SOL     OW35074   2.610   1.398   8.900  0.2224  0.2410  0.0419
 7872SOL    HW135075   2.692   1.414   8.947  0.2695 -2.1542  0.7787
 7872SOL    HW235076   2.555   1.378   8.976 -2.0920  0.8172 -1.4862
 7873SOL     OW35077   2.603   0.903   8.918 -0.5608 -0.0803  0.0588
 7873SOL    HW135078   2.553   0.906   9.000 -0.7880 -1.1948 -0.0430
 7873SOL    HW235079   2.549   0.965   8.869 -1.2631 -1.3436 -0.7628
 7874SOL     OW35080   1.849   2.187   0.235  0.1294 -0.0426  0.2238
 7874SOL    HW135081   1.862   2.164   0.327 -0.7200 -1.6090 -0.0538
 7874SOL    HW235082   1.939   2.199   0.205  0.3260  0.6178  1.0744
 7875SOL     OW35083   3.040   0.997  12.289  0.0582  0.0038 -0.0522
 7875SOL    HW135084   2.956   1.038  12.310  0.3690  0.8914 -0.5556
 7875SOL    HW235085   3.086   0.977  12.370  0.7779  1.7301 -0.0384
 7876SOL     OW35086   2.203   1.703  11.457 -0.2364  1.2471  0.1323
 7876SOL    HW135087   2.282   1.724  11.408  1.0189 -1.9730  0.7687
 7876SOL    HW235088   2.199   1.774  11.522 -0.7879 -1.0512  2.6147
 7877SOL     OW35089   0.480   2.500   3.053  0.2923 -0.3021  0.1937
 7877SOL    HW135090   0.504   2.429   2.993 -0.9302  0.3451 -1.0561
 7877SOL    HW235091   0.491   2.579   3.001 -0.1499  0.9790  2.0412
 7878SOL     OW35092   1.239   3.418  14.512 -0.5027 -0.7299  0.5505
 7878SOL    HW135093   1.216   3.508  14.491 -1.5760 -1.1545 -0.1009
 7878SOL    HW235094   1.155   3.371  14.513 -0.4388 -0.8573 -0.1914
 7879SOL     OW35095   0.919   4.682   6.635 -0.0400 -0.3110 -0.5052
 7879SOL    HW135096   0.922   4.613   6.701  0.6786 -0.1137 -0.3332
 7879SOL    HW235097   1.008   4.685   6.600  0.4241  0.5459  0.7250
 7880SOL     OW35098   1.666   0.878   4.303  0.4169 -0.3686  0.5495
 7880SOL    HW135099   1.758   0.899   4.288  0.1253  1.4280  1.1973
 7880SOL    HW235100   1.669   0.793   4.346  1.6822 -2.4667 -3.7135
 7881SOL     OW35101   0.817   1.931  11.826  0.3279  0.1594 -0.4867
 7881SOL    HW135102   0.828   1.906  11.734  0.8130  1.1642 -0.6931
 7881SOL    HW235103   0.877   1.864  11.861  0.3570 -0.2906 -1.4005
 7882SOL     OW35104   4.726   1.898   1.914 -0.1927 -0.2531  0.0630
 7882SOL    HW135105   4.654   1.956   1.938  0.1609 -0.2634  1.1489
 7882SOL    HW235106   4.705   1.898   1.820 -3.1657  0.4076  0.7347
 7883SOL     OW35107   0.461   4.030   2.963  0.3015  0.2205  0.0286
 7883SOL    HW135108   0.398   3.958   2.957  0.9563 -0.1889 -1.7678
 7883SOL    HW235109   0.477   4.046   2.870  0.5941  1.0103  0.2186
 7884SOL     OW35110   3.951   0.562   2.439 -0.3036  0.3877  0.6513
 7884SOL    HW135111   3.856   0.561   2.432 -0.2155 -0.8794 -0.2278
 7884SOL    HW235112   3.963   0.656   2.458  1.3342  0.4391 -0.6319
 7885SOL     OW35113   2.199   3.236   2.071 -0.0023  0.4651  0.6942
 7885SOL    HW135114   2.148   3.301   2.119 -1.6776 -0.7317  0.5599
 7885SOL    HW235115   2.196   3.274   1.983 -0.8267 -0.8444  0.1508
 7886SOL     OW35116   1.593   0.728   8.578 -0.6048  0.4193 -0.0217
 7886SOL    HW135117   1.593   0.664   8.649 -1.4488 -0.2891 -0.6521
 7886SOL    HW235118   1.500   0.734   8.554  0.0986 -1.0191 -3.1125
 7887SOL     OW35119   0.499   4.390   5.143 -0.1692  0.2572  0.5711
 7887SOL    HW135120   0.550   4.317   5.180  0.5413  1.0165  1.0795
 7887SOL    HW235121   0.471   4.440   5.219 -1.3671  0.2317  0.1432
 7888SOL     OW35122   1.656   3.130  16.935 -1.1008 -0.2623  0.2185
 7888SOL    HW135123   1.702   3.069  16.992 -0.5272 -0.4245 -0.4248
 7888SOL    HW235124   1.612   3.188  16.998 -1.2170 -0.1162  0.0033
 7889SOL     OW35125   1.135   0.374  14.808 -0.2659  0.9384 -0.4767
 7889SOL    HW135126   1.052   0.421  14.797 -0.5815  0.1263 -1.7036
 7889SOL    HW235127   1.157   0.395  14.898  1.1560 -1.0280 -0.3535
 7890SOL     OW35128   0.456   2.716  13.034 -0.2217  0.1833  0.0091
 7890SOL    HW135129   0.492   2.711  13.123 -1.3344  0.9633  0.5045
 7890SOL    HW235130   0.445   2.621  13.033  1.6752 -0.0587  1.1520
 7891SOL     OW35131   4.584   1.341  10.466 -0.4770  0.8263 -0.3431
 7891SOL    HW135132   4.589   1.372  10.376 -1.4983  0.0209 -0.6834
 7891SOL    HW235133   4.668   1.373  10.497 -0.8013 -0.5311  1.9890
 7892SOL     OW35134   4.193   2.872  13.372 -0.5181 -0.0635  0.5395
 7892SOL    HW135135   4.136   2.894  13.446 -1.9971 -0.7167 -0.4082
 7892SOL    HW235136   4.198   2.947  13.314  0.5342  0.3388  1.1504
 7893SOL     OW35137   1.183   3.037   6.341 -0.3334 -0.0106 -0.1706
 7893SOL    HW135138   1.203   2.947   6.369 -2.3344  0.1349  1.6856
 7893SOL    HW235139   1.155   3.027   6.250  0.0031  1.9950 -0.4736
 7894SOL     OW35140   1.852   3.335   2.782  0.2240  0.1613  0.1113
 7894SOL    HW135141   1.875   3.284   2.704 -0.6235 -0.0775  0.0078
 7894SOL    HW235142   1.758   3.320   2.765  0.0914  3.3439 -1.8951
 7895SOL     OW35143   1.532   3.029   8.582  0.0459  0.0313  0.2318
 7895SOL    HW135144   1.610   3.013   8.529 -0.0806  2.1020 -0.5582
 7895SOL    HW235145   1.578   3.037   8.666  1.3128  1.0064 -0.5640
 7896SOL     OW35146   0.291   1.254   3.538  0.1333 -0.7018 -0.0767
 7896SOL    HW135147   0.203   1.235   3.572 -0.8271  1.7423 -1.1440
 7896SOL    HW235148   0.339   1.180   3.573 -0.3754 -0.7792  0.4512
 7897SOL     OW35149   4.709   0.706   4.292  0.8870 -0.1153  0.0758
 7897SOL    HW135150   4.695   0.613   4.275 -0.1251 -0.0780  0.7150
 7897SOL    HW235151   4.652   0.715   4.368  0.1115  0.5072 -0.5845
 7898SOL     OW35152   4.479   3.657  10.800  0.1039  1.0135 -0.3798
 7898SOL    HW135153   4.466   3.734  10.744  0.0763  1.9473  0.9000
 7898SOL    HW235154   4.528   3.604  10.738  0.6514  0.6501  0.3585
 7899SOL     OW35155   0.397   1.183   1.860  0.1047  0.4823 -0.4627
 7899SOL    HW135156   0.330   1.233   1.813  0.2528  3.6666  2.7400
 7899SOL    HW235157   0.470   1.245   1.862 -1.4005  2.1688  2.3787
 7900SOL     OW35158   3.102   3.722   1.458 -0.0619 -0.0179  0.1449
 7900SOL    HW135159   3.150   3.734   1.540  0.9006 -0.4634 -0.3583
 7900SOL    HW235160   3.140   3.800   1.418 -2.6665  0.0839 -2.0857
 7901SOL     OW35161   4.125   2.845   6.586  0.3679  0.5584 -0.2169
 7901SOL    HW135162   4.124   2.785   6.660 -0.0161  0.1827 -0.5262
 7901SOL    HW235163   4.210   2.886   6.603  0.7350  0.0322 -0.7462
 7902SOL     OW35164   3.597   2.214   6.468 -0.0827 -0.2853  0.1890
 7902SOL    HW135165   3.601   2.267   6.388 -0.6687 -0.9442 -0.2803
 7902SOL    HW235166   3.652   2.266   6.526  1.0809  0.4669 -1.5695
 7903SOL     OW35167   3.066   3.298  15.708  0.2319  0.3502  0.0600
 7903SOL    HW135168   3.131   3.364  15.732 -0.0978  1.0513 -0.9672
 7903SOL    HW235169   2.985   3.347  15.723  0.9250  1.5879 -0.1763
 7904SOL     OW35170   3.584   3.622   8.371  0.2289 -0.6861  0.1118
 7904SOL    HW135171   3.566   3.603   8.279  0.1412  0.0122 -0.0094
 7904SOL    HW235172   3.632   3.543   8.398 -2.6492 -2.6310 -0.4986
 7905SOL     OW35173   3.729   3.710  13.955 -0.4336 -0.1543  0.4587
 7905SOL    HW135174   3.825   3.707  13.957 -0.4615  0.8679  3.0252
 7905SOL    HW235175   3.716   3.764  14.033  0.7916 -0.3556  0.8067
 7906SOL     OW35176   2.613   1.921   2.807  0.2840  0.2472 -0.3643
 7906SOL    HW135177   2.642   1.837   2.844  1.0242  0.1354 -1.2020
 7906SOL    HW235178   2.520   1.930   2.830 -0.0727 -1.4494 -1.1045
 7907SOL     OW35179   0.306   1.495   1.190 -0.0330  0.0041 -0.1753
 7907SOL    HW135180   0.366   1.436   1.143  0.5209  1.6660 -1.5439
 7907SOL    HW235181   0.371   1.535   1.248 -0.8658 -0.5856  1.1418
 7908SOL     OW35182   0.429   3.833   6.537  0.6452  0.5798 -0.1033
 7908SOL    HW135183   0.463   3.849   6.625  1.2323 -0.8290 -0.0796
 7908SOL    HW235184   0.342   3.873   6.547  1.5435  1.9860  2.3351
 7909SOL     OW35185   0.987   3.614   6.369 -0.2662  0.0410  0.0652
 7909SOL    HW135186   0.914   3.556   6.346  0.5390  0.0193 -2.4631
 7909SOL    HW235187   1.057   3.553   6.346 -0.1985 -0.3918  1.4411
 7910SOL     OW35188   0.577   0.416   3.286  0.1674  0.0597  0.0077
 7910SOL    HW135189   0.636   0.490   3.297  0.8188 -0.5430  0.6093
 7910SOL    HW235190   0.504   0.460   3.244  0.4545  1.0459  0.5350
 7911SOL     OW35191   3.400   0.814  11.771 -0.2003  0.1241 -0.1328
 7911SOL    HW135192   3.449   0.859  11.840  1.0261  0.6475 -1.3360
 7911SOL    HW235193   3.407   0.721  11.791 -1.3566  0.0180 -0.2434
 7912SOL     OW35194   1.972   3.616   3.448 -0.4263  0.5942  0.7384
 7912SOL    HW135195   1.983   3.711   3.442 -1.2922  0.8990  3.9706
 7912SOL    HW235196   1.978   3.578   3.361  0.8283 -1.4292  1.6989
 7913SOL     OW35197   3.014   2.035  16.095 -0.1474  0.1914 -0.4014
 7913SOL    HW135198   3.071   2.112  16.087  2.0788 -1.4016  0.4593
 7913SOL    HW235199   3.048   1.991  16.172 -0.2688  1.2186  0.2421
 7914SOL     OW35200   0.955   1.610   2.713 -0.0634  0.4980  0.1730
 7914SOL    HW135201   1.021   1.567   2.766  1.2123 -0.0823 -1.9006
 7914SOL    HW235202   0.904   1.648   2.785  0.5261 -2.1449  1.9717
 7915SOL     OW35203   4.011   2.049   7.647  0.0347  0.1806 -0.4561
 7915SOL    HW135204   3.979   2.119   7.590  0.5112  1.7135  1.1745
 7915SOL    HW235205   4.080   2.100   7.689 -1.5756  0.1428  2.2610
 7916SOL     OW35206   1.632   1.963  15.576  0.0737 -0.3338  0.6182
 7916SOL    HW135207   1.543   1.973  15.609 -0.1068 -0.6775  0.2275
 7916SOL    HW235208   1.659   2.055  15.584 -0.6546 -0.1058  0.3914
 7917SOL     OW35209   1.972   0.485   6.941 -0.1022  0.1087 -0.5733
 7917SOL    HW135210   1.883   0.485   6.974 -0.5169  0.9761 -1.6821
 7917SOL    HW235211   1.955   0.514   6.851  0.7793  0.1841 -0.7173
 7918SOL     OW35212   4.554   3.477   1.409 -0.1883 -0.5339 -0.0600
 7918SOL    HW135213   4.643   3.443   1.408  0.4813  1.1359  2.5331
 7918SOL    HW235214   4.552   3.566   1.446  0.2945 -0.0221 -1.2617
 7919SOL     OW35215   0.461   1.862   0.700  0.1685  0.1256 -0.2035
 7919SOL    HW135216   0.463   1.892   0.610  0.3121  1.9533  0.4071
 7919SOL    HW235217   0.445   1.946   0.744 -1.0217  0.5270 -1.3881
 7920SOL     OW35218   2.696   1.722   7.939 -0.8621  0.4312  0.1034
 7920SOL    HW135219   2.741   1.685   8.015 -0.1655  0.3590 -0.3372
 7920SOL    HW235220   2.773   1.762   7.897  0.8096 -1.7805  1.0591
 7921SOL     OW35221   3.913   0.893   3.459 -0.2252  0.2703  0.2515
 7921SOL    HW135222   3.987   0.879   3.400 -0.1301  0.5463  0.3055
 7921SOL    HW235223   3.844   0.943   3.417 -0.1794 -0.6943 -0.9596
 7922SOL     OW35224   3.468   1.992   5.780  0.2674  0.4164 -0.0810
 7922SOL    HW135225   3.431   2.014   5.866 -0.0966  0.4345 -0.2446
 7922SOL    HW235226   3.401   2.040   5.731  0.3832  0.0086 -0.6353
 7923SOL     OW35227   0.184   2.472   4.722  0.3611 -0.4333  0.1999
 7923SOL    HW135228   0.269   2.516   4.724 -1.1295  2.4931 -0.6074
 7923SOL    HW235229   0.138   2.507   4.646 -0.5977 -0.8657  0.5736
 7924SOL     OW35230   0.153   2.268  12.572 -0.3089 -0.6601  0.3527
 7924SOL    HW135231   0.102   2.322  12.512  1.9818  1.1608  0.0305
 7924SOL    HW235232   0.158   2.320  12.651 -0.7072  0.0857 -0.1187
 7925SOL     OW35233   3.498   0.838   2.377 -0.0501 -0.1292  0.4789
 7925SOL    HW135234   3.516   0.904   2.444 -0.3420 -0.9555  1.3706
 7925SOL    HW235235   3.404   0.851   2.366  0.0320 -0.4050 -0.5709
 7926SOL     OW35236   2.234   0.516   4.687 -0.1540 -0.2989 -0.0359
 7926SOL    HW135237   2.315   0.562   4.662  0.8920 -1.3034  1.5107
 7926SOL    HW235238   2.259   0.476   4.770  1.3120  0.0481 -0.2974
 7927SOL     OW35239   1.095   4.388   6.667  0.0138 -0.6250 -0.2889
 7927SOL    HW135240   1.035   4.347   6.729  1.6407 -2.2597  0.1738
 7927SOL    HW235241   1.158   4.419   6.731  0.5475 -0.3499 -0.9443
 7928SOL     OW35242   1.414   0.568   0.986 -0.0047 -0.0146 -0.5196
 7928SOL    HW135243   1.451   0.482   0.966 -0.8010 -0.2758 -0.8915
 7928SOL    HW235244   1.490   0.625   0.976 -0.7527  0.8720 -1.2377
 7929SOL     OW35245   2.164   3.485   3.744  0.3803 -0.6575 -0.2984
 7929SOL    HW135246   2.105   3.555   3.772  0.0216 -1.9715  2.2372
 7929SOL    HW235247   2.105   3.440   3.684  1.0972 -5.2068  2.3813
 7930SOL     OW35248   2.551   4.703   7.504  0.5853  0.1367 -0.4379
 7930SOL    HW135249   2.495   4.726   7.578 -0.1753  1.2588 -1.3739
 7930SOL    HW235250   2.583   0.060   7.473  1.2625 -0.4566 -1.3710
 7931SOL     OW35251   2.708   2.453   7.685 -0.0025 -0.1434  0.4748
 7931SOL    HW135252   2.770   2.514   7.726  1.7216 -2.2735  1.0298
 7931SOL    HW235253   2.698   2.401   7.764  0.1333 -2.1666 -0.8321
 7932SOL     OW35254   4.178   0.872   3.348 -0.4236  0.3424  0.0959
 7932SOL    HW135255   4.189   0.903   3.258 -0.8348  0.7683  0.1893
 7932SOL    HW235256   4.248   0.808   3.356 -0.4011  0.2950 -0.5332
 7933SOL     OW35257   1.322   3.547  11.265  0.3916 -0.6741 -0.0556
 7933SOL    HW135258   1.389   3.615  11.257 -1.0929  0.8177  0.1069
 7933SOL    HW235259   1.313   3.549  11.360 -2.0936  1.0967 -0.3124
 7934SOL     OW35260   3.979   2.931  16.943 -0.1020  0.0061  0.0640
 7934SOL    HW135261   3.918   2.966  16.877  0.0275  0.9714  0.4523
 7934SOL    HW235262   3.949   2.843  16.964  1.3913 -0.8496 -1.4705
 7935SOL     OW35263   1.822   0.150   3.352  0.2444  0.1461  0.1178
 7935SOL    HW135264   1.830   0.081   3.417 -0.3028  0.4499  0.5019
 7935SOL    HW235265   1.805   0.227   3.406 -1.4610 -0.1753  0.0471
 7936SOL     OW35266   3.238   0.927   0.269  0.2682 -0.3703 -0.4521
 7936SOL    HW135267   3.188   0.878   0.204  2.0192 -1.3196 -1.0825
 7936SOL    HW235268   3.311   0.869   0.292  0.1017 -0.6117 -0.5404
 7937SOL     OW35269   3.258   3.820   2.353  0.4074 -0.1336 -0.2447
 7937SOL    HW135270   3.281   3.750   2.415 -0.8474 -0.7017 -0.4190
 7937SOL    HW235271   3.212   3.880   2.411  0.1096 -0.8208  0.2390
 7938SOL     OW35272   2.678   3.923   7.109  0.1097 -0.1647  0.4980
 7938SOL    HW135273   2.609   3.988   7.098  0.2251 -0.1763 -0.3043
 7938SOL    HW235274   2.671   3.898   7.201  0.2271  0.6750  0.7346
 7939SOL     OW35275   4.380   0.265   6.521 -0.0229  0.4585 -0.0692
 7939SOL    HW135276   4.317   0.262   6.449  0.1424  0.4659 -0.2150
 7939SOL    HW235277   4.327   0.303   6.591 -0.5260  0.9092 -0.6956
 7940SOL     OW35278   2.018   4.397  13.353  0.0851  0.2207  0.0406
 7940SOL    HW135279   2.012   4.423  13.261  2.0845 -0.8995 -0.4091
 7940SOL    HW235280   1.995   4.475  13.403  0.6007  0.6972 -0.4630
 7941SOL     OW35281   0.428   1.229   6.658  0.1215  0.2281 -0.8132
 7941SOL    HW135282   0.509   1.279   6.666 -0.2369  0.8985 -1.3390
 7941SOL    HW235283   0.373   1.281   6.717  1.8190  0.7222  0.3357
 7942SOL     OW35284   4.646   0.316   9.703 -0.0560 -0.1023 -0.0908
 7942SOL    HW135285   4.688   0.393   9.664  0.1436  0.0535  0.4332
 7942SOL    HW235286   4.577   0.291   9.642 -0.4232  0.4024  0.1145
 7943SOL     OW35287   4.187   3.173   4.184 -0.6389  0.7525  0.4319
 7943SOL    HW135288   4.220   3.225   4.111  1.0064  0.5130  0.9951
 7943SOL    HW235289   4.171   3.091   4.138  2.4313  0.6261 -0.4066
 7944SOL     OW35290   0.330   3.521   6.939  0.2372 -0.2369 -0.5318
 7944SOL    HW135291   0.414   3.522   6.985  0.2940  0.3771 -0.6504
 7944SOL    HW235292   0.300   3.608   6.964 -0.5731 -0.7346  0.2456
 7945SOL     OW35293   0.493   1.641   5.004 -0.2535  0.2205  0.2486
 7945SOL    HW135294   0.458   1.575   5.064 -0.4643  1.1688  1.1718
 7945SOL    HW235295   0.426   1.707   4.991  1.1785  2.0878  2.2599
 7946SOL     OW35296   2.504   2.749   2.276  0.2142  0.4936  0.3597
 7946SOL    HW135297   2.473   2.671   2.230 -1.0590  1.9406 -1.2159
 7946SOL    HW235298   2.508   2.710   2.363 -4.1428 -1.4090 -0.2840
 7947SOL     OW35299   1.727   0.088   0.517 -0.2264 -0.3678  0.2881
 7947SOL    HW135300   1.767   0.009   0.552 -1.1353 -0.8369  0.2667
 7947SOL    HW235301   1.647   0.050   0.481 -1.5581  0.5717  2.2239
 7948SOL     OW35302   2.447   0.611   2.850 -0.1086 -0.0406 -0.1975
 7948SOL    HW135303   2.514   0.567   2.798  0.8550  1.9369 -0.6190
 7948SOL    HW235304   2.428   0.684   2.792 -1.4606  0.3074  0.6686
 7949SOL     OW35305   0.475   4.633  12.424 -0.0631 -0.4840  0.5791
 7949SOL    HW135306   0.461   4.596  12.337  0.8166  2.2058 -0.7039
 7949SOL    HW235307   0.568   4.612  12.436 -0.1482 -1.7774 -0.9877
 7950SOL     OW35308   4.580   1.300   4.774  0.3374  0.2275 -0.1308
 7950SOL    HW135309   4.593   1.208   4.751 -1.1372 -0.3739  1.4257
 7950SOL    HW235310   4.607   1.305   4.865  2.3141  1.3963 -0.7900
 7951SOL     OW35311   0.512   2.680  14.219  0.2798 -0.2837 -0.1300
 7951SOL    HW135312   0.518   2.650  14.129 -2.7403 -0.3638 -0.3001
 7951SOL    HW235313   0.603   2.696  14.244  0.4345  1.1998 -1.6001
 7952SOL     OW35314   1.806   0.401  15.077 -0.2453 -0.3641 -0.1348
 7952SOL    HW135315   1.759   0.318  15.081 -0.9035  0.0125 -0.0956
 7952SOL    HW235316   1.738   0.462  15.049  0.7505  1.0324  0.5272
 7953SOL     OW35317   3.350   1.780   2.167 -0.2829 -0.2868 -0.4116
 7953SOL    HW135318   3.358   1.772   2.072 -0.9176 -0.4238 -0.4584
 7953SOL    HW235319   3.441   1.796   2.191  0.2396 -0.9054 -1.9791
 7954SOL     OW35320   4.519   2.045   1.983 -0.0318 -0.0422  0.2701
 7954SOL    HW135321   4.503   2.034   2.077 -1.0313  1.3784  0.2745
 7954SOL    HW235322   4.438   2.022   1.937  0.0685 -0.2501  0.1990
 7955SOL     OW35323   1.471   1.384  14.819  0.4073 -0.1200  0.5604
 7955SOL    HW135324   1.532   1.433  14.764  0.5701 -0.2231  0.6492
 7955SOL    HW235325   1.485   1.426  14.903 -1.9639  2.4472 -0.3137
 7956SOL     OW35326   1.187   0.927   5.175 -0.2155 -0.1970 -0.3117
 7956SOL    HW135327   1.156   0.927   5.085 -1.6550 -2.5754  0.1869
 7956SOL    HW235328   1.097   0.931   5.208 -0.8248 -0.3924 -1.9797
 7957SOL     OW35329   2.172   1.736   3.075  0.2435 -0.7599 -0.4392
 7957SOL    HW135330   2.152   1.653   3.033 -2.3136 -1.0979  1.4679
 7957SOL    HW235331   2.090   1.783   3.061 -0.0057 -0.4300  2.0832
 7958SOL     OW35332   4.001   2.074   8.779  0.3124  0.8143  0.1916
 7958SOL    HW135333   4.032   2.152   8.826 -3.9263  2.0876  0.8958
 7958SOL    HW235334   3.922   2.116   8.744 -0.4079 -0.4543  0.2917
 7959SOL     OW35335   4.059   0.636   7.382 -0.7946 -0.3771  0.2657
 7959SOL    HW135336   3.998   0.569   7.412 -0.4533 -0.7564  0.1013
 7959SOL    HW235337   4.087   0.673   7.465  0.0886 -1.3303  0.3797
 7960SOL     OW35338   2.883   3.700  12.714 -0.1630  0.2084  0.0028
 7960SOL    HW135339   2.886   3.759  12.639  1.7308 -0.7070 -0.6376
 7960SOL    HW235340   2.849   3.623  12.668 -0.3142 -0.4746  1.2464
 7961SOL     OW35341   2.112   0.194  15.510 -0.0022  0.2996 -0.3026
 7961SOL    HW135342   2.059   0.222  15.435  1.1628 -2.3599 -2.1113
 7961SOL    HW235343   2.114   0.269  15.570 -0.3067  0.5194 -0.5651
 7962SOL     OW35344   0.294   3.321   3.564 -0.2131  0.6360 -0.1349
 7962SOL    HW135345   0.249   3.262   3.625  3.2038 -0.8935  0.8687
 7962SOL    HW235346   0.356   3.261   3.523  0.6902  0.3302  1.7000
 7963SOL     OW35347   0.581   0.417  12.736  0.3408 -0.2157 -0.3112
 7963SOL    HW135348   0.543   0.486  12.681 -0.7580 -0.7417 -0.2078
 7963SOL    HW235349   0.517   0.346  12.727  0.5146 -0.5314  0.9623
 7964SOL     OW35350   2.265   3.077   6.125 -0.2707  0.2382  0.0222
 7964SOL    HW135351   2.213   3.001   6.100 -1.1389  0.6518  0.5681
 7964SOL    HW235352   2.215   3.113   6.198  1.4873 -0.3190  1.5157
 7965SOL     OW35353   3.172   1.592  16.528  0.5100 -0.4882  0.6085
 7965SOL    HW135354   3.141   1.528  16.465  1.2282 -2.1747  1.9671
 7965SOL    HW235355   3.251   1.548  16.562  0.2374 -3.7605 -3.1101
 7966SOL     OW35356   4.620   1.763   4.908  0.3584 -0.7244  0.4422
 7966SOL    HW135357   4.571   1.843   4.923 -1.6912 -2.0402  0.7858
 7966SOL    HW235358   4.595   1.728   4.993  1.3208 -0.0953  0.9801
 7967SOL     OW35359   1.043   1.152  12.556  0.4085  0.0813 -0.4446
 7967SOL    HW135360   1.107   1.161  12.626 -0.8340  0.3910  0.6613
 7967SOL    HW235361   1.111   1.148  12.489  0.1119  1.4424 -0.8282
 7968SOL     OW35362   3.272   4.035   3.920 -0.2015  0.5671  0.0306
 7968SOL    HW135363   3.336   4.005   3.855  0.2496  1.5684 -0.0035
 7968SOL    HW235364   3.336   4.084   3.972  1.0612 -0.9153 -0.1209
 7969SOL     OW35365   3.798   1.784   1.320  0.0399  0.1412 -0.0736
 7969SOL    HW135366   3.828   1.718   1.257  0.8677  1.4503 -1.0620
 7969SOL    HW235367   3.876   1.839   1.335  0.4636 -0.7169  0.8075
 7970SOL     OW35368   1.643   3.447   3.683  0.3163  0.4727  0.2989
 7970SOL    HW135369   1.729   3.408   3.697 -0.0608 -0.4156  0.1178
 7970SOL    HW235370   1.664   3.506   3.611 -1.8616 -0.9681 -1.5021
 7971SOL     OW35371   1.573   4.159   9.931 -0.2055 -0.6434 -0.3656
 7971SOL    HW135372   1.573   4.234   9.872 -0.0952  0.3888  0.9735
 7971SOL    HW235373   1.514   4.102   9.882  1.0360 -0.5123 -2.0095
 7972SOL     OW35374   2.580   3.066   7.439 -0.6135 -0.1014  0.5700
 7972SOL    HW135375   2.659   3.096   7.392 -1.2116  2.1613  1.0095
 7972SOL    HW235376   2.529   3.024   7.370  0.5204 -2.0751  0.9231
 7973SOL     OW35377   1.351   4.384   8.229  0.1489  0.5656 -0.2199
 7973SOL    HW135378   1.343   4.457   8.292  0.3613  0.3266  0.0860
 7973SOL    HW235379   1.433   4.411   8.188  0.5404 -1.4254 -0.7491
 7974SOL     OW35380   0.586   1.243  11.574 -0.3537  0.0733  0.3863
 7974SOL    HW135381   0.636   1.311  11.528  0.6425 -0.0366  1.3245
 7974SOL    HW235382   0.558   1.291  11.652 -0.0493 -0.3359  0.7458
 7975SOL     OW35383   1.949   0.853  14.682  0.1988  0.6066 -0.1485
 7975SOL    HW135384   1.983   0.841  14.770 -1.5408  1.2271  0.6007
 7975SOL    HW235385   1.997   0.928  14.646 -1.3770  1.4581 -0.4465
 7976SOL     OW35386   0.806   2.365   8.419  0.4953 -0.0342 -0.3807
 7976SOL    HW135387   0.720   2.375   8.378  0.1720 -2.2533 -0.2430
 7976SOL    HW235388   0.778   2.330   8.504 -2.5303  1.0468 -0.9035
 7977SOL     OW35389   1.010   0.415   4.452 -0.4466 -0.4450 -0.4443
 7977SOL    HW135390   1.035   0.402   4.543 -0.3303 -2.0470 -0.7181
 7977SOL    HW235391   1.034   0.507   4.440  0.0037  0.1043  4.7283
 7978SOL     OW35392   1.819   1.368   2.097  0.2068 -0.2018 -0.1910
 7978SOL    HW135393   1.816   1.296   2.161 -0.4839 -1.8406 -2.0733
 7978SOL    HW235394   1.892   1.339   2.042 -2.3059 -2.7465 -2.1477
 7979SOL     OW35395   2.841   0.411   8.828  0.0897 -0.3037  0.4327
 7979SOL    HW135396   2.836   0.316   8.836  0.1620 -0.3009  0.5122
 7979SOL    HW235397   2.915   0.437   8.883 -1.0439  1.8705  0.9577
 7980SOL     OW35398   1.020   2.189   7.776  0.9093 -0.4446 -0.2363
 7980SOL    HW135399   1.046   2.246   7.704  2.0625  0.9757  1.2989
 7980SOL    HW235400   0.997   2.257   7.840  0.9385 -0.9978  0.3636
 7981SOL     OW35401   0.442   0.740  17.534  0.7767 -0.2133  0.3169
 7981SOL    HW135402   0.443   0.696  17.449  1.1350 -1.0254  0.7416
 7981SOL    HW235403   0.535   0.762  17.537  0.2055  2.2229 -0.0457
 7982SOL     OW35404   2.740   0.543  16.416 -0.1571 -0.2340 -0.2122
 7982SOL    HW135405   2.659   0.503  16.386 -0.5724  1.9526 -2.0547
 7982SOL    HW235406   2.771   0.488  16.487 -1.1298  1.5968  1.6224
 7983SOL     OW35407   3.785   3.579  11.494 -0.3217 -0.3430 -0.3642
 7983SOL    HW135408   3.878   3.598  11.485 -0.4065  0.3041  0.1459
 7983SOL    HW235409   3.771   3.512  11.427  1.5148 -1.2107  0.1295
 7984SOL     OW35410   1.205   4.483   9.633 -1.0778 -0.3326 -0.1502
 7984SOL    HW135411   1.246   4.567   9.614  0.7935 -0.8142  1.8399
 7984SOL    HW235412   1.160   4.459   9.551 -1.8750  0.3539  0.0925
 7985SOL     OW35413   2.716   1.247   8.536  0.3145  0.2378 -0.4099
 7985SOL    HW135414   2.646   1.297   8.577  1.3965  0.4865  1.1225
 7985SOL    HW235415   2.799   1.286   8.561  0.6693 -2.1857  2.1987
 7986SOL     OW35416   2.763   0.170   4.601 -0.3208 -0.2403  0.2394
 7986SOL    HW135417   2.800   0.201   4.684  0.4517 -0.8534  0.1198
 7986SOL    HW235418   2.686   0.226   4.591 -0.4088 -0.2001  1.1816
 7987SOL     OW35419   4.366   1.961  10.272 -0.0114  0.5727 -0.8753
 7987SOL    HW135420   4.422   2.009  10.333  1.5597 -1.1487 -0.9845
 7987SOL    HW235421   4.336   2.038  10.224 -0.5881  1.3835  0.8132
 7988SOL     OW35422   0.308   2.619   8.665 -0.0577 -0.2148  0.0936
 7988SOL    HW135423   0.308   2.672   8.745 -2.6874 -0.3648  0.2195
 7988SOL    HW235424   0.221   2.578   8.665 -0.4133  0.5256 -0.5653
 7989SOL     OW35425   3.662   0.567   4.760  0.0210  0.2441  0.5756
 7989SOL    HW135426   3.732   0.627   4.737  1.4563 -1.3881  0.6981
 7989SOL    HW235427   3.625   0.538   4.677  1.2282 -0.0938  0.1666
 7990SOL     OW35428   4.424   4.083   5.513 -0.3867 -0.1436  0.2694
 7990SOL    HW135429   4.353   4.042   5.563 -0.7693 -0.1368 -0.2788
 7990SOL    HW235430   4.370   4.156   5.481 -1.5018 -0.7405  0.7730
 7991SOL     OW35431   2.723   4.214   2.558 -0.0041  0.0015 -0.0628
 7991SOL    HW135432   2.802   4.245   2.602  1.6464  1.6199 -4.1140
 7991SOL    HW235433   2.767   4.166   2.488 -2.1857  0.1258 -1.5215
 7992SOL     OW35434   0.015   1.120  13.776 -0.1357 -0.4121 -0.1623
 7992SOL    HW135435   4.670   1.181  13.788  1.7590  1.3934  2.2775
 7992SOL    HW235436   0.089   1.180  13.775  1.3900 -2.2841  0.8546
 7993SOL     OW35437   3.330   2.391   8.633 -0.1359  0.4063  0.0555
 7993SOL    HW135438   3.268   2.355   8.569  0.2058  2.4777 -1.4090
 7993SOL    HW235439   3.307   2.483   8.642  2.5050  1.0178  0.4317
 7994SOL     OW35440   1.947   0.350   5.007 -0.3750  1.1143 -0.1542
 7994SOL    HW135441   1.907   0.266   4.985  0.8553  0.3737  0.4748
 7994SOL    HW235442   1.956   0.344   5.102  1.5154 -2.1647 -0.5528
 7995SOL     OW35443   3.351   3.802   5.581 -0.0881  0.6753 -0.2936
 7995SOL    HW135444   3.412   3.747   5.532 -0.0736  1.7120 -1.4330
 7995SOL    HW235445   3.269   3.790   5.533  0.2774 -1.5677 -0.3471
 7996SOL     OW35446   0.077   2.688   6.619 -0.4361 -0.2643 -0.2045
 7996SOL    HW135447   0.083   2.628   6.694  0.0610 -1.3121 -1.0869
 7996SOL    HW235448   0.153   2.664   6.567 -0.4667 -0.6672 -0.0607
 7997SOL     OW35449   2.701   2.890   7.079 -0.7344  0.4126  0.5564
 7997SOL    HW135450   2.703   2.871   6.986 -2.2752 -0.6044  0.7261
 7997SOL    HW235451   2.615   2.933   7.083 -0.1229  1.6004  1.2247
 7998SOL     OW35452   0.329   4.446   2.634  0.0045 -0.1116  0.0341
 7998SOL    HW135453   0.304   4.535   2.661 -2.3528 -1.0722  1.0046
 7998SOL    HW235454   0.422   4.446   2.659  0.2139  3.8834 -0.6001
 7999SOL     OW35455   0.959   4.594   9.901 -0.5560  0.6050 -0.2962
 7999SOL    HW135456   1.003   4.664   9.853 -0.5256 -0.4311 -1.7826
 7999SOL    HW235457   0.880   4.640   9.929 -0.4225  1.1116 -0.7571
 8000SOL     OW35458   3.584   2.204   2.288 -0.2202  0.1730  0.1389
 8000SOL    HW135459   3.639   2.201   2.209  1.4545 -0.1792  1.3313
 8000SOL    HW235460   3.517   2.263   2.253  0.8934  1.5236  0.2718
 8001SOL     OW35461   2.379   0.336   8.480  0.0776 -0.2040  0.1423
 8001SOL    HW135462   2.456   0.384   8.450  0.9738 -2.2571 -0.8698
 8001SOL    HW235463   2.315   0.406   8.489 -1.2947 -1.4518  0.0618
 8002SOL     OW35464   0.235   3.313   5.669 -0.2268  0.1819 -0.4277
 8002SOL    HW135465   0.148   3.311   5.630 -1.3445  0.4938  1.9967
 8002SOL    HW235466   0.221   3.239   5.729  0.9945  1.5913  1.5823
 8003SOL     OW35467   1.984   3.580  12.479  0.2360  0.4619 -0.0843
 8003SOL    HW135468   1.969   3.608  12.569  0.3672  1.8969 -0.5073
 8003SOL    HW235469   2.074   3.612  12.473 -0.2625  1.6499 -1.2096
 8004SOL     OW35470   4.271   2.897  11.780 -0.4195 -0.2698 -0.0562
 8004SOL    HW135471   4.361   2.870  11.800 -0.3406 -0.0060 -0.0582
 8004SOL    HW235472   4.266   2.982  11.822  0.8260  0.5142 -1.4766
 8005SOL     OW35473   0.480   1.169   2.835 -0.2462 -0.0656 -0.3293
 8005SOL    HW135474   0.479   1.264   2.845 -0.2169 -0.0096 -0.8377
 8005SOL    HW235475   0.503   1.147   2.925 -1.2307  0.5830  0.0801
 8006SOL     OW35476   2.197   3.051   6.698 -0.0463  0.6156  0.4733
 8006SOL    HW135477   2.229   2.961   6.686  4.4427  2.1231  1.3189
 8006SOL    HW235478   2.278   3.097   6.677  0.2210  0.0763  0.3112
 8007SOL     OW35479   2.022   3.997   4.258  0.0126 -0.0629 -0.2118
 8007SOL    HW135480   1.960   3.997   4.331 -0.1991 -1.2896 -0.3990
 8007SOL    HW235481   1.957   4.007   4.189  0.7564 -1.1818 -1.0569
 8008SOL     OW35482   3.018   2.724   1.953 -0.1203  0.4259 -0.2564
 8008SOL    HW135483   2.950   2.756   2.013 -1.5364 -1.2620 -0.9617
 8008SOL    HW235484   3.080   2.695   2.020 -0.7109 -1.7370 -0.6510
 8009SOL     OW35485   3.843   4.262   1.076  0.1224 -0.1738 -0.0036
 8009SOL    HW135486   3.805   4.181   1.107 -3.5223  1.1094 -1.1475
 8009SOL    HW235487   3.915   4.275   1.138 -0.1184  1.1424  0.0025
 8010SOL     OW35488   1.787   2.815  15.849 -0.0737  0.8586 -0.4793
 8010SOL    HW135489   1.838   2.871  15.909  0.8471 -0.6454  0.1437
 8010SOL    HW235490   1.697   2.833  15.875  0.4877  1.3276  1.2096
 8011SOL     OW35491   0.210   0.679   8.491  0.4169 -0.0667 -0.1808
 8011SOL    HW135492   0.192   0.614   8.559  3.2648  0.2317  0.8646
 8011SOL    HW235493   0.272   0.736   8.536 -0.0593  0.9640 -0.8414
 8012SOL     OW35494   1.083   0.904   4.921  0.5532 -0.2845 -0.3689
 8012SOL    HW135495   1.098   0.810   4.929 -2.0970 -0.8742 -2.2359
 8012SOL    HW235496   1.024   0.911   4.846 -0.1162  0.8179  0.2684
 8013SOL     OW35497   3.546   3.249   3.309  0.3544  0.5275  0.0920
 8013SOL    HW135498   3.568   3.316   3.244 -0.7828  1.8436  1.0525
 8013SOL    HW235499   3.481   3.199   3.260  0.4819  2.2440 -1.8281
 8014SOL     OW35500   2.784   3.791   6.400  0.2523  0.1832 -0.2227
 8014SOL    HW135501   2.873   3.824   6.410 -0.4860  2.4123 -0.9960
 8014SOL    HW235502   2.797   3.703   6.435  1.9544  0.8946  0.9471
 8015SOL     OW35503   3.390   0.413   1.433 -0.2462  0.8387  0.2924
 8015SOL    HW135504   3.313   0.394   1.485  0.9772 -1.1476  1.3705
 8015SOL    HW235505   3.370   0.495   1.388  1.7873  0.3321 -1.5421
 8016SOL     OW35506   3.393   2.681   5.378  0.3986 -0.1095 -0.4818
 8016SOL    HW135507   3.303   2.689   5.412  1.0807  1.9209  0.8794
 8016SOL    HW235508   3.421   2.769   5.352 -2.9853  0.9448 -0.5688
 8017SOL     OW35509   4.304   2.354   3.950 -0.1106  0.1587  0.7178
 8017SOL    HW135510   4.371   2.372   3.884 -2.1912  2.4539 -0.8045
 8017SOL    HW235511   4.339   2.273   3.988  0.9138 -0.1011 -0.7936
 8018SOL     OW35512   1.449   4.715   1.734 -0.2676 -0.0013 -0.6548
 8018SOL    HW135513   1.449   0.039   1.653 -0.7718  1.7732  0.4894
 8018SOL    HW235514   1.484   4.637   1.691  1.4870  0.4235  0.0105
 8019SOL     OW35515   3.412   2.554   2.511 -0.0758 -0.5212 -0.2916
 8019SOL    HW135516   3.457   2.572   2.593 -0.1049 -0.1207 -0.3664
 8019SOL    HW235517   3.423   2.459   2.516  1.7059 -0.3029 -0.0289
 8020SOL     OW35518   0.486   0.444   8.732 -0.2779 -0.5489  0.4858
 8020SOL    HW135519   0.476   0.536   8.759  0.7906 -0.3088  0.0599
 8020SOL    HW235520   0.396   0.415   8.714 -1.1324  1.4632  1.4603
 8021SOL     OW35521   4.543   4.592   9.567  0.0348 -0.4168  0.4487
 8021SOL    HW135522   4.499   4.625   9.645 -1.6079 -0.3143 -0.5331
 8021SOL    HW235523   4.636   4.581   9.591  0.3836 -0.5859 -1.0042
 8022SOL     OW35524   0.100   4.170   6.498  0.2704  0.3048 -0.6265
 8022SOL    HW135525   0.007   4.191   6.489  0.3640  0.1326 -2.0599
 8022SOL    HW235526   0.130   4.219   6.421  0.7574 -0.7954 -1.1506
 8023SOL     OW35527   1.678   2.716   8.298  0.2007  0.0110  0.4496
 8023SOL    HW135528   1.687   2.624   8.274 -0.3054 -0.1092  0.7217
 8023SOL    HW235529   1.589   2.720   8.333  1.4557  3.0445  3.2289
 8024SOL     OW35530   2.007   4.687  13.630 -0.3646  0.2497  0.3274
 8024SOL    HW135531   1.982   4.646  13.713  0.5416  0.1624  0.5610
 8024SOL    HW235532   1.941   4.663  13.565  1.0805  0.1815 -1.0983
 8025SOL     OW35533   1.389   2.112   5.499  0.2260 -0.1777 -0.1275
 8025SOL    HW135534   1.339   2.188   5.529 -1.5034 -1.9159  1.4377
 8025SOL    HW235535   1.320   2.062   5.454 -0.1029 -0.6642  0.9337
 8026SOL     OW35536   0.848   3.307   9.956  0.2932  0.8459 -0.1331
 8026SOL    HW135537   0.784   3.363  10.000 -0.0415  0.2996  0.0688
 8026SOL    HW235538   0.795   3.277   9.882  0.8942 -0.3747 -0.0700
 8027SOL     OW35539   0.195   2.149  12.334 -0.3113 -0.1133  0.0494
 8027SOL    HW135540   0.168   2.171  12.423  0.1745  0.9588 -0.0683
 8027SOL    HW235541   0.287   2.133  12.357 -0.8164 -1.7787  0.9441
 8028SOL     OW35542   0.772   0.498   3.830  0.2315 -0.0149  0.6040
 8028SOL    HW135543   0.812   0.442   3.764  0.0674 -0.4030  0.8365
 8028SOL    HW235544   0.817   0.464   3.907  0.9540  1.7345  0.9477
 8029SOL     OW35545   1.736   0.680   3.262  0.4438 -0.5691  0.1847
 8029SOL    HW135546   1.832   0.682   3.263  0.4232  1.3382 -1.3611
 8029SOL    HW235547   1.719   0.745   3.330  0.1312 -0.7783  0.3039
 8030SOL     OW35548   3.342   0.411   6.187 -0.4291  0.5067  0.1183
 8030SOL    HW135549   3.355   0.361   6.106  0.5709  0.1752  0.4776
 8030SOL    HW235550   3.253   0.442   6.171 -0.8686  0.8393  3.1548
 8031SOL     OW35551   3.080   0.608   0.497 -0.7869  0.0817  0.4183
 8031SOL    HW135552   3.125   0.685   0.462  1.3908 -0.9614  0.9281
 8031SOL    HW235553   3.004   0.636   0.547 -0.4630 -0.4739  1.2183
 8032SOL     OW35554   0.677   1.911   2.887 -0.4010  0.3051  0.2901
 8032SOL    HW135555   0.615   1.950   2.826 -0.2997  3.4929  2.2491
 8032SOL    HW235556   0.752   1.969   2.880 -1.5660  1.4513 -2.8562
 8033SOL     OW35557   2.215   3.825   4.163 -0.5921 -0.0374 -0.1331
 8033SOL    HW135558   2.172   3.900   4.203 -0.9436 -0.3655  0.0936
 8033SOL    HW235559   2.264   3.867   4.091 -1.1806  3.2753  1.3967
 8034SOL     OW35560   4.521   0.423   4.036  0.7253  0.3248  0.0030
 8034SOL    HW135561   4.595   0.430   3.977  1.3390 -1.6507  0.5340
 8034SOL    HW235562   4.563   0.421   4.122  1.0847  1.4001 -0.1561
 8035SOL     OW35563   0.175   0.331   7.018  0.4109  0.0042  0.4004
 8035SOL    HW135564   0.169   0.267   7.089 -1.6695 -1.2860 -0.9322
 8035SOL    HW235565   0.186   0.270   6.945 -0.6623 -0.6467  0.7871
 8036SOL     OW35566   3.600   0.576   5.728  0.3858 -0.3339  0.1376
 8036SOL    HW135567   3.668   0.508   5.729 -0.7592 -1.4732 -0.5651
 8036SOL    HW235568   3.569   0.576   5.638  1.6991  0.3849 -0.3237
 8037SOL     OW35569   1.659   2.151  15.261  0.5284 -0.6024 -0.4962
 8037SOL    HW135570   1.654   2.199  15.178 -0.5383  1.5648  0.8124
 8037SOL    HW235571   1.594   2.207  15.304  2.2232  0.6317  0.4552
 8038SOL     OW35572   4.062   2.338   7.158  0.6075  0.0402 -0.4761
 8038SOL    HW135573   4.054   2.248   7.190  0.6095  0.5043  0.8406
 8038SOL    HW235574   3.977   2.375   7.182  0.3671 -1.7039  1.4055
 8039SOL     OW35575   1.039   3.749  13.921 -0.1659  0.3603 -0.7006
 8039SOL    HW135576   0.969   3.813  13.911 -1.0815 -0.6549 -0.7361
 8039SOL    HW235577   1.006   3.683  13.860  1.2299 -0.1314 -0.9291
 8040SOL     OW35578   3.809   2.602   6.935  0.6548 -0.5031 -0.4401
 8040SOL    HW135579   3.848   2.601   7.022  0.5024  2.2654 -0.3483
 8040SOL    HW235580   3.718   2.623   6.952  0.5448 -0.3051 -1.2939
 8041SOL     OW35581   0.779   3.206   2.361 -0.2170 -0.4892 -0.7486
 8041SOL    HW135582   0.833   3.282   2.341 -1.1953 -0.3851 -2.9716
 8041SOL    HW235583   0.795   3.148   2.287  4.4545 -0.1475 -0.0433
 8042SOL     OW35584   2.006   0.887   0.642 -0.0796  0.3090 -0.2567
 8042SOL    HW135585   2.033   0.894   0.550 -1.3042  2.4781 -0.4346
 8042SOL    HW235586   1.995   0.792   0.651 -0.1378  0.2066 -1.3957
 8043SOL     OW35587   1.608   4.561   4.308  0.0960 -0.0091 -0.3202
 8043SOL    HW135588   1.585   4.644   4.265  0.8842  0.9133  1.0245
 8043SOL    HW235589   1.682   4.602   4.354 -1.6615  0.7566  1.8114
 8044SOL     OW35590   3.020   2.286   7.042 -0.6394  0.0881  0.2596
 8044SOL    HW135591   2.984   2.313   7.126 -2.2018 -0.2441 -0.3058
 8044SOL    HW235592   3.102   2.245   7.069  0.2860  1.2746 -0.7441
 8045SOL     OW35593   1.025   4.461   5.989 -0.6343  0.1694 -0.0172
 8045SOL    HW135594   1.076   4.492   5.914 -1.7868 -1.7799 -1.6028
 8045SOL    HW235595   0.946   4.509   5.964 -0.9317 -0.8824 -1.0573
 8046SOL     OW35596   1.512   2.627   2.273  1.0967 -0.5010 -0.4447
 8046SOL    HW135597   1.581   2.561   2.264  1.9165  0.5134 -1.5434
 8046SOL    HW235598   1.538   2.687   2.203 -0.5548  0.7934  0.0677
 8047SOL     OW35599   3.457   4.626   4.108  0.2115  0.1499  0.4613
 8047SOL    HW135600   3.426   4.569   4.178  0.3902  1.7761  1.8553
 8047SOL    HW235601   3.450   4.570   4.030 -1.6147  0.8647  0.1346
 8048SOL     OW35602   3.596   3.461   4.832  0.3305 -0.2533  0.2160
 8048SOL    HW135603   3.571   3.477   4.741  0.8942 -1.3112 -0.1167
 8048SOL    HW235604   3.535   3.387   4.840 -0.2311  0.1557 -0.3226
 8049SOL     OW35605   0.519   4.125   8.476  0.4879  0.0095 -0.0743
 8049SOL    HW135606   0.559   4.123   8.563  0.1525  0.2523  0.0847
 8049SOL    HW235607   0.483   4.214   8.481 -0.3532 -0.1775 -2.9129
 8050SOL     OW35608   0.093   3.701  11.876 -0.5258 -0.1576 -0.3446
 8050SOL    HW135609   0.016   3.691  11.820 -1.5836 -2.4748  1.5329
 8050SOL    HW235610   0.157   3.747  11.821  2.0640 -2.2803  0.9024
 8051SOL     OW35611   3.991   3.589   3.642  0.2005  0.3802 -0.1716
 8051SOL    HW135612   3.947   3.525   3.586  1.4506  0.2126 -0.9756
 8051SOL    HW235613   3.934   3.568   3.716 -0.8551 -0.2122 -1.1639
 8052SOL     OW35614   1.385   0.497   4.690 -0.0353  0.3625 -0.2130
 8052SOL    HW135615   1.393   0.476   4.597 -0.9489 -0.4467 -0.1016
 8052SOL    HW235616   1.476   0.479   4.715 -0.4296 -0.9795  0.2627
 8053SOL     OW35617   3.680   1.270   4.900  0.6709 -0.1271  0.2234
 8053SOL    HW135618   3.719   1.296   4.817  1.1115 -3.0794 -0.5101
 8053SOL    HW235619   3.755   1.282   4.958 -0.2285  0.7575  1.2170
 8054SOL     OW35620   2.404   2.958  11.256  0.3553  0.0311  0.1917
 8054SOL    HW135621   2.479   3.014  11.275  1.7915 -1.8683  0.1988
 8054SOL    HW235622   2.339   2.982  11.321  0.8714 -1.2831  1.1910
 8055SOL     OW35623   1.077   3.552  10.176  0.5321 -0.3162 -0.3184
 8055SOL    HW135624   1.171   3.542  10.188  1.0197  1.3870 -2.7797
 8055SOL    HW235625   1.044   3.540  10.266 -0.8742  1.9770 -0.5262
 8056SOL     OW35626   0.768   0.845  14.975 -0.6301 -0.4503  0.5610
 8056SOL    HW135627   0.686   0.825  15.021 -1.4133  3.3314  0.7518
 8056SOL    HW235628   0.736   0.848  14.884  2.6326  0.0901 -0.5481
 8057SOL     OW35629   2.437   2.123   8.924 -0.3048  1.1319  0.2486
 8057SOL    HW135630   2.462   2.212   8.947  1.2513  0.1054  2.5397
 8057SOL    HW235631   2.419   2.126   8.830 -1.5963  1.8279  0.5153
 8058SOL     OW35632   0.996   3.319   2.079 -0.6512  0.0340  0.4097
 8058SOL    HW135633   1.087   3.291   2.087 -0.7596 -0.7925 -1.1886
 8058SOL    HW235634   0.973   3.335   2.170  2.9055  0.5336  1.2169
 8059SOL     OW35635   3.086   4.527   5.706  0.1920 -0.3165  0.6479
 8059SOL    HW135636   3.070   4.434   5.718 -1.6017 -0.1811 -0.6544
 8059SOL    HW235637   3.068   4.541   5.613  0.6241 -0.7247  0.5057
 8060SOL     OW35638   4.665   1.498   2.534 -0.6123  0.0458  0.2692
 8060SOL    HW135639   4.699   1.509   2.446  0.6863 -0.1757  0.7434
 8060SOL    HW235640   4.590   1.557   2.525 -1.0326 -0.2014  2.0661
 8061SOL     OW35641   0.690   3.038   8.994  0.0728 -0.5131  0.2498
 8061SOL    HW135642   0.633   2.992   8.932 -0.3215 -0.2440  0.4131
 8061SOL    HW235643   0.639   3.021   9.073  0.2537  3.1180  1.1575
 8062SOL     OW35644   0.219   3.956   9.215 -0.2560 -0.1889 -0.0810
 8062SOL    HW135645   0.258   4.017   9.278  0.6087  0.5569 -1.3465
 8062SOL    HW235646   0.280   3.955   9.142 -0.2097  0.6236 -0.0563
 8063SOL     OW35647   3.662   2.387   7.240 -0.0303  0.0305  0.1590
 8063SOL    HW135648   3.589   2.447   7.256 -1.1624 -1.1611 -0.5953
 8063SOL    HW235649   3.739   2.430   7.278 -0.0506  1.5255 -1.4910
 8064SOL     OW35650   4.201   3.033   3.092  0.2946 -0.1334  0.3089
 8064SOL    HW135651   4.184   3.055   3.001 -0.4108  2.0747  0.9712
 8064SOL    HW235652   4.296   3.033   3.100  0.3712 -0.7165 -0.6141
 8065SOL     OW35653   1.435   1.451   1.087  0.3547  0.2553 -0.0686
 8065SOL    HW135654   1.438   1.514   1.015  4.2946 -0.4872 -0.5688
 8065SOL    HW235655   1.414   1.509   1.161  0.1583  1.4339 -1.0491
 8066SOL     OW35656   2.484   1.658   3.862  0.0432 -0.3100 -0.0106
 8066SOL    HW135657   2.440   1.574   3.873 -1.7082  0.6168  0.1797
 8066SOL    HW235658   2.476   1.678   3.769 -1.9549  1.2999  0.4929
 8067SOL     OW35659   0.234   0.699   2.684  0.1249 -0.5752  0.0168
 8067SOL    HW135660   0.293   0.774   2.688 -0.4096 -0.2210  1.2953
 8067SOL    HW235661   0.165   0.736   2.740  0.7360 -0.9025  0.9967
 8068SOL     OW35662   0.478   3.454   9.866 -0.0249 -0.1590  0.2931
 8068SOL    HW135663   0.520   3.500   9.794 -1.1294 -0.8250 -0.7997
 8068SOL    HW235664   0.513   3.367   9.846  0.1579 -0.1972  0.7838
 8069SOL     OW35665   2.811   4.047  15.109 -0.6626  0.1038  0.4989
 8069SOL    HW135666   2.822   4.048  15.014  2.8928  1.4349  0.8965
 8069SOL    HW235667   2.898   4.078  15.137 -1.1872  1.9492  0.0974
 8070SOL     OW35668   2.711   1.094   4.113 -0.1563  0.2048 -0.3204
 8070SOL    HW135669   2.749   1.096   4.200 -1.4251  0.3817  0.2338
 8070SOL    HW235670   2.689   1.001   4.121 -0.7184  0.2961 -0.8094
 8071SOL     OW35671   3.113   0.573   3.446  0.0304  0.2268  0.3795
 8071SOL    HW135672   3.155   0.657   3.425  0.1964  0.4168  1.4461
 8071SOL    HW235673   3.177   0.514   3.407  0.0729  0.3238  0.3009
 8072SOL     OW35674   4.216   4.081   4.618  0.5321 -0.1450  0.3983
 8072SOL    HW135675   4.260   4.022   4.680 -0.4544 -2.8377 -1.4363
 8072SOL    HW235676   4.274   4.157   4.619  1.3092 -0.7402  0.4325
 8073SOL     OW35677   2.764   1.468   6.597  0.4341  0.4350 -0.6549
 8073SOL    HW135678   2.792   1.394   6.543  0.6969  0.7298 -0.9208
 8073SOL    HW235679   2.824   1.459   6.672 -1.4224 -0.6276  0.7049
 8074SOL     OW35680   2.865   1.419   9.399  0.2925 -0.0171  0.1135
 8074SOL    HW135681   2.858   1.481   9.471  0.1270 -2.4236  2.1951
 8074SOL    HW235682   2.925   1.351   9.431 -0.4553 -0.6532  0.1819
 8075SOL     OW35683   0.603   1.139   6.395 -0.4377 -0.3892 -0.3248
 8075SOL    HW135684   0.664   1.143   6.469  0.5272 -0.1777 -1.1527
 8075SOL    HW235685   0.575   1.048   6.405  1.1607 -0.7678  0.7126
 8076SOL     OW35686   2.579   3.801   5.103  0.1961 -0.6090 -0.3511
 8076SOL    HW135687   2.654   3.849   5.068  0.0126 -0.2443 -0.2471
 8076SOL    HW235688   2.571   3.735   5.035  1.1117  1.2050 -2.2027
 8077SOL     OW35689   1.027   2.511  11.336 -0.1355  0.1478  0.1314
 8077SOL    HW135690   1.120   2.488  11.326  0.0688  1.3432 -0.6625
 8077SOL    HW235691   0.985   2.436  11.294 -0.6100  0.3524  0.2499
 8078SOL     OW35692   1.422   0.588   6.355  0.0403 -0.1177  0.8295
 8078SOL    HW135693   1.366   0.512   6.368  2.0479 -1.7501 -0.1932
 8078SOL    HW235694   1.505   0.551   6.383  0.4742  0.8963  0.8986
 8079SOL     OW35695   0.005   3.851  16.659  0.0833 -0.4646 -0.2305
 8079SOL    HW135696   0.058   3.778  16.690  0.9247 -0.0760 -0.7563
 8079SOL    HW235697   4.719   3.899  16.740  1.5106  0.9943 -0.8638
 8080SOL     OW35698   0.829   4.293   6.185  0.5001 -0.2863 -0.0589
 8080SOL    HW135699   0.886   4.327   6.116 -1.2401  1.0787 -0.8096
 8080SOL    HW235700   0.879   4.286   6.266  1.2062  2.5591 -0.2470
 8081SOL     OW35701   0.522   3.868   3.837 -0.2464 -0.6209  0.6220
 8081SOL    HW135702   0.571   3.869   3.920  0.7434  1.1345  0.0074
 8081SOL    HW235703   0.584   3.884   3.767 -0.9715  1.2343  0.4117
 8082SOL     OW35704   1.305   2.183   8.832 -0.0214 -0.3890 -0.5247
 8082SOL    HW135705   1.271   2.266   8.865 -1.2117 -0.0120 -2.6573
 8082SOL    HW235706   1.281   2.125   8.904 -1.9705 -0.3425 -1.1243
 8083SOL     OW35707   3.526   4.354   5.472  0.7916  0.9455 -0.4752
 8083SOL    HW135708   3.506   4.354   5.378 -0.2582 -0.5981 -0.2522
 8083SOL    HW235709   3.490   4.269   5.497  3.0786  0.7042  1.9887
 8084SOL     OW35710   1.378   2.607  13.829  0.1192 -0.5012 -0.3581
 8084SOL    HW135711   1.446   2.634  13.768 -0.9534 -0.7484 -1.6501
 8084SOL    HW235712   1.429   2.589  13.908 -0.6572 -1.2973 -0.0401
 8085SOL     OW35713   1.017   1.149   3.862  0.2224 -0.6259  0.2451
 8085SOL    HW135714   0.977   1.128   3.778  0.7850  1.0018 -0.4475
 8085SOL    HW235715   0.947   1.199   3.904  0.0126 -1.0916  0.4454
 8086SOL     OW35716   3.772   4.239   5.176  0.7306  0.6126 -0.5155
 8086SOL    HW135717   3.787   4.213   5.085  0.4164 -1.9950  0.2032
 8086SOL    HW235718   3.849   4.203   5.219  0.3436  2.7402  1.9868
 8087SOL     OW35719   4.389   2.870   3.493  0.2251  0.0694  0.1463
 8087SOL    HW135720   4.466   2.835   3.447  0.0869 -0.9725  0.7131
 8087SOL    HW235721   4.323   2.811   3.458 -1.2969  1.7866  0.1454
 8088SOL     OW35722   1.143   1.049   0.415 -0.2302 -0.5728  0.1538
 8088SOL    HW135723   1.080   1.032   0.345 -0.7745  2.5604 -0.0886
 8088SOL    HW235724   1.181   1.131   0.385  1.9933 -1.6295  0.1125
 8089SOL     OW35725   1.039   0.383   1.709  0.0471  0.2405 -0.2841
 8089SOL    HW135726   1.017   0.345   1.624 -2.8091 -0.3898  0.7402
 8089SOL    HW235727   1.036   0.475   1.682 -0.5436  0.2524 -0.1813
 8090SOL     OW35728   4.665   2.541  17.011  0.3004 -0.2161 -0.1953
 8090SOL    HW135729   4.593   2.479  17.015  0.0492  0.0881 -0.0146
 8090SOL    HW235730   4.615   2.623  17.006  1.1309  0.4590  2.4843
 8091SOL     OW35731   2.050   2.165  10.816 -0.0376 -0.8535 -0.6383
 8091SOL    HW135732   1.974   2.208  10.777 -0.6698 -1.6168 -0.2565
 8091SOL    HW235733   2.037   2.075  10.785 -1.8702 -1.1316  0.9141
 8092SOL     OW35734   3.270   0.927  12.782  0.3143  0.6795  0.5072
 8092SOL    HW135735   3.352   0.877  12.775  0.8442  1.4420  1.2653
 8092SOL    HW235736   3.235   0.860  12.840 -0.2779  0.4805 -0.0746
 8093SOL     OW35737   1.087   1.754   4.638  0.1565  0.2770 -0.0220
 8093SOL    HW135738   1.095   1.848   4.621  2.5468  0.2356  0.7214
 8093SOL    HW235739   1.171   1.732   4.680 -0.3296 -0.5348  0.5322
 8094SOL     OW35740   4.721   1.952   7.503 -0.1048 -0.0768 -0.9819
 8094SOL    HW135741   0.024   1.995   7.582 -1.1478 -1.6126  0.2869
 8094SOL    HW235742   4.656   1.899   7.549 -2.0283  3.3664  0.2741
 8095SOL     OW35743   2.545   2.676  11.346  0.9285  0.4076 -0.0227
 8095SOL    HW135744   2.624   2.623  11.344  0.9695  0.4318  0.9173
 8095SOL    HW235745   2.509   2.641  11.427  0.3731  4.3568  1.4369
 8096SOL     OW35746   3.144   2.955   2.284 -0.3020  0.1670 -0.0912
 8096SOL    HW135747   3.137   2.866   2.319 -1.4333 -1.0749 -3.4438
 8096SOL    HW235748   3.223   2.933   2.234 -0.7054  0.0181 -0.6658
 8097SOL     OW35749   1.597   0.014   2.856  0.0438  0.5738 -0.2062
 8097SOL    HW135750   1.567   0.013   2.766 -1.0593  0.3987  0.1710
 8097SOL    HW235751   1.530   4.684   2.892 -1.3882  0.4853 -3.0441
 8098SOL     OW35752   2.201   2.239   7.393 -0.1253  0.0622  0.8325
 8098SOL    HW135753   2.106   2.231   7.396 -0.1504  0.1576  0.2410
 8098SOL    HW235754   2.237   2.183   7.463 -0.1603 -1.0775 -0.0511
 8099SOL     OW35755   0.082   2.045   0.524 -0.2804 -0.4403  0.0276
 8099SOL    HW135756   0.169   2.083   0.513 -0.8569  0.5557 -0.9857
 8099SOL    HW235757   0.099   1.993   0.603  1.8833  0.1027 -0.0786
 8100SOL     OW35758   4.137   0.268  11.761  0.0587 -0.0080  0.1163
 8100SOL    HW135759   4.231   0.276  11.743 -0.0686 -1.6696 -1.2687
 8100SOL    HW235760   4.133   0.174  11.778 -0.2895 -0.4227 -2.2862
 8101SOL     OW35761   3.269   3.214   6.310 -0.6139 -0.2157  0.1194
 8101SOL    HW135762   3.205   3.232   6.379 -0.2783 -3.3087  1.2547
 8101SOL    HW235763   3.217   3.146   6.268  1.0083 -0.3994 -1.5604
 8102SOL     OW35764   1.068   1.800   4.306  0.0442 -0.2788 -0.1613
 8102SOL    HW135765   1.085   1.849   4.386  1.4678 -0.5385 -0.2980
 8102SOL    HW235766   0.972   1.800   4.306  0.0422  1.8308 -1.3856
 8103SOL     OW35767   0.755   1.627  13.089  0.3297  0.2049 -0.0548
 8103SOL    HW135768   0.827   1.603  13.147 -0.5003 -0.3066  0.7499
 8103SOL    HW235769   0.708   1.544  13.086 -0.5199  0.6685  0.5016
 8104SOL     OW35770   1.571   4.437   8.083  0.8680  0.0777 -0.5676
 8104SOL    HW135771   1.649   4.433   8.026  1.5609  3.8393  0.1537
 8104SOL    HW235772   1.498   4.420   8.023 -0.9700 -0.3950  1.8453
 8105SOL     OW35773   2.952   1.520  14.463 -1.1231  0.7994  0.5013
 8105SOL    HW135774   3.017   1.577  14.505 -0.1464  0.3888 -0.4597
 8105SOL    HW235775   2.955   1.550  14.372 -0.4201 -0.3371  0.1562
 8106SOL     OW35776   2.087   3.939  10.752 -0.5096  0.0272 -0.0952
 8106SOL    HW135777   2.070   4.011  10.813 -1.7093  0.6232 -1.1364
 8106SOL    HW235778   2.098   3.862  10.809 -2.2547  1.4171  2.1425
 8107SOL     OW35779   1.216   3.501   6.269 -1.1204 -0.3804 -0.1702
 8107SOL    HW135780   1.168   3.468   6.193  0.7907 -1.6364 -0.8225
 8107SOL    HW235781   1.247   3.418   6.303  1.5565  1.4225  1.8142
 8108SOL     OW35782   2.097   2.404   3.400  0.6405 -0.7523 -0.1639
 8108SOL    HW135783   2.125   2.317   3.372  0.9955 -0.6296 -0.1868
 8108SOL    HW235784   2.002   2.399   3.391  0.7056 -1.6256 -0.4648
 8109SOL     OW35785   4.563   1.708  13.530 -0.4534 -0.6866 -0.1298
 8109SOL    HW135786   4.576   1.745  13.442 -0.6509  0.6257  0.3920
 8109SOL    HW235787   4.485   1.655  13.514 -1.3566  0.5604  0.1342
 8110SOL     OW35788   0.808   4.124   4.036  0.0079 -0.5145 -0.0473
 8110SOL    HW135789   0.860   4.116   4.116 -1.4445  3.1786  1.2774
 8110SOL    HW235790   0.866   4.084   3.972 -1.1829 -0.1326 -1.3690
 8111SOL     OW35791   0.829   3.221   4.019  0.0184 -0.2174 -0.5701
 8111SOL    HW135792   0.822   3.150   3.955 -1.5562 -0.2155 -0.3967
 8111SOL    HW235793   0.804   3.297   3.966  0.9043  1.1580  0.9661
 8112SOL     OW35794   4.527   3.998   6.821 -0.1755  0.0347 -0.0471
 8112SOL    HW135795   4.579   3.957   6.890  2.0403 -2.0516 -2.9684
 8112SOL    HW235796   4.513   3.926   6.759  0.7545  0.7288 -1.0509
 8113SOL     OW35797   4.436   0.485  14.421  0.1232 -0.1753 -0.3333
 8113SOL    HW135798   4.457   0.524  14.335 -1.3678 -0.0124 -0.6191
 8113SOL    HW235799   4.352   0.525  14.444  0.1587  0.4121 -1.2103
 8114SOL     OW35800   1.870   4.185   4.547 -0.6350 -0.3264  0.6931
 8114SOL    HW135801   1.854   4.142   4.631  1.1161 -0.1621  1.1107
 8114SOL    HW235802   1.884   4.104   4.497  2.5529 -0.3917  1.6941
 8115SOL     OW35803   0.826   3.095   8.425  0.3509 -0.0615  0.2893
 8115SOL    HW135804   0.910   3.124   8.460  0.1746 -0.9878  1.4524
 8115SOL    HW235805   0.777   3.076   8.505 -0.6360 -1.5723 -0.6672
 8116SOL     OW35806   1.672   2.950  13.677  0.3730 -0.4466 -0.2855
 8116SOL    HW135807   1.725   2.956  13.756  1.1796 -2.3195 -0.6713
 8116SOL    HW235808   1.671   2.854  13.667 -1.5249 -0.5923  1.4821
 8117SOL     OW35809   0.771   3.143  11.384  0.2933  0.6786 -0.2324
 8117SOL    HW135810   0.721   3.075  11.430 -0.1205  1.1311 -0.0192
 8117SOL    HW235811   0.700   3.203  11.362  0.6298  1.6441  1.2499
 8118SOL     OW35812   2.311   2.263  12.653  0.0848  0.5021  0.0589
 8118SOL    HW135813   2.237   2.238  12.597 -0.0978 -1.2520  1.0727
 8118SOL    HW235814   2.378   2.260  12.584  0.5822  0.4071  0.5454
 8119SOL     OW35815   0.374   2.945   5.546  0.4801  0.8591  0.2634
 8119SOL    HW135816   0.456   2.947   5.596  1.1204  0.5735 -0.7890
 8119SOL    HW235817   0.311   2.915   5.613 -0.6693  0.7529 -0.8609
 8120SOL     OW35818   0.063   4.653  15.850 -0.0699 -0.0324 -0.4598
 8120SOL    HW135819   0.098   4.720  15.791 -0.1796  0.1672 -0.2975
 8120SOL    HW235820   0.052   4.702  15.931 -0.9431  0.7405 -1.0352
 8121SOL     OW35821   2.455   1.341  13.206 -0.0107  0.3501 -0.3977
 8121SOL    HW135822   2.481   1.431  13.184 -0.9938  0.6811 -0.2360
 8121SOL    HW235823   2.523   1.323  13.271 -2.5628 -1.9619  1.6271
 8122SOL     OW35824   4.434   2.407   4.989 -0.1364  0.5623  0.2214
 8122SOL    HW135825   4.384   2.488   5.000  0.4774  0.6663  2.2856
 8122SOL    HW235826   4.514   2.426   4.939 -0.1077  2.3602  0.9167
 8123SOL     OW35827   3.037   2.577  10.313  0.3079  0.0909  0.5385
 8123SOL    HW135828   3.037   2.671  10.327 -1.0709 -0.0593  1.5867
 8123SOL    HW235829   3.047   2.565  10.218  3.2209  2.8219  0.5218
 8124SOL     OW35830   1.287   1.725   3.146 -0.1476  0.1894 -0.5087
 8124SOL    HW135831   1.322   1.682   3.223  1.7308  1.5011 -0.6452
 8124SOL    HW235832   1.277   1.652   3.084  0.0738 -0.5814  0.3732
 8125SOL     OW35833   2.524   0.793   5.122 -0.2802  0.5412 -0.1640
 8125SOL    HW135834   2.442   0.808   5.075 -0.7886  1.9600  1.1615
 8125SOL    HW235835   2.571   0.722   5.080 -0.3046 -0.1812  1.0427
 8126SOL     OW35836   2.397   0.030  16.651  0.1611  1.0946  0.3150
 8126SOL    HW135837   2.405   4.716  16.736  0.6714 -0.8873 -0.7070
 8126SOL    HW235838   2.302   0.028  16.637  0.1746  2.0902  0.1194
 8127SOL     OW35839   4.681   1.305   7.081 -0.7817  0.4311  0.1777
 8127SOL    HW135840   0.047   1.313   7.102 -0.9153  0.8960  0.5995
 8127SOL    HW235841   4.687   1.283   6.988  2.4448 -0.0623  0.5044
 8128SOL     OW35842   4.636   3.975  12.527 -0.6511  0.2135  0.2966
 8128SOL    HW135843   4.573   3.920  12.481  0.3809 -0.1895 -0.6433
 8128SOL    HW235844   4.693   4.003  12.456  1.2562  1.8048  2.4347
 8129SOL     OW35845   3.657   0.488   1.497 -0.7859  0.1136  0.2150
 8129SOL    HW135846   3.568   0.483   1.462 -0.4724  0.6980 -0.6521
 8129SOL    HW235847   3.638   0.516   1.587 -0.7488 -1.9068  0.8462
 8130SOL     OW35848   0.148   2.111   6.291 -0.7961  0.1524  0.2259
 8130SOL    HW135849   0.073   2.139   6.239  0.5588  2.8342 -0.2994
 8130SOL    HW235850   0.145   2.182   6.355 -4.3893  1.2221 -1.1321
 8131SOL     OW35851   3.782   1.410   4.676 -0.0754 -0.0781 -0.5813
 8131SOL    HW135852   3.706   1.463   4.652 -0.9077  0.0015  2.1577
 8131SOL    HW235853   3.845   1.433   4.609  1.7314 -2.4603  0.2846
 8132SOL     OW35854   1.940   3.268   4.417  0.0962  0.3853 -0.4861
 8132SOL    HW135855   1.936   3.352   4.463  0.7998 -1.6008  3.2277
 8132SOL    HW235856   2.032   3.240   4.416 -0.3135 -1.0145  0.6407
 8133SOL     OW35857   0.092   4.116  10.124 -0.0479 -0.1251 -0.1117
 8133SOL    HW135858   0.006   4.153  10.106  0.1837 -0.8675 -2.6622
 8133SOL    HW235859   0.067   4.036  10.172  1.0431 -0.2718  0.2154
 8134SOL     OW35860   4.309   2.794   5.512  0.0831  0.0901 -0.0703
 8134SOL    HW135861   4.300   2.718   5.569 -1.4430  1.3032  1.3252
 8134SOL    HW235862   4.345   2.768   5.428  0.0641  0.4388 -0.1876
 8135SOL     OW35863   4.016   3.633   9.864  0.2679  0.3257 -0.1515
 8135SOL    HW135864   3.941   3.574   9.852  1.2052 -0.4202 -2.2590
 8135SOL    HW235865   4.082   3.565   9.858 -0.9472 -0.7131 -1.8082
 8136SOL     OW35866   0.317   0.039  13.690 -0.1256 -0.0146 -0.3128
 8136SOL    HW135867   0.360   4.706  13.631 -2.2365 -1.0662 -0.7790
 8136SOL    HW235868   0.227   0.047  13.658 -0.0430  0.1537 -0.5024
 8137SOL     OW35869   1.882   2.852   4.743 -0.2180  0.5002  0.1186
 8137SOL    HW135870   1.873   2.759   4.720  0.8366  0.8049 -1.4950
 8137SOL    HW235871   1.977   2.854   4.753 -0.3341 -1.5193  1.7522
 8138SOL     OW35872   0.130   4.028   6.922  0.3354 -1.0225  0.0018
 8138SOL    HW135873   0.047   4.054   6.883  0.1306  0.5738  1.4818
 8138SOL    HW235874   0.187   4.100   6.895  3.5677 -3.1241  1.0969
 8139SOL     OW35875   0.450   1.424  10.793 -0.1883 -0.2973 -0.5991
 8139SOL    HW135876   0.458   1.509  10.749 -1.1161  0.5807  0.9539
 8139SOL    HW235877   0.463   1.449  10.884  2.0518  1.9181 -1.5511
 8140SOL     OW35878   2.931   0.512  16.796  0.0889  0.5127 -0.2686
 8140SOL    HW135879   3.019   0.544  16.776  0.2037  1.3033  1.4801
 8140SOL    HW235880   2.912   0.458  16.720  1.5160  0.9419 -0.9444
 8141SOL     OW35881   2.533   2.385   7.056 -0.8057 -0.0721 -0.1668
 8141SOL    HW135882   2.621   2.357   7.031 -0.8636 -1.8316  1.6003
 8141SOL    HW235883   2.489   2.370   6.972  0.3195 -0.6006 -0.6599
 8142SOL     OW35884   1.055   0.335  11.979 -0.2667  0.5825 -0.0121
 8142SOL    HW135885   0.999   0.352  11.903 -0.3330 -1.1113 -0.3417
 8142SOL    HW235886   1.018   0.393  12.046  1.7885 -1.6583  3.0331
 8143SOL     OW35887   1.497   4.013   3.500 -0.4833  0.2223  0.1154
 8143SOL    HW135888   1.571   4.016   3.560  1.3171 -1.3603 -2.0189
 8143SOL    HW235889   1.551   3.989   3.424 -0.5155 -1.4957  0.6431
 8144SOL     OW35890   0.507   1.934   4.284  0.2528 -0.9163  0.0801
 8144SOL    HW135891   0.424   1.977   4.303  0.8049  0.8715 -1.5868
 8144SOL    HW235892   0.526   1.894   4.369 -0.8974 -0.0226  0.7604
 8145SOL     OW35893   0.422   1.211   1.553  0.6953  0.2013  0.1248
 8145SOL    HW135894   0.360   1.279   1.578  0.6539 -0.4654  1.8113
 8145SOL    HW235895   0.428   1.221   1.458  1.2933 -0.2240  0.1144
 8146SOL     OW35896   4.518   1.027   4.935 -0.2435  0.5088  0.3651
 8146SOL    HW135897   4.537   0.938   4.964  1.7470 -0.0351 -2.5488
 8146SOL    HW235898   4.559   1.025   4.848  1.3646  0.2952  1.1310
 8147SOL     OW35899   4.081   4.046   2.378  0.1550 -0.2864  0.1884
 8147SOL    HW135900   4.097   4.096   2.458 -2.4549  0.4565  0.2360
 8147SOL    HW235901   4.117   4.110   2.318 -2.2687  0.7890 -0.1362
 8148SOL     OW35902   3.990   3.332  11.194 -0.4069 -0.1649  0.6786
 8148SOL    HW135903   4.005   3.237  11.199 -0.4633 -0.1865  0.4387
 8148SOL    HW235904   4.081   3.356  11.211 -0.6263  0.4179  1.0217
 8149SOL     OW35905   3.370   3.472   5.830 -0.2671 -0.4139 -0.3170
 8149SOL    HW135906   3.322   3.479   5.913 -0.8021  1.0829 -0.7537
 8149SOL    HW235907   3.341   3.391   5.788 -0.9843  1.5020 -3.5447
 8150SOL     OW35908   0.275   2.004   4.801  0.3294 -0.0111  0.0568
 8150SOL    HW135909   0.242   1.996   4.891 -0.2133 -1.5946 -0.2849
 8150SOL    HW235910   0.229   2.082   4.771  0.5385  0.0884 -0.0083
 8151SOL     OW35911   2.948   3.269  17.214 -0.1699 -0.4546  0.2928
 8151SOL    HW135912   2.995   3.253  17.296 -0.8168 -1.0301  0.5528
 8151SOL    HW235913   3.011   3.224  17.157 -0.4120  0.7049 -0.8735
 8152SOL     OW35914   4.049   2.126   8.157  0.6934 -0.0394 -0.5361
 8152SOL    HW135915   4.142   2.139   8.139  0.3438  1.9134 -0.9509
 8152SOL    HW235916   4.018   2.209   8.122 -0.0076  0.1891  0.6476
 8153SOL     OW35917   0.604   3.371   5.396 -0.0183  0.3259 -0.1170
 8153SOL    HW135918   0.563   3.371   5.482 -2.1128 -3.5019 -1.0791
 8153SOL    HW235919   0.598   3.277   5.381  1.1698  0.2495 -0.1291
 8154SOL     OW35920   2.347   2.811   8.109 -0.4178 -0.1451  0.7566
 8154SOL    HW135921   2.363   2.717   8.101  3.9324  0.5781  0.7308
 8154SOL    HW235922   2.337   2.857   8.025 -2.5415 -0.3399  0.9097
 8155SOL     OW35923   1.003   0.458  17.517  0.2482  0.4579  0.3422
 8155SOL    HW135924   1.043   0.480  17.602  1.3473 -1.7061  0.3590
 8155SOL    HW235925   0.922   0.509  17.526 -0.7592 -1.0391 -0.4244
 8156SOL     OW35926   1.709   4.691   8.194 -0.0086 -0.7760  0.7179
 8156SOL    HW135927   1.704   4.596   8.187  0.2855 -0.5462 -2.4893
 8156SOL    HW235928   1.801   4.708   8.174 -0.6782  0.7021 -1.1640
 8157SOL     OW35929   1.125   1.829   0.451  0.0309 -0.3517 -0.0304
 8157SOL    HW135930   1.169   1.755   0.408  0.9446  0.6521 -0.8153
 8157SOL    HW235931   1.142   1.901   0.391  0.7036  0.3552  0.9889
 8158SOL     OW35932   3.634   3.529   2.337  0.7534  0.2538  0.5789
 8158SOL    HW135933   3.611   3.555   2.248  0.6563  0.5083  0.6781
 8158SOL    HW235934   3.720   3.494   2.316 -0.6216 -3.1416  0.5776
 8159SOL     OW35935   1.013   0.781  12.385  0.2630  0.2595  0.2695
 8159SOL    HW135936   1.075   0.743  12.323  0.3260  0.5086  0.1789
 8159SOL    HW235937   0.972   0.700  12.415 -0.8931  1.2105  1.2706
 8160SOL     OW35938   3.358   0.563   7.346 -0.4983  0.3864  0.0460
 8160SOL    HW135939   3.421   0.542   7.276 -1.8477 -1.5250 -0.5875
 8160SOL    HW235940   3.324   0.477   7.367 -1.6266  0.9256  0.4223
 8161SOL     OW35941   3.455   3.443  13.104  0.4052  0.2761  0.1639
 8161SOL    HW135942   3.396   3.410  13.171  2.7919 -1.2017  1.5433
 8161SOL    HW235943   3.418   3.530  13.088 -1.8965 -0.4604  1.4782
 8162SOL     OW35944   1.441   4.620  15.830 -0.3101 -0.0014  0.0092
 8162SOL    HW135945   1.444   4.535  15.874 -0.4702  1.3212  2.5692
 8162SOL    HW235946   1.414   4.671  15.906  1.3487  1.0589 -0.0915
 8163SOL     OW35947   2.858   4.668   4.972  0.3083 -0.1660 -0.0400
 8163SOL    HW135948   2.918   4.594   4.985  1.3131  0.9592  1.6657
 8163SOL    HW235949   2.794   4.617   4.922  0.0310  0.7275 -0.6051
 8164SOL     OW35950   0.468   0.069   7.483  0.2983  0.4725  0.1174
 8164SOL    HW135951   0.431   0.043   7.567  0.9482  1.1644  0.6115
 8164SOL    HW235952   0.457   4.706   7.453  2.3170 -0.2071  1.5057
 8165SOL     OW35953   2.804   4.107  17.635  0.3993 -0.1478 -0.1991
 8165SOL    HW135954   2.735   4.069  17.689 -0.6757  0.9594 -0.7982
 8165SOL    HW235955   2.777   4.081  17.547  0.0721  1.5750 -0.5986
 8166SOL     OW35956   4.298   0.797  10.325  0.2384 -0.0352  0.1968
 8166SOL    HW135957   4.378   0.843  10.351 -0.6117  1.7357 -0.3482
 8166SOL    HW235958   4.299   0.713  10.371 -2.5323 -0.3621 -0.3460
 8167SOL     OW35959   2.806   0.160  15.818  0.1125 -0.6991  0.6062
 8167SOL    HW135960   2.890   0.140  15.859  1.7535  1.4297 -1.7246
 8167SOL    HW235961   2.758   0.095  15.869  0.6898 -1.8472 -0.3266
 8168SOL     OW35962   1.117   0.114  16.412  0.2905 -0.1360 -0.2617
 8168SOL    HW135963   1.167   0.195  16.419  0.2300 -0.3706  2.6089
 8168SOL    HW235964   1.100   0.096  16.504 -1.9141  2.5676 -0.1528
 8169SOL     OW35965   1.763   1.773   5.359 -0.5522  0.1551  0.4584
 8169SOL    HW135966   1.715   1.697   5.393 -0.7733 -0.0494 -0.3129
 8169SOL    HW235967   1.829   1.788   5.427  1.4496  0.1960 -1.4962
 8170SOL     OW35968   2.685   1.709   8.455 -0.2761  0.0257 -0.4384
 8170SOL    HW135969   2.662   1.775   8.520  0.7398 -0.5643  0.5333
 8170SOL    HW235970   2.747   1.652   8.501 -0.2572  2.0176  1.9807
 8171SOL     OW35971   4.196   4.609   8.343  0.0885  0.2101  0.3956
 8171SOL    HW135972   4.270   4.555   8.370 -0.0808 -0.5275 -0.6133
 8171SOL    HW235973   4.233   4.698   8.340  1.9212 -0.5051  2.0646
 8172SOL     OW35974   3.335   3.777   4.794  0.4237  0.1401  0.3044
 8172SOL    HW135975   3.279   3.709   4.757  1.3478  0.4770 -1.7060
 8172SOL    HW235976   3.279   3.855   4.784 -0.4539 -0.4520  0.6220
 8173SOL     OW35977   2.027   4.661  15.338  0.1304  0.1642 -0.0412
 8173SOL    HW135978   1.982   4.618  15.265 -1.5849 -0.6551  1.4835
 8173SOL    HW235979   1.955   4.678  15.399 -0.8998  0.9568 -1.5033
 8174SOL     OW35980   3.373   0.551   5.350 -0.7654 -0.4537  0.5417
 8174SOL    HW135981   3.466   0.531   5.362 -0.2225  2.4563  1.0367
 8174SOL    HW235982   3.332   0.477   5.396  1.0097 -2.4622 -1.1302
 8175SOL     OW35983   1.328   4.082   7.387  0.1404  0.4698 -0.5793
 8175SOL    HW135984   1.338   4.003   7.333  1.1490 -0.0095  0.3270
 8175SOL    HW235985   1.247   4.060   7.433  0.9975  0.2747  0.8205
 8176SOL     OW35986   1.280   4.235   1.556 -0.6272 -0.0135 -0.4417
 8176SOL    HW135987   1.344   4.240   1.627  1.4768 -2.8045 -2.1325
 8176SOL    HW235988   1.224   4.160   1.571  0.1640 -1.3221 -3.9964
 8177SOL     OW35989   4.681   3.063   4.458  0.5079 -0.1562  0.1977
 8177SOL    HW135990   0.039   3.064   4.416  1.4784 -1.6922  2.1260
 8177SOL    HW235991   4.641   3.115   4.389  0.8563  0.6438  0.5944
 8178SOL     OW35992   4.658   2.026   1.382 -0.1624 -0.3388 -0.0399
 8178SOL    HW135993   4.653   1.995   1.292  1.1894  2.5292 -1.0916
 8178SOL    HW235994   4.625   2.116   1.389 -1.5935 -0.8824  0.2069
 8179SOL     OW35995   4.354   1.474   6.931  0.7322 -0.0638 -0.5515
 8179SOL    HW135996   4.327   1.544   6.871 -0.1604  0.1856  0.1333
 8179SOL    HW235997   4.292   1.497   7.000  1.3075  1.1527 -0.4357
 8180SOL     OW35998   4.584   1.899   6.348 -0.1950  0.2130 -0.7153
 8180SOL    HW135999   4.623   1.833   6.405 -0.2467 -0.2133 -1.1737
 8180SOL    HW236000   4.562   1.969   6.410  1.3974  0.2589 -0.1985
 8181SOL     OW36001   1.106   3.492   8.993 -0.2128  0.2040  0.4316
 8181SOL    HW136002   1.134   3.583   9.000 -2.0209  0.8198 -0.3104
 8181SOL    HW236003   1.029   3.501   9.050  0.5343 -1.2928  1.7167
 8182SOL     OW36004   1.978   4.215  13.544 -0.2349 -0.3015  0.2549
 8182SOL    HW136005   2.013   4.272  13.475  0.4949 -2.7171 -1.3646
 8182SOL    HW236006   1.900   4.193  13.493  0.3577 -0.0662 -0.7428
 8183SOL     OW36007   1.418   1.250   5.784  0.3058 -0.0764  0.1728
 8183SOL    HW136008   1.364   1.191   5.836 -1.0569  0.7442 -0.2899
 8183SOL    HW236009   1.363   1.327   5.767  0.2434 -0.1563  0.0185
 8184SOL     OW36010   0.993   2.111   8.174 -0.2396  0.0726  0.1603
 8184SOL    HW136011   1.009   2.075   8.261  0.1477 -1.0376 -0.3715
 8184SOL    HW236012   0.899   2.124   8.187 -0.0033  1.0582  0.9117
 8185SOL     OW36013   1.567   2.838   6.343  0.4364 -0.5996  0.1142
 8185SOL    HW136014   1.660   2.833   6.323 -0.2422  0.1095 -3.1788
 8185SOL    HW236015   1.559   2.859   6.436 -0.7394  0.8506 -0.3134
 8186SOL     OW36016   1.064   4.399   9.032 -0.2050  0.1826 -0.2638
 8186SOL    HW136017   1.046   4.450   9.111  0.7400 -1.3401  0.9452
 8186SOL    HW236018   1.055   4.462   8.961 -3.4379  2.2633  2.0142
 8187SOL     OW36019   0.879   3.461   0.596 -0.3126  0.5667 -0.1473
 8187SOL    HW136020   0.962   3.456   0.548 -0.2181 -1.8918  0.2928
 8187SOL    HW236021   0.914   3.498   0.677  0.2861 -2.3534  0.9149
 8188SOL     OW36022   1.511   3.859   2.947  0.2580 -0.3523  0.1142
 8188SOL    HW136023   1.479   3.811   2.870  1.7361  1.4443 -1.6136
 8188SOL    HW236024   1.536   3.944   2.910  1.1871 -0.7383 -0.1552
 8189SOL     OW36025   2.248   1.898   7.481 -0.1789  0.1372  0.0708
 8189SOL    HW136026   2.303   1.913   7.404  0.0583 -0.4747  0.1225
 8189SOL    HW236027   2.178   1.839   7.454  0.5735 -0.7336  0.0293
 8190SOL     OW36028   4.117   2.656  13.217 -0.4528  0.2933 -0.6586
 8190SOL    HW136029   4.123   2.721  13.287  1.9918  1.0390 -1.5374
 8190SOL    HW236030   4.148   2.706  13.141 -1.4561  0.2532 -1.0979
 8191SOL     OW36031   0.829   3.106  14.342  0.2748  0.1628  0.7775
 8191SOL    HW136032   0.884   3.182  14.364  2.3866 -2.2414  3.7314
 8191SOL    HW236033   0.823   3.067  14.429  0.1101  1.3521  1.3092
 8192SOL     OW36034   1.876   0.285   7.843  0.1629 -0.5660  0.0906
 8192SOL    HW136035   1.897   0.365   7.795  1.4241  0.4057  2.2633
 8192SOL    HW236036   1.960   0.241   7.830  0.9027  1.4070 -1.7697
 8193SOL     OW36037   1.003   2.966   4.146  0.4722 -0.0074 -0.6730
 8193SOL    HW136038   0.925   2.927   4.107  0.6922 -0.8583 -0.2559
 8193SOL    HW236039   1.075   2.919   4.105  1.2527  0.6873 -0.1188
 8194SOL     OW36040   2.221   1.826  13.325 -0.2800 -0.0864 -0.2137
 8194SOL    HW136041   2.302   1.834  13.376 -0.0781  0.4965 -0.6255
 8194SOL    HW236042   2.242   1.746  13.276 -0.5122 -1.0472  1.2569
 8195SOL     OW36043   2.549   1.447   8.643  0.0898  0.2710  0.3965
 8195SOL    HW136044   2.462   1.483   8.628 -0.0376 -0.2228 -0.0573
 8195SOL    HW236045   2.549   1.432   8.738 -1.3062 -0.0312  0.3453
 8196SOL     OW36046   3.044   3.621  13.661  1.1625  0.1223 -0.3458
 8196SOL    HW136047   3.086   3.693  13.614 -2.3446  1.5578 -1.2819
 8196SOL    HW236048   3.085   3.605  13.746 -0.4141  0.2513  0.4409
 8197SOL     OW36049   1.200   1.728   9.011  0.5246  0.1677 -0.1556
 8197SOL    HW136050   1.157   1.646   8.986  1.7250 -0.9626  1.5466
 8197SOL    HW236051   1.118   1.767   9.041 -0.0236  0.1246 -1.6077
 8198SOL     OW36052   4.460   3.557  11.640 -0.1672 -0.3204  0.1741
 8198SOL    HW136053   4.478   3.587  11.551  0.6594  1.3005  0.8893
 8198SOL    HW236054   4.488   3.639  11.682  0.3159 -1.2075  1.5910
 8199SOL     OW36055   4.074   4.569   1.203 -0.1369  0.4180  0.0056
 8199SOL    HW136056   3.999   4.628   1.189 -1.5839 -0.9927  1.8025
 8199SOL    HW236057   4.114   4.609   1.280 -0.7872  2.1231 -0.5303
 8200SOL     OW36058   0.260   1.963   7.315  0.3168 -0.2710 -0.1394
 8200SOL    HW136059   0.165   1.960   7.330  0.2640 -1.4899 -0.7109
 8200SOL    HW236060   0.283   1.998   7.401  0.5255  1.1292 -0.7671
 8201SOL     OW36061   4.515   4.143   3.267 -0.9529 -0.4862  0.5893
 8201SOL    HW136062   4.490   4.123   3.177  1.5519  2.6217 -0.8207
 8201SOL    HW236063   4.557   4.226   3.243 -2.3405 -0.4372 -1.6566
 8202SOL     OW36064   4.099   2.920   4.843 -0.1315 -0.3546  0.6277
 8202SOL    HW136065   4.029   2.917   4.908 -1.1637  0.5411 -0.4259
 8202SOL    HW236066   4.169   2.968   4.887  0.6881  0.1270 -1.2005
 8203SOL     OW36067   0.225   2.417   3.582  0.2773 -0.5633  0.2173
 8203SOL    HW136068   0.281   2.432   3.506  1.0508  0.9500  1.0702
 8203SOL    HW236069   0.269   2.470   3.649  0.6787  0.1380 -0.6017
 8204SOL     OW36070   3.411   3.897  10.276  0.6618 -0.7454  0.0204
 8204SOL    HW136071   3.432   3.973  10.221 -0.3758  0.0321  0.7048
 8204SOL    HW236072   3.338   3.931  10.328  0.2524  0.3542 -1.2863
 8205SOL     OW36073   2.762   1.713   3.839  0.2490  0.2933  0.1600
 8205SOL    HW136074   2.677   1.682   3.871 -0.8397  4.0905  1.0074
 8205SOL    HW236075   2.734   1.774   3.770  2.1905  0.1180 -0.7600
 8206SOL     OW36076   0.940   2.541   2.937 -0.1403 -0.3723 -0.3848
 8206SOL    HW136077   0.886   2.619   2.949 -1.3454 -1.3003  0.2358
 8206SOL    HW236078   0.992   2.550   3.017 -0.4446 -3.4384  0.1640
 8207SOL     OW36079   1.351   3.751   7.980  0.3031  0.5660  0.0805
 8207SOL    HW136080   1.431   3.799   7.958  0.1268  1.0402  0.4847
 8207SOL    HW236081   1.319   3.803   8.053 -1.7530 -2.1811  1.1240
 8208SOL     OW36082   0.338   3.945   4.215  0.0825 -0.3468 -1.1753
 8208SOL    HW136083   0.409   4.005   4.192  0.3562  0.3167  1.3809
 8208SOL    HW236084   0.328   3.984   4.302  2.8501 -0.1215 -0.9457
 8209SOL     OW36085   3.142   3.774   9.047 -0.2733 -0.5776 -0.2939
 8209SOL    HW136086   3.129   3.723   8.968 -0.5533 -0.3864 -0.3741
 8209SOL    HW236087   3.237   3.774   9.053 -0.3285 -0.8502  0.6659
 8210SOL     OW36088   1.256   3.337   3.695 -0.7008 -0.0575  0.1247
 8210SOL    HW136089   1.288   3.363   3.781 -2.3430  0.4578  0.5592
 8210SOL    HW236090   1.277   3.414   3.641  0.3266  0.0121  0.6147
 8211SOL     OW36091   3.833   3.870   7.804  0.0902  0.0473  0.0408
 8211SOL    HW136092   3.766   3.903   7.743 -1.2598  1.5325  2.3332
 8211SOL    HW236093   3.809   3.777   7.800  0.5030 -0.0586  0.1186
 8212SOL     OW36094   0.983   3.464   4.237 -0.1468 -0.3871  0.2448
 8212SOL    HW136095   0.937   3.404   4.296 -0.2805  1.0760  1.6213
 8212SOL    HW236096   1.039   3.400   4.193 -0.5658 -0.6990  0.1512
 8213SOL     OW36097   0.966   0.761   6.351 -0.4809  0.2305  0.0849
 8213SOL    HW136098   0.941   0.853   6.348 -0.2260  0.2456 -2.0384
 8213SOL    HW236099   0.981   0.758   6.445  1.4498 -1.6327 -0.2909
 8214SOL     OW36100   2.927   4.309   9.871 -0.0073  0.5133  0.0209
 8214SOL    HW136101   2.898   4.367   9.800  0.8689  1.2680  0.2855
 8214SOL    HW236102   2.960   4.239   9.815  2.4620  1.5101  0.2057
 8215SOL     OW36103   0.537   2.242   7.820  0.1940 -0.5308 -0.4149
 8215SOL    HW136104   0.602   2.202   7.762  1.7556  0.4011  0.6811
 8215SOL    HW236105   0.581   2.319   7.855 -2.8426  0.2337  1.7111
 8216SOL     OW36106   0.916   1.341   0.021  0.1099  0.0538  0.4677
 8216SOL    HW136107   0.838   1.368   0.069 -0.5150 -0.8905 -0.0115
 8216SOL    HW236108   0.883   1.353  17.643 -0.1595  0.8879  0.6840
 8217SOL     OW36109   4.462   2.187   9.233  0.5233 -0.1872  0.4713
 8217SOL    HW136110   4.429   2.125   9.299 -1.6063  1.0045  0.5318
 8217SOL    HW236111   4.535   2.212   9.290  1.0578 -1.1895  0.2244
 8218SOL     OW36112   2.426   2.922   6.672  0.0323  0.3582 -0.1386
 8218SOL    HW136113   2.489   2.901   6.740 -0.0975  1.1428  0.2221
 8218SOL    HW236114   2.451   3.012   6.653 -0.7426  0.3582 -1.1474
 8219SOL     OW36115   2.394   2.098   5.927  0.3055  0.3370 -0.1225
 8219SOL    HW136116   2.403   2.193   5.926  0.1686  0.4278  3.8385
 8219SOL    HW236117   2.394   2.075   6.020  1.9026  2.7747  0.4580
 8220SOL     OW36118   0.517   1.710   0.920 -0.0854 -0.3742 -0.2024
 8220SOL    HW136119   0.516   1.770   0.845 -2.0820 -0.9901 -0.6521
 8220SOL    HW236120   0.479   1.770   0.985  0.7936 -1.7637  1.5887
 8221SOL     OW36121   3.715   1.408   7.287  0.1854 -0.4021  0.0154
 8221SOL    HW136122   3.676   1.424   7.202  1.8275 -0.8785 -0.8317
 8221SOL    HW236123   3.659   1.339   7.322  1.3776 -0.6309  1.4821
 8222SOL     OW36124   1.560   1.529   2.809 -0.4097 -0.1613 -0.5487
 8222SOL    HW136125   1.477   1.558   2.770 -0.2335 -0.9908 -1.5487
 8222SOL    HW236126   1.535   1.443   2.842 -2.0650 -0.3829 -2.3895
 8223SOL     OW36127   2.049   3.622   1.166 -0.5105 -0.1785 -0.3671
 8223SOL    HW136128   2.018   3.706   1.199  0.1565 -0.0660 -0.0228
 8223SOL    HW236129   2.125   3.601   1.220 -1.1594  1.4285  1.1607
 8224SOL     OW36130   0.663   2.879   9.859  0.6329  0.6066 -0.2697
 8224SOL    HW136131   0.635   2.791   9.884 -0.9895  1.5699  1.2624
 8224SOL    HW236132   0.642   2.877   9.766  0.4329 -4.4685 -0.1455
 8225SOL     OW36133   1.599   2.406   6.431  0.0113  0.0961  0.5709
 8225SOL    HW136134   1.605   2.323   6.479 -1.9938 -1.4903 -1.9213
 8225SOL    HW236135   1.534   2.381   6.365  0.0234  1.7271 -0.0522
 8226SOL     OW36136   2.312   1.291  17.334  0.3753 -0.4547 -0.2335
 8226SOL    HW136137   2.270   1.364  17.289 -0.7941 -1.4836 -0.7807
 8226SOL    HW236138   2.372   1.248  17.273  0.5002  2.8412 -2.4063
 8227SOL     OW36139   2.841   1.958   3.035  0.8847 -1.3612  0.2912
 8227SOL    HW136140   2.755   1.994   3.053  0.7948 -1.8750  0.8815
 8227SOL    HW236141   2.840   1.949   2.940 -0.7279 -1.2291  0.3004
 8228SOL     OW36142   3.778   4.680  15.388 -0.6976 -0.3478  0.4775
 8228SOL    HW136143   3.739   0.037  15.408 -0.5374 -0.6905  2.3005
 8228SOL    HW236144   3.847   4.706  15.327 -0.4478  1.0176  1.3291
 8229SOL     OW36145   1.643   0.526  12.935 -0.1433 -0.2986  0.3841
 8229SOL    HW136146   1.688   0.505  12.853 -0.7284 -2.2624  0.5724
 8229SOL    HW236147   1.724   0.557  12.977 -0.3633  3.0979 -1.6346
 8230SOL     OW36148   4.229   2.898  16.908  0.3153 -0.0538  0.2313
 8230SOL    HW136149   4.140   2.917  16.936 -0.6244 -0.2291 -2.6486
 8230SOL    HW236150   4.248   2.952  16.832  0.2307  1.2000  1.1097
 8231SOL     OW36151   2.318   1.197   3.499  0.4024 -0.2541 -0.2095
 8231SOL    HW136152   2.244   1.255   3.481  3.3362  3.6369  0.1549
 8231SOL    HW236153   2.350   1.174   3.412  2.0425  1.1229  0.0191
 8232SOL     OW36154   0.015   1.894   0.249 -0.6431 -0.0223  0.0864
 8232SOL    HW136155   4.669   1.864   0.302  1.2173 -0.6671  2.3348
 8232SOL    HW236156   0.065   1.945   0.312  1.9875 -3.5314  0.8509
 8233SOL     OW36157   2.326   1.416   7.326 -0.6827 -0.2756 -0.5704
 8233SOL    HW136158   2.400   1.362   7.353  0.3400  1.5019  0.2019
 8233SOL    HW236159   2.293   1.430   7.415 -0.5590 -0.4096 -0.5018
 8234SOL     OW36160   3.094   0.523   8.252  0.5446 -0.4620  0.2265
 8234SOL    HW136161   3.179   0.486   8.232 -0.0317 -1.9292  0.4720
 8234SOL    HW236162   3.097   0.537   8.347 -0.3006  2.6302 -0.1755
 8235SOL     OW36163   3.034   0.860   2.125 -0.4716  0.0977 -0.4435
 8235SOL    HW136164   2.990   0.932   2.079 -1.0893  0.6906  1.0833
 8235SOL    HW236165   2.960   0.805   2.151  0.3468 -0.8353 -0.1078
 8236SOL     OW36166   2.819   4.643   9.476  0.2052 -0.1917 -0.2473
 8236SOL    HW136167   2.759   4.662   9.548 -1.6823 -0.1644 -1.8113
 8236SOL    HW236168   2.829   0.009   9.461 -0.8032  0.1816  1.4005
 8237SOL     OW36169   2.602   0.046   3.316  0.7808 -0.0948 -0.1589
 8237SOL    HW136170   2.586   4.682   3.296  2.1323  0.0718 -1.9932
 8237SOL    HW236171   2.632   0.087   3.235 -0.3298 -1.0940 -1.0675
 8238SOL     OW36172   2.359   2.344   9.092 -0.1808  0.2219  0.3999
 8238SOL    HW136173   2.279   2.369   9.044 -0.4317 -2.3603 -0.4918
 8238SOL    HW236174   2.425   2.389   9.041 -1.0695 -0.7536 -1.6139
 8239SOL     OW36175   2.037   0.546   3.321 -0.5872  0.7663  0.1981
 8239SOL    HW136176   2.036   0.503   3.236 -2.8114  1.7727 -0.2930
 8239SOL    HW236177   2.131   0.559   3.331 -0.9271  2.0488  1.7198
 8240SOL     OW36178   2.644   1.876   1.995  0.0113 -0.0527 -0.1971
 8240SOL    HW136179   2.610   1.908   2.079 -0.3957 -1.6074  0.2320
 8240SOL    HW236180   2.633   1.781   1.992  0.8419 -0.1822  0.7447
 8241SOL     OW36181   2.587   4.394   3.478  0.7440  0.8699  0.3405
 8241SOL    HW136182   2.571   4.331   3.549  2.0670 -0.5317 -0.5854
 8241SOL    HW236183   2.497   4.426   3.474  1.0301  1.6299  0.1743
 8242SOL     OW36184   4.002   4.169  15.399 -0.1858 -0.3457  0.1798
 8242SOL    HW136185   4.072   4.104  15.407 -0.9691 -1.1929  0.2360
 8242SOL    HW236186   4.058   4.239  15.367 -1.4686  0.2152 -0.8316
 8243SOL     OW36187   0.619   3.318   2.026 -0.5050  0.2662  0.0919
 8243SOL    HW136188   0.672   3.257   1.976  2.3764  0.7369  2.5622
 8243SOL    HW236189   0.575   3.259   2.087 -1.0189  0.0636 -0.4745
 8244SOL     OW36190   4.648   4.412   1.886  0.6206 -0.4793  0.4826
 8244SOL    HW136191   0.006   4.373   1.899  0.4140 -1.2845 -0.5896
 8244SOL    HW236192   4.585   4.352   1.926  1.4466 -0.9535  1.0640
 8245SOL     OW36193   3.629   4.003   1.093 -0.1517  0.8785 -0.4690
 8245SOL    HW136194   3.560   3.937   1.101  0.6489 -0.2282 -2.7273
 8245SOL    HW236195   3.584   4.065   1.036  1.9608 -0.0070 -3.0760
 8246SOL     OW36196   3.220   2.595   8.304  0.5753 -0.5597  0.6133
 8246SOL    HW136197   3.222   2.630   8.215  1.3550 -3.1399 -0.3676
 8246SOL    HW236198   3.164   2.658   8.349 -2.3310 -1.0398 -2.3604
 8247SOL     OW36199   4.133   3.618  13.437  0.5487 -0.1971 -0.3814
 8247SOL    HW136200   4.095   3.547  13.489 -1.6495  0.6905 -0.7522
 8247SOL    HW236201   4.144   3.694  13.494  0.0209  1.6309 -2.7292
 8248SOL     OW36202   1.326   4.204  15.757  0.5424 -0.3199 -0.5123
 8248SOL    HW136203   1.272   4.242  15.688  1.8114  1.7800 -0.3800
 8248SOL    HW236204   1.396   4.166  15.704  0.8819  0.6700 -0.7887
 8249SOL     OW36205   3.194   2.137   2.177 -0.0404 -0.1520 -0.1638
 8249SOL    HW136206   3.190   2.090   2.093 -2.1903  0.4066 -0.3642
 8249SOL    HW236207   3.247   2.209   2.143 -0.2614 -0.7400 -1.7666
 8250SOL     OW36208   1.139   4.415  16.396  0.0191 -0.5224  0.9192
 8250SOL    HW136209   1.222   4.402  16.351  0.7515  1.0982  1.7954
 8250SOL    HW236210   1.088   4.341  16.363  0.0611 -0.8386  1.5702
 8251SOL     OW36211   4.068   0.100   9.933 -0.1158 -0.3872 -0.0092
 8251SOL    HW136212   4.122   0.023   9.914 -0.2973 -0.6726  0.6247
 8251SOL    HW236213   4.135   0.157   9.970 -0.1437  1.0588 -2.1885
 8252SOL     OW36214   3.654   3.762  13.473  0.2525 -0.1426 -0.7657
 8252SOL    HW136215   3.617   3.816  13.403 -1.2939  1.3408  1.1933
 8252SOL    HW236216   3.574   3.756  13.525 -0.4540  2.1599 -1.5655
 8253SOL     OW36217   0.983   0.012   3.427  0.3742  0.1365 -0.2130
 8253SOL    HW136218   0.977   0.050   3.515  1.0591  1.6819 -0.8316
 8253SOL    HW236219   0.933   0.084   3.389  0.4014  0.4279  0.3044
 8254SOL     OW36220   4.534   3.347   3.754  0.2811  0.3936 -0.1083
 8254SOL    HW136221   4.452   3.361   3.706 -0.6484  2.3695  2.0686
 8254SOL    HW236222   4.593   3.365   3.681  2.8846  2.3890  2.4976
 8255SOL     OW36223   2.762   1.512   9.112  0.5625 -0.4670 -0.0289
 8255SOL    HW136224   2.776   1.527   9.206 -1.9672 -1.2383  0.4663
 8255SOL    HW236225   2.822   1.585   9.097 -0.8363  0.7594  0.2418
 8256SOL     OW36226   3.792   1.430   6.243 -0.1600  0.3285  0.5501
 8256SOL    HW136227   3.828   1.389   6.164  0.1566  0.4353  0.6382
 8256SOL    HW236228   3.864   1.487   6.270 -1.8934  3.3497 -1.2374
 8257SOL     OW36229   3.004   4.236  16.407  0.0715  0.3335 -0.0519
 8257SOL    HW136230   3.071   4.212  16.343 -0.6539 -1.1270 -0.2741
 8257SOL    HW236231   2.954   4.297  16.352  1.7506 -0.1223 -2.0768
 8258SOL     OW36232   4.198   2.807   3.820 -0.5001  0.3771  0.3344
 8258SOL    HW136233   4.293   2.807   3.807 -0.9097  2.4436 -2.8667
 8258SOL    HW236234   4.176   2.716   3.837 -0.0757  0.0085 -1.0342
 8259SOL     OW36235   1.408   0.341   7.940  0.0439  0.0536 -0.3937
 8259SOL    HW136236   1.443   0.304   7.859  1.6039 -1.0920  0.8058
 8259SOL    HW236237   1.488   0.345   7.992  0.9369 -2.0653 -1.5812
 8260SOL     OW36238   0.078   4.301  17.636  0.3381 -0.3364  0.4432
 8260SOL    HW136239   0.106   4.389  17.613  0.1686 -0.7658 -1.4414
 8260SOL    HW236240   4.712   4.304  17.621  0.4109 -0.9753 -0.1516
 8261SOL     OW36241   1.188   2.231   7.358  0.0209 -0.1010 -0.3089
 8261SOL    HW136242   1.282   2.221   7.342  0.2886  0.7755  0.6802
 8261SOL    HW236243   1.167   2.151   7.405 -1.6968  0.2233 -0.5277
 8262SOL     OW36244   4.437   4.339   2.852  0.5708 -1.1211 -0.3488
 8262SOL    HW136245   4.416   4.377   2.767  2.9983 -0.8397 -0.8396
 8262SOL    HW236246   4.378   4.399   2.897  0.9736 -0.6754 -0.4147
 8263SOL     OW36247   3.167   4.461   6.981 -0.2306 -0.0951  0.4431
 8263SOL    HW136248   3.094   4.401   6.967 -0.7480  0.4573  0.7439
 8263SOL    HW236249   3.118   4.543   6.968  1.1791  0.4159 -1.6606
 8264SOL     OW36250   1.587   1.779   2.252  0.2336  0.4280 -0.9933
 8264SOL    HW136251   1.628   1.760   2.336 -1.3372  2.2458  0.1769
 8264SOL    HW236252   1.647   1.836   2.204 -3.3020  2.6504 -2.7885
 8265SOL     OW36253   1.819   1.113   6.490  0.1985 -0.3891 -0.1647
 8265SOL    HW136254   1.841   1.020   6.486 -1.8959 -0.8481 -0.5605
 8265SOL    HW236255   1.843   1.120   6.583 -0.0194 -1.9859  0.0067
 8266SOL     OW36256   3.163   4.284   4.490 -0.0998  0.0369  0.3074
 8266SOL    HW136257   3.123   4.363   4.526  2.0570  0.3624  2.0172
 8266SOL    HW236258   3.224   4.324   4.428 -0.0531 -1.5625 -0.6713
 8267SOL     OW36259   0.687   1.956   4.078  0.2743  0.4374  0.3956
 8267SOL    HW136260   0.659   1.950   4.169  0.7498 -1.2917  0.4227
 8267SOL    HW236261   0.676   1.867   4.044 -1.1670  0.3775  1.0348
 8268SOL     OW36262   2.774   0.564   6.339 -0.2046 -0.1176 -0.0196
 8268SOL    HW136263   2.692   0.516   6.345 -0.7429  0.7114 -0.7375
 8268SOL    HW236264   2.742   0.638   6.288 -0.5216 -0.1477  0.1356
 8269SOL     OW36265   0.163   4.512   5.738 -0.0539  0.4313  0.1368
 8269SOL    HW136266   0.142   4.549   5.824  0.6602  1.6150 -0.1967
 8269SOL    HW236267   0.249   4.550   5.722  0.2545 -1.0618 -1.6407
 8270SOL     OW36268   3.277   2.405   1.240  0.2797  0.2959  0.4326
 8270SOL    HW136269   3.281   2.447   1.155 -0.2127  0.9120  0.7155
 8270SOL    HW236270   3.312   2.322   1.207  0.8002  0.8180 -0.3127
 8271SOL     OW36271   4.726   4.523   4.028 -1.1188  0.8854  0.2059
 8271SOL    HW136272   4.668   4.471   4.084 -1.1893 -0.3287 -0.9882
 8271SOL    HW236273   4.694   4.612   4.039 -1.4552  0.9027 -0.8437
 8272SOL     OW36274   4.381   3.099  14.036  0.2430 -0.1239  0.2112
 8272SOL    HW136275   4.313   3.041  14.002 -0.2570  0.5629  0.0244
 8272SOL    HW236276   4.345   3.134  14.118  0.0199 -1.0500  0.5045
 8273SOL     OW36277   4.371   2.552   5.291 -0.0267  0.1629  0.3156
 8273SOL    HW136278   4.465   2.562   5.279 -0.2520 -1.3049 -2.6227
 8273SOL    HW236279   4.372   2.457   5.305  2.3293 -0.0177 -1.1934
 8274SOL     OW36280   2.053   2.030   7.943  0.3106  0.0685  0.6520
 8274SOL    HW136281   2.037   1.954   7.887 -0.2297  1.7374 -1.4879
 8274SOL    HW236282   1.974   2.078   7.917 -0.0970 -1.1901 -0.4413
 8275SOL     OW36283   1.356   0.873  12.164  0.0160  0.2154  0.7731
 8275SOL    HW136284   1.433   0.924  12.140  0.5802 -1.4857 -1.0009
 8275SOL    HW236285   1.297   0.924  12.108  0.5058  1.0768  1.0384
 8276SOL     OW36286   2.358   0.089   2.695  0.0718  0.2254 -0.1912
 8276SOL    HW136287   2.325   0.060   2.780  1.2219 -0.9506 -0.1429
 8276SOL    HW236288   2.290   0.063   2.633 -0.4335 -0.4785  0.6531
 8277SOL     OW36289   0.028   4.463   2.543 -0.2234  0.0305 -0.6873
 8277SOL    HW136290   0.039   4.368   2.542 -0.6733 -0.0141 -1.3274
 8277SOL    HW236291   0.108   4.485   2.591  0.4563  1.4647 -2.4275
 8278SOL     OW36292   1.807   1.560   3.278 -0.2434 -0.7088 -0.5081
 8278SOL    HW136293   1.773   1.600   3.198  0.1311  1.8284  0.5993
 8278SOL    HW236294   1.893   1.524   3.255 -0.8411  0.2614 -4.2923
 8279SOL     OW36295   2.529   3.352   5.262 -0.1610 -0.3763 -0.4311
 8279SOL    HW136296   2.573   3.314   5.186  1.1416 -0.7621  0.5041
 8279SOL    HW236297   2.601   3.331   5.322 -1.8242 -1.8571  1.0459
 8280SOL     OW36298   4.655   3.141   6.737  0.1847  0.1917 -0.0945
 8280SOL    HW136299   4.690   3.089   6.665  0.6599  1.4279 -0.7487
 8280SOL    HW236300   4.700   3.223   6.721 -0.2028  0.1944 -1.1549
 8281SOL     OW36301   4.100   2.029   8.441  0.4023 -0.8197  0.0599
 8281SOL    HW136302   4.087   2.069   8.355 -0.5458 -0.6839  0.2641
 8281SOL    HW236303   4.048   1.949   8.433 -0.8269  0.0779 -1.1032
 8282SOL     OW36304   0.652   2.005   0.555 -0.1087  0.4866 -0.2917
 8282SOL    HW136305   0.733   2.038   0.514  1.2229 -2.5359 -0.0794
 8282SOL    HW236306   0.694   1.932   0.601  1.7935  1.0625 -1.0783
 8283SOL     OW36307   4.263   1.818   9.859  0.9931  0.0160 -0.6712
 8283SOL    HW136308   4.260   1.909   9.832  1.6255 -0.2112 -1.5363
 8283SOL    HW236309   4.335   1.828   9.921 -0.5609  2.8637  0.6348
 8284SOL     OW36310   3.349   1.409  14.520 -0.2063  0.4793  0.1181
 8284SOL    HW136311   3.355   1.501  14.492 -3.6132  0.4277 -0.7564
 8284SOL    HW236312   3.442   1.398  14.540 -0.2187  1.4264  0.6892
 8285SOL     OW36313   1.458   1.794   5.103  0.2063 -0.2459 -0.5181
 8285SOL    HW136314   1.417   1.774   5.187  0.3188  0.5918 -0.2680
 8285SOL    HW236315   1.503   1.874   5.128  4.8896 -2.8394 -0.6698
 8286SOL     OW36316   1.980   1.471   6.720 -0.2105  0.0422  0.2777
 8286SOL    HW136317   2.068   1.481   6.757  0.7837  2.8224 -2.8694
 8286SOL    HW236318   1.998   1.405   6.654  0.7585  1.3686 -0.7867
 8287SOL     OW36319   4.079   1.337   5.293  0.1067  0.0851 -0.8319
 8287SOL    HW136320   4.079   1.270   5.362 -0.1151 -0.5009 -1.3953
 8287SOL    HW236321   4.004   1.393   5.315  0.8134  1.3161 -1.5716
 8288SOL     OW36322   2.808   1.387   5.998 -0.1177  0.3998  0.3280
 8288SOL    HW136323   2.771   1.298   6.003  0.9788 -0.1617 -1.6958
 8288SOL    HW236324   2.740   1.433   5.949  0.3868  1.5449  0.7250
 8289SOL     OW36325   0.751   2.176   5.462  0.0845  0.2292 -0.0608
 8289SOL    HW136326   0.739   2.224   5.543 -0.6438 -1.6139  0.9317
 8289SOL    HW236327   0.679   2.112   5.459 -1.0148  1.4943 -0.4873
 8290SOL     OW36328   4.205   1.334   4.105  0.3779  0.2273 -0.1545
 8290SOL    HW136329   4.292   1.295   4.103  0.4068  0.2500  1.0027
 8290SOL    HW236330   4.226   1.408   4.162 -0.1499  0.6373 -0.4922
 8291SOL     OW36331   2.240   2.492  17.086 -0.3227  0.2993  0.4186
 8291SOL    HW136332   2.300   2.430  17.128  2.3461  0.9093 -2.4489
 8291SOL    HW236333   2.293   2.524  17.012 -0.5073 -2.6092 -0.9603
 8292SOL     OW36334   1.751   1.308   4.942 -0.2234 -0.2677  0.9031
 8292SOL    HW136335   1.819   1.365   4.979 -1.2586  0.3176  1.9440
 8292SOL    HW236336   1.671   1.327   4.992 -2.0270 -1.8602 -1.4255
 8293SOL     OW36337   0.837   1.855   4.441  0.1280 -0.4149 -0.2080
 8293SOL    HW136338   0.752   1.827   4.473  1.0521 -2.2080  0.6987
 8293SOL    HW236339   0.819   1.949   4.431  3.3476  0.3389  1.0226
 8294SOL     OW36340   2.349   4.475   3.365 -0.1696 -0.5201  0.2896
 8294SOL    HW136341   2.380   4.524   3.289 -1.6456  0.1016  0.0996
 8294SOL    HW236342   2.345   4.386   3.331 -2.5399  0.1868 -1.3170
 8295SOL     OW36343   2.934   3.324   3.481  0.2087  0.0877  0.3337
 8295SOL    HW136344   2.856   3.282   3.518  0.3888 -0.9666 -0.4922
 8295SOL    HW236345   2.919   3.318   3.387  1.9290 -2.0951  0.1909
 8296SOL     OW36346   3.092   4.690   8.259 -0.5291  0.0897  0.0450
 8296SOL    HW136347   3.186   4.683   8.276 -0.4134 -0.0669 -0.6786
 8296SOL    HW236348   3.093   4.680   8.164  0.6665  0.3439  0.0241
 8297SOL     OW36349   4.445   1.472  16.680 -0.4447  0.5585  0.0604
 8297SOL    HW136350   4.382   1.433  16.740 -1.2934  0.8862 -0.6132
 8297SOL    HW236351   4.523   1.488  16.732  0.3416  0.6990 -1.1556
 8298SOL     OW36352   0.340   1.086  11.635 -0.5388  0.3208  0.1746
 8298SOL    HW136353   0.417   1.142  11.636 -2.1625  2.5830 -2.1039
 8298SOL    HW236354   0.350   1.043  11.549 -1.7342  2.0752 -0.8497
 8299SOL     OW36355   2.990   3.595   9.352 -0.4996  0.4099 -0.5007
 8299SOL    HW136356   2.961   3.504   9.338 -0.8705  0.3572  0.5345
 8299SOL    HW236357   3.071   3.594   9.303  0.3059  0.6654  0.8159
 8300SOL     OW36358   4.462   4.470  17.304 -0.0350  0.1391 -0.1809
 8300SOL    HW136359   4.470   4.377  17.325  0.4033  0.2177 -0.0141
 8300SOL    HW236360   4.390   4.489  17.365  0.1768  1.4220 -0.3204
 8301SOL     OW36361   0.146   0.924   7.833 -0.0821 -0.5802 -0.0762
 8301SOL    HW136362   0.161   0.868   7.757  4.8360  0.1670  0.3212
 8301SOL    HW236363   0.098   1.001   7.805  0.2458  0.0986  1.2140
 8302SOL     OW36364   0.912   2.327  11.547  0.0937  0.2766  0.1915
 8302SOL    HW136365   0.859   2.274  11.488  1.5251 -1.2177  0.2280
 8302SOL    HW236366   0.993   2.276  11.557  1.8503  2.4190 -3.3633
 8303SOL     OW36367   0.642   2.162  12.401 -0.1481  0.1393  0.6266
 8303SOL    HW136368   0.637   2.071  12.433  0.6229 -0.2429 -0.3603
 8303SOL    HW236369   0.613   2.209  12.480 -0.3051 -0.5949  1.0135
 8304SOL     OW36370   0.750   2.235   3.541  0.6628  0.6044 -0.1886
 8304SOL    HW136371   0.820   2.299   3.527  1.1316 -0.0290 -0.6875
 8304SOL    HW236372   0.754   2.179   3.464  0.4512 -1.0847  1.0396
 8305SOL     OW36373   0.023   0.132   1.222  0.4203  0.3579  0.0126
 8305SOL    HW136374   4.683   0.066   1.210  1.2066 -0.0347 -2.2444
 8305SOL    HW236375   0.103   0.080   1.217 -0.4709 -0.9086 -1.2753
 8306SOL     OW36376   1.251   1.259   7.520  0.1365  0.1106  0.0715
 8306SOL    HW136377   1.187   1.311   7.472  1.2683  0.1970 -1.3591
 8306SOL    HW236378   1.232   1.169   7.491  0.1195  0.1204  0.0526
 8307SOL     OW36379   3.196   4.291   6.178  0.3375  0.1349 -0.5358
 8307SOL    HW136380   3.216   4.275   6.270  0.4969  2.5755 -0.1626
 8307SOL    HW236381   3.282   4.271   6.141  0.3341  0.9036 -0.9552
 8308SOL     OW36382   0.032   4.118   5.408 -0.0582 -0.3058 -0.1712
 8308SOL    HW136383   4.694   4.144   5.344  1.3479  0.5986 -1.2300
 8308SOL    HW236384   0.112   4.136   5.359 -2.4028  0.9772 -3.4752
 8309SOL     OW36385   3.077   1.422   6.533  0.0475  0.4421  0.6736
 8309SOL    HW136386   3.147   1.457   6.588  1.0934  2.5685 -2.0622
 8309SOL    HW236387   3.048   1.350   6.590  1.0799 -0.1030  0.5160
 8310SOL     OW36388   3.242   3.488   6.065  0.4827 -0.0548 -0.0666
 8310SOL    HW136389   3.179   3.429   6.108  3.2248 -0.7568  2.9494
 8310SOL    HW236390   3.324   3.446   6.090  0.3691 -0.7090 -0.7796
 8311SOL     OW36391   3.900   4.666   4.811 -1.2174 -0.3239  0.2769
 8311SOL    HW136392   3.828   4.683   4.749 -1.3714 -0.1476  0.5030
 8311SOL    HW236393   3.923   4.576   4.791  2.1539  0.9464 -1.4946
 8312SOL     OW36394   2.165   0.590   2.559 -0.1428 -0.6296  0.0941
 8312SOL    HW136395   2.125   0.581   2.472  2.2790  0.6610 -1.1594
 8312SOL    HW236396   2.166   0.494   2.564  0.0884 -0.8094 -3.0904
 8313SOL     OW36397   3.092   2.952  11.712  0.0628  0.4830  0.2266
 8313SOL    HW136398   3.104   2.864  11.748  0.7372  0.1182 -0.9012
 8313SOL    HW236399   3.010   2.967  11.759  0.4068 -2.5351  1.7679
 8314SOL     OW36400   0.351   3.629   4.883 -0.2274  0.0224 -0.0784
 8314SOL    HW136401   0.323   3.689   4.953 -0.2925  2.9633 -2.6016
 8314SOL    HW236402   0.416   3.683   4.838 -0.2740  1.5065  1.6255
 8315SOL     OW36403   2.289   2.897   3.939 -0.5704  0.0990  0.2320
 8315SOL    HW136404   2.284   2.993   3.939  0.7214  0.1690  1.2287
 8315SOL    HW236405   2.375   2.885   3.979 -0.9820  2.3681  1.7738
 8316SOL     OW36406   2.747   3.268   4.905  0.4270  0.1091 -0.2715
 8316SOL    HW136407   2.776   3.214   4.832 -1.4180  1.6398 -2.1336
 8316SOL    HW236408   2.785   3.353   4.884  1.6430 -0.7524 -1.4846
 8317SOL     OW36409   4.624   3.173   7.119  0.7569 -0.4419  0.8838
 8317SOL    HW136410   4.578   3.155   7.201  1.2232 -1.1294  0.9945
 8317SOL    HW236411   4.674   3.253   7.135 -1.5540  1.5497 -1.9734
 8318SOL     OW36412   2.462   0.143  12.587  0.6732  0.4036 -0.2007
 8318SOL    HW136413   2.405   0.217  12.609  2.1158  0.9639  1.6259
 8318SOL    HW236414   2.506   0.184  12.513  1.3560 -0.8329 -0.4813
 8319SOL     OW36415   2.925   4.185   4.469 -0.4020 -0.3695 -0.6020
 8319SOL    HW136416   2.999   4.217   4.417 -0.0273  1.0172  0.7920
 8319SOL    HW236417   2.955   4.164   4.557 -1.7170 -1.6583 -0.4576
 8320SOL     OW36418   3.364   1.991   6.267 -0.0475  0.1235  0.7013
 8320SOL    HW136419   3.427   2.008   6.337  0.2290 -0.7892  0.6735
 8320SOL    HW236420   3.301   1.928   6.302 -0.6170  1.6676  2.4658
 8321SOL     OW36421   2.163   2.199   3.785 -0.6677  0.3071  0.4440
 8321SOL    HW136422   2.127   2.288   3.784  0.1418  0.6790  4.2518
 8321SOL    HW236423   2.166   2.181   3.879  1.6487 -0.2873  0.2573
 8322SOL     OW36424   2.379   4.638   9.345  0.0222 -0.3913  0.2101
 8322SOL    HW136425   2.461   4.650   9.297 -1.5070 -0.2835 -2.3961
 8322SOL    HW236426   2.376   4.544   9.359  0.0677 -0.9291 -3.3214
 8323SOL     OW36427   0.039   3.498  10.730  0.0733  0.0573  0.3944
 8323SOL    HW136428   0.014   3.550  10.653  0.7351 -0.9925 -0.5260
 8323SOL    HW236429   0.074   3.565  10.789  2.6845  1.3672 -2.6700
 8324SOL     OW36430   1.530   1.831   8.732 -0.2628  0.2064  0.3055
 8324SOL    HW136431   1.501   1.773   8.802 -0.0367 -1.0911 -0.6839
 8324SOL    HW236432   1.603   1.778   8.700 -0.5109  0.5560 -0.8160
 8325SOL     OW36433   2.485   1.248   7.470  0.5114 -0.0159 -0.4867
 8325SOL    HW136434   2.554   1.188   7.442  1.1785  0.8611 -0.6936
 8325SOL    HW236435   2.411   1.188   7.459  1.0457 -0.3955 -1.9645
 8326SOL     OW36436   1.025   3.974   5.219 -0.5685 -0.1646 -0.5780
 8326SOL    HW136437   1.085   3.923   5.165 -1.5604 -0.4469 -1.4218
 8326SOL    HW236438   0.942   3.975   5.172 -1.7581  1.0397  1.5606
 8327SOL     OW36439   0.466   1.450   7.975 -0.1036  0.0178  0.1698
 8327SOL    HW136440   0.524   1.466   8.050 -0.1888  0.3110  0.1727
 8327SOL    HW236441   0.515   1.389   7.920  0.2429  0.7806 -0.3551
 8328SOL     OW36442   3.737   2.714   3.652 -0.2641 -0.1189  1.2072
 8328SOL    HW136443   3.721   2.621   3.636 -1.5204  0.0139  1.7278
 8328SOL    HW236444   3.817   2.724   3.599 -0.6488 -1.9437  0.3090
 8329SOL     OW36445   0.155   1.848   6.463 -0.2009  0.1331  0.9769
 8329SOL    HW136446   0.245   1.813   6.457 -1.1433 -2.2575  0.6699
 8329SOL    HW236447   0.151   1.920   6.400  0.8134 -0.9425 -0.3269
 8330SOL     OW36448   3.648   2.045  12.577 -0.3566  0.0413  0.2933
 8330SOL    HW136449   3.558   2.062  12.604 -0.2285  1.1599  0.0329
 8330SOL    HW236450   3.624   1.997  12.498  0.2300 -2.6692  1.7903
 8331SOL     OW36451   0.005   1.281  16.672 -0.7393  0.6258  0.7827
 8331SOL    HW136452   0.059   1.352  16.707  0.8770 -0.1404 -0.1644
 8331SOL    HW236453   4.708   1.318  16.587  0.3610 -0.6555 -0.1004
 8332SOL     OW36454   2.298   2.269   8.711  0.5723 -0.6024  0.3022
 8332SOL    HW136455   2.341   2.349   8.741  0.9638 -1.3779  1.8077
 8332SOL    HW236456   2.246   2.308   8.641  1.4805  0.3634  0.1760
 8333SOL     OW36457   0.928   1.658  11.504  0.1444  0.2848  1.0121
 8333SOL    HW136458   0.949   1.681  11.413  1.1252 -1.3375  0.8338
 8333SOL    HW236459   0.832   1.650  11.498  0.3555 -3.2720  2.3794
 8334SOL     OW36460   0.399   1.589   8.285 -0.1474  0.4045  0.1995
 8334SOL    HW136461   0.484   1.618   8.250 -0.0148 -0.6837 -0.3767
 8334SOL    HW236462   0.412   1.495   8.271 -2.8009  0.1352 -0.3896
 8335SOL     OW36463   3.008   1.082   2.984 -0.7377 -0.5052  0.0655
 8335SOL    HW136464   2.987   1.139   3.059 -1.7136  1.6544 -1.8457
 8335SOL    HW236465   3.076   1.137   2.945  0.1124 -0.1698  1.9883
 8336SOL     OW36466   3.678   4.140   0.580 -0.2060  0.1112  0.0884
 8336SOL    HW136467   3.591   4.170   0.605 -0.2879 -0.1590  0.1332
 8336SOL    HW236468   3.700   4.070   0.641 -1.0200  0.3835  0.6937
 8337SOL     OW36469   4.027   4.474   2.969  0.1919 -0.1235  0.0242
 8337SOL    HW136470   3.977   4.483   2.888  1.5280  1.1620 -0.6719
 8337SOL    HW236471   3.986   4.404   3.019  0.4903 -1.0799 -1.0770
 8338SOL     OW36472   2.584   2.660   8.363  0.3792 -0.3467  0.3611
 8338SOL    HW136473   2.598   2.570   8.334  0.6129 -0.2093  0.0481
 8338SOL    HW236474   2.638   2.664   8.442  0.0215 -0.1083  0.5935
 8339SOL     OW36475   0.077   2.634   4.537  0.3390  0.7610  0.2437
 8339SOL    HW136476   0.150   2.695   4.525 -0.1596  0.8784 -2.0504
 8339SOL    HW236477   0.023   2.696   4.586 -0.6249 -0.9150  1.2898
 8340SOL     OW36478   0.352   0.971   8.220 -0.3069 -0.2296  0.3252
 8340SOL    HW136479   0.435   1.010   8.249  0.0882 -0.3330 -0.6713
 8340SOL    HW236480   0.306   1.030   8.160  0.2566  0.2503  0.3651
 8341SOL     OW36481   0.461   3.582   7.728 -0.3071  0.0732  0.0267
 8341SOL    HW136482   0.448   3.489   7.709 -1.0352 -0.2588  2.1934
 8341SOL    HW236483   0.407   3.585   7.807 -2.3691  0.6699 -1.3971
 8342SOL     OW36484   0.155   0.554   2.991  0.3310  0.0821  0.1108
 8342SOL    HW136485   0.097   0.485   2.957  0.8254 -0.2895  0.0319
 8342SOL    HW236486   0.123   0.636   2.954 -2.5533 -1.6261 -1.2266
 8343SOL     OW36487   2.369   1.354   3.073 -0.0690  0.9594  0.0909
 8343SOL    HW136488   2.419   1.336   2.993  0.2155  2.0685  0.0188
 8343SOL    HW236489   2.283   1.322   3.048 -0.0529  1.8446 -1.1610
 8344SOL     OW36490   2.121   1.671  14.146  0.0396 -0.1135 -0.2018
 8344SOL    HW136491   2.113   1.603  14.212 -1.7920  1.7733  1.5006
 8344SOL    HW236492   2.082   1.623  14.073 -0.4935  1.0966 -0.7184
 8345SOL     OW36493   0.810   1.529   9.924 -0.3059  0.2508 -0.2310
 8345SOL    HW136494   0.862   1.608   9.911  1.0499 -0.6957 -0.5996
 8345SOL    HW236495   0.852   1.489  10.000  0.5754 -0.1700 -0.9377
 8346SOL     OW36496   1.982   0.135   2.373 -0.0951  0.0642  0.3982
 8346SOL    HW136497   1.934   0.212   2.405 -0.6640  0.1810 -0.7480
 8346SOL    HW236498   1.907   0.082   2.347 -1.2172  1.1881  1.2895
 8347SOL     OW36499   2.044   2.934   2.494 -0.0631 -0.4919 -0.2650
 8347SOL    HW136500   2.019   2.878   2.567 -1.9818  0.0611 -0.5102
 8347SOL    HW236501   2.120   2.986   2.522  0.3274  0.9772 -4.0811
 8348SOL     OW36502   3.207   1.650   4.182 -0.3601 -0.1715  0.0597
 8348SOL    HW136503   3.233   1.742   4.196  0.6706 -0.2847 -1.0166
 8348SOL    HW236504   3.134   1.663   4.122  0.2057 -2.8911 -1.2274
 8349SOL     OW36505   3.977   3.789   7.243  0.0692  0.2386  0.2434
 8349SOL    HW136506   3.981   3.859   7.178  1.1225  0.5278  0.6283
 8349SOL    HW236507   3.927   3.841   7.306  0.0222 -1.2794  1.4487
 8350SOL     OW36508   4.336   4.398   6.940  0.1431 -0.4263  0.3751
 8350SOL    HW136509   4.305   4.311   6.913 -1.3939 -0.1764  1.3674
 8350SOL    HW236510   4.263   4.457   6.922  0.5985 -0.6971 -2.3774
 8351SOL     OW36511   1.611   4.473   2.000 -0.2625  0.5273  0.0541
 8351SOL    HW136512   1.516   4.458   1.996 -0.3981  1.3763 -0.0389
 8351SOL    HW236513   1.622   4.450   2.092  0.3461 -1.3910 -0.4914
 8352SOL     OW36514   0.528   4.233   2.236 -0.3646 -0.6167  0.3745
 8352SOL    HW136515   0.587   4.253   2.308 -1.1393  3.3086 -0.0455
 8352SOL    HW236516   0.447   4.234   2.287 -0.6954  1.9861 -0.1960
 8353SOL     OW36517   2.697   3.532   5.935 -0.8240 -0.3149 -0.2275
 8353SOL    HW136518   2.744   3.453   5.908  0.3151  1.6247 -3.8093
 8353SOL    HW236519   2.646   3.559   5.860 -1.1263  3.0345  1.1973
 8354SOL     OW36520   4.325   0.032   7.025 -0.5296  0.8507  0.4101
 8354SOL    HW136521   4.390   0.093   6.992  1.1819 -0.3413  1.5991
 8354SOL    HW236522   4.259   0.094   7.057 -1.3372  1.2303 -1.9863
 8355SOL     OW36523   4.141   1.254  11.878  0.2275 -0.1003  0.1196
 8355SOL    HW136524   4.126   1.333  11.929  2.5602  1.5040 -1.7064
 8355SOL    HW236525   4.229   1.223  11.902  0.0803 -0.6998 -0.0908
 8356SOL     OW36526   1.496   4.458   7.126 -0.3047 -0.2730 -0.2469
 8356SOL    HW136527   1.415   4.422   7.088  0.7199 -1.9724 -0.8438
 8356SOL    HW236528   1.520   4.382   7.178 -1.8924  0.6764  1.8453
 8357SOL     OW36529   1.151   1.126  10.925  0.1546 -0.1583 -0.4676
 8357SOL    HW136530   1.173   1.152  10.836  0.8546  0.3186 -0.1585
 8357SOL    HW236531   1.073   1.072  10.912  1.1775 -1.1054 -2.6365
 8358SOL     OW36532   4.144   2.067  12.215 -0.3561  0.3046  0.0386
 8358SOL    HW136533   4.084   2.118  12.159 -2.0463 -0.3744  1.2360
 8358SOL    HW236534   4.214   2.128  12.237 -1.0860  1.2080 -0.1203
 8359SOL     OW36535   4.599   2.727   2.617 -0.9939  0.3685 -0.1043
 8359SOL    HW136536   4.531   2.660   2.631 -0.6950  0.4716  1.9169
 8359SOL    HW236537   4.620   2.752   2.707  0.3289 -1.7412  0.1784
 8360SOL     OW36538   3.332   4.689  14.182  0.1892  0.6182 -0.1988
 8360SOL    HW136539   3.264   4.679  14.115  0.4351  0.4187 -0.4220
 8360SOL    HW236540   3.414   4.665  14.140  0.5131  2.0416 -0.3796
 8361SOL     OW36541   0.162   4.197   3.121  0.2650  0.1234 -0.6895
 8361SOL    HW136542   0.104   4.215   3.195  2.6905 -2.6830  1.8908
 8361SOL    HW236543   0.130   4.111   3.093  1.3485 -0.3998 -0.3233
 8362SOL     OW36544   3.346   2.062   9.679 -0.0180  0.4938 -0.5679
 8362SOL    HW136545   3.354   2.001   9.753  2.2719 -0.0001 -1.2128
 8362SOL    HW236546   3.254   2.052   9.655  0.2274  1.1125 -1.7347
 8363SOL     OW36547   1.879   1.531   7.233 -0.1419  0.6569  0.3839
 8363SOL    HW136548   1.910   1.504   7.319  1.3781  0.4831 -0.2161
 8363SOL    HW236549   1.800   1.476   7.226  0.2882  0.2234 -1.0370
 8364SOL     OW36550   2.059   0.924   3.401 -0.2818  0.1670 -0.0070
 8364SOL    HW136551   1.986   0.931   3.339 -1.8532  1.4046  1.9809
 8364SOL    HW236552   2.139   0.932   3.349 -1.4055 -0.6044 -1.8565
 8365SOL     OW36553   2.066   3.680  14.261  0.1464 -0.5505 -0.8342
 8365SOL    HW136554   2.044   3.772  14.269  0.3710 -0.4246 -1.6819
 8365SOL    HW236555   2.157   3.695  14.234  0.2418 -0.3243 -0.4008
 8366SOL     OW36556   1.533   3.645   6.798  0.1190 -0.5633 -0.0415
 8366SOL    HW136557   1.510   3.579   6.734  1.9027 -1.2677  0.0273
 8366SOL    HW236558   1.625   3.621   6.813  0.6152  0.5573 -1.3002
 8367SOL     OW36559   0.362   0.563   3.715 -0.3072  0.9097  0.1154
 8367SOL    HW136560   0.417   0.526   3.784 -1.4001 -1.8656 -0.4722
 8367SOL    HW236561   0.312   0.487   3.684  0.6329 -0.0593  0.9803
 8368SOL     OW36562   3.367   1.740   8.123 -0.1911  0.4769  0.5325
 8368SOL    HW136563   3.303   1.764   8.191 -1.0912 -1.4317  0.3636
 8368SOL    HW236564   3.319   1.679   8.068  0.6797 -0.0453  0.3622
 8369SOL     OW36565   3.153   1.520  16.902 -0.3098 -0.1162  0.7628
 8369SOL    HW136566   3.101   1.451  16.862  1.0047 -0.2362 -0.7464
 8369SOL    HW236567   3.229   1.504  16.846 -0.7521  2.1727 -0.5139
 8370SOL     OW36568   0.568   0.417   1.909  0.8120  0.1854 -0.8485
 8370SOL    HW136569   0.552   0.472   1.986  0.7111  0.0517 -0.7745
 8370SOL    HW236570   0.510   0.445   1.839 -0.4914  0.6367  0.4165
 8371SOL     OW36571   3.669   2.423   3.692 -0.0186 -0.5733  0.8392
 8371SOL    HW136572   3.716   2.365   3.752 -0.2362 -0.4578  1.1232
 8371SOL    HW236573   3.625   2.360   3.636 -1.3376  0.9171  0.2129
 8372SOL     OW36574   4.368   1.744   0.555 -0.1326 -0.1376  0.0629
 8372SOL    HW136575   4.415   1.825   0.534 -1.7567  0.5211 -0.9577
 8372SOL    HW236576   4.324   1.759   0.639 -3.0304 -1.8000 -1.1493
 8373SOL     OW36577   1.407   0.808  17.207  0.4869 -0.3152  0.2587
 8373SOL    HW136578   1.441   0.718  17.211 -0.6894 -0.6767  1.8818
 8373SOL    HW236579   1.344   0.796  17.277  1.9114  0.5729  1.6845
 8374SOL     OW36580   1.222   3.749   7.444  0.2011  0.0524  0.0309
 8374SOL    HW136581   1.240   3.781   7.532  0.5443 -0.0984  0.0153
 8374SOL    HW236582   1.139   3.788   7.418 -0.2147  0.1781  1.5425
 8375SOL     OW36583   3.145   3.034   4.787 -0.2078  0.2673  0.1163
 8375SOL    HW136584   3.192   2.999   4.863  0.1626  0.2123 -0.1349
 8375SOL    HW236585   3.208   3.092   4.744  1.6341 -1.3758  0.6147
 8376SOL     OW36586   0.193   4.575   8.761  0.1737  0.8174 -0.0599
 8376SOL    HW136587   0.260   4.623   8.712  0.9707 -0.4806 -0.2300
 8376SOL    HW236588   0.244   4.500   8.792 -0.7550  0.0550 -0.3604
 8377SOL     OW36589   1.372   4.493   3.893  0.0723 -0.5813  0.4990
 8377SOL    HW136590   1.333   4.439   3.962 -1.6362  1.1439  0.8679
 8377SOL    HW236591   1.293   4.527   3.851  1.7511  2.9851  0.2379
 8378SOL     OW36592   1.397   4.143   5.047  0.2995  0.3703 -0.0557
 8378SOL    HW136593   1.357   4.057   5.058  2.4592 -0.3489  2.1190
 8378SOL    HW236594   1.450   4.136   4.968  0.0300  0.1823 -0.2216
 8379SOL     OW36595   1.025   2.099   3.527  0.5732 -0.3470 -0.2708
 8379SOL    HW136596   1.075   2.145   3.594 -0.8545  3.9468 -2.1661
 8379SOL    HW236597   1.055   2.144   3.448 -2.0267  1.7337 -0.0982
 8380SOL     OW36598   0.314   0.210   6.011 -0.1294 -0.0671 -0.2968
 8380SOL    HW136599   0.364   0.240   6.086 -1.5824  1.0582  0.2309
 8380SOL    HW236600   0.380   0.167   5.957  0.6609  0.5803  0.1614
 8381SOL     OW36601   1.165   4.650   7.994 -0.4951  0.1576  0.6857
 8381SOL    HW136602   1.259   4.647   8.016 -0.1842  1.0495 -0.4952
 8381SOL    HW236603   1.134   4.720   8.051  1.1699  0.3033  1.4278
 8382SOL     OW36604   0.846   3.444   7.958 -0.3632 -0.1232 -0.1389
 8382SOL    HW136605   0.833   3.440   8.053  0.3943 -0.0005 -0.0353
 8382SOL    HW236606   0.779   3.389   7.918 -1.5146  1.8389 -0.9020
 8383SOL     OW36607   0.352   0.164   9.713  0.3848 -0.2028 -0.2403
 8383SOL    HW136608   0.281   0.134   9.770  1.2670 -0.3349  0.7917
 8383SOL    HW236609   0.311   0.246   9.685  0.5453 -0.5633 -1.5077
 8384SOL     OW36610   0.387   2.064   2.944  0.0803  0.3440  0.5115
 8384SOL    HW136611   0.440   2.133   2.904  1.4303  0.7621  3.0345
 8384SOL    HW236612   0.414   2.000   2.877 -2.3234 -0.7781  0.6141
 8385SOL     OW36613   1.384   0.538   1.322 -0.4504 -0.6286 -0.0340
 8385SOL    HW136614   1.401   0.474   1.253  0.8816 -0.8155  0.4678
 8385SOL    HW236615   1.439   0.611   1.295 -0.8705 -0.7877 -1.3209
 8386SOL     OW36616   0.224   0.264  11.880 -0.0857  0.1534  0.0022
 8386SOL    HW136617   0.280   0.324  11.831 -0.8869 -0.0334 -1.1605
 8386SOL    HW236618   0.247   0.183  11.833  0.3935  0.8909 -1.0302
 8387SOL     OW36619   2.079   2.546   0.826  0.0046  0.0759  0.3187
 8387SOL    HW136620   2.159   2.588   0.858  1.3416  0.1837 -3.1675
 8387SOL    HW236621   2.090   2.453   0.845 -0.7554  0.4649  2.6109
 8388SOL     OW36622   0.838   0.610   7.595 -0.3912  0.2359  0.0458
 8388SOL    HW136623   0.909   0.584   7.653 -1.5128 -0.9128  0.8865
 8388SOL    HW236624   0.788   0.530   7.582  0.4691 -0.3979  0.6224
 8389SOL     OW36625   1.489   4.395   7.719 -0.1576  0.1481  0.2128
 8389SOL    HW136626   1.491   4.302   7.695 -0.0055  0.0917  0.4452
 8389SOL    HW236627   1.426   4.391   7.791  0.6320 -2.3195  0.7795
 8390SOL     OW36628   4.667   2.283   4.560  0.5656 -0.2568  0.0488
 8390SOL    HW136629   4.606   2.346   4.596  1.7064  1.1304 -0.4380
 8390SOL    HW236630   4.611   2.233   4.501 -1.0589 -0.9645  2.1963
 8391SOL     OW36631   3.966   3.803   5.853  0.2924 -0.2707  0.3107
 8391SOL    HW136632   3.896   3.863   5.877  0.1188 -0.9284  1.4467
 8391SOL    HW236633   3.930   3.727   5.899  1.0135 -1.1789 -0.6306
 8392SOL     OW36634   3.081   3.452  10.042  0.3904 -0.2221  0.4547
 8392SOL    HW136635   3.088   3.509   9.965  1.0711 -0.7964  0.0947
 8392SOL    HW236636   2.992   3.466  10.074  0.0811  0.9904 -0.8790
 8393SOL     OW36637   2.515   3.037   8.535 -0.1787 -0.6077 -0.1199
 8393SOL    HW136638   2.486   2.960   8.486 -2.6123 -0.0803  0.4967
 8393SOL    HW236639   2.602   3.011   8.565 -0.7848 -1.6914  0.7352
 8394SOL     OW36640   0.723   2.699  10.938  0.7138 -0.2799 -0.7020
 8394SOL    HW136641   0.763   2.719  10.853 -2.2721  0.5862 -1.8896
 8394SOL    HW236642   0.782   2.631  10.970 -0.8487 -1.1107  0.3750
 8395SOL     OW36643   0.694   4.518   8.529 -0.1013  0.3226 -0.1360
 8395SOL    HW136644   0.654   4.551   8.609  0.2727 -1.9932  0.9853
 8395SOL    HW236645   0.759   4.455   8.560 -1.7300 -1.2803  0.0085
 8396SOL     OW36646   3.148   1.082  14.633 -0.0358  0.6609  0.0388
 8396SOL    HW136647   3.077   1.142  14.611  1.1146  1.8497 -0.5023
 8396SOL    HW236648   3.210   1.095  14.560 -2.3442  0.1092 -1.9949
 8397SOL     OW36649   4.686   2.628   5.949 -0.1045  0.4320  0.5374
 8397SOL    HW136650   4.633   2.591   6.020 -1.5115 -2.5565 -2.0740
 8397SOL    HW236651   0.040   2.585   5.975  0.8072  1.9614  0.1485
 8398SOL     OW36652   0.839   0.287   3.009 -0.1495 -0.3886 -0.5785
 8398SOL    HW136653   0.815   0.245   3.091  2.7646 -0.4754  0.2496
 8398SOL    HW236654   0.755   0.316   2.974 -0.6501  1.0370  1.8212
 8399SOL     OW36655   0.038   1.093   8.212  0.4440  0.0810 -0.2927
 8399SOL    HW136656   4.726   1.008   8.193 -0.1044 -0.3313  2.7036
 8399SOL    HW236657   0.014   1.149   8.138  0.2075 -0.9122 -0.9638
 8400SOL     OW36658   1.150   4.684   2.864  0.0389 -0.3778  0.6819
 8400SOL    HW136659   1.060   4.653   2.873 -0.3791  0.8820  0.8121
 8400SOL    HW236660   1.149   0.037   2.813  2.0209 -1.4185 -1.0644
 8401SOL     OW36661   2.187   2.137  16.321  0.4615  0.4606  0.0824
 8401SOL    HW136662   2.094   2.158  16.309  0.3199 -1.2743 -1.8446
 8401SOL    HW236663   2.203   2.092  16.238  1.2953  0.3414  0.2995
 8402SOL     OW36664   3.860   1.073  15.751 -0.0759  0.7183 -0.2550
 8402SOL    HW136665   3.931   1.124  15.790  0.4173 -0.5172  0.4625
 8402SOL    HW236666   3.775   1.117  15.753  0.9553  2.6622  0.8677
 8403SOL     OW36667   0.402   2.483   3.787 -0.3810  0.3763 -0.2363
 8403SOL    HW136668   0.437   2.415   3.729 -2.6551 -0.0193 -1.1496
 8403SOL    HW236669   0.365   2.433   3.859 -0.5949  0.4825 -0.2722
 8404SOL     OW36670   1.298   1.802   2.827  0.2310  0.4504  0.2799
 8404SOL    HW136671   1.282   1.711   2.800  1.2418  0.3192  0.1492
 8404SOL    HW236672   1.210   1.839   2.822  0.5703  0.9585 -1.9620
 8405SOL     OW36673   2.607   2.585   3.449 -0.4126 -0.3896 -0.3310
 8405SOL    HW136674   2.613   2.670   3.406  0.3114  0.5706  1.6621
 8405SOL    HW236675   2.512   2.585   3.456 -0.3163 -0.1444  1.0547
 8406SOL     OW36676   2.149   4.111   5.410 -0.0671 -0.3153  0.8916
 8406SOL    HW136677   2.151   4.021   5.443 -1.7844 -1.3841 -1.9737
 8406SOL    HW236678   2.131   4.100   5.317 -1.5495  0.1771  1.1185
 8407SOL     OW36679   2.021   0.674  12.933  0.1562 -0.2526 -0.2432
 8407SOL    HW136680   1.972   0.702  12.856 -2.2207 -1.4912  0.8029
 8407SOL    HW236681   1.954   0.672  13.002 -0.3823  1.0897 -0.7271
 8408SOL     OW36682   0.755   0.803  16.004 -0.7666 -0.4665 -0.1172
 8408SOL    HW136683   0.689   0.811  16.073 -0.0930  1.7650  0.2511
 8408SOL    HW236684   0.794   0.726  16.044  0.0778 -0.4237 -0.8588
 8409SOL     OW36685   1.429   3.593   6.133 -0.2858  0.0490  0.1119
 8409SOL    HW136686   1.497   3.621   6.193 -0.4592  0.1845  0.2412
 8409SOL    HW236687   1.354   3.575   6.189  0.6060 -2.0395  0.6499
 8410SOL     OW36688   3.451   1.213   7.916  0.3522 -0.3414  0.2647
 8410SOL    HW136689   3.475   1.264   7.994  4.0528 -0.8192 -0.5875
 8410SOL    HW236690   3.355   1.221   7.916  0.3754 -0.0875 -0.3025
 8411SOL     OW36691   0.576   2.512  11.458  0.6676 -0.1570  0.0054
 8411SOL    HW136692   0.536   2.598  11.445  1.8754  0.2517 -1.0729
 8411SOL    HW236693   0.500   2.468  11.495  1.0340  0.2554  1.2476
 8412SOL     OW36694   0.760   0.600  17.596 -0.3227 -0.0293 -0.2717
 8412SOL    HW136695   0.677   0.554  17.593 -1.2287  1.6265 -0.7417
 8412SOL    HW236696   0.737   0.691  17.574  1.3129  0.0014 -1.8758
 8413SOL     OW36697   1.015   2.239   7.017  0.0750 -0.0616 -0.1268
 8413SOL    HW136698   0.927   2.204   7.002 -0.0649 -0.6679  2.1821
 8413SOL    HW236699   1.055   2.166   7.064  0.3045 -1.1334 -1.9750
 8414SOL     OW36700   3.416   3.958   7.613 -0.2212  0.3737 -0.4120
 8414SOL    HW136701   3.344   3.911   7.571 -0.9081  0.2501  0.9145
 8414SOL    HW236702   3.388   4.049   7.602  2.9590  1.3890 -0.1288
 8415SOL     OW36703   3.517   3.669   3.820  0.0983  0.0495 -0.0369
 8415SOL    HW136704   3.559   3.602   3.766  0.2701 -1.0376  1.4484
 8415SOL    HW236705   3.434   3.678   3.774 -0.2493 -0.4096  0.5075
 8416SOL     OW36706   4.651   2.784   3.416 -0.1392 -0.4350  0.2838
 8416SOL    HW136707   4.711   2.766   3.488  0.2560 -0.8125 -0.1370
 8416SOL    HW236708   4.625   2.697   3.386 -1.9962  0.6898 -1.4337
 8417SOL     OW36709   3.885   2.591   7.320 -0.1300 -0.1002  0.2837
 8417SOL    HW136710   3.856   2.620   7.406  1.2085 -1.9874  1.3789
 8417SOL    HW236711   3.897   2.673   7.272 -2.1505 -1.3744 -2.4045
 8418SOL     OW36712   1.056   2.606   5.567  0.1723  0.2875 -0.0759
 8418SOL    HW136713   0.976   2.658   5.575  0.2597  0.4962 -0.5607
 8418SOL    HW236714   1.090   2.620   5.478 -3.4103  0.7427 -1.3735
 8419SOL     OW36715   2.112   2.365   7.145 -0.6880  0.1606  0.5490
 8419SOL    HW136716   2.181   2.313   7.186 -0.8126  0.2609  0.8908
 8419SOL    HW236717   2.096   2.324   7.060  0.6798  1.5048 -0.3645
 8420SOL     OW36718   0.238   0.182   7.260 -0.1077  0.1912  0.0509
 8420SOL    HW136719   0.327   0.168   7.229 -0.2583  0.4168 -0.4796
 8420SOL    HW236720   0.211   0.092   7.280 -1.8586  0.6762 -0.0917
 8421SOL     OW36721   0.686   1.982   1.265 -0.4744 -0.4851 -0.4136
 8421SOL    HW136722   0.778   1.954   1.269 -0.5160 -0.2625  2.3849
 8421SOL    HW236723   0.691   2.072   1.232  5.5429  0.3373  2.5815
 8422SOL     OW36724   1.350   2.586   4.138 -0.3148  0.4130 -0.3178
 8422SOL    HW136725   1.349   2.529   4.215  1.3555  0.1594 -0.4964
 8422SOL    HW236726   1.443   2.596   4.119 -0.4836  0.4767 -1.1130
 8423SOL     OW36727   0.101   4.677  12.864  0.0821 -0.4261  0.3452
 8423SOL    HW136728   0.036   4.646  12.927  0.4724 -1.3597  0.2817
 8423SOL    HW236729   0.049   4.696  12.786 -0.8516 -0.6962  0.8979
 8424SOL     OW36730   4.450   0.820   2.719  0.0572  0.2076 -0.3462
 8424SOL    HW136731   4.484   0.839   2.806  1.0943  1.4142 -1.0198
 8424SOL    HW236732   4.416   0.732   2.738 -0.4768  0.5982  0.5037
 8425SOL     OW36733   4.355   1.453  11.431 -0.1487 -0.6157 -0.4656
 8425SOL    HW136734   4.429   1.439  11.372 -0.2672  0.0232 -0.7709
 8425SOL    HW236735   4.391   1.453  11.520  1.0391 -1.1417 -0.9368
 8426SOL     OW36736   3.677   1.911  10.274 -0.0304 -0.3511 -0.1599
 8426SOL    HW136737   3.747   1.975  10.256  1.3285 -2.9335 -4.0496
 8426SOL    HW236738   3.729   1.831  10.281  0.0731 -0.4295 -1.7686
 8427SOL     OW36739   3.345   2.815   3.817  0.3313 -0.4949 -0.1759
 8427SOL    HW136740   3.332   2.854   3.904  0.8991  1.3164 -0.9102
 8427SOL    HW236741   3.394   2.737   3.845 -0.2273 -0.4027  1.1085
 8428SOL     OW36742   0.714   2.759   8.551  0.4547 -0.5278  0.8364
 8428SOL    HW136743   0.658   2.682   8.561 -0.7420  0.1090 -0.8961
 8428SOL    HW236744   0.800   2.720   8.568  0.7431  0.0270  0.6404
 8429SOL     OW36745   4.168   2.925   4.077  0.0182 -0.1499  0.0067
 8429SOL    HW136746   4.190   2.891   3.990 -3.2360 -1.4247 -0.3272
 8429SOL    HW236747   4.076   2.902   4.093 -0.8645  4.1193  1.1151
 8430SOL     OW36748   3.224   0.840   2.353  0.1702 -0.0208  0.3284
 8430SOL    HW136749   3.140   0.863   2.313  0.2770 -1.4795 -0.7074
 8430SOL    HW236750   3.208   0.756   2.396 -0.8978 -0.5613 -1.1272
 8431SOL     OW36751   1.723   1.655   5.756  0.4987  0.3801 -0.3197
 8431SOL    HW136752   1.674   1.596   5.699  2.1264 -0.3303 -0.9939
 8431SOL    HW236753   1.687   1.644   5.843  0.1997  0.5202 -0.4238
 8432SOL     OW36754   2.328   3.451  14.327  0.2923 -0.1935  0.4086
 8432SOL    HW136755   2.339   3.455  14.232  0.6477 -2.5760  0.3543
 8432SOL    HW236756   2.366   3.364  14.340 -2.5125 -1.7798 -2.1273
 8433SOL     OW36757   2.997   3.736  10.748 -0.7106  0.1077 -0.6264
 8433SOL    HW136758   2.915   3.691  10.773 -0.5578  0.3033  0.2379
 8433SOL    HW236759   3.064   3.671  10.767 -2.4486 -1.3679  0.5603
 8434SOL     OW36760   0.650   4.196   9.167  0.0974 -0.0140  0.1876
 8434SOL    HW136761   0.572   4.189   9.222  0.3505  0.4115  0.6036
 8434SOL    HW236762   0.678   4.105   9.155 -0.5915 -0.5295  2.4568
 8435SOL     OW36763   3.665   1.616   7.466  0.4692 -0.4229  0.0334
 8435SOL    HW136764   3.710   1.697   7.441 -1.6077  0.2361 -1.5672
 8435SOL    HW236765   3.692   1.555   7.398 -0.5715  0.2390 -0.9763
 8436SOL     OW36766   2.070   4.223   3.806 -0.1854 -0.1156 -0.1671
 8436SOL    HW136767   2.024   4.188   3.729  0.8737 -0.9816 -0.4114
 8436SOL    HW236768   2.151   4.256   3.768  0.9503 -3.2216 -0.4877
 8437SOL     OW36769   1.266   1.474   5.727  0.2096  0.2535  0.1461
 8437SOL    HW136770   1.241   1.556   5.685  0.7617  1.1916  1.6191
 8437SOL    HW236771   1.185   1.448   5.770 -0.1708  0.3082 -0.5523
 8438SOL     OW36772   1.411   3.017  17.100  0.6793 -0.3889 -0.2657
 8438SOL    HW136773   1.423   3.047  17.190  1.3740  0.5680 -0.6798
 8438SOL    HW236774   1.467   2.939  17.111 -0.0335 -0.9730 -0.7403
 8439SOL     OW36775   3.989   4.320   7.153 -0.3035  0.5624  0.1094
 8439SOL    HW136776   3.901   4.346   7.179 -0.9241 -1.2718 -0.1774
 8439SOL    HW236777   4.028   4.398   7.112 -2.0473  1.2051 -0.3418
 8440SOL     OW36778   0.157   1.642   4.887 -0.3875 -0.5204  0.3449
 8440SOL    HW136779   0.213   1.633   4.810 -1.2088 -0.9179 -0.2060
 8440SOL    HW236780   0.081   1.692   4.856 -0.4650  0.0906  1.5187
 8441SOL     OW36781   3.297   2.524   9.860  0.1578  0.4545 -0.0073
 8441SOL    HW136782   3.324   2.485   9.777  1.1658 -1.5592  1.2813
 8441SOL    HW236783   3.379   2.556   9.897  0.2113  1.6780 -1.1785
 8442SOL     OW36784   2.215   0.023  16.322  0.0812 -0.4086 -0.1507
 8442SOL    HW136785   2.190   4.676  16.267 -0.3078 -0.1364 -0.3426
 8442SOL    HW236786   2.145   0.014  16.387 -0.8905 -1.2133 -1.2982
 8443SOL     OW36787   1.326   4.453   1.881  0.0751  0.5468  0.2791
 8443SOL    HW136788   1.311   4.543   1.911 -0.1598  0.5244  0.2339
 8443SOL    HW236789   1.378   4.467   1.802 -0.1366 -0.7226 -0.0788
 8444SOL     OW36790   0.576   4.620   8.754 -0.4107 -0.8404 -0.2429
 8444SOL    HW136791   0.586   4.538   8.802  1.0147 -0.0517  0.7817
 8444SOL    HW236792   0.596   4.677   8.828 -0.4350  0.0666 -0.9258
 8445SOL     OW36793   4.609   3.213   5.223 -0.0269 -0.2651 -0.4673
 8445SOL    HW136794   4.565   3.130   5.244 -0.5177  0.0818 -0.1199
 8445SOL    HW236795   4.682   3.188   5.167  0.3691  0.4181 -0.2615
 8446SOL     OW36796   0.090   0.503   4.822 -0.2135  0.5456  0.6946
 8446SOL    HW136797   0.134   0.556   4.888  1.6288  0.5834 -0.5774
 8446SOL    HW236798   0.093   0.560   4.745  0.5014 -0.1293  0.2171
 8447SOL     OW36799   2.721   1.056   5.497 -0.7369  0.2217 -0.1075
 8447SOL    HW136800   2.661   1.124   5.466 -0.7157  0.4198  0.2873
 8447SOL    HW236801   2.726   0.998   5.421  0.4226  1.0908 -0.6829
 8448SOL     OW36802   2.033   3.865   2.101 -0.3601 -0.0353  0.1110
 8448SOL    HW136803   2.073   3.842   2.017  0.0671  2.0012 -0.2439
 8448SOL    HW236804   2.103   3.834   2.159  0.0387 -0.3467 -0.5385
 8449SOL     OW36805   0.562   2.069   2.460 -0.0369  0.0546 -0.2629
 8449SOL    HW136806   0.641   2.094   2.509  0.7077  4.0157 -3.4741
 8449SOL    HW236807   0.600   2.087   2.374  2.6583  0.7599  1.0706
 8450SOL     OW36808   4.174   0.624   1.126  0.3761  0.1209  0.1327
 8450SOL    HW136809   4.187   0.629   1.221  0.1995 -1.2218  0.2330
 8450SOL    HW236810   4.114   0.696   1.106  2.0052  1.4274 -0.0438
 8451SOL     OW36811   2.815   0.088  17.218 -0.1774  0.3420  0.9113
 8451SOL    HW136812   2.760   0.142  17.162  0.5863  2.0683  1.8496
 8451SOL    HW236813   2.817   0.016  17.155  1.8455  0.2054  1.1318
 8452SOL     OW36814   0.635   0.007   4.747  0.3552  0.2123 -0.0928
 8452SOL    HW136815   0.719   0.013   4.701  0.5043 -3.0001 -0.2450
 8452SOL    HW236816   0.566   0.010   4.681 -0.6381  2.6312  1.0972
 8453SOL     OW36817   3.929   2.983   1.954  0.1694 -0.2319  0.2083
 8453SOL    HW136818   3.992   3.052   1.976 -1.4727  0.5205  2.6607
 8453SOL    HW236819   3.983   2.923   1.903  0.4057 -0.5440  0.8310
 8454SOL     OW36820   1.296   2.566   6.886  0.3580 -0.0133 -0.1925
 8454SOL    HW136821   1.369   2.505   6.873  1.0659  0.8690 -0.3426
 8454SOL    HW236822   1.267   2.588   6.797 -0.0649  1.7211  0.3889
 8455SOL     OW36823   0.927   3.072   5.381  0.5164  0.1638  0.3503
 8455SOL    HW136824   0.959   3.093   5.293  0.0892  3.1379  0.8991
 8455SOL    HW236825   1.010   3.061   5.427  0.0321  0.8645  1.3826
 8456SOL     OW36826   1.050   0.214  16.106  0.1214  0.1279 -0.1099
 8456SOL    HW136827   1.058   0.174  16.193  0.8230 -1.6205 -0.9852
 8456SOL    HW236828   0.962   0.185  16.084 -1.1747  1.9657  2.5507
 8457SOL     OW36829   1.397   0.854  13.691  0.1716 -0.8087  0.2309
 8457SOL    HW136830   1.392   0.948  13.710 -0.4076 -0.7538 -0.2011
 8457SOL    HW236831   1.481   0.866  13.646 -1.3209 -0.4422 -2.4354
 8458SOL     OW36832   1.218   0.791  17.404  0.3047 -0.5791 -0.2934
 8458SOL    HW136833   1.143   0.799  17.345 -1.9448 -1.1732  2.4775
 8458SOL    HW236834   1.231   0.697  17.408 -2.6201 -1.0592 -1.8621
 8459SOL     OW36835   1.822   3.943   4.438  0.0415  0.5383  0.2245
 8459SOL    HW136836   1.730   3.921   4.420  0.4395 -0.7392 -0.2571
 8459SOL    HW236837   1.849   3.851   4.446 -0.2935  0.4167 -0.0178
 8460SOL     OW36838   4.367   0.961  12.334  0.7975 -0.0954  0.0917
 8460SOL    HW136839   4.367   0.994  12.244 -0.1564  0.2669  0.2157
 8460SOL    HW236840   4.446   0.907  12.330  0.2266 -0.8713 -0.7253
 8461SOL     OW36841   0.719   1.775   6.071 -0.3475 -0.0600  0.6839
 8461SOL    HW136842   0.626   1.785   6.089 -0.5823  0.0315 -0.5785
 8461SOL    HW236843   0.757   1.772   6.159  0.0428  0.6425  0.5391
 8462SOL     OW36844   2.470   0.228   7.173 -0.3021 -0.3946 -0.7417
 8462SOL    HW136845   2.481   0.135   7.153 -3.1123 -0.3628 -2.4240
 8462SOL    HW236846   2.376   0.231   7.190  0.2526 -2.0493  2.7904
 8463SOL     OW36847   1.915   0.561   8.860  0.1273 -0.1059 -0.1953
 8463SOL    HW136848   1.969   0.640   8.859  1.7639 -1.2114 -0.0367
 8463SOL    HW236849   1.851   0.585   8.927 -1.0014 -0.9162 -0.9809
 8464SOL     OW36850   3.380   3.147   2.388 -0.1057  0.1059 -0.1523
 8464SOL    HW136851   3.288   3.119   2.392 -0.0719 -0.1862 -1.4052
 8464SOL    HW236852   3.397   3.235   2.422  0.4066 -0.4556  1.0296
 8465SOL     OW36853   4.031   2.990  10.334  0.0984 -0.3890 -0.1268
 8465SOL    HW136854   3.993   3.078  10.344 -0.0869 -0.5718  0.7733
 8465SOL    HW236855   4.071   2.998  10.420  0.9972 -0.9168 -0.4965
 8466SOL     OW36856   2.395   2.509  11.126 -0.5235  0.1645 -0.1031
 8466SOL    HW136857   2.342   2.469  11.057 -1.3823  2.1704 -0.6205
 8466SOL    HW236858   2.409   2.434  11.183 -1.1235  1.9313  2.3849
 8467SOL     OW36859   4.324   0.820   4.862  0.2210  0.2543  0.3654
 8467SOL    HW136860   4.402   0.819   4.917  1.1425  0.1154 -0.9323
 8467SOL    HW236861   4.257   0.851   4.924  0.8359 -0.3697  1.3266
 8468SOL     OW36862   3.007   0.422   4.412 -0.6735 -0.2471 -0.1194
 8468SOL    HW136863   3.090   0.429   4.365 -1.3495 -1.5966 -1.5216
 8468SOL    HW236864   2.961   0.495   4.371 -1.7948 -1.0358 -0.2526
 8469SOL     OW36865   3.805   4.326  14.442  0.2377  0.6225 -0.3016
 8469SOL    HW136866   3.795   4.421  14.449  1.8711  0.7156  0.9009
 8469SOL    HW236867   3.817   4.324  14.347 -4.8691 -2.0078 -0.8694
 8470SOL     OW36868   1.452   3.100  10.639  0.1319  0.8064  0.6097
 8470SOL    HW136869   1.490   3.164  10.579 -2.2805  2.0001  0.3113
 8470SOL    HW236870   1.483   3.127  10.725  0.5105  0.1006  0.6940
 8471SOL     OW36871   2.228   3.068  10.003  0.1535  0.1540 -0.5288
 8471SOL    HW136872   2.251   3.154  10.040 -2.4308  0.9385 -0.7682
 8471SOL    HW236873   2.151   3.056  10.059  0.2555  1.2923 -0.1410
 8472SOL     OW36874   0.913   4.262   2.023  0.0962  0.0737  0.1961
 8472SOL    HW136875   0.949   4.311   1.950 -0.0445 -0.4613 -0.2339
 8472SOL    HW236876   0.821   4.287   2.017 -0.2708 -1.3294 -0.0888
 8473SOL     OW36877   2.013   0.417   6.058  0.1081 -0.3247  0.4399
 8473SOL    HW136878   2.101   0.410   6.095  0.1546 -1.9144  0.0417
 8473SOL    HW236879   2.030   0.440   5.967  0.0158 -2.2245 -0.0686
 8474SOL     OW36880   2.471   2.625   4.013  0.3574  0.2490  0.2825
 8474SOL    HW136881   2.472   2.719   4.032 -0.1472  0.5059 -0.9132
 8474SOL    HW236882   2.509   2.622   3.925 -1.5419 -1.3578 -0.4749
 8475SOL     OW36883   3.825   1.799  17.584  0.0658  0.4256 -0.4890
 8475SOL    HW136884   3.772   1.721  17.597 -0.9547  0.9663 -1.4198
 8475SOL    HW236885   3.794   1.856  17.654 -0.7501  0.1738 -0.6456
 8476SOL     OW36886   0.843   0.270  17.398  0.0005  0.0057  0.4364
 8476SOL    HW136887   0.920   0.312  17.437 -0.5467  0.4385  1.0423
 8476SOL    HW236888   0.876   0.237  17.314 -0.9938  0.4060 -0.1116
 8477SOL     OW36889   0.551   4.335   7.320 -0.5042  0.4853 -0.1150
 8477SOL    HW136890   0.555   4.328   7.225 -0.8430 -1.9397  0.0496
 8477SOL    HW236891   0.643   4.358   7.335  0.1816 -2.6159  0.4525
 8478SOL     OW36892   3.398   4.563   5.582  0.0747 -0.4016  0.1952
 8478SOL    HW136893   3.307   4.561   5.550  0.2963 -1.0116 -0.3893
 8478SOL    HW236894   3.430   4.484   5.539 -1.0941 -0.2653 -0.9551
 8479SOL     OW36895   3.247   0.098   3.421  0.7665  0.1708 -0.6008
 8479SOL    HW136896   3.302   0.096   3.500  2.2941  1.2895 -1.6368
 8479SOL    HW236897   3.162   0.126   3.453  0.8898  0.2446 -0.3355
 8480SOL     OW36898   1.317   0.154   6.331 -0.3122  0.3951 -0.1994
 8480SOL    HW136899   1.293   0.092   6.262  0.9952 -0.4673  0.1191
 8480SOL    HW236900   1.397   0.112   6.363 -0.4715 -1.7001 -2.6039
 8481SOL     OW36901   2.056   2.158  12.536  0.7273 -0.4641  0.1724
 8481SOL    HW136902   2.021   2.076  12.571 -0.2200  0.9180  2.4844
 8481SOL    HW236903   2.052   2.129  12.445  2.7827  1.4378 -0.5367
 8482SOL     OW36904   3.095   4.185  10.213 -0.6883  0.0271 -0.1515
 8482SOL    HW136905   3.156   4.113  10.230  0.0465  0.4158 -1.0953
 8482SOL    HW236906   3.015   4.160  10.259 -0.5731  0.8653  0.5000
 8483SOL     OW36907   1.276   2.064  16.105 -0.5862  0.3368  0.7556
 8483SOL    HW136908   1.270   1.994  16.039 -1.4701 -1.9854  3.2970
 8483SOL    HW236909   1.314   2.019  16.181 -0.6088  1.5960  1.4995
 8484SOL     OW36910   4.264   4.392   9.302 -0.1989 -0.3285  0.0440
 8484SOL    HW136911   4.169   4.404   9.302 -0.1811 -0.1920  2.9176
 8484SOL    HW236912   4.287   4.461   9.240 -0.3085 -1.3548 -1.1362
 8485SOL     OW36913   0.988   3.428  13.432  0.0623  0.0515 -0.6888
 8485SOL    HW136914   0.991   3.342  13.475  0.6455  0.2661 -0.2955
 8485SOL    HW236915   1.066   3.412  13.379 -0.8951 -0.3339 -1.9826
 8486SOL     OW36916   1.870   4.270   2.871 -0.3322  0.0971 -0.6801
 8486SOL    HW136917   1.962   4.244   2.863 -1.5180 -3.6885 -1.9003
 8486SOL    HW236918   1.879   4.355   2.914  0.0077 -0.8282  1.0798
 8487SOL     OW36919   2.390   4.341   9.046 -0.3463 -0.0934 -0.8457
 8487SOL    HW136920   2.321   4.386   8.997  0.7415  1.2060 -1.1800
 8487SOL    HW236921   2.431   4.414   9.091  2.1912 -1.7403 -0.4726
 8488SOL     OW36922   0.534   3.744   9.867  0.4756 -0.0499 -0.4286
 8488SOL    HW136923   0.535   3.831   9.905 -0.5603 -0.2298  0.0164
 8488SOL    HW236924   0.449   3.750   9.823 -0.7894  2.1181  2.3447
 8489SOL     OW36925   1.389   0.732   3.084  0.3886  0.2466  0.2320
 8489SOL    HW136926   1.367   0.736   3.177  1.7645 -1.0257  0.6080
 8489SOL    HW236927   1.308   0.758   3.040  0.5318  0.8960  0.3544
 8490SOL     OW36928   1.164   3.683  16.204  0.0544  0.0251  0.2831
 8490SOL    HW136929   1.179   3.600  16.158  1.0026  1.0656 -1.2867
 8490SOL    HW236930   1.185   3.745  16.134  0.5163  1.1555  1.4438
 8491SOL     OW36931   1.339   0.833   6.961 -0.1985  0.1244  0.3058
 8491SOL    HW136932   1.264   0.857   7.015  0.4293  1.6558  0.5018
 8491SOL    HW236933   1.386   0.771   7.017  0.3415 -0.7185 -1.0578
 8492SOL     OW36934   2.216   1.443   0.851  0.7160  0.0211 -0.2243
 8492SOL    HW136935   2.213   1.357   0.892 -5.6927  1.2623  1.9233
 8492SOL    HW236936   2.145   1.441   0.786  0.1014  2.7919  0.3534
 8493SOL     OW36937   2.836   2.995  17.555  0.0275  0.4210  0.7599
 8493SOL    HW136938   2.800   2.947  17.480  1.8501 -0.2022  0.2790
 8493SOL    HW236939   2.831   2.935  17.629  0.7628  0.7413  1.0662
 8494SOL     OW36940   0.036   2.506   9.183 -0.4105  0.5332 -0.2042
 8494SOL    HW136941   4.683   2.522   9.231 -1.7966 -0.1096 -2.3126
 8494SOL    HW236942   0.047   2.413   9.206 -0.3232  0.1997 -1.6034
 8495SOL     OW36943   4.604   0.497  14.624  0.0228 -0.1533 -0.0720
 8495SOL    HW136944   4.592   0.416  14.673 -0.4034 -0.3122 -0.4321
 8495SOL    HW236945   4.550   0.480  14.546  1.8960  0.4367 -1.5067
 8496SOL     OW36946   2.904   1.482   6.817  0.0720  0.1890  0.0591
 8496SOL    HW136947   2.991   1.513   6.843 -0.4762  2.0696 -0.3930
 8496SOL    HW236948   2.860   1.508   6.898  0.6646  1.0134  0.1130
 8497SOL     OW36949   3.256   0.609   6.551  0.6095 -0.3031 -0.0563
 8497SOL    HW136950   3.179   0.663   6.534  0.9761  0.0436 -0.6096
 8497SOL    HW236951   3.257   0.541   6.484 -1.9322 -1.2061  0.8245
 8498SOL     OW36952   3.213   4.158  17.156  0.3144  0.4234  0.0878
 8498SOL    HW136953   3.137   4.205  17.119 -0.6180 -0.0737  1.3910
 8498SOL    HW236954   3.265   4.131  17.080  1.2566  1.3578  0.3978
 8499SOL     OW36955   0.753   0.548   9.705  0.1352  0.1175 -0.3300
 8499SOL    HW136956   0.663   0.580   9.703  0.2845  0.5779  0.2053
 8499SOL    HW236957   0.760   0.532   9.799  0.2674 -1.1156 -0.5407
 8500SOL     OW36958   3.393   1.614   5.466  0.9046  0.4238  0.1953
 8500SOL    HW136959   3.420   1.701   5.492  0.2569  0.5662  0.3850
 8500SOL    HW236960   3.391   1.639   5.373  2.8548 -3.5515 -0.9605
 8501SOL     OW36961   4.439   1.733  14.499 -0.0684 -0.2941  0.4888
 8501SOL    HW136962   4.524   1.728  14.542 -0.1440  1.2321  0.8046
 8501SOL    HW236963   4.462   1.765  14.412 -1.7624  0.9858  0.5215
 8502SOL     OW36964   4.054   0.269   0.219  0.0505 -0.2082 -0.0738
 8502SOL    HW136965   4.027   0.305   0.135 -0.6079 -0.5270  0.0032
 8502SOL    HW236966   4.033   0.177   0.207  1.2157 -0.1677 -2.3391
 8503SOL     OW36967   0.655   3.268   9.513  0.4439 -0.8292  0.3091
 8503SOL    HW136968   0.604   3.275   9.432 -0.1223  1.1644  0.8244
 8503SOL    HW236969   0.744   3.286   9.483 -0.2317  0.4552 -0.9345
 8504SOL     OW36970   4.102   2.229   9.903  0.0493  0.2802 -0.0248
 8504SOL    HW136971   4.066   2.174   9.972  2.3281 -1.3027 -0.0955
 8504SOL    HW236972   4.024   2.272   9.867 -0.9060 -0.2315  1.4414
 8505SOL     OW36973   3.562   4.616  10.584  0.1257  0.4383  0.1163
 8505SOL    HW136974   3.512   4.669  10.645  1.3416  0.6964  0.8811
 8505SOL    HW236975   3.503   4.542  10.570  3.0236 -2.1930  1.7327
 8506SOL     OW36976   4.459   0.666   6.299 -0.3520  0.1921 -0.2606
 8506SOL    HW136977   4.453   0.667   6.204 -0.2266 -1.6225 -0.2841
 8506SOL    HW236978   4.509   0.746   6.314  0.7167 -0.2035 -1.7218
 8507SOL     OW36979   2.279   2.635   2.501 -0.3565 -0.6822 -0.2107
 8507SOL    HW136980   2.213   2.617   2.434 -2.1697 -0.0363  1.4111
 8507SOL    HW236981   2.234   2.641   2.585 -0.7177  1.5126 -0.5569
 8508SOL     OW36982   3.399   4.544   7.331  0.5599  0.0780  0.1738
 8508SOL    HW136983   3.392   4.557   7.236 -0.9809 -0.3881  0.2101
 8508SOL    HW236984   3.467   4.477   7.339 -0.3846 -0.8979  0.1450
 8509SOL     OW36985   1.210   3.302  17.178  0.5095 -0.2381  0.0101
 8509SOL    HW136986   1.183   3.249  17.253 -2.0212 -0.0160 -0.7545
 8509SOL    HW236987   1.246   3.383  17.217  0.2776  0.4381 -1.1824
 8510SOL     OW36988   1.444   0.059   1.494  0.3558  0.5448  0.3240
 8510SOL    HW136989   1.386   0.031   1.422  1.1064 -4.0357  1.4810
 8510SOL    HW236990   1.530   0.045   1.456  0.5469  1.2714  0.4923
 8511SOL     OW36991   4.618   3.241   4.251 -0.4348 -0.6280 -0.0779
 8511SOL    HW136992   4.528   3.223   4.226 -1.3354  1.3769  1.6491
 8511SOL    HW236993   4.649   3.291   4.176 -2.6092  0.9315  0.0672
 8512SOL     OW36994   0.446   1.839   3.818 -0.3978 -0.0489  0.0059
 8512SOL    HW136995   0.512   1.803   3.759  1.6397  0.7038  1.8411
 8512SOL    HW236996   0.381   1.768   3.814  1.8040 -1.9809 -1.4225
 8513SOL     OW36997   2.259   0.337   2.654  0.6334  0.1640  0.0966
 8513SOL    HW136998   2.275   0.249   2.688  0.2650  0.5772  1.3430
 8513SOL    HW236999   2.340   0.352   2.607  2.1515 -2.9484  1.7061
 8514SOL     OW37000   2.041   2.264   1.884 -0.2536 -0.1819  0.1383
 8514SOL    HW137001   2.105   2.335   1.875  0.4699 -0.9080 -0.4826
 8514SOL    HW237002   2.088   2.208   1.945  0.3745 -0.6566 -0.7792
 8515SOL     OW37003   0.311   1.999   7.631 -0.9756  0.1093  0.4967
 8515SOL    HW137004   0.371   2.046   7.574 -0.8875  0.7948  1.1487
 8515SOL    HW237005   0.293   2.066   7.697  0.3966  0.3479  0.6327
 8516SOL     OW37006   1.471   3.411   1.026 -0.1947 -0.3156  0.0025
 8516SOL    HW137007   1.479   3.384   0.935 -1.1660  0.7818 -0.4054
 8516SOL    HW237008   1.383   3.375   1.036 -0.3788 -0.5425 -2.3774
 8517SOL     OW37009   0.624   1.958  12.796 -0.4527 -0.1230 -0.0773
 8517SOL    HW137010   0.701   1.910  12.829  1.6799  2.2645 -1.5649
 8517SOL    HW237011   0.577   1.986  12.875  1.2014  0.6532  0.6346
 8518SOL     OW37012   2.882   0.927   7.795  0.2421 -0.2248  0.1655
 8518SOL    HW137013   2.853   0.925   7.887 -0.9117 -0.3481 -0.2019
 8518SOL    HW237014   2.885   1.022   7.784 -2.4866 -0.1707 -0.1525
 8519SOL     OW37015   2.057   1.732   7.389 -0.1990  0.0864  0.8166
 8519SOL    HW137016   2.036   1.640   7.406 -0.1549 -0.4384 -2.0550
 8519SOL    HW237017   2.070   1.719   7.295  3.4619 -0.5356  1.3788
 8520SOL     OW37018   2.959   3.088   3.250  0.6883 -0.3640  0.2428
 8520SOL    HW137019   3.031   3.147   3.272  0.8459 -0.1347 -0.8911
 8520SOL    HW237020   2.915   3.133   3.177 -1.2669 -0.6863  1.2175
 8521SOL     OW37021   2.197   3.262  16.468  0.3303  0.6629 -0.4346
 8521SOL    HW137022   2.253   3.334  16.496  3.0344 -1.8694  0.8123
 8521SOL    HW237023   2.110   3.301  16.463 -0.2363 -0.8610 -2.3182
 8522SOL     OW37024   2.555   1.297   7.754 -0.1219 -0.5037 -0.3411
 8522SOL    HW137025   2.540   1.280   7.661 -0.3134 -0.2564 -0.3555
 8522SOL    HW237026   2.564   1.392   7.745  0.3489 -0.4483  0.6727
 8523SOL     OW37027   4.218   2.158   3.238 -0.1840  0.4735 -0.3057
 8523SOL    HW137028   4.276   2.187   3.168 -1.4546 -2.3488 -2.5262
 8523SOL    HW237029   4.196   2.245   3.272  0.2157  0.0442  1.0613
 8524SOL     OW37030   0.252   0.864   9.628  0.4571 -0.2834  0.8664
 8524SOL    HW137031   0.292   0.907   9.703  0.8969  1.0036 -0.1040
 8524SOL    HW237032   0.242   0.938   9.568 -0.1708 -1.2102 -0.1677
 8525SOL     OW37033   2.544   0.127  10.233  0.0061 -0.5837 -0.1445
 8525SOL    HW137034   2.594   0.046  10.228 -0.2164 -0.6775 -0.8382
 8525SOL    HW237035   2.482   0.122  10.160 -0.7117 -1.9863  0.5732
 8526SOL     OW37036   3.524   2.604   8.966  0.5373 -0.2101 -0.0458
 8526SOL    HW137037   3.526   2.690   8.924 -0.5221  0.1046  0.5554
 8526SOL    HW237038   3.606   2.569   8.931  0.2016 -0.6105 -0.4190
 8527SOL     OW37039   3.871   1.961   9.035 -0.5746 -0.0288  0.3496
 8527SOL    HW137040   3.820   1.892   8.993  1.2745 -1.2564  0.1259
 8527SOL    HW237041   3.888   2.021   8.961  2.8377 -1.4903 -0.0344
 8528SOL     OW37042   0.284   2.737  14.420 -0.0814  0.1972  0.7328
 8528SOL    HW137043   0.287   2.799  14.348 -0.4403 -0.4936  0.1178
 8528SOL    HW237044   0.306   2.657  14.372 -1.7991  0.9688 -1.3084
 8529SOL     OW37045   1.827   0.935   3.203  0.6792  0.3744  0.2354
 8529SOL    HW137046   1.865   0.921   3.117 -0.3981 -2.0597  0.1461
 8529SOL    HW237047   1.734   0.944   3.182  0.1890  3.4230  3.6664
 8530SOL     OW37048   3.635   2.503   9.613  0.4214  0.4067  0.1718
 8530SOL    HW137049   3.610   2.565   9.545 -0.8011 -0.7453 -0.4276
 8530SOL    HW237050   3.549   2.468   9.636  0.6202 -0.4084 -0.3387
 8531SOL     OW37051   0.325   4.042   7.950 -0.1314  0.0931  0.0970
 8531SOL    HW137052   0.361   4.020   7.865 -1.9010 -1.1548 -0.3257
 8531SOL    HW237053   0.406   4.036   8.001 -0.1143  0.2348  0.0867
 8532SOL     OW37054   2.172   0.825   3.640 -0.0764 -0.3914  0.9675
 8532SOL    HW137055   2.217   0.898   3.684 -1.6117  0.7748  0.6105
 8532SOL    HW237056   2.147   0.852   3.552  2.7910 -0.4111  0.1576
 8533SOL     OW37057   0.479   1.856   6.196 -0.1208 -0.0501  0.0822
 8533SOL    HW137058   0.473   1.883   6.287  1.7367  1.0824 -0.1238
 8533SOL    HW237059   0.430   1.921   6.145  1.1775  1.0406  0.2010
 8534SOL     OW37060   2.345   0.242  16.406  0.1960  0.7845  0.1336
 8534SOL    HW137061   2.314   0.171  16.350  0.2714  0.6584  0.2494
 8534SOL    HW237062   2.273   0.252  16.468 -0.5658  0.1710 -0.6502
 8535SOL     OW37063   1.172   2.661   8.621 -0.1969 -0.1238  0.6563
 8535SOL    HW137064   1.133   2.745   8.593  1.9408  0.3588 -0.8281
 8535SOL    HW237065   1.092   2.609   8.622  0.7591 -1.6035 -1.1199
 8536SOL     OW37066   1.126   0.948   7.890  0.4606  0.4437  1.0831
 8536SOL    HW137067   1.163   0.963   7.977 -0.7994  3.8752  1.0253
 8536SOL    HW237068   1.190   0.987   7.831 -0.4173  1.9937  1.1666
 8537SOL     OW37069   1.827   4.698  13.849 -0.1890  0.6321 -0.6921
 8537SOL    HW137070   1.896   0.033  13.872 -0.8795  0.3650  2.0910
 8537SOL    HW237071   1.870   4.617  13.876 -2.3516 -0.7890 -1.5590
 8538SOL     OW37072   0.248   2.762   6.008  0.3463 -0.0365  0.1073
 8538SOL    HW137073   0.161   2.768   6.049  0.5908  0.2208  0.5835
 8538SOL    HW237074   0.235   2.764   5.913 -0.6487 -1.9995  0.1996
 8539SOL     OW37075   4.017   3.184   8.915  0.3541 -0.6325 -0.3757
 8539SOL    HW137076   4.045   3.132   8.991 -0.6508 -0.6095  0.0016
 8539SOL    HW237077   3.994   3.112   8.857  3.2174 -1.2768 -0.7255
 8540SOL     OW37078   2.748   1.866   4.991  0.3400  0.3464  0.0634
 8540SOL    HW137079   2.679   1.890   4.929  0.0312  0.6903  0.5382
 8540SOL    HW237080   2.770   1.778   4.961  0.9919  0.9011 -1.1150
 8541SOL     OW37081   0.683   3.358   4.700 -0.1939  0.0321 -0.5592
 8541SOL    HW137082   0.681   3.318   4.787 -0.3684  1.8525  0.2782
 8541SOL    HW237083   0.601   3.408   4.695 -0.3170 -0.3240 -1.9899
 8542SOL     OW37084   1.309   1.071   7.719 -0.5244  0.2917 -0.3907
 8542SOL    HW137085   1.286   1.129   7.646  0.4640  1.0554 -0.1043
 8542SOL    HW237086   1.319   0.984   7.679  1.2791 -0.7107  2.2738
 8543SOL     OW37087   4.221   0.888  10.052 -0.5123 -0.7339 -0.0168
 8543SOL    HW137088   4.281   0.950  10.094 -1.1966  0.3796 -0.6960
 8543SOL    HW237089   4.215   0.825  10.124 -0.5642  0.0093  0.6287
 8544SOL     OW37090   2.133   1.094   4.923  0.1103 -0.3554  0.4007
 8544SOL    HW137091   2.212   1.080   4.871 -0.5543  0.7419 -0.8806
 8544SOL    HW237092   2.064   1.067   4.862 -1.1181  1.7940  0.8520
 8545SOL     OW37093   0.880   3.128   4.885  0.4931 -0.3921 -0.3695
 8545SOL    HW137094   0.956   3.167   4.843 -0.3425  1.3246 -0.2543
 8545SOL    HW237095   0.825   3.199   4.916 -0.2132 -1.6026  1.1792
 8546SOL     OW37096   3.345   3.053   0.995  0.2540 -0.6002  0.0731
 8546SOL    HW137097   3.401   3.082   1.067  0.9028  1.5517 -1.3312
 8546SOL    HW237098   3.374   3.110   0.924  2.2447  0.4556  1.7270
 8547SOL     OW37099   3.243   2.679   8.044 -0.5606  0.1570  0.0693
 8547SOL    HW137100   3.301   2.754   8.028  0.8712 -1.4088 -2.0492
 8547SOL    HW237101   3.159   2.714   8.012 -0.2892  0.0832 -0.7275
 8548SOL     OW37102   4.003   4.038   1.964 -0.1983  0.2078 -0.2869
 8548SOL    HW137103   4.091   4.068   1.942  1.0222 -1.4232  2.3550
 8548SOL    HW237104   3.952   4.087   1.900 -0.7762  1.6194  1.2702
 8549SOL     OW37105   3.426   2.695  12.033 -0.1227 -0.5783 -0.6162
 8549SOL    HW137106   3.422   2.605  12.002  1.1491 -1.0630  0.6236
 8549SOL    HW237107   3.339   2.703  12.072  1.1261  0.9369  1.9134
 8550SOL     OW37108   3.932   3.622   6.652  0.3344  0.0826 -0.5246
 8550SOL    HW137109   3.893   3.626   6.739  1.2184  0.0829 -0.1276
 8550SOL    HW237110   3.992   3.696   6.664  1.7615 -1.5997  2.6210
 8551SOL     OW37111   0.148   4.706  15.358 -0.3106  0.2891 -0.5695
 8551SOL    HW137112   0.214   4.640  15.376  1.1035  0.3840 -5.4742
 8551SOL    HW237113   0.081   4.647  15.322 -0.0576 -0.3201 -0.0362
 8552SOL     OW37114   3.253   0.382   4.230 -0.2526  0.1122 -0.8517
 8552SOL    HW137115   3.305   0.324   4.286  0.2001 -0.4216 -1.8255
 8552SOL    HW237116   3.316   0.452   4.215 -2.1784  2.0341  0.0816
 8553SOL     OW37117   0.986   3.976  12.396 -0.0089  0.2063  0.3014
 8553SOL    HW137118   1.000   3.963  12.490  0.0900  0.2193  0.2883
 8553SOL    HW237119   1.075   3.977  12.361 -0.9003  0.4793 -1.9917
 8554SOL     OW37120   4.563   0.827   9.480  0.9140 -0.6400  0.2869
 8554SOL    HW137121   4.613   0.746   9.493  0.3390 -1.1050 -0.4253
 8554SOL    HW237122   4.492   0.781   9.436  1.5069  0.3275 -1.6669
 8555SOL     OW37123   2.629   3.021  10.522 -0.3469  0.5402 -0.0712
 8555SOL    HW137124   2.644   3.116  10.530 -2.8616  0.9429 -0.1664
 8555SOL    HW237125   2.717   2.986  10.506 -0.3312 -0.2665  1.7739
 8556SOL     OW37126   0.669   4.680   6.522  0.2199 -0.3966  0.7649
 8556SOL    HW137127   0.754   4.668   6.565  1.6035 -0.0736 -1.8865
 8556SOL    HW237128   0.687   4.631   6.442 -0.3867  1.1239 -0.2846
 8557SOL     OW37129   3.156   3.521   8.375 -0.1304  0.0253 -0.2264
 8557SOL    HW137130   3.153   3.614   8.395 -0.2941 -0.4753  2.0824
 8557SOL    HW237131   3.071   3.479   8.364  0.1102 -0.7035  0.7179
 8558SOL     OW37132   2.955   4.535   8.678  0.2014  0.6684  0.4695
 8558SOL    HW137133   2.979   4.489   8.758  0.5280  1.0810  0.6060
 8558SOL    HW237134   2.859   4.538   8.684  0.3084  2.1623  1.3185
 8559SOL     OW37135   3.088   2.838   3.206 -0.6050 -1.1437 -0.0358
 8559SOL    HW137136   3.046   2.913   3.247  2.3397  0.8327 -0.5966
 8559SOL    HW237137   3.057   2.849   3.116  0.0159 -1.6840 -0.3192
 8560SOL     OW37138   1.086   3.371   3.262  0.2768  0.3063  0.0455
 8560SOL    HW137139   1.140   3.418   3.200  1.1015 -0.2934  0.3090
 8560SOL    HW237140   1.158   3.330   3.310 -0.3540  0.1050  0.8256
 8561SOL     OW37141   2.327   2.904   3.153  0.3459 -0.7891 -0.1831
 8561SOL    HW137142   2.289   2.822   3.185  0.2464 -1.1391 -1.1686
 8561SOL    HW237143   2.289   2.970   3.211 -0.9466 -0.2821 -1.6123
 8562SOL     OW37144   0.275   3.562  14.888 -0.5062 -0.3566 -0.0386
 8562SOL    HW137145   0.305   3.497  14.824 -0.8933  1.1285 -1.7227
 8562SOL    HW237146   0.300   3.636  14.834  1.4199 -2.6621 -2.3198
 8563SOL     OW37147   4.687   1.914   6.102  0.5356  0.1897  0.4193
 8563SOL    HW137148   4.610   1.888   6.053  1.1543  0.9556 -0.9542
 8563SOL    HW237149   4.646   1.914   6.188 -0.2706  2.0908  0.0264
 8564SOL     OW37150   1.675   2.261  17.119  0.5017  0.2044 -0.8099
 8564SOL    HW137151   1.744   2.203  17.088  0.2807  0.9104 -2.6073
 8564SOL    HW237152   1.723   2.343  17.105 -0.4929  1.0682  0.8907
 8565SOL     OW37153   3.484   4.106  16.193  0.2782  1.2609  0.1518
 8565SOL    HW137154   3.471   4.156  16.274 -3.3723  0.2372  0.1926
 8565SOL    HW237155   3.579   4.114  16.185  0.3685  1.2649  1.1392
 8566SOL     OW37156   4.424   1.856   7.195 -0.1133  0.2572  0.0005
 8566SOL    HW137157   4.431   1.848   7.100  0.3380 -0.3186  0.0836
 8566SOL    HW237158   4.374   1.775   7.202 -0.6301  0.6297  0.6177
 8567SOL     OW37159   2.379   3.381   8.974 -0.4354  0.0520 -0.2414
 8567SOL    HW137160   2.428   3.357   8.895  0.7648  1.3089  0.1128
 8567SOL    HW237161   2.347   3.298   9.010  2.9603 -0.7264  0.9909
 8568SOL     OW37162   0.610   4.203   9.767 -0.2720  0.1555 -0.0607
 8568SOL    HW137163   0.626   4.290   9.803  2.3338 -1.2925  2.2987
 8568SOL    HW237164   0.618   4.214   9.672 -1.8264 -1.8742 -0.4202
 8569SOL     OW37165   3.150   2.774   9.178 -0.3986  0.3101  0.4055
 8569SOL    HW137166   3.151   2.848   9.118 -0.2234 -1.9860 -2.4418
 8569SOL    HW237167   3.091   2.713   9.133  1.0857 -0.1076 -1.0036
 8570SOL     OW37168   3.855   3.076  16.312 -0.2027 -0.3402  0.0175
 8570SOL    HW137169   3.822   3.163  16.289 -0.9271 -0.5520  0.2806
 8570SOL    HW237170   3.859   3.090  16.407 -1.8437  2.0491 -0.2810
 8571SOL     OW37171   3.307   2.524   1.016 -0.3213 -0.4623 -0.3041
 8571SOL    HW137172   3.377   2.503   0.955 -0.7437  2.4187 -1.7509
 8571SOL    HW237173   3.304   2.620   1.015 -2.0171 -0.5202  0.1909
 8572SOL     OW37174   3.832   0.118  10.195  0.2743 -0.0529  0.2799
 8572SOL    HW137175   3.789   0.103  10.279  0.0576  0.9784  0.3596
 8572SOL    HW237176   3.917   0.154  10.221 -0.4477  0.3421  2.1076
 8573SOL     OW37177   2.137   3.062  15.463 -0.0652  0.4326 -0.2318
 8573SOL    HW137178   2.229   3.053  15.437 -0.3234  1.3268 -1.4651
 8573SOL    HW237179   2.098   2.993  15.409 -0.4068  0.3767  0.0831
 8574SOL     OW37180   4.701   3.586   5.567 -0.2545 -0.3849  0.3913
 8574SOL    HW137181   4.679   3.542   5.650  1.5711 -0.4671  0.8416
 8574SOL    HW237182   4.645   3.663   5.562  0.2017  0.0734  2.0716
 8575SOL     OW37183   0.749   2.236   2.040 -0.7621  0.4214  0.5439
 8575SOL    HW137184   0.806   2.305   2.076 -1.0773 -0.4576  2.7171
 8575SOL    HW237185   0.786   2.235   1.952  0.6855 -1.9243  1.1733
 8576SOL     OW37186   3.446   1.418   2.909 -0.1275  0.0324  0.2637
 8576SOL    HW137187   3.482   1.474   2.841 -0.3777  0.2479  0.3056
 8576SOL    HW237188   3.517   1.368   2.949  0.1811  0.6602  0.4956
 8577SOL     OW37189   0.563   1.560   5.793  0.3697  0.6637 -0.4572
 8577SOL    HW137190   0.514   1.480   5.774  2.7725 -1.2580  1.4980
 8577SOL    HW237191   0.487   1.619   5.794  0.0182  0.2233 -0.8852
 8578SOL     OW37192   4.457   0.717   1.163 -0.2099  0.3010 -0.2314
 8578SOL    HW137193   4.386   0.662   1.130 -0.2039  1.1631 -1.7091
 8578SOL    HW237194   4.429   0.809   1.157 -1.0130  0.2218  2.3645
 8579SOL     OW37195   1.439   2.356  14.775  0.3024 -0.2884 -0.1962
 8579SOL    HW137196   1.410   2.363  14.684  0.8208  1.2046 -0.2565
 8579SOL    HW237197   1.361   2.331  14.824  0.4198  1.3424  0.8364
 8580SOL     OW37198   2.512   4.651   6.357  0.3473 -0.3390  0.2546
 8580SOL    HW137199   2.599   4.614   6.359 -0.1703 -1.4123  1.9296
 8580SOL    HW237200   2.471   4.589   6.296 -0.4361 -0.2904  0.7221
 8581SOL     OW37201   3.877   4.042   4.242  0.5289  0.0620  0.5492
 8581SOL    HW137202   3.940   4.020   4.311  0.0384 -0.1370  0.9441
 8581SOL    HW237203   3.911   4.127   4.215  0.7755 -0.1808  0.1048
 8582SOL     OW37204   0.869   1.322   2.960  0.1677 -0.2206  0.7090
 8582SOL    HW137205   0.962   1.309   2.979  0.2875  1.2709  1.1290
 8582SOL    HW237206   0.842   1.386   3.026 -0.6586 -1.3780  1.4790
 8583SOL     OW37207   1.593   3.621   9.608  0.0025  0.3977  0.1235
 8583SOL    HW137208   1.655   3.652   9.542  2.0628  0.5877  2.1476
 8583SOL    HW237209   1.512   3.632   9.559 -0.9301  0.5934  1.7066
 8584SOL     OW37210   3.839   3.104   2.201  0.7487 -0.2901  0.3950
 8584SOL    HW137211   3.920   3.108   2.151  0.2321 -0.4105 -0.4458
 8584SOL    HW237212   3.773   3.074   2.139  0.2494  2.1506 -0.2306
 8585SOL     OW37213   1.161   3.830   6.270 -0.5821  0.3244  0.5326
 8585SOL    HW137214   1.122   3.765   6.329  0.4171  0.6862  1.5924
 8585SOL    HW237215   1.083   3.821   6.214 -1.1215  4.2185  0.6809
 8586SOL     OW37216   4.208   1.318  10.901 -0.6319 -0.1475 -0.3475
 8586SOL    HW137217   4.171   1.384  10.961 -1.6732  0.8541 -2.0867
 8586SOL    HW237218   4.133   1.274  10.861 -2.0920  2.1816 -0.1804
 8587SOL     OW37219   1.078   1.313   6.383 -0.3323 -0.0125  0.4518
 8587SOL    HW137220   1.035   1.363   6.314 -0.9198 -1.0128  0.1016
 8587SOL    HW237221   1.038   1.229   6.358 -2.5884  1.5964 -1.3968
 8588SOL     OW37222   2.958   4.489   8.979  0.9142  0.5176 -0.1786
 8588SOL    HW137223   2.987   4.532   9.059  0.0241  0.2389  0.3000
 8588SOL    HW237224   2.864   4.507   8.975  0.7797  0.4328  2.6374
 8589SOL     OW37225   4.725   4.366   2.209  0.2857 -0.4298 -0.2598
 8589SOL    HW137226   0.005   4.460   2.197 -0.2249 -0.2307  0.8682
 8589SOL    HW237227   4.630   4.352   2.217 -0.0728  1.1223 -1.9731
 8590SOL     OW37228   2.657   0.494   7.445 -0.1577  0.0404 -0.0784
 8590SOL    HW137229   2.598   0.536   7.382 -2.3647  2.4468  3.5737
 8590SOL    HW237230   2.736   0.542   7.420 -1.5127  2.4500  0.2504
 8591SOL     OW37231   0.506   2.732   6.759  0.2869  0.1932  0.3425
 8591SOL    HW137232   0.423   2.732   6.806 -0.2824 -1.6378 -0.6637
 8591SOL    HW237233   0.500   2.800   6.692  0.5880 -0.4386 -0.3222
 8592SOL     OW37234   0.673   3.819   7.255  0.1490  0.1271 -0.2111
 8592SOL    HW137235   0.764   3.840   7.235 -0.1125  0.7392 -0.7562
 8592SOL    HW237236   0.658   3.874   7.332  0.9250  2.0115 -1.4072
 8593SOL     OW37237   2.578   0.724  15.166 -0.8328  0.1064 -0.5073
 8593SOL    HW137238   2.529   0.727  15.249 -2.1563 -0.4725 -1.2625
 8593SOL    HW237239   2.666   0.745  15.198 -0.9078 -0.1421 -0.1314
 8594SOL     OW37240   2.536   1.397   9.254  0.1037  0.3770 -0.2145
 8594SOL    HW137241   2.587   1.329   9.299  1.6545  1.9675  0.4221
 8594SOL    HW237242   2.603   1.447   9.208 -1.8920  1.8776 -1.4515
 8595SOL     OW37243   0.301   0.917  10.203 -0.1607  0.2207 -0.6648
 8595SOL    HW137244   0.286   0.893  10.294  2.3021  0.8919 -0.0674
 8595SOL    HW237245   0.237   0.983  10.177 -1.4309 -1.3056 -1.4043
 8596SOL     OW37246   4.639   4.480  15.683  0.1675  0.0413 -0.9071
 8596SOL    HW137247   4.685   4.533  15.748  1.0436 -2.0928  0.1964
 8596SOL    HW237248   4.698   4.410  15.657  0.0484 -1.2268  2.2632
 8597SOL     OW37249   2.554   2.696   5.823  0.1477  0.0464  0.2095
 8597SOL    HW137250   2.536   2.625   5.762 -3.1028  0.1026  1.0716
 8597SOL    HW237251   2.600   2.647   5.891  0.4715 -0.1189 -0.1327
 8598SOL     OW37252   3.662   1.266   3.002  0.3772 -0.5760 -0.3783
 8598SOL    HW137253   3.691   1.346   3.047  0.1504 -0.5503 -0.2813
 8598SOL    HW237254   3.742   1.238   2.957  0.0528 -1.0692 -0.6490
 8599SOL     OW37255   3.184   4.069  12.051  0.1599  0.7655  0.8911
 8599SOL    HW137256   3.183   4.037  11.961  0.6952 -1.0471  1.5328
 8599SOL    HW237257   3.213   4.160  12.045  1.6614  0.3464  1.8842
 8600SOL     OW37258   0.862   2.459   0.858 -0.0597 -0.4639 -0.0791
 8600SOL    HW137259   0.948   2.495   0.836 -1.1490  2.0343 -0.2229
 8600SOL    HW237260   0.806   2.464   0.780 -0.9689  0.1307  0.6084
 8601SOL     OW37261   2.792   1.719  12.942 -0.4146 -0.7402 -0.6415
 8601SOL    HW137262   2.852   1.665  12.891  1.0084 -0.4523  0.7358
 8601SOL    HW237263   2.727   1.654  12.969 -1.6966 -0.2622 -2.5634
 8602SOL     OW37264   1.086   2.272  15.159 -0.3112 -0.4203 -0.2489
 8602SOL    HW137265   1.024   2.207  15.192  0.4980 -1.2501 -0.3423
 8602SOL    HW237266   1.031   2.348  15.178 -1.8123 -1.6329  0.2164
 8603SOL     OW37267   2.261   4.399   5.836 -0.0595  0.2674 -0.6153
 8603SOL    HW137268   2.346   4.357   5.831 -0.2306 -0.3622  1.6378
 8603SOL    HW237269   2.201   4.327   5.816 -0.7812  0.8685 -0.6312
 8604SOL     OW37270   3.311   2.108   4.963 -0.1061 -0.5128 -0.1774
 8604SOL    HW137271   3.233   2.148   4.924 -0.8314  0.0669  1.8762
 8604SOL    HW237272   3.298   2.016   4.942 -1.8578 -0.1861 -0.4943
 8605SOL     OW37273   3.469   2.370   0.665 -0.1667  0.9416  1.0461
 8605SOL    HW137274   3.439   2.295   0.717  3.9827 -0.4796  1.3575
 8605SOL    HW237275   3.413   2.359   0.589  0.3070  0.1120  0.8264
 8606SOL     OW37276   3.924   2.249  14.938  0.3138 -0.7540  0.1572
 8606SOL    HW137277   3.839   2.217  14.968 -1.1481  2.6628 -0.4341
 8606SOL    HW237278   3.895   2.303  14.865 -0.0497  2.6355  2.8411
 8607SOL     OW37279   1.387   3.624  12.744 -0.1011  0.0499  0.0550
 8607SOL    HW137280   1.432   3.541  12.726 -0.2817 -0.0069 -0.1401
 8607SOL    HW237281   1.455   3.688  12.762  0.6244 -0.3495 -1.2960
 8608SOL     OW37282   0.451   2.587   4.744 -0.4637  0.1413  0.6163
 8608SOL    HW137283   0.415   2.634   4.818 -2.1315  2.0010 -1.3958
 8608SOL    HW237284   0.451   2.654   4.676 -2.6763  1.3935  1.8773
 8609SOL     OW37285   0.116   1.374  11.028 -0.0562  0.1970  0.1246
 8609SOL    HW137286   0.181   1.444  11.025 -1.6840  1.6321 -2.1713
 8609SOL    HW237287   0.107   1.368  10.932  0.3883  2.0378 -0.0338
 8610SOL     OW37288   0.920   0.670   5.826  0.1459 -0.6754  0.4788
 8610SOL    HW137289   1.005   0.662   5.783 -0.1871 -0.4284 -0.2304
 8610SOL    HW237290   0.927   0.756   5.867  2.2286 -1.5261  1.8767
 8611SOL     OW37291   3.018   4.693  11.871 -0.5890  0.2969  0.2142
 8611SOL    HW137292   2.928   4.716  11.848 -0.9320 -0.5169  0.7428
 8611SOL    HW237293   3.010   4.697  11.966 -0.5061  0.4566  0.2133
 8612SOL     OW37294   3.335   3.162   4.610 -0.1926  0.5979 -0.0333
 8612SOL    HW137295   3.285   3.089   4.574 -0.9620  0.7315  0.7833
 8612SOL    HW237296   3.331   3.223   4.537  1.3138  0.3585 -0.3127
 8613SOL     OW37297   2.378   0.517  11.258 -0.2972 -0.1176 -0.0822
 8613SOL    HW137298   2.435   0.588  11.287 -2.9534  1.8916  0.1729
 8613SOL    HW237299   2.321   0.499  11.333 -2.0219 -0.6456 -1.5206
 8614SOL     OW37300   4.678   1.072  14.171  0.2925  0.4878  0.2067
 8614SOL    HW137301   4.671   0.999  14.232  1.3637  1.3490  1.3456
 8614SOL    HW237302   4.712   1.136  14.233 -2.8389  1.3253  1.0656
 8615SOL     OW37303   1.468   0.325  14.558  0.0496  0.3520 -0.2964
 8615SOL    HW137304   1.377   0.345  14.537 -0.7667 -3.3250 -0.3482
 8615SOL    HW237305   1.458   0.248  14.614 -0.5553 -0.6642 -1.7795
 8616SOL     OW37306   1.100   3.912   7.883 -0.3883 -0.0168  0.5289
 8616SOL    HW137307   1.086   3.822   7.911  1.1476  0.0128  1.4460
 8616SOL    HW237308   1.146   3.929   7.966 -0.8411  0.5900  0.6525
 8617SOL     OW37309   2.442   1.962   2.462  0.4713  0.0564  0.3569
 8617SOL    HW137310   2.492   2.034   2.499  1.8533 -0.5459 -0.3545
 8617SOL    HW237311   2.452   1.897   2.532  2.7399  0.4789  0.4182
 8618SOL     OW37312   0.487   3.900   7.451  0.0867 -0.5700 -0.1297
 8618SOL    HW137313   0.406   3.932   7.411 -1.3373 -1.8938  1.7096
 8618SOL    HW237314   0.508   3.971   7.511 -0.8870  2.0742 -2.9482
 8619SOL     OW37315   0.953   4.140   4.274  0.2660 -0.4455  0.1419
 8619SOL    HW137316   0.990   4.226   4.252  0.1515 -0.1988  0.9419
 8619SOL    HW237317   0.916   4.164   4.359 -0.4357 -3.1656  0.5967
 8620SOL     OW37318   1.062   4.649   5.514  0.1048  0.1746 -0.2515
 8620SOL    HW137319   0.979   4.606   5.494  0.6122 -0.7247 -0.4355
 8620SOL    HW237320   1.048   4.727   5.461 -0.2058 -0.0515 -0.5027
 8621SOL     OW37321   0.222   1.494  17.353 -0.1875 -0.1853 -0.2630
 8621SOL    HW137322   0.262   1.501  17.267  2.0826  0.9767  0.8876
 8621SOL    HW237323   0.296   1.513  17.411  0.6954  0.4141 -1.6137
 8622SOL     OW37324   2.040   2.880  14.996 -0.5057  0.3531 -0.0512
 8622SOL    HW137325   1.960   2.829  14.981  0.9574 -1.0136 -3.2756
 8622SOL    HW237326   2.064   2.908  14.908  2.5433  1.4324  1.1105
 8623SOL     OW37327   1.151   3.696   4.221 -0.3416 -0.3763 -0.0941
 8623SOL    HW137328   1.097   3.618   4.231 -2.7669  1.2614 -0.4792
 8623SOL    HW237329   1.238   3.658   4.205  0.6631  0.7808  2.6274
 8624SOL     OW37330   0.866   2.449   4.628  0.1424  0.5796 -0.7419
 8624SOL    HW137331   0.845   2.534   4.667 -1.5754  0.3364 -1.1058
 8624SOL    HW237332   0.900   2.390   4.694 -0.7355 -1.1438 -1.8308
 8625SOL     OW37333   0.081   2.042   3.857  0.0499 -0.5322 -0.0521
 8625SOL    HW137334   0.149   2.053   3.790 -0.2240  0.8655 -0.0940
 8625SOL    HW237335   0.024   1.983   3.807  0.8115  0.2403 -1.8422
 8626SOL     OW37336   1.801   4.061  10.575 -0.5316  0.5485 -0.0238
 8626SOL    HW137337   1.864   4.009  10.526 -2.3315 -1.1537 -0.5624
 8626SOL    HW237338   1.720   4.060  10.524 -1.0772 -2.2196  0.8648
 8627SOL     OW37339   0.244   3.857  15.420 -0.1319  0.2716  0.2403
 8627SOL    HW137340   0.261   3.794  15.491  0.0911 -0.4362 -0.4412
 8627SOL    HW237341   0.218   3.789  15.358 -0.4204 -0.0444  0.7025
 8628SOL     OW37342   3.404   0.509   2.109  0.0279 -0.4682  0.5946
 8628SOL    HW137343   3.330   0.558   2.072 -0.3710 -2.5781 -1.3969
 8628SOL    HW237344   3.463   0.584   2.114 -1.3317  0.3847  3.8748
 8629SOL     OW37345   0.939   0.110   6.324  0.3373  0.5236  0.4867
 8629SOL    HW137346   1.002   0.048   6.287  0.1595  0.7713 -0.2357
 8629SOL    HW237347   0.859   0.058   6.317  0.9893 -0.0876 -2.6386
 8630SOL     OW37348   1.074   2.061   4.857 -0.3248  0.0637  0.1677
 8630SOL    HW137349   1.124   1.983   4.883 -3.4463 -1.5458  1.3374
 8630SOL    HW237350   1.004   2.007   4.821 -0.7006  0.0748  0.8732
 8631SOL     OW37351   1.037   2.246   6.712 -0.3020 -0.4054  0.1191
 8631SOL    HW137352   1.019   2.250   6.806 -0.4249 -0.4183  0.0961
 8631SOL    HW237353   0.977   2.311   6.677  0.0562  0.3510  0.9027
 8632SOL     OW37354   2.774   2.773   1.460 -0.0313 -0.2952 -0.4445
 8632SOL    HW137355   2.691   2.799   1.500  0.7819 -0.8601  1.6075
 8632SOL    HW237356   2.825   2.760   1.540  0.5179 -1.1328 -0.9391
 8633SOL     OW37357   4.192   2.926   4.364 -0.0060  0.2001  0.0131
 8633SOL    HW137358   4.174   2.935   4.270  0.1907 -0.7379 -0.1142
 8633SOL    HW237359   4.241   2.844   4.366 -2.1644 -1.1610 -2.1579
 8634SOL     OW37360   4.171   2.966  11.524 -0.3083 -0.0845 -0.1136
 8634SOL    HW137361   4.184   2.958  11.619 -2.0869  0.8023  0.2114
 8634SOL    HW237362   4.093   3.022  11.521  0.0917  0.4562 -0.2176
 8635SOL     OW37363   0.587   4.450   4.659  0.3598 -0.1660 -0.5026
 8635SOL    HW137364   0.674   4.490   4.667  0.0796  0.8347 -2.3814
 8635SOL    HW237365   0.550   4.470   4.745  0.5045  1.7185 -0.8739
 8636SOL     OW37366   0.867   2.546   0.545  0.2660  0.0895  0.1504
 8636SOL    HW137367   0.898   2.636   0.557 -0.0739 -0.2811  3.7485
 8636SOL    HW237368   0.808   2.530   0.619  0.3479 -2.1076 -0.2573
 8637SOL     OW37369   1.137   2.470   5.020  0.3259  0.2998 -0.1604
 8637SOL    HW137370   1.210   2.434   4.969  1.6303  0.3470  1.6806
 8637SOL    HW237371   1.152   2.438   5.109 -1.0021 -1.8776 -0.7276
 8638SOL     OW37372   2.238   3.181  16.183  0.4715  0.1431  0.4313
 8638SOL    HW137373   2.175   3.225  16.126 -1.6304 -1.7632  1.3174
 8638SOL    HW237374   2.200   3.200  16.268 -1.1546  0.3272 -0.3348
 8639SOL     OW37375   2.804   1.928   1.385  0.0084  0.4796  0.5114
 8639SOL    HW137376   2.853   1.970   1.456  1.1445  2.8225 -1.6864
 8639SOL    HW237377   2.764   1.857   1.436 -1.5467 -0.2646 -1.7820
 8640SOL     OW37378   3.703   2.775   9.647  0.2943 -0.6716 -0.4185
 8640SOL    HW137379   3.694   2.682   9.664  1.2528 -0.3554  1.7729
 8640SOL    HW237380   3.787   2.772   9.602 -0.1271 -0.9643 -1.1985
 8641SOL     OW37381   4.323   4.639   4.691  0.4337 -0.1372  0.0175
 8641SOL    HW137382   4.338   4.575   4.761 -0.3448 -1.4535 -1.0119
 8641SOL    HW237383   4.263   4.592   4.633  0.4631 -0.6443  0.3987
 8642SOL     OW37384   4.479   2.555   9.211  0.4378 -0.4931  0.3841
 8642SOL    HW137385   4.384   2.550   9.223  0.4286 -0.0135  0.4878
 8642SOL    HW237386   4.488   2.621   9.142  2.8903 -0.4616  0.7284
 8643SOL     OW37387   3.839   1.140  10.716 -0.0802 -0.0767 -0.2843
 8643SOL    HW137388   3.917   1.188  10.688 -0.7828  1.5106  0.4714
 8643SOL    HW237389   3.871   1.053  10.693 -0.1899 -0.3674  0.6571
 8644SOL     OW37390   2.981   4.609   2.161 -0.0913 -0.3593 -0.2916
 8644SOL    HW137391   2.937   4.547   2.219 -1.3164  2.0860  1.3558
 8644SOL    HW237392   2.971   4.562   2.077 -0.5175 -0.0672 -0.4055
 8645SOL     OW37393   3.105   2.468   5.405 -0.7083  0.0109  0.7863
 8645SOL    HW137394   3.105   2.562   5.423  2.0471  0.3595 -0.9416
 8645SOL    HW237395   3.167   2.432   5.468  1.3958 -0.3548 -1.4710
 8646SOL     OW37396   1.413   0.261  17.308  0.0108  0.5008 -0.6247
 8646SOL    HW137397   1.357   0.302  17.242 -1.0884 -0.8358 -0.5329
 8646SOL    HW237398   1.467   0.203  17.253 -1.8380  0.0459 -1.9714
 8647SOL     OW37399   1.309   3.544   2.368 -0.0473  0.4095  0.2923
 8647SOL    HW137400   1.383   3.598   2.341 -0.7965  1.6671  0.7373
 8647SOL    HW237401   1.345   3.456   2.383 -1.8298 -0.5240 -0.9200
 8648SOL     OW37402   3.416   1.049   1.789 -0.1056 -0.5198  0.0425
 8648SOL    HW137403   3.373   1.062   1.873  3.1850 -1.4545  1.8891
 8648SOL    HW237404   3.436   0.955   1.796  1.9470 -0.1986 -1.4333
 8649SOL     OW37405   1.456   0.817   7.725  0.4403 -0.3661 -0.0771
 8649SOL    HW137406   1.504   0.735   7.736 -0.4074 -0.7557  0.6486
 8649SOL    HW237407   1.510   0.886   7.764 -0.7934 -0.1658  1.2289
 8650SOL     OW37408   3.644   1.749   8.714 -0.0020  0.3824  0.4920
 8650SOL    HW137409   3.636   1.765   8.808 -0.1821  1.0295  0.3665
 8650SOL    HW237410   3.582   1.677   8.707  0.7890 -0.3366  0.8309
 8651SOL     OW37411   1.503   3.355  14.445  0.3217 -0.1474 -0.8662
 8651SOL    HW137412   1.419   3.392  14.473 -1.1962 -2.0582 -2.8044
 8651SOL    HW237413   1.559   3.405  14.504 -0.1536  0.5759 -1.0358
 8652SOL     OW37414   1.694   3.966   7.567  0.2192  0.0696  0.1079
 8652SOL    HW137415   1.789   3.980   7.559  0.1359 -0.3203 -1.5220
 8652SOL    HW237416   1.693   3.893   7.630  0.6942  0.9148  1.1065
 8653SOL     OW37417   3.584   3.600   1.040  0.5404  0.1925 -0.4816
 8653SOL    HW137418   3.648   3.599   1.111 -0.8434 -0.4657  0.7637
 8653SOL    HW237419   3.535   3.679   1.060 -1.1957 -1.2652  1.1383
 8654SOL     OW37420   2.352   3.816   9.079 -0.2815 -0.0005 -0.4083
 8654SOL    HW137421   2.368   3.909   9.093 -1.1181 -0.0220  0.7118
 8654SOL    HW237422   2.411   3.775   9.142  2.7892  2.0402 -1.9593
 8655SOL     OW37423   0.957   3.529  13.759 -0.2227 -0.1792 -0.1886
 8655SOL    HW137424   0.962   3.495  13.670 -1.6746  1.9044 -1.0789
 8655SOL    HW237425   0.890   3.476  13.802 -1.0897  1.1688  0.1224
 8656SOL     OW37426   0.892   2.160  13.818 -0.3873  0.3209  0.2758
 8656SOL    HW137427   0.874   2.070  13.846 -2.1802  0.4893 -0.3663
 8656SOL    HW237428   0.978   2.156  13.776 -0.8960  0.1927 -0.7416
 8657SOL     OW37429   1.517   3.224  16.276  1.3019 -0.2098 -0.1996
 8657SOL    HW137430   1.469   3.229  16.359  0.1335 -1.0851 -0.8123
 8657SOL    HW237431   1.525   3.131  16.255 -1.3850 -0.8087  1.3858
 8658SOL     OW37432   2.343   1.290  16.012  0.7575  0.4076  0.0704
 8658SOL    HW137433   2.256   1.283  15.974  1.0157  2.4143 -0.9500
 8658SOL    HW237434   2.327   1.234  16.087 -2.6066 -1.4395 -2.0566
 8659SOL     OW37435   1.880   3.881  15.362 -0.2635  0.0848 -0.1508
 8659SOL    HW137436   1.935   3.808  15.390  0.6122  0.9448  0.3585
 8659SOL    HW237437   1.949   3.940  15.330 -0.3880  1.2042  1.6750
 8660SOL     OW37438   4.565   0.211   8.718  0.8841  0.1326 -0.3900
 8660SOL    HW137439   4.578   0.167   8.634  0.8186  0.3013 -0.4893
 8660SOL    HW237440   4.657   0.234   8.733  0.7302 -1.1082  2.3142
 8661SOL     OW37441   1.875   0.275   2.053 -0.1455  0.2100  0.4951
 8661SOL    HW137442   1.794   0.238   2.088  0.6506 -2.0095 -0.0223
 8661SOL    HW237443   1.844   0.359   2.021 -0.8950 -0.4251 -0.4223
 8662SOL     OW37444   2.587   4.430   6.601  0.0022 -0.4485  0.2132
 8662SOL    HW137445   2.632   4.364   6.548  0.6921  1.4385 -1.5237
 8662SOL    HW237446   2.665   4.470   6.639  0.5080 -0.2866 -1.0061
 8663SOL     OW37447   1.217   3.808  15.987  0.0954  0.2412  0.3062
 8663SOL    HW137448   1.201   3.902  15.979  1.2029  0.2682 -1.5632
 8663SOL    HW237449   1.289   3.807  15.924  0.1233 -0.9199  0.3553
 8664SOL     OW37450   1.194   1.122  13.601 -0.4991 -0.5401 -0.3819
 8664SOL    HW137451   1.159   1.067  13.672 -1.5284 -0.2945 -0.7044
 8664SOL    HW237452   1.288   1.103  13.607 -0.2409  0.8985  0.0923
 8665SOL     OW37453   2.082   1.229  12.391 -0.1421 -0.2652 -0.4970
 8665SOL    HW137454   1.988   1.214  12.384  0.1789 -2.6465  0.4138
 8665SOL    HW237455   2.087   1.271  12.477  0.9088 -1.2589 -0.0659
 8666SOL     OW37456   0.965   0.960   5.322 -0.6808  0.6171 -0.1093
 8666SOL    HW137457   0.913   0.895   5.274  1.1269 -1.3906  0.6577
 8666SOL    HW237458   0.950   0.926   5.410  0.1061 -4.1573 -1.8136
 8667SOL     OW37459   4.409   1.096  10.162  0.2023 -0.5075 -0.0655
 8667SOL    HW137460   4.496   1.076  10.195  0.5769  0.1335 -0.6392
 8667SOL    HW237461   4.379   1.157  10.230  0.8579 -1.9305  1.4853
 8668SOL     OW37462   0.877   2.333  16.023 -0.4598  0.0401 -0.0369
 8668SOL    HW137463   0.970   2.312  16.022 -0.4281  0.2261 -0.8087
 8668SOL    HW237464   0.833   2.251  16.045 -0.5767  0.3451  0.8636
 8669SOL     OW37465   0.211   2.614   5.200 -0.0401  0.2591 -0.1135
 8669SOL    HW137466   0.269   2.687   5.224  1.5295 -0.7464 -0.8741
 8669SOL    HW237467   0.250   2.539   5.244 -1.3169 -0.4377 -0.1649
 8670SOL     OW37468   2.779   2.900  14.019  0.6571 -0.0893  0.2030
 8670SOL    HW137469   2.684   2.901  14.007  0.9923  0.5604 -2.2681
 8670SOL    HW237470   2.790   2.995  14.015 -1.2898  0.2326  2.1370
 8671SOL     OW37471   0.829   1.791  12.865  0.4612 -0.0969 -0.2719
 8671SOL    HW137472   0.809   1.710  12.818 -1.8109 -0.6680  1.6574
 8671SOL    HW237473   0.819   1.770  12.958 -2.3788 -1.0579 -0.8010
 8672SOL     OW37474   0.876   4.328   3.204  0.2059 -0.1283 -0.6509
 8672SOL    HW137475   0.845   4.418   3.199 -0.5050 -0.1818  2.6937
 8672SOL    HW237476   0.801   4.269   3.204 -0.6043  0.9145 -1.0055
 8673SOL     OW37477   2.527   1.529  11.699  0.2552 -0.3287 -0.0568
 8673SOL    HW137478   2.443   1.483  11.693  0.7188 -1.2118  0.1583
 8673SOL    HW237479   2.528   1.575  11.783  0.2953  0.5701 -0.5523
 8674SOL     OW37480   2.853   3.318   9.261  0.0512 -0.3078  0.2550
 8674SOL    HW137481   2.776   3.322   9.204  0.2602  0.9474  0.0605
 8674SOL    HW237482   2.829   3.335   9.352  1.0795  0.9623  0.2923
 8675SOL     OW37483   0.465   3.167  10.144 -0.0558 -0.0551 -0.0057
 8675SOL    HW137484   0.512   3.248  10.163 -0.2376  0.4605 -1.7147
 8675SOL    HW237485   0.535   3.107  10.120 -1.0197 -0.7684 -1.0319
 8676SOL     OW37486   2.154   2.711   3.745  0.0947 -0.3952 -0.1712
 8676SOL    HW137487   2.208   2.759   3.682  1.1106 -1.0453  0.1958
 8676SOL    HW237488   2.216   2.717   3.818 -1.1151  1.8209  0.6751
 8677SOL     OW37489   0.946   2.108  12.939 -0.0978 -0.6144 -0.3976
 8677SOL    HW137490   0.950   2.192  12.892 -0.9978  0.0988  0.8023
 8677SOL    HW237491   0.967   2.040  12.876  0.6571 -0.5753 -0.1897
 8678SOL     OW37492   3.676   0.713   6.313 -0.6784  0.0624  0.3111
 8678SOL    HW137493   3.586   0.724   6.282 -1.1415 -0.6330  1.3967
 8678SOL    HW237494   3.719   0.790   6.277  0.4603  0.4904  2.5880
 8679SOL     OW37495   3.195   0.544   5.584  0.1190  0.0091  0.9790
 8679SOL    HW137496   3.242   0.615   5.540 -1.5708  0.6627  0.2494
 8679SOL    HW237497   3.118   0.518   5.535  0.8231 -0.0086 -0.1072
 8680SOL     OW37498   2.335   3.409   6.819  0.0573 -0.3476  0.3674
 8680SOL    HW137499   2.267   3.420   6.752  2.2688  1.0962 -1.6335
 8680SOL    HW237500   2.355   3.496   6.853  0.3862 -0.2156 -0.1545
 8681SOL     OW37501   3.646   3.953   8.098  0.2929 -0.4166  0.3826
 8681SOL    HW137502   3.612   3.967   8.009 -1.1071 -2.9510  0.5454
 8681SOL    HW237503   3.670   3.861   8.097  0.4001 -0.3798 -1.1738
 8682SOL     OW37504   3.592   1.710   4.823 -0.8229  0.0208  0.4951
 8682SOL    HW137505   3.548   1.647   4.765  1.9918 -1.6952  0.2293
 8682SOL    HW237506   3.573   1.672   4.909 -1.8494  0.0191  0.2736
 8683SOL     OW37507   1.646   2.478   5.927 -0.4656  0.3128 -0.0776
 8683SOL    HW137508   1.624   2.387   5.908 -2.9068  0.5063  1.8359
 8683SOL    HW237509   1.644   2.483   6.022  2.2162  0.7184 -0.0391
 8684SOL     OW37510   2.195   4.367   5.482 -0.7130  0.0902  0.5799
 8684SOL    HW137511   2.133   4.295   5.470 -1.0050  0.1617  1.6701
 8684SOL    HW237512   2.136   4.442   5.487  0.5776  1.0328  1.8161
 8685SOL     OW37513   2.661   1.751   5.315 -0.0360 -0.0729 -0.3611
 8685SOL    HW137514   2.684   1.808   5.388  0.6342  2.7765 -2.7723
 8685SOL    HW237515   2.743   1.746   5.266 -0.4902 -1.0423 -1.0289
 8686SOL     OW37516   4.111   3.499   2.776  0.3128  0.6860  0.0670
 8686SOL    HW137517   4.183   3.553   2.742  1.3950  0.5708  2.2205
 8686SOL    HW237518   4.068   3.475   2.694 -1.5993  1.4117  0.8520
 8687SOL     OW37519   1.456   2.147   4.513 -0.1543 -0.7152 -0.2855
 8687SOL    HW137520   1.457   2.189   4.599  0.7914 -1.3425  0.0112
 8687SOL    HW237521   1.527   2.084   4.525  1.3658  1.0575 -0.0924
 8688SOL     OW37522   1.460   1.289   9.929 -0.0257 -0.4199  0.3498
 8688SOL    HW137523   1.549   1.321   9.914 -0.6082  2.5532  3.1374
 8688SOL    HW237524   1.480   1.196   9.917  0.6527 -0.5814  2.6960
 8689SOL     OW37525   1.295   0.066   3.524  0.6376 -0.3715  0.0583
 8689SOL    HW137526   1.251   0.026   3.449 -1.7656 -2.4009  2.5268
 8689SOL    HW237527   1.384   0.030   3.522  1.3195  1.2619  0.7570
 8690SOL     OW37528   1.427   2.401   3.405 -0.0287 -0.6283 -0.4480
 8690SOL    HW137529   1.465   2.486   3.427  0.5307 -0.6720 -1.2364
 8690SOL    HW237530   1.333   2.416   3.416  0.1455  1.5468 -1.8115
 8691SOL     OW37531   0.321   0.812   0.616  0.5324  0.0291  0.0080
 8691SOL    HW137532   0.286   0.730   0.581 -1.0422 -0.4155  2.6702
 8691SOL    HW237533   0.300   0.856   0.533  1.1617 -0.5612 -0.4689
 8692SOL     OW37534   0.358   0.267   6.519  0.4672  0.1893 -0.5850
 8692SOL    HW137535   0.342   0.317   6.439  0.1260 -0.0956 -0.6968
 8692SOL    HW237536   0.374   0.182   6.478  0.6692  0.2847 -0.7011
 8693SOL     OW37537   3.563   1.081  14.659 -0.6521  0.4752  0.2152
 8693SOL    HW137538   3.515   1.082  14.742 -0.3068 -1.9980  0.4448
 8693SOL    HW237539   3.596   1.170  14.672 -1.9222  1.2465 -1.9076
 8694SOL     OW37540   0.669   0.044   6.249 -0.6139 -0.3400  0.0725
 8694SOL    HW137541   0.656   0.063   6.156  0.7830  0.7256  0.0868
 8694SOL    HW237542   0.659   0.132   6.284 -1.0319 -0.8246  1.1589
 8695SOL     OW37543   2.514   1.281   2.858  0.0100 -0.5891  0.7125
 8695SOL    HW137544   2.583   1.215   2.854  1.0325  0.4634  0.8757
 8695SOL    HW237545   2.541   1.346   2.793  0.0636 -1.3447 -0.0113
 8696SOL     OW37546   3.971   3.853  13.416  0.3862  0.4916 -0.7823
 8696SOL    HW137547   4.066   3.860  13.408  0.3852  0.6147 -0.6793
 8696SOL    HW237548   3.953   3.945  13.434  2.4020  0.7630 -0.2085
 8697SOL     OW37549   3.077   4.473   6.029 -0.6545  0.5988  0.0774
 8697SOL    HW137550   3.125   4.414   6.087 -0.7678  0.9408  0.5138
 8697SOL    HW237551   3.147   4.509   5.975 -0.6346 -0.5150 -0.6388
 8698SOL     OW37552   1.267   2.284  14.572 -0.6407  0.2452  0.7461
 8698SOL    HW137553   1.210   2.215  14.538 -0.5372  0.2575  0.5453
 8698SOL    HW237554   1.199   2.346  14.598 -0.8797  0.0645  0.5473
 8699SOL     OW37555   4.093   2.788   6.060 -0.3945  0.7383  0.0490
 8699SOL    HW137556   4.120   2.787   6.152 -0.7496 -0.7433  0.1282
 8699SOL    HW237557   4.168   2.806   6.003  1.3610 -0.5536  1.9783
 8700SOL     OW37558   0.598   0.141   4.019  0.6158  0.1637 -0.7022
 8700SOL    HW137559   0.535   0.147   4.091  1.0634  0.2503 -0.3153
 8700SOL    HW237560   0.532   0.166   3.954  1.5602  0.7187 -1.4519
 8701SOL     OW37561   1.360   3.832   6.603  0.2458  0.0750 -0.2758
 8701SOL    HW137562   1.281   3.827   6.656  1.4185  1.0678  1.5407
 8701SOL    HW237563   1.354   3.912   6.551  0.9761  1.5127  1.8737
 8702SOL     OW37564   4.505   0.037  16.238 -0.1598 -0.3952  0.2727
 8702SOL    HW137565   4.554   4.696  16.193  0.5370 -0.1975  0.7267
 8702SOL    HW237566   4.579   0.089  16.270 -0.6686  1.5004 -1.5881
 8703SOL     OW37567   0.866   4.427   3.573  0.1270 -0.4894  0.3320
 8703SOL    HW137568   0.775   4.404   3.591 -0.4322 -0.2438 -2.2528
 8703SOL    HW237569   0.868   4.523   3.565  0.6213 -0.5892 -0.6812
 8704SOL     OW37570   1.772   4.641  11.436 -0.0165  0.3671 -0.3230
 8704SOL    HW137571   1.780   4.683  11.521  1.3541 -1.8901  0.6383
 8704SOL    HW237572   1.794   4.549  11.449 -0.5820 -0.0536 -2.2759
 8705SOL     OW37573   4.166   4.484  14.672  0.1454 -0.3426  0.2657
 8705SOL    HW137574   4.254   4.472  14.636 -1.0290 -1.7754 -2.0827
 8705SOL    HW237575   4.111   4.510  14.598  0.3249 -2.8373 -0.7435
 8706SOL     OW37576   4.703   2.892   3.156 -0.2534 -0.0970 -0.0695
 8706SOL    HW137577   0.064   2.896   3.120 -0.8125  0.9342 -1.3418
 8706SOL    HW237578   4.713   2.859   3.245  0.8125  2.9002  0.9212
 8707SOL     OW37579   3.203   2.277  15.365 -0.2958  0.3109  0.3635
 8707SOL    HW137580   3.159   2.362  15.351  0.0790  0.5273  0.5188
 8707SOL    HW237581   3.151   2.252  15.441  0.6507 -0.8971  0.5928
 8708SOL     OW37582   3.326   2.970   5.403 -0.0054 -0.4898 -0.3766
 8708SOL    HW137583   3.286   2.984   5.317 -0.8832 -0.9031 -0.0411
 8708SOL    HW237584   3.271   3.030   5.454  1.2161  0.2731  0.0457
 8709SOL     OW37585   3.352   3.479   8.565 -0.2927  0.5600 -0.0445
 8709SOL    HW137586   3.267   3.505   8.529  0.2468 -0.0798 -1.7869
 8709SOL    HW237587   3.385   3.407   8.512  0.5929  2.1666 -1.6662
 8710SOL     OW37588   4.067   3.209   7.955 -0.5359 -0.1418  0.2741
 8710SOL    HW137589   4.057   3.252   7.869 -2.3184 -0.3169  0.3905
 8710SOL    HW237590   4.103   3.276   8.013  1.1249 -0.6887 -0.1198
 8711SOL     OW37591   2.605   0.423   1.642  0.0172 -0.3699 -0.2921
 8711SOL    HW137592   2.625   0.448   1.552  1.4880  2.0317  0.7022
 8711SOL    HW237593   2.509   0.421   1.639 -0.0028 -0.3042  0.2614
 8712SOL     OW37594   0.370   0.958   8.957  0.0647 -0.1764  0.4097
 8712SOL    HW137595   0.312   0.883   8.972 -1.0606  1.0769  2.3439
 8712SOL    HW237596   0.390   1.001   9.041  3.0092 -0.6954  0.0023
 8713SOL     OW37597   4.500   1.291   2.004 -0.8827 -0.4363 -0.0591
 8713SOL    HW137598   4.451   1.319   2.081 -1.0432 -0.8481 -0.0089
 8713SOL    HW237599   4.434   1.267   1.939 -1.5838 -2.7839  1.5033
 8714SOL     OW37600   3.996   4.306   6.281 -0.3441 -0.1268  0.6274
 8714SOL    HW137601   4.038   4.344   6.358 -1.1825  0.9482  0.5548
 8714SOL    HW237602   4.061   4.238   6.263  1.3090  1.2815  1.3529
 8715SOL     OW37603   2.635   2.950   4.992 -0.2365  0.1111 -0.2083
 8715SOL    HW137604   2.586   2.959   5.073  0.3989  0.2812  0.1558
 8715SOL    HW237605   2.580   2.967   4.915 -0.2231  1.9143  0.1938
 8716SOL     OW37606   0.131   2.399   6.034 -0.7530 -0.2617  0.3650
 8716SOL    HW137607   0.126   2.390   5.938 -0.0633  0.2653  0.2724
 8716SOL    HW237608   0.093   2.313   6.051  1.0661 -1.4999 -1.7821
 8717SOL     OW37609   3.285   2.260  17.609 -0.6245 -0.0933 -0.1633
 8717SOL    HW137610   3.252   2.178  17.571  0.8489  0.4735 -2.6905
 8717SOL    HW237611   3.370   2.273  17.566 -1.9521 -0.3642 -2.8505
 8718SOL     OW37612   1.819   2.244   4.432  0.1991 -0.0732 -0.0308
 8718SOL    HW137613   1.834   2.152   4.408 -0.4210 -0.0615 -0.4565
 8718SOL    HW237614   1.847   2.235   4.523 -2.5844 -1.2074  0.7292
 8719SOL     OW37615   1.624   3.037   7.069  0.5050 -0.6158 -0.1771
 8719SOL    HW137616   1.677   3.096   7.015 -0.3530  0.8670  0.6262
 8719SOL    HW237617   1.557   3.002   7.010  0.4950  1.2653 -1.2747
 8720SOL     OW37618   2.134   2.079   2.447  0.8552 -0.2407  0.6822
 8720SOL    HW137619   2.092   2.031   2.376  1.1459 -0.1231  0.4294
 8720SOL    HW237620   2.226   2.074   2.423  0.5498 -3.8852  0.3502
 8721SOL     OW37621   3.249   3.680  15.991  0.7148  0.3074 -0.5914
 8721SOL    HW137622   3.162   3.718  16.007  0.0018 -1.2613 -0.7654
 8721SOL    HW237623   3.306   3.756  15.978 -0.2757  0.5995 -3.3916
 8722SOL     OW37624   2.925   2.656   2.529 -0.6473  0.4182 -0.3932
 8722SOL    HW137625   2.993   2.710   2.489 -0.0522 -0.8327 -1.0747
 8722SOL    HW237626   2.883   2.611   2.456 -0.8447 -0.8068  0.4786
 8723SOL     OW37627   1.520   3.553   1.507  0.5646 -0.0876 -0.0298
 8723SOL    HW137628   1.426   3.556   1.488  0.6497 -1.0561 -0.5718
 8723SOL    HW237629   1.549   3.473   1.463  0.0724  0.1993 -0.8750
 8724SOL     OW37630   1.140   2.163  13.682  0.2902 -0.1867 -0.3096
 8724SOL    HW137631   1.120   2.071  13.664 -1.8149  0.3878 -0.9216
 8724SOL    HW237632   1.229   2.172  13.647 -0.3945 -0.6798 -2.1821
 8725SOL     OW37633   4.072   3.074  11.223 -0.0089 -0.0875 -0.2259
 8725SOL    HW137634   4.030   3.079  11.309  2.1756  1.0147  0.7698
 8725SOL    HW237635   4.126   2.996  11.237 -1.3027 -0.9250  0.1686
 8726SOL     OW37636   2.017   4.504   6.722 -0.0772  0.7714 -0.2687
 8726SOL    HW137637   2.080   4.486   6.652 -1.4488  1.5134 -1.7151
 8726SOL    HW237638   2.016   4.423   6.773 -0.0346 -0.2660 -1.9102
 8727SOL     OW37639   1.743   3.087   2.443 -0.0034 -0.4641 -0.3442
 8727SOL    HW137640   1.695   3.085   2.526  0.2903 -1.6159 -0.1970
 8727SOL    HW237641   1.813   3.137   2.483 -0.1277 -1.3890  1.0380
 8728SOL     OW37642   2.646   1.880   7.048  0.4477 -0.1864 -0.6649
 8728SOL    HW137643   2.668   1.942   6.979 -0.2871  0.4719 -0.3179
 8728SOL    HW237644   2.720   1.900   7.105 -1.4285  1.2586  1.2844
 8729SOL     OW37645   2.773   4.631  13.857  0.4202 -0.3191 -0.0582
 8729SOL    HW137646   2.843   4.696  13.862 -0.7754  0.9876 -0.1193
 8729SOL    HW237647   2.777   4.607  13.764 -0.7661  0.7814 -0.4068
 8730SOL     OW37648   3.404   2.665  10.947  0.2566 -0.3328  0.0668
 8730SOL    HW137649   3.358   2.725  10.888  1.6953  1.2666  0.5642
 8730SOL    HW237650   3.358   2.687  11.028  0.5925  1.1236 -0.1268
 8731SOL     OW37651   1.651   3.694   6.296  0.2536 -0.5074 -0.2659
 8731SOL    HW137652   1.622   3.731   6.379  0.6813  2.7663 -1.5451
 8731SOL    HW237653   1.713   3.627   6.322  0.8496 -0.2376 -0.9893
 8732SOL     OW37654   0.901   0.452   5.141 -0.5508  1.1773 -0.0145
 8732SOL    HW137655   0.806   0.448   5.152 -0.1639 -0.7016  2.7310
 8732SOL    HW237656   0.933   0.363   5.138 -3.1451  0.1794  1.3572
 8733SOL     OW37657   4.454   0.284  12.015 -0.3694 -0.1838 -0.2349
 8733SOL    HW137658   4.464   0.268  11.921  0.4450  0.7869 -0.3103
 8733SOL    HW237659   4.545   0.295  12.041 -0.6584 -1.6024  1.3772
 8734SOL     OW37660   3.339   0.242   8.829 -0.0405 -0.7843  0.0390
 8734SOL    HW137661   3.272   0.198   8.881 -1.3469 -0.5760 -1.4599
 8734SOL    HW237662   3.312   0.205   8.745  0.2364  0.4489 -0.5865
 8735SOL     OW37663   0.044   0.123   3.820  0.5229  0.3405  0.3908
 8735SOL    HW137664   0.000   0.094   3.900 -1.5694  0.0235 -0.8669
 8735SOL    HW237665   0.003   0.070   3.752  3.5150 -2.4019  0.7248
 8736SOL     OW37666   1.727   4.114  11.365 -0.3053 -0.1537  0.1185
 8736SOL    HW137667   1.730   4.057  11.288 -0.7848  3.5673 -2.6881
 8736SOL    HW237668   1.631   4.118  11.360 -0.4198 -2.5889  0.5937
 8737SOL     OW37669   3.550   3.666  17.628 -0.0255 -0.6679  0.5321
 8737SOL    HW137670   3.572   3.755  17.601  0.4681 -0.7935  0.5129
 8737SOL    HW237671   3.480   3.681  17.691  0.2817  2.0961  0.2130
 8738SOL     OW37672   1.950   3.227   8.776  0.5227 -0.2928 -0.1935
 8738SOL    HW137673   1.876   3.223   8.715  2.0036  1.2831 -2.0974
 8738SOL    HW237674   2.007   3.165   8.731 -0.3634 -2.0036  1.0381
 8739SOL     OW37675   4.645   2.488   4.352 -0.0324 -0.2248  0.2604
 8739SOL    HW137676   4.591   2.566   4.343 -1.1749 -1.0160  0.2529
 8739SOL    HW237677   4.704   2.522   4.419  0.7586  1.2346 -1.1641
 8740SOL     OW37678   1.092   2.023   8.775  0.5348 -0.1327 -0.3239
 8740SOL    HW137679   1.015   2.050   8.825  1.5371 -4.4233  3.4760
 8740SOL    HW237680   1.119   2.111   8.749 -0.1563 -0.0933 -0.9097
 8741SOL     OW37681   2.968   1.799   4.501  0.8309 -0.5405 -0.8109
 8741SOL    HW137682   2.911   1.869   4.468 -0.1547 -0.9419  0.0457
 8741SOL    HW237683   2.940   1.725   4.447  2.3992 -2.5589  1.1872
 8742SOL     OW37684   1.237   1.431  15.172 -0.2657  0.1080 -0.4050
 8742SOL    HW137685   1.167   1.397  15.227 -1.2855 -0.5355 -2.1143
 8742SOL    HW237686   1.306   1.365  15.184 -1.1421 -1.0853 -1.9953
 8743SOL     OW37687   4.430   3.665  15.979  0.3343  0.5187 -0.1205
 8743SOL    HW137688   4.438   3.679  15.885  0.8693 -0.3400 -0.2048
 8743SOL    HW237689   4.487   3.729  16.022 -1.4027  1.8352  0.2489
 8744SOL     OW37690   1.723   3.248   7.262 -0.3118  0.1600 -0.0745
 8744SOL    HW137691   1.674   3.170   7.237  0.4137 -0.8401  1.6086
 8744SOL    HW237692   1.801   3.224   7.312  0.0019 -0.4130 -0.8468
 8745SOL     OW37693   1.513   2.075   4.221 -0.2477 -0.9123  0.0385
 8745SOL    HW137694   1.518   2.042   4.311  2.0265 -2.1102 -0.5253
 8745SOL    HW237695   1.607   2.070   4.200 -0.5146  1.2312 -1.6409
 8746SOL     OW37696   3.731   3.972   3.004 -0.0848 -0.2789  0.4660
 8746SOL    HW137697   3.795   3.912   2.967 -1.9312 -0.2737 -2.7665
 8746SOL    HW237698   3.779   4.026   3.067 -1.5165  2.5151 -0.8363
 8747SOL     OW37699   1.938   4.086   7.576 -0.0096  0.0575 -0.1983
 8747SOL    HW137700   2.013   4.133   7.612 -0.8281  1.3180 -0.1587
 8747SOL    HW237701   1.878   4.155   7.549  0.8242 -0.1622 -2.6132
 8748SOL     OW37702   3.557   0.944  12.637 -0.0196  0.1794  0.7136
 8748SOL    HW137703   3.546   0.915  12.727  2.1810 -0.7848  0.6671
 8748SOL    HW237704   3.622   1.012  12.656 -0.5310  0.8641 -0.0001
 8749SOL     OW37705   4.318   3.327  11.676  0.1540  0.1665  0.4858
 8749SOL    HW137706   4.227   3.358  11.674  0.5294  1.1721 -1.1191
 8749SOL    HW237707   4.369   3.408  11.678  0.2058  0.1180  1.3500
 8750SOL     OW37708   2.149   0.015  14.987  0.8219  0.5164 -0.1847
 8750SOL    HW137709   2.125   0.061  14.907 -0.3980  1.5516  0.7639
 8750SOL    HW237710   2.152   4.653  14.955 -0.7985 -0.6792  2.9969
 8751SOL     OW37711   3.203   3.669   6.635  0.2610  0.8517  0.6907
 8751SOL    HW137712   3.182   3.598   6.695  1.9447 -1.0115 -0.9126
 8751SOL    HW237713   3.127   3.728   6.633 -0.5905 -0.2394  1.2741
 8752SOL     OW37714   4.454   4.080   8.254 -0.5881  0.2777  0.3698
 8752SOL    HW137715   4.407   4.124   8.325  1.6540  2.1350  0.7052
 8752SOL    HW237716   4.424   4.143   8.188 -3.2335 -0.7615  0.5841
 8753SOL     OW37717   0.117   4.372  10.327  0.6129  0.2899 -0.4051
 8753SOL    HW137718   0.082   4.459  10.305  1.8087  1.0797  0.7657
 8753SOL    HW237719   0.143   4.343  10.240 -0.8678 -1.0536 -0.3887
 8754SOL     OW37720   2.655   0.255   9.184 -0.4653  1.4917  1.0058
 8754SOL    HW137721   2.619   0.295   9.105 -1.3630 -0.9692  0.1893
 8754SOL    HW237722   2.697   0.173   9.158 -1.6299  2.0410 -2.5270
 8755SOL     OW37723   0.916   1.325   5.600  0.6106 -0.2245  0.6594
 8755SOL    HW137724   0.844   1.300   5.542  0.8233 -1.7762  1.0454
 8755SOL    HW237725   0.937   1.414   5.574 -0.8676 -0.4074 -1.2084
 8756SOL     OW37726   4.705   0.994   0.561 -0.3421 -0.5813 -0.0189
 8756SOL    HW137727   4.653   0.960   0.488 -1.5706  2.2799 -0.4920
 8756SOL    HW237728   4.636   1.048   0.601  0.8239  0.6752  0.3023
 8757SOL     OW37729   1.950   0.176  10.112 -0.3348  0.1686  0.0204
 8757SOL    HW137730   2.030   0.217  10.144 -0.9036  2.9275 -2.1105
 8757SOL    HW237731   1.970   0.199  10.021  3.5162 -1.2027  0.5445
 8758SOL     OW37732   1.989   0.279  10.381  0.8848 -0.0266 -0.4873
 8758SOL    HW137733   1.997   0.202  10.438  1.0065  0.1279 -0.2951
 8758SOL    HW237734   2.053   0.335  10.424  0.0611  1.3664 -1.1028
 8759SOL     OW37735   4.473   3.820   2.997 -0.1355 -0.3534 -0.0752
 8759SOL    HW137736   4.379   3.809   3.008  0.1393 -1.4399  1.1343
 8759SOL    HW237737   4.506   3.767   3.070 -0.2379  0.5956  0.6625
 8760SOL     OW37738   3.745   2.482   4.629  0.1481  0.3114  0.3750
 8760SOL    HW137739   3.713   2.550   4.569 -0.5594  1.3979  2.0063
 8760SOL    HW237740   3.805   2.431   4.574 -1.0205  2.1128 -2.5740
 8761SOL     OW37741   2.214   2.339   5.411 -0.9007  0.1430 -0.3534
 8761SOL    HW137742   2.242   2.299   5.493  1.5522  0.0382 -1.2499
 8761SOL    HW237743   2.301   2.361   5.378 -1.4816  1.0402 -1.3087
 8762SOL     OW37744   0.754   1.716   4.873 -1.0102 -0.5451 -0.1897
 8762SOL    HW137745   0.814   1.728   4.947 -1.3899 -1.3256  0.2418
 8762SOL    HW237746   0.676   1.676   4.910 -1.1505  0.2053  0.3279
 8763SOL     OW37747   1.612   0.607   7.821 -0.2056 -0.4283 -0.0680
 8763SOL    HW137748   1.640   0.565   7.902  1.0676  0.7396  0.0907
 8763SOL    HW237749   1.660   0.554   7.757  0.1474  0.1127 -0.2499
 8764SOL     OW37750   0.981   0.252   1.442 -0.4190 -0.5853 -0.6001
 8764SOL    HW137751   1.073   0.272   1.428  0.3123 -2.1141  2.0582
 8764SOL    HW237752   0.985   0.157   1.433  2.8599 -0.7405  2.9717
 8765SOL     OW37753   1.063   2.373   4.291  0.0882  0.1598 -0.2785
 8765SOL    HW137754   1.044   2.296   4.345  0.4811 -0.5067 -1.0884
 8765SOL    HW237755   1.146   2.408   4.321  0.0230 -1.6285  1.9917
 8766SOL     OW37756   0.626   1.954  15.956 -0.0600 -0.0944  0.1219
 8766SOL    HW137757   0.541   1.943  15.998 -0.8646  0.9313 -1.2321
 8766SOL    HW237758   0.597   2.008  15.882 -1.2212 -1.6423 -0.5581
 8767SOL     OW37759   3.160   0.171   4.953  0.0765  0.7558  0.4647
 8767SOL    HW137760   3.157   0.102   5.019 -3.1648 -0.8712 -1.3805
 8767SOL    HW237761   3.242   0.217   4.971  0.0428  1.0778 -0.1901
 8768SOL     OW37762   3.379   0.159   7.239  0.5300  0.1603  0.3508
 8768SOL    HW137763   3.473   0.146   7.223  0.1165  0.7054 -2.4613
 8768SOL    HW237764   3.342   0.071   7.240 -1.4575  0.9766 -1.1365
 8769SOL     OW37765   1.185   2.951   5.029  0.2322  0.1957  0.0437
 8769SOL    HW137766   1.258   2.907   5.073 -0.4518 -1.7174 -0.7454
 8769SOL    HW237767   1.125   2.877   5.024  0.6099 -0.1297  0.3279
 8770SOL     OW37768   2.274   4.193   1.252  0.0594  0.2842 -0.2561
 8770SOL    HW137769   2.246   4.247   1.326  0.2845 -1.0299  0.7955
 8770SOL    HW237770   2.193   4.145   1.236  1.3506 -2.7997  2.3873
 8771SOL     OW37771   4.081   2.958  16.221  0.3069  0.0098 -0.3579
 8771SOL    HW137772   3.993   2.987  16.244  0.1394 -1.5068  0.8942
 8771SOL    HW237773   4.116   2.958  16.310 -1.9122 -1.5938  0.5273
 8772SOL     OW37774   3.163   2.790   6.373 -0.1900 -0.4361  0.0319
 8772SOL    HW137775   3.212   2.778   6.292  0.5047  2.0301  0.0791
 8772SOL    HW237776   3.203   2.739   6.444 -1.1096 -1.7984 -0.4368
 8773SOL     OW37777   3.919   1.643   2.414  0.5364 -0.6544  0.4758
 8773SOL    HW137778   3.950   1.732   2.401 -0.0443 -0.0845  3.0471
 8773SOL    HW237779   3.975   1.630   2.490 -1.6382  0.0054  2.2045
 8774SOL     OW37780   1.911   1.014  14.077 -0.0913  0.0598 -0.2283
 8774SOL    HW137781   1.905   1.108  14.065 -1.5871 -0.0547 -0.4591
 8774SOL    HW237782   1.862   1.016  14.159  0.5457 -1.5910  0.2071
 8775SOL     OW37783   1.415   4.369  11.366  0.1070  0.5858  0.2738
 8775SOL    HW137784   1.450   4.283  11.343  0.1955  0.0503  2.3761
 8775SOL    HW237785   1.460   4.385  11.450  1.2829 -2.8455  0.3132
 8776SOL     OW37786   1.226   4.091  11.720 -0.4404 -0.0207  0.3762
 8776SOL    HW137787   1.249   4.065  11.631 -1.3737 -3.8853  1.2199
 8776SOL    HW237788   1.301   4.144  11.746 -0.5785  0.4547 -0.2062
 8777SOL     OW37789   3.848   3.400   3.509  0.1136  0.1947 -0.0677
 8777SOL    HW137790   3.810   3.312   3.510  0.2142  0.1481 -1.3983
 8777SOL    HW237791   3.916   3.379   3.445  1.5293 -0.7681  1.7394
 8778SOL     OW37792   4.681   0.037   8.962 -0.3392  0.6936 -0.2588
 8778SOL    HW137793   4.628   4.705   8.910  0.9742  0.5624 -1.4384
 8778SOL    HW237794   4.669   4.726   9.049  2.5948 -1.0855 -0.6129
 8779SOL     OW37795   2.220   4.701   5.626  0.0862 -0.4758  0.0100
 8779SOL    HW137796   2.232   4.626   5.684  2.7546  0.0460  0.1271
 8779SOL    HW237797   2.298   4.698   5.571 -0.3724 -1.4268 -0.5797
 8780SOL     OW37798   4.720   2.461  17.292 -0.0038  0.0407 -0.0199
 8780SOL    HW137799   4.722   2.520  17.217 -0.1650 -1.1818 -0.9916
 8780SOL    HW237800   4.634   2.419  17.289 -0.7682  1.6097  0.0663
 8781SOL     OW37801   2.227   1.653   5.688  0.0375  0.0603  0.2834
 8781SOL    HW137802   2.198   1.741   5.710  3.4265  0.7117  2.1669
 8781SOL    HW237803   2.151   1.598   5.708  0.5964 -0.1944  1.7166
 8782SOL     OW37804   4.581   3.342   3.191  0.7580  0.5505 -0.7510
 8782SOL    HW137805   4.607   3.252   3.211 -1.8699  0.0184  0.2588
 8782SOL    HW237806   4.493   3.332   3.156  0.9670 -1.7325 -0.6126
 8783SOL     OW37807   4.510   3.580   6.792  0.2307  0.1939 -0.6704
 8783SOL    HW137808   4.553   3.632   6.723  0.4664  1.7720  0.6428
 8783SOL    HW237809   4.585   3.540   6.836  0.4782  2.0423  0.5943
 8784SOL     OW37810   2.733   1.873   3.373  0.4252 -0.1450 -0.2985
 8784SOL    HW137811   2.726   1.786   3.334 -1.7467 -1.6439  3.4189
 8784SOL    HW237812   2.810   1.913   3.333 -0.8609  1.3898 -1.2806
 8785SOL     OW37813   0.281   0.625   6.356  0.7728  0.4939  0.0948
 8785SOL    HW137814   0.268   0.634   6.450  1.2990 -3.3797  0.5577
 8785SOL    HW237815   0.255   0.711   6.323 -2.8064  0.0801  1.8773
 8786SOL     OW37816   0.876   4.606   2.808  0.2335  0.0121 -0.1587
 8786SOL    HW137817   0.798   4.647   2.770  0.7311  0.7941 -0.3347
 8786SOL    HW237818   0.919   4.570   2.731  0.7672 -3.2402  1.6373
 8787SOL     OW37819   1.108   4.311   5.627  0.0750 -0.2715 -0.4743
 8787SOL    HW137820   1.192   4.313   5.581  0.4504 -0.2759  0.1978
 8787SOL    HW237821   1.057   4.367   5.569  1.1787 -0.7475 -1.8869
 8788SOL     OW37822   0.931   3.881   6.124  0.3311 -0.0434  0.1985
 8788SOL    HW137823   0.863   3.832   6.078  0.0555 -1.6674  2.3305
 8788SOL    HW237824   0.976   3.928   6.053 -1.6521 -3.3352 -3.2142
 8789SOL     OW37825   1.993   2.050   0.004  0.2185  0.2879 -0.4502
 8789SOL    HW137826   2.021   2.053  17.625 -1.2209  1.8177 -0.8369
 8789SOL    HW237827   1.990   2.143   0.024  1.8023  0.1198  0.5732
 8790SOL     OW37828   1.797   0.111   4.914  0.2723 -0.4297 -0.4807
 8790SOL    HW137829   1.814   0.155   4.831  2.4857  2.2848  1.4050
 8790SOL    HW237830   1.752   0.031   4.888 -1.7398 -0.1134  2.0961
 8791SOL     OW37831   4.590   0.516  16.902 -0.5533 -0.0465 -0.3354
 8791SOL    HW137832   4.531   0.441  16.893  0.3453 -0.7828 -0.1002
 8791SOL    HW237833   4.544   0.590  16.943  0.7862  0.6518 -0.1076
 8792SOL     OW37834   0.862   4.617   5.846  0.4526 -0.1778  0.3654
 8792SOL    HW137835   0.886   4.701   5.807 -2.0078  0.7361  0.8274
 8792SOL    HW237836   0.771   4.605   5.817  0.4214 -0.3725  0.5387
 8793SOL     OW37837   0.996   4.137  13.011 -0.2419 -0.3233 -0.0098
 8793SOL    HW137838   0.930   4.071  12.988  2.4497 -2.2204 -2.1575
 8793SOL    HW237839   1.068   4.080  12.986 -0.9027 -1.3152  0.3357
 8794SOL     OW37840   3.233   1.958   7.515 -0.4990 -0.1655  0.6431
 8794SOL    HW137841   3.314   1.943   7.466  0.3819 -0.0124  2.0531
 8794SOL    HW237842   3.259   1.925   7.601 -0.2036  1.8849  1.3367
 8795SOL     OW37843   1.375   2.569   2.491  0.6082 -0.4570 -0.3968
 8795SOL    HW137844   1.413   2.601   2.409 -0.1638  1.5348  0.0254
 8795SOL    HW237845   1.285   2.601   2.482  0.4832 -0.7036  0.0205
 8796SOL     OW37846   4.350   4.525  17.566  0.1565  0.3936 -0.2385
 8796SOL    HW137847   4.373   4.613  17.539  1.2626  1.0406  2.7991
 8796SOL    HW237848   4.318   4.549  17.653  0.3836  2.9560 -0.8854
 8797SOL     OW37849   4.363   1.278   8.325 -0.2175  0.1144  0.5479
 8797SOL    HW137850   4.286   1.247   8.279  0.3164 -0.0471 -0.2374
 8797SOL    HW237851   4.325   1.336   8.392 -0.4525  1.2574 -0.5798
 8798SOL     OW37852   1.482   2.065  11.708  0.7232 -0.5814  0.1857
 8798SOL    HW137853   1.529   2.123  11.648 -0.2040  1.6336  1.5623
 8798SOL    HW237854   1.394   2.094  11.733  0.5351 -0.5387 -0.5387
 8799SOL     OW37855   2.435   4.069   8.843 -0.2228  0.2394 -0.2334
 8799SOL    HW137856   2.419   4.071   8.937  0.7230  0.2326 -0.0744
 8799SOL    HW237857   2.347   4.096   8.818 -0.4166  0.2866  0.4976
 8800SOL     OW37858   3.159   1.919   4.179 -0.3845 -0.1765  0.0588
 8800SOL    HW137859   3.104   1.993   4.204  3.3064  2.9456 -1.1463
 8800SOL    HW237860   3.114   1.883   4.103 -0.1397  0.3427 -0.3328
 8801SOL     OW37861   2.662   4.496   4.876  0.0536  0.4005  0.3097
 8801SOL    HW137862   2.634   4.466   4.963  0.1216  2.0495  0.9028
 8801SOL    HW237863   2.583   4.502   4.824  1.4366  2.3500 -1.5536
 8802SOL     OW37864   2.315   4.429   4.120  0.0343 -0.0616 -0.2922
 8802SOL    HW137865   2.312   4.496   4.188 -0.9991  0.0908 -0.4803
 8802SOL    HW237866   2.224   4.399   4.115  0.1889 -0.4688 -0.6366
 8803SOL     OW37867   1.620   0.439   7.364 -0.0581  0.6661  0.5740
 8803SOL    HW137868   1.538   0.428   7.412  0.2533 -0.9353  0.7523
 8803SOL    HW237869   1.622   0.351   7.326 -2.5809 -0.1605  2.3013
 8804SOL     OW37870   2.422   0.231  11.438  0.1338 -0.3610 -0.0426
 8804SOL    HW137871   2.345   0.287  11.434  1.3038  1.3684  1.7598
 8804SOL    HW237872   2.494   0.291  11.420 -2.5295  3.1661  1.1869
 8805SOL     OW37873   3.510   0.816   7.017  0.7904 -0.1299 -0.0006
 8805SOL    HW137874   3.589   0.811   6.964  0.0132 -2.1584 -0.9596
 8805SOL    HW237875   3.469   0.731   6.999 -0.2109  0.8838 -2.6206
 8806SOL     OW37876   2.150   1.898  17.087 -0.1398 -0.2048  0.3711
 8806SOL    HW137877   2.067   1.864  17.121  0.0670 -0.6518  0.4293
 8806SOL    HW237878   2.149   1.870  16.995  0.3435 -0.3713  0.4208
 8807SOL     OW37879   2.885   2.563   7.851 -0.3918 -0.5870 -0.0492
 8807SOL    HW137880   2.890   2.655   7.877  0.0506 -0.9195  1.0355
 8807SOL    HW237881   2.908   2.525   7.936  0.6049 -1.8974 -0.9116
 8808SOL     OW37882   0.941   3.396   8.256 -0.3947 -0.2051  0.4941
 8808SOL    HW137883   0.902   3.469   8.303 -1.4794 -1.0882  0.9620
 8808SOL    HW237884   0.961   3.344   8.333  0.7021 -0.1409  0.2535
 8809SOL     OW37885   2.308   2.981   2.892  0.3808 -0.7152 -0.0383
 8809SOL    HW137886   2.317   2.988   2.987  1.6234  0.2810 -0.2316
 8809SOL    HW237887   2.355   2.905   2.860 -0.5334 -0.8681 -1.0387
 8810SOL     OW37888   2.673   3.882   3.030 -0.0137 -1.2329  0.1585
 8810SOL    HW137889   2.700   3.852   3.117 -0.1217 -0.8280  0.3342
 8810SOL    HW237890   2.694   3.975   3.044 -0.1883 -1.2773  0.7196
 8811SOL     OW37891   0.464   2.187   6.563  0.1678  1.1492 -0.3824
 8811SOL    HW137892   0.492   2.237   6.486 -0.1560  0.8257 -0.7112
 8811SOL    HW237893   0.369   2.192   6.555  0.3190 -0.0003 -2.8096
 8812SOL     OW37894   3.418   1.916  14.336  0.3884  0.2486  0.2086
 8812SOL    HW137895   3.393   1.996  14.383 -0.5178  0.3094 -0.3866
 8812SOL    HW237896   3.371   1.936  14.255 -0.7947  2.8482  1.5190
 8813SOL     OW37897   1.609   0.001  15.377 -0.5159 -0.0129 -0.1465
 8813SOL    HW137898   1.623   0.025  15.469 -3.7086  5.5586 -1.1381
 8813SOL    HW237899   1.622   4.634  15.382 -1.5075 -0.0902  0.9612
 8814SOL     OW37900   1.984   2.230  16.810 -0.0239 -0.2435  0.0777
 8814SOL    HW137901   1.920   2.299  16.790 -0.2786  0.2795  2.6866
 8814SOL    HW237902   2.007   2.259  16.898 -0.7092 -2.3980  0.9550
 8815SOL     OW37903   0.439   3.943   9.040  0.1957  0.2053  0.0866
 8815SOL    HW137904   0.436   3.901   8.954 -1.1291 -0.5476  0.5059
 8815SOL    HW237905   0.530   3.970   9.051  0.3566 -1.2776  2.2446
 8816SOL     OW37906   1.593   0.797   6.382  0.2025 -0.2041  0.1423
 8816SOL    HW137907   1.560   0.886   6.387 -0.5758 -0.4700 -0.1892
 8816SOL    HW237908   1.519   0.737   6.375 -0.0433  0.1926 -0.6875
 8817SOL     OW37909   3.091   3.474   5.219 -0.6874 -0.0922  0.2617
 8817SOL    HW137910   3.059   3.403   5.163  1.3625 -0.4272 -0.4792
 8817SOL    HW237911   3.153   3.420   5.267  0.8418  0.3255 -1.1974
 8818SOL     OW37912   1.475   0.995   3.651  0.4361 -0.4721  0.1945
 8818SOL    HW137913   1.505   0.959   3.735  0.2498 -1.3925 -0.1263
 8818SOL    HW237914   1.382   0.974   3.654 -0.2178  2.6515  1.8684
 8819SOL     OW37915   4.230   1.460   5.101  0.4968 -0.1405 -0.4209
 8819SOL    HW137916   4.163   1.396   5.123 -3.2280  3.4266 -1.3461
 8819SOL    HW237917   4.265   1.467   5.190  2.4784  1.0505 -1.2787
 8820SOL     OW37918   2.722   2.190   0.666 -0.0550 -0.3268  0.0555
 8820SOL    HW137919   2.799   2.133   0.665  1.2092  1.3673 -0.2792
 8820SOL    HW237920   2.765   2.275   0.654 -1.1357  0.0851 -0.9115
 8821SOL     OW37921   1.354   2.477  10.299 -0.2401 -0.3191  0.6260
 8821SOL    HW137922   1.284   2.454  10.360  0.0384  1.8618  1.7350
 8821SOL    HW237923   1.364   2.571  10.315 -0.8498 -0.6716  3.1075
 8822SOL     OW37924   0.343   3.123   4.830  0.1418  0.3682 -0.2580
 8822SOL    HW137925   0.259   3.098   4.793  0.9506 -0.6206 -1.4086
 8822SOL    HW237926   0.401   3.054   4.799 -0.3269  0.5604 -1.5354
 8823SOL     OW37927   0.086   1.781  16.512 -0.6302  0.4890 -0.4788
 8823SOL    HW137928   0.114   1.814  16.597  2.9438  0.0941 -1.4982
 8823SOL    HW237929   4.719   1.770  16.520 -0.6634  1.3819  0.4008
 8824SOL     OW37930   0.804   1.110  12.438 -0.1910  0.1465 -0.0525
 8824SOL    HW137931   0.759   1.075  12.515 -1.3799  1.5371 -0.1263
 8824SOL    HW237932   0.896   1.111  12.465 -0.7416 -1.5196  1.9281
 8825SOL     OW37933   2.727   2.099   7.407 -0.5165 -0.1189 -0.3173
 8825SOL    HW137934   2.745   2.192   7.398 -0.4731 -0.2506 -1.7305
 8825SOL    HW237935   2.709   2.092   7.500 -0.2623 -1.1492 -0.3393
 8826SOL     OW37936   1.271   0.030   4.085 -0.5667  0.2628 -0.1713
 8826SOL    HW137937   1.280   0.119   4.052  1.8070 -0.2254 -0.8072
 8826SOL    HW237938   1.310   4.705   4.016 -0.4276 -1.1173  0.9583
 8827SOL     OW37939   1.741   1.530   7.775 -0.1071 -0.4701  0.3100
 8827SOL    HW137940   1.655   1.488   7.775 -0.1023 -0.4609  2.8723
 8827SOL    HW237941   1.754   1.554   7.684 -2.9533  0.1535  0.0814
 8828SOL     OW37942   4.376   3.512   5.353  0.2679  0.0065 -0.3595
 8828SOL    HW137943   4.376   3.433   5.406  0.9852 -1.5188 -2.6293
 8828SOL    HW237944   4.422   3.478   5.276  0.3873 -0.8124  0.0721
 8829SOL     OW37945   3.279   1.163   6.275  0.2325 -0.4114 -0.2960
 8829SOL    HW137946   3.290   1.159   6.370 -2.2219 -0.7524 -0.0321
 8829SOL    HW237947   3.191   1.197   6.261  1.0500  0.5583 -3.0130
 8830SOL     OW37948   1.615   0.057   7.425  0.4793  0.4430  0.2112
 8830SOL    HW137949   1.651   0.069   7.337 -1.8831 -3.1926 -1.2284
 8830SOL    HW237950   1.680   0.104   7.478  0.2463  0.1921  0.7204
 8831SOL     OW37951   3.963   0.155  14.180 -0.5254  0.2138  0.3775
 8831SOL    HW137952   3.934   0.148  14.090  0.3173 -0.0423  0.1247
 8831SOL    HW237953   4.004   0.072  14.203 -0.1355  0.3608  0.2202
 8832SOL     OW37954   1.230   0.588   0.732  0.2678 -0.2649 -0.6119
 8832SOL    HW137955   1.213   0.496   0.754 -0.5580  0.1608  0.4946
 8832SOL    HW237956   1.180   0.607   0.653 -4.2957 -1.8703  1.9216
 8833SOL     OW37957   0.577   1.774  10.879 -0.6014 -0.1417 -0.4026
 8833SOL    HW137958   0.545   1.863  10.866  2.4012  0.9327 -0.5478
 8833SOL    HW237959   0.522   1.727  10.816 -1.2163 -1.2636  0.9628
 8834SOL     OW37960   3.583   0.240   8.011  0.2302 -0.2921 -0.1732
 8834SOL    HW137961   3.602   0.186   7.934 -0.3378  0.1919 -0.6546
 8834SOL    HW237962   3.494   0.274   8.000 -0.6930 -2.2919  1.1343
 8835SOL     OW37963   3.933   3.346   6.213  0.3639 -0.1805  0.3221
 8835SOL    HW137964   3.840   3.323   6.212  0.1609  0.5447  2.2326
 8835SOL    HW237965   3.969   3.265   6.176 -3.0345 -1.5433  0.0246
 8836SOL     OW37966   0.428   1.819  16.952 -0.5013 -0.5394  0.0398
 8836SOL    HW137967   0.461   1.908  16.966 -0.3742 -0.5481 -0.1880
 8836SOL    HW237968   0.494   1.768  16.999 -0.4741  0.9328  1.5779
 8837SOL     OW37969   3.353   1.767   5.258 -0.0848 -0.2543 -0.3723
 8837SOL    HW137970   3.410   1.756   5.182 -0.2683 -0.1654 -0.5231
 8837SOL    HW237971   3.376   1.856   5.284 -3.3723  0.8221 -1.1309
 8838SOL     OW37972   0.669   2.584   8.901 -0.5121 -0.0394 -0.1350
 8838SOL    HW137973   0.763   2.564   8.906 -0.6739 -1.9916 -4.4186
 8838SOL    HW237974   0.649   2.543   8.817 -0.3539  0.5248 -0.4452
 8839SOL     OW37975   2.502   4.675  11.763 -0.3346  0.7598 -0.4367
 8839SOL    HW137976   2.423   4.636  11.800 -0.6463  0.3980 -1.4797
 8839SOL    HW237977   2.479   0.038  11.745  0.2190  1.0538  0.3710
 8840SOL     OW37978   2.327   2.908   6.403 -0.2695 -0.5546  0.3973
 8840SOL    HW137979   2.249   2.935   6.451  0.5207 -2.9704  3.0545
 8840SOL    HW237980   2.389   2.914   6.477 -0.0904  0.1472  0.1921
 8841SOL     OW37981   2.182   0.835   7.229  0.5742  0.1854  0.2379
 8841SOL    HW137982   2.258   0.891   7.213 -0.2035  0.7398 -1.5901
 8841SOL    HW237983   2.145   0.845   7.141 -1.6079  0.4493  1.1889
 8842SOL     OW37984   2.353   1.014   5.278  0.0805 -0.2537  0.3577
 8842SOL    HW137985   2.267   1.055   5.269 -0.2637 -1.7453 -2.9959
 8842SOL    HW237986   2.335   0.940   5.337 -1.4204 -0.6936 -0.6628
 8843SOL     OW37987   1.056   0.532   7.771  0.6660  0.2195  0.0876
 8843SOL    HW137988   1.054   0.437   7.761  0.3560  0.1183  1.0430
 8843SOL    HW237989   1.107   0.537   7.852  1.5821 -2.6169 -0.2955
 8844SOL     OW37990   2.875   3.795   5.898 -0.2733 -0.7769  0.2073
 8844SOL    HW137991   2.783   3.808   5.920 -0.5586  0.9546 -1.9893
 8844SOL    HW237992   2.904   3.729   5.961  1.6296  1.6381  1.8787
 8845SOL     OW37993   4.224   4.680  16.603  0.4829  0.5104  0.4884
 8845SOL    HW137994   4.266   0.026  16.647  1.6989  0.4086 -0.5128
 8845SOL    HW237995   4.234   4.623  16.679 -0.4767 -1.2668 -0.7006
 8846SOL     OW37996   2.514   2.884   4.079  0.4932  0.2439  0.1759
 8846SOL    HW137997   2.518   2.926   4.165  0.7532  2.7192 -1.0532
 8846SOL    HW237998   2.603   2.878   4.046  0.3451 -0.5885 -0.0864
 8847SOL     OW37999   3.342   1.918  16.922  0.4608 -0.0104 -0.1283
 8847SOL    HW138000   3.317   1.888  16.835  0.2907 -0.4289  0.0633
 8847SOL    HW238001   3.277   1.876  16.979  0.3511  0.7175  0.2751
 8848SOL     OW38002   1.744   4.244   6.755 -0.4120 -0.3712  0.7637
 8848SOL    HW138003   1.754   4.253   6.849 -0.4837  2.5820  0.4860
 8848SOL    HW238004   1.788   4.159   6.744  0.0901  0.0795 -0.8450
 8849SOL     OW38005   1.006   1.241   6.968  0.4964 -0.7823  0.3229
 8849SOL    HW138006   0.962   1.253   7.053  0.4866  2.9846 -0.1982
 8849SOL    HW238007   0.978   1.324   6.928  1.9909 -1.2170 -1.5915
 8850SOL     OW38008   2.197   1.828   2.650  0.0849 -0.0483 -0.4296
 8850SOL    HW138009   2.123   1.769   2.666  1.1120 -1.3538 -0.4668
 8850SOL    HW238010   2.186   1.853   2.558 -0.6286 -0.0400 -0.3456
 8851SOL     OW38011   0.870   3.291   9.338 -0.6281  0.3893  0.4050
 8851SOL    HW138012   0.863   3.357   9.268  2.8254  0.2345 -0.0721
 8851SOL    HW238013   0.907   3.221   9.285 -2.9713 -1.2359  0.8810
 8852SOL     OW38014   2.924   2.312  11.249  0.0103  0.1560  0.0113
 8852SOL    HW138015   3.011   2.349  11.236  0.3569 -0.9153 -0.7562
 8852SOL    HW238016   2.919   2.281  11.340 -0.6720 -0.2682 -0.1685
 8853SOL     OW38017   0.116   1.240   2.401  0.6671  0.4646 -0.6445
 8853SOL    HW138018   0.088   1.329   2.383 -0.0163  0.4107  0.1698
 8853SOL    HW238019   0.036   1.201   2.434  0.1624  0.5308 -1.7845
 8854SOL     OW38020   2.575   3.862  12.477  0.0681 -0.0385 -0.8000
 8854SOL    HW138021   2.551   3.806  12.551 -1.1765 -0.4126 -1.4828
 8854SOL    HW238022   2.646   3.912  12.518  0.5626 -1.9585  0.6817
 8855SOL     OW38023   3.801   0.458   7.424  0.1179 -0.3973 -0.0335
 8855SOL    HW138024   3.715   0.475   7.387 -0.0699 -0.7584  0.2274
 8855SOL    HW238025   3.821   0.366   7.404  1.1266 -0.3068  0.5230
 8856SOL     OW38026   4.045   3.290  16.644 -0.5486  0.3543 -1.1583
 8856SOL    HW138027   4.141   3.289  16.648 -0.6146  0.0669  0.6462
 8856SOL    HW238028   4.036   3.385  16.644  0.2978  0.4465  0.9128
 8857SOL     OW38029   2.484   4.087   9.466  0.2885  0.0792  0.1319
 8857SOL    HW138030   2.541   4.083   9.389 -0.1690 -1.5084 -0.1355
 8857SOL    HW238031   2.534   4.052   9.540 -0.9699 -3.0842 -0.5166
 8858SOL     OW38032   0.077   4.189  12.953  0.0191 -0.3965 -0.0873
 8858SOL    HW138033   0.147   4.254  12.950  1.4725 -1.9455  0.0049
 8858SOL    HW238034   0.126   4.109  12.970 -1.1660 -0.5476  2.6183
 8859SOL     OW38035   2.681   1.257   6.823  0.4192  0.7886 -0.0138
 8859SOL    HW138036   2.730   1.338   6.811  0.8380  0.8107  1.8688
 8859SOL    HW238037   2.685   1.215   6.737  1.9146 -1.1818  1.0326
 8860SOL     OW38038   1.402   3.109   2.041  0.2771  0.3522  0.0762
 8860SOL    HW138039   1.358   3.029   2.067  2.2331 -0.6838  0.2008
 8860SOL    HW238040   1.496   3.091   2.047  0.6952  1.8860 -1.7600
 8861SOL     OW38041   1.958   4.507   5.776 -0.0304 -0.8755 -0.3969
 8861SOL    HW138042   2.015   4.474   5.844 -0.0428  0.4516  0.2581
 8861SOL    HW238043   1.963   4.444   5.704  3.3358  1.3530 -2.1134
 8862SOL     OW38044   1.090   1.193   8.825 -0.5281  0.1160 -0.3088
 8862SOL    HW138045   1.116   1.234   8.742  1.1269  1.7520  1.0049
 8862SOL    HW238046   1.129   1.108   8.805  1.2356  0.3044  2.3087
 8863SOL     OW38047   3.035   4.050   4.696 -0.0707 -0.0683 -0.0228
 8863SOL    HW138048   3.059   3.974   4.643 -3.5410 -0.4402 -1.0473
 8863SOL    HW238049   3.123   4.089   4.695  0.4147 -1.1952 -2.6293
 8864SOL     OW38050   0.025   2.242   1.829 -0.0330 -0.0560 -0.7901
 8864SOL    HW138051   4.700   2.192   1.767 -0.7017 -0.5567  0.1734
 8864SOL    HW238052   4.698   2.316   1.858  0.9200  0.6868 -0.8701
 8865SOL     OW38053   0.191   1.839  16.759  0.0773  0.0042 -0.6543
 8865SOL    HW138054   0.128   1.902  16.795 -0.2409 -0.1011 -1.0426
 8865SOL    HW238055   0.244   1.831  16.839  1.0397 -1.8672 -1.4860
 8866SOL     OW38056   3.481   1.007   0.149 -0.0100  0.4409  0.1150
 8866SOL    HW138057   3.483   1.087   0.097  0.2230  0.3557 -0.0063
 8866SOL    HW238058   3.392   1.010   0.185 -0.1658 -1.0104 -0.1289
 8867SOL     OW38059   1.249   0.747  15.233  0.2373  0.0297 -0.9964
 8867SOL    HW138060   1.218   0.812  15.296  3.0623  0.5242 -0.1246
 8867SOL    HW238061   1.299   0.694  15.295  0.5096 -1.0388 -2.1279
 8868SOL     OW38062   0.462   0.741   8.730  0.0315  0.4950 -0.1819
 8868SOL    HW138063   0.511   0.757   8.811  0.7122 -0.8662 -0.3249
 8868SOL    HW238064   0.389   0.802   8.742  0.7126  1.1909  0.4593
 8869SOL     OW38065   3.759   4.713  15.908  0.1002 -0.0988 -0.7300
 8869SOL    HW138066   3.754   4.617  15.906  1.2790 -0.2019  1.1842
 8869SOL    HW238067   3.846   4.723  15.946  0.5469 -2.1783 -1.1827
 8870SOL     OW38068   1.212   3.565   6.579  0.1754 -0.3015  0.0201
 8870SOL    HW138069   1.208   3.582   6.485  2.7447 -0.3256 -0.0913
 8870SOL    HW238070   1.153   3.626   6.624 -0.5036 -0.5425 -0.5452
 8871SOL     OW38071   3.772   3.000   1.166 -0.0386  0.6013 -0.1427
 8871SOL    HW138072   3.863   2.983   1.190  0.0645  1.2040 -0.0938
 8871SOL    HW238073   3.772   2.976   1.073 -1.2975 -0.7726  0.2115
 8872SOL     OW38074   2.142   2.300   6.391  0.3607  0.1929  0.1097
 8872SOL    HW138075   2.082   2.263   6.327 -0.5996  0.0367  1.1047
 8872SOL    HW238076   2.197   2.365   6.347 -2.1819  1.6902 -0.8174
 8873SOL     OW38077   4.453   4.378   2.167 -0.2328  0.5188 -0.4781
 8873SOL    HW138078   4.394   4.454   2.172 -1.0451 -0.3905  3.9607
 8873SOL    HW238079   4.425   4.335   2.087  2.1934  0.3672 -1.2436
 8874SOL     OW38080   4.678   0.052   4.059 -0.0688 -0.0993 -0.3416
 8874SOL    HW138081   0.018   0.113   4.087 -0.3728 -1.0255  2.4165
 8874SOL    HW238082   4.628   0.043   4.140  1.1947  0.8275  0.5349
 8875SOL     OW38083   3.757   4.394   3.340 -0.0739  0.3684 -0.3209
 8875SOL    HW138084   3.737   4.487   3.337 -0.0576  0.4426  2.1211
 8875SOL    HW238085   3.668   4.359   3.338  0.6599 -1.6339  2.4699
 8876SOL     OW38086   2.005   4.475  13.850  0.1572  0.0945 -0.5316
 8876SOL    HW138087   1.993   4.479  13.945 -0.1796 -1.5184 -0.4896
 8876SOL    HW238088   2.099   4.460  13.844  0.1612 -0.0504 -0.1018
 8877SOL     OW38089   3.681   3.321  16.991  0.1002  0.3570 -0.1449
 8877SOL    HW138090   3.604   3.368  17.023  0.3618 -0.5196  1.7485
 8877SOL    HW238091   3.653   3.243  17.039  1.6612  0.3733  0.7680
 8878SOL     OW38092   3.088   3.215   1.854 -0.2704 -0.4437 -0.0720
 8878SOL    HW138093   3.181   3.208   1.832  0.0876 -1.2317  1.6096
 8878SOL    HW238094   3.055   3.182   1.771 -1.4046  1.3028 -0.3060
 8879SOL     OW38095   1.183   0.235   3.062  0.8915  0.2211 -0.1020
 8879SOL    HW138096   1.255   0.178   3.035  0.6878  0.5630 -1.3689
 8879SOL    HW238097   1.115   0.212   2.998 -0.7182  0.9392  1.3408
 8880SOL     OW38098   4.043   3.534   4.866 -0.4431  0.2504  0.4824
 8880SOL    HW138099   4.064   3.474   4.795  1.4774  0.9248  0.4680
 8880SOL    HW238100   4.102   3.502   4.934  0.9636  3.5170  0.8270
 8881SOL     OW38101   2.460   2.412   5.081  0.0579 -0.8623 -0.0009
 8881SOL    HW138102   2.368   2.424   5.104  0.2184  0.1574  0.1161
 8881SOL    HW238103   2.455   2.432   4.988 -1.8523 -0.1766  0.2369
 8882SOL     OW38104   1.031   2.889   8.613 -0.3878 -0.1493  0.4179
 8882SOL    HW138105   1.075   2.967   8.648  0.1076  0.3715 -1.3453
 8882SOL    HW238106   0.987   2.843   8.684  1.0651 -1.4042  0.5104
 8883SOL     OW38107   0.844   3.292   4.438 -0.6332  0.2879  0.1890
 8883SOL    HW138108   0.811   3.227   4.376 -1.1211 -1.3718  2.1637
 8883SOL    HW238109   0.773   3.356   4.432 -0.7964 -0.0512 -1.5245
 8884SOL     OW38110   2.072   2.594   4.504  0.1497  0.2350  0.3666
 8884SOL    HW138111   2.037   2.653   4.437 -0.1098  0.0955  0.3798
 8884SOL    HW238112   2.044   2.509   4.469  0.8769 -0.5849  1.8051
 8885SOL     OW38113   0.306   4.521   9.772 -0.3050 -0.0584  0.0559
 8885SOL    HW138114   0.350   4.549   9.852  2.1790  0.9659 -1.6606
 8885SOL    HW238115   0.381   4.521   9.712 -0.9533 -0.9042 -0.7524
 8886SOL     OW38116   0.632   3.000   5.670 -0.1062 -0.2123  0.7582
 8886SOL    HW138117   0.607   2.965   5.756 -0.9106 -2.6902 -0.4832
 8886SOL    HW238118   0.636   3.094   5.689  2.7731 -0.2347  0.2196
 8887SOL     OW38119   0.473   2.443  13.071 -0.4791  0.0116  0.3084
 8887SOL    HW138120   0.557   2.400  13.083 -1.6018 -2.0828  0.7330
 8887SOL    HW238121   0.425   2.376  13.121 -0.3911 -0.6815 -0.5245
 8888SOL     OW38122   0.645   0.027   2.446  0.2092 -0.0258 -0.3944
 8888SOL    HW138123   0.622   4.671   2.407 -0.0100  0.1511 -0.6429
 8888SOL    HW238124   0.559   0.053   2.478 -0.9342 -4.5056  0.1719
 8889SOL     OW38125   2.163   4.471   5.052 -0.2025 -0.7765  0.3271
 8889SOL    HW138126   2.099   4.539   5.075  0.0041  0.0298 -1.4145
 8889SOL    HW238127   2.123   4.447   4.968 -2.5209 -1.6230  1.6759
 8890SOL     OW38128   0.050   4.547   9.692 -0.2523 -0.6577 -0.6091
 8890SOL    HW138129   0.012   4.591   9.769 -1.4414 -0.0077 -1.5722
 8890SOL    HW238130   0.134   4.514   9.724 -0.2520 -0.5497 -0.4952
 8891SOL     OW38131   0.680   4.374   5.796 -0.1427 -0.2955  0.6338
 8891SOL    HW138132   0.675   4.330   5.711  0.6384  0.1635  0.3559
 8891SOL    HW238133   0.682   4.461   5.757 -0.8830 -0.0263  1.1854
 8892SOL     OW38134   3.431   2.903   8.119  0.5960  0.0394  0.3319
 8892SOL    HW138135   3.509   2.921   8.067  1.4179  1.5857  2.0987
 8892SOL    HW238136   3.394   2.989   8.139 -0.5815 -0.4029  0.0917
 8893SOL     OW38137   4.674   4.363   3.221 -0.0444 -0.0425  0.2508
 8893SOL    HW138138   4.608   4.419   3.180  0.0738 -0.4979 -0.5552
 8893SOL    HW238139   0.027   4.411   3.201  0.4035  0.5974  3.4924
 8894SOL     OW38140   0.836   0.816   8.740 -0.2385 -0.4336  0.1581
 8894SOL    HW138141   0.870   0.888   8.793 -1.0218 -0.2194  0.3608
 8894SOL    HW238142   0.812   0.749   8.803 -0.4201 -1.8118 -1.3666
 8895SOL     OW38143   1.443   0.383   4.453 -0.2343 -0.0728 -0.4628
 8895SOL    HW138144   1.375   0.325   4.419 -0.1873  1.1635 -2.6807
 8895SOL    HW238145   1.508   0.316   4.473  1.7445  1.5588 -1.4287
 8896SOL     OW38146   0.712   4.567  12.980 -0.8166 -0.1831 -0.8279
 8896SOL    HW138147   0.785   4.553  13.041 -0.6863  2.1207 -0.4578
 8896SOL    HW238148   0.666   4.483  12.980 -3.4020  1.2319  1.3299
 8897SOL     OW38149   3.944   4.128  15.708 -0.0148 -0.4083 -0.0722
 8897SOL    HW138150   3.929   4.208  15.758 -0.2750 -1.1540  1.0272
 8897SOL    HW238151   3.937   4.152  15.615 -0.2418 -0.1447  0.0115
 8898SOL     OW38152   0.776   3.825   5.877 -0.1293  0.2080 -0.1648
 8898SOL    HW138153   0.789   3.782   5.792 -2.6704  1.2929 -1.0873
 8898SOL    HW238154   0.732   3.906   5.851 -2.2750 -1.2572 -1.0180
 8899SOL     OW38155   1.935   3.015   2.240 -0.4315  0.3717 -0.3392
 8899SOL    HW138156   2.010   2.957   2.255  1.1268  2.0444 -1.7151
 8899SOL    HW238157   1.915   3.055   2.325 -3.7121  0.9659 -1.3921
 8900SOL     OW38158   0.392   1.070   9.809  0.0980 -0.5738 -0.7619
 8900SOL    HW138159   0.325   1.129   9.775 -0.4034 -0.6564  0.0892
 8900SOL    HW238160   0.455   1.137   9.838 -0.1296 -0.3804 -0.7131
 8901SOL     OW38161   1.768   2.136   3.508  0.6759  0.4864 -0.1034
 8901SOL    HW138162   1.678   2.104   3.499  0.5350  1.5750 -2.4452
 8901SOL    HW238163   1.785   2.144   3.602  3.3923  1.6720 -0.6774
 8902SOL     OW38164   3.003   0.933  16.391  0.6326  0.0867  0.2052
 8902SOL    HW138165   2.920   0.901  16.424 -0.6548  0.3851 -2.7742
 8902SOL    HW238166   2.984   1.000  16.326 -0.5939  0.6633  1.1763
 8903SOL     OW38167   1.798   1.875   0.825 -0.3713  0.2666  0.1738
 8903SOL    HW138168   1.827   1.906   0.739 -2.2509 -0.1119 -0.5846
 8903SOL    HW238169   1.880   1.893   0.870 -0.6317  1.6265  0.0999
 8904SOL     OW38170   1.608   0.408   4.842 -0.9391  0.4672 -0.5605
 8904SOL    HW138171   1.601   0.441   4.932 -2.4357 -0.8123 -0.2235
 8904SOL    HW238172   1.685   0.459   4.817  0.3898 -1.9264 -1.3400
 8905SOL     OW38173   2.714   0.897   2.635 -0.7594 -0.3000  0.3376
 8905SOL    HW138174   2.794   0.864   2.594  0.4545 -1.1117  3.3879
 8905SOL    HW238175   2.661   0.820   2.652  0.2404 -1.0206  0.2199
 8906SOL     OW38176   2.570   2.064   6.444 -0.1311 -0.7429 -0.5024
 8906SOL    HW138177   2.642   2.125   6.430 -0.8644 -0.0842 -1.3878
 8906SOL    HW238178   2.592   2.015   6.524 -0.7408 -1.9105 -1.0404
 8907SOL     OW38179   0.097   2.486   6.805  0.1226 -1.0329  0.1845
 8907SOL    HW138180   0.173   2.447   6.762  0.7229 -0.2454  0.5291
 8907SOL    HW238181   0.119   2.483   6.898  1.4779  1.9661 -0.0452
 8908SOL     OW38182   3.445   1.920   1.718  0.3295 -0.2883 -0.0682
 8908SOL    HW138183   3.470   1.935   1.627 -0.1104  1.1663  0.0459
 8908SOL    HW238184   3.358   1.881   1.708  0.7104 -0.0576 -4.4219
 8909SOL     OW38185   0.120   3.060   2.318  0.1776  0.0552 -0.2746
 8909SOL    HW138186   0.160   3.102   2.395 -0.8801  2.7474 -1.1972
 8909SOL    HW238187   0.097   3.140   2.270 -0.9879  0.8552  1.5589
 8910SOL     OW38188   4.456   4.497   8.293  0.1345  0.0142  0.0710
 8910SOL    HW138189   4.459   4.571   8.232 -3.1041 -0.3918 -0.5721
 8910SOL    HW238190   4.550   4.481   8.296  0.4824  1.5927 -2.7457
 8911SOL     OW38191   2.785   0.149   7.692  0.0584  0.0272 -0.0145
 8911SOL    HW138192   2.755   0.233   7.727  3.0083  0.4879  1.4447
 8911SOL    HW238193   2.784   0.097   7.773 -0.4196  2.3171  1.4571
 8912SOL     OW38194   0.083   0.539  11.987  0.0509 -0.1044  0.3819
 8912SOL    HW138195   0.050   0.460  12.030 -0.0820  0.6472  1.6457
 8912SOL    HW238196   0.174   0.509  11.989  0.1114 -0.1401 -3.4037
 8913SOL     OW38197   2.934   0.156   4.366 -0.6291 -0.4718 -0.0207
 8913SOL    HW138198   2.956   0.247   4.384  0.0735 -0.8229  0.8490
 8913SOL    HW238199   2.881   0.120   4.437 -0.4684  1.8600  1.2526
 8914SOL     OW38200   0.002   0.109  10.778  0.2878 -0.5285  0.9107
 8914SOL    HW138201   0.011   0.014  10.777 -0.7710 -0.6017 -0.5690
 8914SOL    HW238202   4.688   0.106  10.864 -0.6681 -0.8746  0.4362
 8915SOL     OW38203   2.241   1.059   4.091 -0.4633 -0.0855 -0.3686
 8915SOL    HW138204   2.192   1.140   4.076 -0.6631  0.2616  2.1206
 8915SOL    HW238205   2.236   1.053   4.187 -0.0949 -1.8458 -0.4614
 8916SOL     OW38206   3.354   0.376  11.351  0.4579  0.1772  0.4526
 8916SOL    HW138207   3.322   0.299  11.398  0.4307 -0.3003 -0.3513
 8916SOL    HW238208   3.275   0.417  11.315  0.9921  0.3442 -0.5542
 8917SOL     OW38209   3.916   1.942  14.864 -0.1872  0.6051  0.4060
 8917SOL    HW138210   3.909   2.000  14.940 -1.4357  0.9094  0.0747
 8917SOL    HW238211   3.900   2.006  14.794 -1.2207  1.4532  1.4055
 8918SOL     OW38212   2.388   2.371   4.226  0.7488  0.5634  0.4635
 8918SOL    HW138213   2.343   2.423   4.159 -1.0563  0.8406  1.9093
 8918SOL    HW238214   2.470   2.375   4.177  0.0035 -2.1417 -1.0061
 8919SOL     OW38215   2.068   4.142   2.374  0.4792  0.3744 -0.2323
 8919SOL    HW138216   2.163   4.144   2.369  0.4960 -0.7380 -0.4120
 8919SOL    HW238217   2.048   4.235   2.382  2.1338  0.4647  2.6073
 8920SOL     OW38218   1.250   0.631   4.902 -0.2641  0.5144 -0.1844
 8920SOL    HW138219   1.310   0.641   4.975  1.4413  1.0833 -1.6748
 8920SOL    HW238220   1.308   0.594   4.835 -0.1806  0.7700 -0.2542
 8921SOL     OW38221   0.258   0.060   8.592  0.0948 -0.0164  0.0688
 8921SOL    HW138222   0.223   0.113   8.520 -0.0763 -1.2499 -0.7630
 8921SOL    HW238223   0.341   0.036   8.550  0.5847  1.5119  0.1641
 8922SOL     OW38224   4.665   3.340   2.546  1.0262 -0.6656 -0.3264
 8922SOL    HW138225   0.025   3.361   2.512  1.3771  1.3492  1.8285
 8922SOL    HW238226   4.631   3.293   2.470  1.0753  0.7140 -1.1900
 8923SOL     OW38227   4.126   0.612   4.598 -0.6380  0.3308 -0.9578
 8923SOL    HW138228   4.120   0.581   4.688 -2.4872 -0.7128 -1.4387
 8923SOL    HW238229   4.061   0.567   4.544 -0.3331 -1.7801  0.4294
 8924SOL     OW38230   3.707   2.611   3.384  0.6793  0.4911  0.2332
 8924SOL    HW138231   3.776   2.664   3.345  0.2627  1.0136  0.2012
 8924SOL    HW238232   3.733   2.523   3.354 -2.4182 -0.4964  0.4237
 8925SOL     OW38233   3.861   2.638   5.855  0.0851 -0.4191  0.4580
 8925SOL    HW138234   3.933   2.654   5.794  0.5427 -0.0571  1.0912
 8925SOL    HW238235   3.789   2.698   5.834 -0.2169 -0.9501 -0.0272
 8926SOL     OW38236   0.143   3.740  12.904  0.9302 -0.0214  0.1006
 8926SOL    HW138237   0.144   3.644  12.903  1.0721 -0.0063 -1.0475
 8926SOL    HW238238   0.113   3.756  12.814  2.0908  0.2632 -0.2395
 8927SOL     OW38239   2.140   0.270   7.724  0.6197 -0.0598  0.3019
 8927SOL    HW138240   2.139   0.257   7.630  1.4300 -1.0687  0.4342
 8927SOL    HW238241   2.223   0.314   7.741  2.1549 -2.0602 -2.1216
 8928SOL     OW38242   3.657   2.940   0.881  0.2688  0.5350 -0.3975
 8928SOL    HW138243   3.595   2.968   0.814  1.0269 -2.1652 -2.1863
 8928SOL    HW238244   3.721   2.889   0.832  0.0896 -0.7255  0.6945
 8929SOL     OW38245   0.694   3.735   4.434  0.2306 -0.2412 -0.6306
 8929SOL    HW138246   0.767   3.758   4.377 -0.7267 -0.4874 -1.9573
 8929SOL    HW238247   0.734   3.742   4.520 -0.6164  2.0673 -0.4238
 8930SOL     OW38248   1.325   1.721   3.909 -0.0568 -0.1713  0.5181
 8930SOL    HW138249   1.386   1.781   3.866 -1.3453  1.2283  0.6558
 8930SOL    HW238250   1.254   1.696   3.850 -0.5031  0.2133  0.8985
 8931SOL     OW38251   1.747   0.699   0.513 -0.3386 -0.0477  0.1506
 8931SOL    HW138252   1.680   0.634   0.536  0.5378 -0.9041  0.3157
 8931SOL    HW238253   1.812   0.670   0.578 -1.4596  0.1680  1.3691
 8932SOL     OW38254   0.549   2.502   2.557 -0.2642  0.1153 -0.2559
 8932SOL    HW138255   0.485   2.431   2.561 -0.9965  0.7549 -0.6257
 8932SOL    HW238256   0.491   2.574   2.583 -2.2211 -1.8229  0.7162
 8933SOL     OW38257   4.617   0.882   8.152 -0.0035  0.3666  0.4538
 8933SOL    HW138258   4.569   0.841   8.224  1.4720  0.5788  1.5571
 8933SOL    HW238259   4.674   0.809   8.128 -2.2341 -1.3587  0.3869
 8934SOL     OW38260   3.679   3.367   6.757  0.1248 -0.0588 -0.0946
 8934SOL    HW138261   3.685   3.335   6.666 -0.1624 -3.1673  0.9762
 8934SOL    HW238262   3.598   3.320   6.774  1.3935 -1.6981  1.4130
 8935SOL     OW38263   0.869   3.111   7.070  0.2664  0.5008 -0.3770
 8935SOL    HW138264   0.949   3.148   7.032 -0.4236  0.4448 -1.8875
 8935SOL    HW238265   0.810   3.186   7.063 -0.6689  0.0271  2.4820
 8936SOL     OW38266   0.636   4.550  16.469 -0.5686  0.3587 -0.4150
 8936SOL    HW138267   0.731   4.553  16.468 -0.7081  4.3508  0.2882
 8936SOL    HW238268   0.616   4.490  16.541  1.6630  0.7405  0.4964
 8937SOL     OW38269   3.010   4.454   7.273  0.1362 -0.1693 -0.2904
 8937SOL    HW138270   3.045   4.542   7.287 -0.4042 -0.1284  0.8533
 8937SOL    HW238271   3.061   4.397   7.331  2.2525  2.7610  0.7109
 8938SOL     OW38272   0.743   2.951   7.835 -0.2301  0.6340 -0.5174
 8938SOL    HW138273   0.736   3.039   7.872  1.4236 -0.7400  3.0186
 8938SOL    HW238274   0.789   2.967   7.752  2.0476  0.4370  0.7041
 8939SOL     OW38275   3.147   4.390  17.554 -0.0312 -0.1954  0.0929
 8939SOL    HW138276   3.201   4.400  17.475 -0.1044 -2.2031 -0.1948
 8939SOL    HW238277   3.180   4.455  17.616  0.9122 -0.9865  0.4275
 8940SOL     OW38278   2.747   3.589   8.298 -0.4926  0.0392  0.1703
 8940SOL    HW138279   2.793   3.600   8.381  2.0684 -1.4559 -1.0634
 8940SOL    HW238280   2.720   3.680   8.283  0.9863  1.0315  3.5254
 8941SOL     OW38281   0.393   2.509   2.281  0.5465 -0.8650  0.1134
 8941SOL    HW138282   0.337   2.586   2.288 -0.0985 -1.4238  1.1088
 8941SOL    HW238283   0.477   2.549   2.256  0.1717  0.5542  1.1199
 8942SOL     OW38284   2.550   0.051   4.011  0.0854  0.5663  0.3820
 8942SOL    HW138285   2.613   0.082   3.946  1.2570  0.9450  1.6974
 8942SOL    HW238286   2.559   4.683   4.007  1.4251  0.8208 -2.5821
 8943SOL     OW38287   1.177   2.726   3.334 -0.1113 -0.3393 -0.0935
 8943SOL    HW138288   1.257   2.779   3.335  1.3516 -2.5511 -0.0475
 8943SOL    HW238289   1.120   2.801   3.319 -1.5982 -1.0118  2.1605
 8944SOL     OW38290   1.466   4.192   6.707 -0.1480  0.2444  0.3464
 8944SOL    HW138291   1.553   4.223   6.734 -0.4832  0.2010  1.4381
 8944SOL    HW238292   1.501   4.152   6.628 -0.8168 -1.5174  0.9595
 8945SOL     OW38293   3.847   1.096   2.426  0.2915  0.4976 -0.1248
 8945SOL    HW138294   3.827   1.155   2.353 -0.1187 -0.5251 -0.8350
 8945SOL    HW238295   3.942   1.100   2.435  0.5203 -1.6952 -1.6850
 8946SOL     OW38296   3.619   0.954   0.443  0.0530 -0.3231  0.3155
 8946SOL    HW138297   3.650   1.041   0.468  2.3518 -1.3709  1.1176
 8946SOL    HW238298   3.613   0.909   0.527 -2.9592  0.1711  0.3524
 8947SOL     OW38299   1.342   2.809   5.238 -0.6298 -0.7055 -0.2900
 8947SOL    HW138300   1.436   2.791   5.236 -0.7009 -1.0560 -0.5655
 8947SOL    HW238301   1.340   2.834   5.331 -1.1681  1.4035 -0.8767
 8948SOL     OW38302   0.107   0.979   4.244 -0.4070 -0.2076 -0.0510
 8948SOL    HW138303   0.054   0.902   4.224  0.1705 -0.5834 -0.1172
 8948SOL    HW238304   0.194   0.952   4.213 -0.7010 -0.9171 -0.2530
 8949SOL     OW38305   2.930   1.937   7.827  0.2318  0.2878 -0.8832
 8949SOL    HW138306   2.979   1.931   7.909  1.4031 -0.0411 -1.6105
 8949SOL    HW238307   2.957   2.024   7.800 -0.3800  1.2214  1.5045
 8950SOL     OW38308   1.399   1.309  16.179  0.3748  0.6264  0.2280
 8950SOL    HW138309   1.322   1.342  16.134 -0.0685 -0.3283  0.2809
 8950SOL    HW238310   1.414   1.238  16.117 -3.4386  3.5249 -3.9592
 8951SOL     OW38311   4.588   2.337  10.108 -0.1315  0.1038  0.0469
 8951SOL    HW138312   4.623   2.361  10.194  0.5714  2.4197 -0.8875
 8951SOL    HW238313   4.653   2.363  10.042  1.5524 -2.9250  0.4982
 8952SOL     OW38314   0.023   2.170   7.654 -0.0030  0.3885 -0.2471
 8952SOL    HW138315   0.100   2.177   7.711  0.9248  0.2213 -1.4940
 8952SOL    HW238316   0.022   2.258   7.617  1.2168  0.3348 -0.3995
 8953SOL     OW38317   2.668   3.011   2.121  0.0925 -0.1444 -0.2873
 8953SOL    HW138318   2.650   3.093   2.076  1.2052  0.4328  0.3197
 8953SOL    HW238319   2.649   2.949   2.051  1.0575 -0.7746  0.0081
 8954SOL     OW38320   1.019   3.982   2.660  0.0150  0.3889  0.6495
 8954SOL    HW138321   0.984   3.964   2.573  3.9284  0.6288 -0.9558
 8954SOL    HW238322   0.957   3.939   2.720 -1.9467  1.0213 -0.9435
 8955SOL     OW38323   0.046   4.170   8.918  0.4284  0.0967 -0.5155
 8955SOL    HW138324   0.043   4.265   8.924  0.4839  0.0679  0.0330
 8955SOL    HW238325   0.126   4.154   8.969  0.9443  2.4944 -0.6061
 8956SOL     OW38326   4.524   2.961   8.561 -0.9040 -0.2247 -0.5195
 8956SOL    HW138327   4.429   2.972   8.555 -0.9210  0.0608  0.4164
 8956SOL    HW238328   4.533   2.866   8.575 -1.1773 -0.3581 -1.1931
 8957SOL     OW38329   2.306   4.481   6.629 -0.1649  0.2858  0.6258
 8957SOL    HW138330   2.400   4.494   6.619 -0.1386  0.3481  0.9575
 8957SOL    HW238331   2.273   4.570   6.644  1.1182  0.8741 -0.0368
 8958SOL     OW38332   0.195   0.938  14.738  0.0860  0.3872 -0.0306
 8958SOL    HW138333   0.231   0.850  14.730  1.8832  0.8676  2.6206
 8958SOL    HW238334   0.267   0.968  14.794  0.3101  3.1424 -1.7932
 8959SOL     OW38335   2.076   3.124   4.083 -0.2792 -0.3883  0.1597
 8959SOL    HW138336   2.000   3.067   4.076 -0.2953 -0.0609 -2.2169
 8959SOL    HW238337   2.018   3.200   4.079  0.3959  0.0432 -1.6124
 8960SOL     OW38338   0.013   2.470   4.946 -0.0311  0.0487 -0.0187
 8960SOL    HW138339   0.059   2.518   4.877 -2.1338  1.7159 -0.2511
 8960SOL    HW238340   0.066   2.390   4.941  2.3083  1.5298  1.3002
 8961SOL     OW38341   0.870   3.181   7.410  0.0802  0.5451  0.2032
 8961SOL    HW138342   0.864   3.256   7.352  0.3813 -2.0719 -3.2120
 8961SOL    HW238343   0.944   3.212   7.462 -1.0654  2.3383  0.7715
 8962SOL     OW38344   3.412   1.940   3.927 -0.1022 -0.0296 -0.2506
 8962SOL    HW138345   3.396   1.847   3.944 -0.9356 -0.0019 -0.8551
 8962SOL    HW238346   3.405   1.980   4.014 -0.6821 -0.3334 -0.1555
 8963SOL     OW38347   0.048   2.320   9.910  0.6842 -0.0961  0.0543
 8963SOL    HW138348   0.015   2.328   9.820  0.6473  0.9224  0.1537
 8963SOL    HW238349   0.121   2.260   9.895  0.9550  0.1993  0.1936
 8964SOL     OW38350   2.554   1.881   8.260  0.0795 -0.0130  0.1323
 8964SOL    HW138351   2.614   1.827   8.312 -1.1171 -1.4456  0.0217
 8964SOL    HW238352   2.470   1.858   8.300 -0.4274  1.8225  0.1027
 8965SOL     OW38353   0.639   3.020  16.518  0.0402 -0.2715  0.4349
 8965SOL    HW138354   0.592   3.034  16.600  0.9519 -0.5652  1.0127
 8965SOL    HW238355   0.667   2.928  16.522  0.7409 -0.0893 -0.3099
 8966SOL     OW38356   2.080   3.226  11.020  0.1117  0.2228 -0.1602
 8966SOL    HW138357   2.046   3.202  11.106  0.9143 -0.5561 -0.0519
 8966SOL    HW238358   2.152   3.163  11.009 -0.2595 -0.6010  2.0113
 8967SOL     OW38359   0.026   3.377   6.598 -0.3910 -0.2457  0.0954
 8967SOL    HW138360   0.044   3.455   6.650 -0.5472  0.3911 -0.8003
 8967SOL    HW238361   0.012   3.412   6.510 -0.4487 -0.2538  0.1016
 8968SOL     OW38362   4.303   4.328   5.126 -0.1159  0.4808 -0.3791
 8968SOL    HW138363   4.247   4.370   5.061  1.6532  0.4486 -1.9105
 8968SOL    HW238364   4.314   4.243   5.083  4.0223  0.0357  1.5067
 8969SOL     OW38365   4.420   4.367   0.182  0.4762  0.1265  0.0169
 8969SOL    HW138366   4.472   4.444   0.157  1.0635 -0.1890  0.2743
 8969SOL    HW238367   4.404   4.385   0.275  0.6772 -0.6728  0.2085
 8970SOL     OW38368   1.213   0.096  13.996 -0.1472  0.2185 -0.1286
 8970SOL    HW138369   1.293   0.122  14.042  0.4166 -2.6756  0.5343
 8970SOL    HW238370   1.176   0.027  14.052 -1.1719  1.8884  1.2289
 8971SOL     OW38371   4.238   3.707   6.955 -0.4708  0.1022 -0.0967
 8971SOL    HW138372   4.254   3.796   6.986  2.4698 -0.6763  0.5998
 8971SOL    HW238373   4.256   3.657   7.035  1.2312  1.4372  0.3292
 8972SOL     OW38374   4.036   4.243  11.144  0.4263  0.5510  0.1990
 8972SOL    HW138375   4.020   4.181  11.072  2.2564 -0.6708  0.8459
 8972SOL    HW238376   4.082   4.316  11.101  0.5994  0.6582  0.5680
 8973SOL     OW38377   2.425   0.078   5.425 -0.1834  0.5046  0.3226
 8973SOL    HW138378   2.353   0.052   5.368  0.2019 -1.6068  0.7781
 8973SOL    HW238379   2.427   0.173   5.414 -2.6982  0.4841 -0.2646
 8974SOL     OW38380   3.148   3.044   9.315 -0.3174 -0.2923  0.0299
 8974SOL    HW138381   3.188   2.971   9.267 -1.5493 -0.7974 -0.2602
 8974SOL    HW238382   3.056   3.019   9.305 -0.3175 -0.4431  0.3906
 8975SOL     OW38383   0.833   0.136   2.626  0.2336 -0.0682  0.3923
 8975SOL    HW138384   0.856   0.226   2.603  3.6090 -0.7068  1.2721
 8975SOL    HW238385   0.765   0.111   2.563 -1.5008  0.3467  2.1230
 8976SOL     OW38386   0.439   2.963   6.245 -0.3061 -0.2697  0.1672
 8976SOL    HW138387   0.506   2.988   6.308  1.1676 -0.4452 -1.3234
 8976SOL    HW238388   0.467   2.872   6.233 -3.2775 -0.9435 -1.6684
 8977SOL     OW38389   1.497   2.065  10.603  0.2127  0.0320  0.2517
 8977SOL    HW138390   1.412   2.022  10.600  0.2605 -0.0135 -0.7068
 8977SOL    HW238391   1.550   1.998  10.559 -0.2487 -0.8542  1.0385
 8978SOL     OW38392   0.579   3.464   2.533 -0.2150 -0.2860  0.4079
 8978SOL    HW138393   0.556   3.523   2.606 -3.7829 -0.7911 -0.2786
 8978SOL    HW238394   0.554   3.524   2.462 -1.0106  0.2257  1.1053
 8979SOL     OW38395   2.110   4.660  10.801  0.1354  0.3291  0.4411
 8979SOL    HW138396   2.046   4.622  10.861  0.9220  1.1434  1.8019
 8979SOL    HW238397   2.191   4.648  10.851 -0.9731 -1.8582  1.6901
 8980SOL     OW38398   0.492   2.611  14.931 -0.0119  0.2743 -0.4854
 8980SOL    HW138399   0.505   2.703  14.954 -0.5256  0.3429 -0.4744
 8980SOL    HW238400   0.456   2.623  14.844  0.6734  2.2596 -0.4976
 8981SOL     OW38401   2.428   3.698  12.664 -0.0158 -0.0782 -0.1874
 8981SOL    HW138402   2.473   3.622  12.701  0.5343  0.0795 -0.5245
 8981SOL    HW238403   2.411   3.742  12.747 -2.8444 -1.4961 -0.0102
 8982SOL     OW38404   0.613   2.221   3.953  0.2020  0.3336 -0.5388
 8982SOL    HW138405   0.593   2.201   4.044  0.5538 -2.4787 -1.0567
 8982SOL    HW238406   0.644   2.136   3.921  0.6267  0.6950 -1.0986
 8983SOL     OW38407   0.547   4.474   7.689 -0.3306 -0.3220 -0.5171
 8983SOL    HW138408   0.489   4.518   7.626  0.5388  0.0378 -1.0681
 8983SOL    HW238409   0.626   4.526   7.676 -0.0050 -0.4644  0.9239
 8984SOL     OW38410   2.322   2.319  17.696  0.1104 -0.5257 -0.0672
 8984SOL    HW138411   2.417   2.304  17.687  0.2466 -0.0941  0.6772
 8984SOL    HW238412   2.298   2.355  17.610 -1.3988  0.0210  0.5820
 8985SOL     OW38413   4.140   3.340  15.191  0.4366 -0.3506  0.4119
 8985SOL    HW138414   4.221   3.309  15.232  0.7344 -1.1107 -0.7404
 8985SOL    HW238415   4.159   3.315  15.100  1.7163  1.3042  0.2253
 8986SOL     OW38416   3.832   3.447   7.049 -0.1928 -0.3826  0.2435
 8986SOL    HW138417   3.822   3.452   7.144 -0.5004 -0.1877  0.1982
 8986SOL    HW238418   3.739   3.447   7.026 -0.4733 -0.3357  1.3607
 8987SOL     OW38419   0.893   4.054  11.609  0.0457  0.4619 -0.0989
 8987SOL    HW138420   0.824   4.065  11.544  0.7042  2.4293 -0.4845
 8987SOL    HW238421   0.902   4.141  11.648 -0.2577  1.0786 -1.4156
 8988SOL     OW38422   4.189   3.835   7.535  0.7025  0.1326  0.2033
 8988SOL    HW138423   4.104   3.848   7.493  1.7722  0.3146 -1.8927
 8988SOL    HW238424   4.202   3.928   7.554 -0.9237  0.4821 -0.4179
 8989SOL     OW38425   4.149   0.843  15.900 -0.7540  0.3898  0.0448
 8989SOL    HW138426   4.053   0.844  15.902 -0.7413  2.9202 -0.6246
 8989SOL    HW238427   4.183   0.863  15.987 -1.2884 -2.3295  0.9036
 8990SOL     OW38428   1.595   3.879  11.608 -0.3762 -0.3126 -0.2640
 8990SOL    HW138429   1.677   3.832  11.625  0.4522  1.6694  1.2015
 8990SOL    HW238430   1.568   3.847  11.521 -1.0556 -1.0908  0.2346
 8991SOL     OW38431   1.654   0.359  14.793 -0.1192  0.0343 -0.2870
 8991SOL    HW138432   1.645   0.447  14.830 -0.2674  0.5686 -1.5913
 8991SOL    HW238433   1.582   0.361  14.730  2.1179  1.5934 -2.8144
 8992SOL     OW38434   2.665   4.269   6.360 -0.4736  0.5855 -0.0737
 8992SOL    HW138435   2.676   4.345   6.303 -0.9487  1.3083  0.8032
 8992SOL    HW238436   2.618   4.214   6.297  0.4345 -1.0294  0.6642
 8993SOL     OW38437   1.814   1.157   4.408  0.3458  0.0008  0.4123
 8993SOL    HW138438   1.730   1.168   4.454 -1.0545  0.3843 -2.2452
 8993SOL    HW238439   1.789   1.170   4.317  2.3547 -1.3603 -0.3247
 8994SOL     OW38440   0.209   3.996   6.184  0.6882  0.5859 -0.1046
 8994SOL    HW138441   0.199   4.090   6.168  0.3614  0.6509  0.5095
 8994SOL    HW238442   0.241   3.960   6.101  0.3771  2.8526 -1.2203
 8995SOL     OW38443   2.623   0.263   5.080  0.2242 -0.4938 -0.3254
 8995SOL    HW138444   2.533   0.297   5.077  0.6956  0.8719  1.4462
 8995SOL    HW238445   2.661   0.319   5.147 -0.3580 -1.0164  0.4497
 8996SOL     OW38446   3.922   0.005   7.804 -1.1916  0.1983  0.1556
 8996SOL    HW138447   3.895   0.086   7.847  0.3994 -0.0563  1.5938
 8996SOL    HW238448   3.897   4.669   7.871  0.8263 -0.0350  0.6761
 8997SOL     OW38449   2.514   4.114   4.349  0.0080 -0.1442 -0.2495
 8997SOL    HW138450   2.538   4.030   4.388  1.5624  0.6921  0.5955
 8997SOL    HW238451   2.506   4.167   4.428 -1.0518 -1.0811  0.2677
 8998SOL     OW38452   2.218   2.919   9.250  0.1700 -0.0292  0.7613
 8998SOL    HW138453   2.224   2.827   9.279 -0.3174 -1.1662 -2.8318
 8998SOL    HW238454   2.151   2.946   9.312 -0.5277  1.2797 -0.5855
 8999SOL     OW38455   4.637   1.926   1.136  0.3352 -0.1651 -0.3310
 8999SOL    HW138456   4.714   1.918   1.080  0.2018  1.6692 -0.7712
 8999SOL    HW238457   4.567   1.927   1.070 -0.2897 -0.6159  0.3273
 9000SOL     OW38458   4.051   1.946   3.299 -0.0483 -0.4387  0.0217
 9000SOL    HW138459   4.105   2.008   3.250 -0.8089  0.4474  0.2950
 9000SOL    HW238460   3.993   2.004   3.349 -1.4117 -1.2250 -0.6333
 9001SOL     OW38461   1.280   0.924   6.217  0.2552 -0.2263 -0.4334
 9001SOL    HW138462   1.269   0.834   6.187  0.8607  0.2196 -2.0385
 9001SOL    HW238463   1.319   0.908   6.303  1.8101 -0.0701 -1.1075
 9002SOL     OW38464   2.410   2.886  10.659  0.2646 -0.1405  0.7083
 9002SOL    HW138465   2.482   2.891  10.597  0.0845 -2.4655  0.2893
 9002SOL    HW238466   2.426   2.800  10.699 -0.1519 -0.6991 -0.3131
 9003SOL     OW38467   2.045   1.650   1.952  0.2462 -0.3431 -0.0921
 9003SOL    HW138468   2.093   1.580   1.995  0.1202 -0.0746  0.4931
 9003SOL    HW238469   2.117   1.705   1.923 -1.4187  2.8186  1.7352
 9004SOL     OW38470   1.320   0.799   9.535  0.5117  0.0552  0.2915
 9004SOL    HW138471   1.311   0.862   9.463 -0.4078  2.2527  2.3220
 9004SOL    HW238472   1.242   0.820   9.587  0.4765  0.3683  0.1096
 9005SOL     OW38473   2.848   4.621   2.691 -0.5907  0.1046  0.8996
 9005SOL    HW138474   2.761   4.629   2.653 -0.2807  0.6893  0.3182
 9005SOL    HW238475   2.879   4.710   2.678 -2.1222  0.3023 -1.4111
 9006SOL     OW38476   1.165   4.550   3.349 -0.0361  0.1004 -0.5569
 9006SOL    HW138477   1.096   4.611   3.375 -2.2449 -1.7448 -2.1425
 9006SOL    HW238478   1.132   4.464   3.374  1.9079  0.0247  1.8343
 9007SOL     OW38479   1.745   2.780  14.917  0.1758 -0.0899  0.5243
 9007SOL    HW138480   1.794   2.711  14.962  1.7624  1.3222  0.9870
 9007SOL    HW238481   1.654   2.755  14.932  0.6207 -1.1715  1.4427
 9008SOL     OW38482   0.139   0.858   1.018 -0.0321 -0.3920  0.4801
 9008SOL    HW138483   0.075   0.800   0.977 -2.1725  0.3028  2.8857
 9008SOL    HW238484   0.175   0.888   0.934  1.2826  0.4480  1.3445
 9009SOL     OW38485   0.526   4.717   4.997  0.0576 -0.4466  0.3335
 9009SOL    HW138486   0.457   4.720   4.932  0.9141 -2.3184 -0.6632
 9009SOL    HW238487   0.599   4.689   4.942  0.7621 -1.4643  1.7588
 9010SOL     OW38488   3.022   2.282   3.347  0.1958 -0.0666 -0.3318
 9010SOL    HW138489   3.111   2.252   3.327  0.7465  0.8120  0.8406
 9010SOL    HW238490   3.030   2.374   3.321  0.4953 -0.0610 -0.2169
 9011SOL     OW38491   0.181   1.916   1.109  0.2253  0.4955 -0.6643
 9011SOL    HW138492   0.171   1.882   1.198 -0.3493  0.3979 -0.7634
 9011SOL    HW238493   0.275   1.930   1.109  0.1695  0.8579 -1.6465
 9012SOL     OW38494   2.598   0.144  12.050  0.0922  0.2190 -0.6002
 9012SOL    HW138495   2.512   0.171  12.018 -0.0201  1.6075  0.8387
 9012SOL    HW238496   2.633   0.086  11.984 -3.7407 -1.0731 -1.5022
 9013SOL     OW38497   1.400   3.880   7.214  0.1192  0.2392 -0.4946
 9013SOL    HW138498   1.442   3.823   7.278 -1.8790  1.1747  1.6411
 9013SOL    HW238499   1.462   3.868   7.142  0.2125  0.7551 -0.5044
 9014SOL     OW38500   3.059   2.270   4.145 -0.1442  0.2430  0.3250
 9014SOL    HW138501   3.070   2.251   4.052  0.4368  0.7295  0.2911
 9014SOL    HW238502   3.125   2.339   4.152 -0.3266  0.5916 -1.3017
 9015SOL     OW38503   1.224   3.352   8.786  0.0971  0.1026  0.2629
 9015SOL    HW138504   1.291   3.411   8.820 -0.2551 -0.1583  1.4084
 9015SOL    HW238505   1.159   3.397   8.841 -0.5182 -0.3001 -0.1360
 9016SOL     OW38506   4.220   4.364   4.786 -0.3499 -0.3181  0.2133
 9016SOL    HW138507   4.138   4.363   4.834 -0.1054 -0.0278  0.6351
 9016SOL    HW238508   4.195   4.390   4.697 -0.3961 -1.0782  0.0032
 9017SOL     OW38509   3.012   4.306   3.232 -0.4129 -0.3278 -0.3471
 9017SOL    HW138510   2.921   4.275   3.236 -0.9784  1.1851 -1.5156
 9017SOL    HW238511   3.050   4.220   3.213  0.0789 -0.3631  0.7864
 9018SOL     OW38512   4.523   0.464   0.694 -0.4808 -0.4954 -0.2360
 9018SOL    HW138513   4.435   0.502   0.699 -0.3190 -0.2978  0.9928
 9018SOL    HW238514   4.509   0.383   0.742  0.2033 -1.1639 -1.1497
 9019SOL     OW38515   1.909   1.559   4.021 -0.8432  0.1392 -0.8066
 9019SOL    HW138516   1.978   1.593   4.078 -1.4151 -1.1884  0.7116
 9019SOL    HW238517   1.830   1.608   4.043 -1.2890 -1.4066  1.0914
 9020SOL     OW38518   4.093   2.705   7.974 -0.3275  0.1663  0.0929
 9020SOL    HW138519   4.105   2.782   8.029  2.6700  1.5507 -2.5217
 9020SOL    HW238520   4.006   2.676   8.003 -1.1585  1.4210 -1.0881
 9021SOL     OW38521   3.004   3.735   1.831 -0.3081 -0.2835 -0.0690
 9021SOL    HW138522   2.972   3.656   1.874 -0.4634  0.7741  1.7769
 9021SOL    HW238523   2.960   3.732   1.746  0.5745 -2.8398 -0.4326
 9022SOL     OW38524   2.663   2.679   5.409  0.0207  0.3680  0.3374
 9022SOL    HW138525   2.680   2.761   5.364 -0.0942  0.8530  1.1792
 9022SOL    HW238526   2.678   2.604   5.351 -3.7184 -1.4573  1.7996
 9023SOL     OW38527   3.720   3.865   1.687 -0.6081  0.3039 -0.2795
 9023SOL    HW138528   3.752   3.813   1.613 -2.8136  0.1605 -1.1565
 9023SOL    HW238529   3.742   3.802   1.755  1.0084 -1.7032 -2.6591
 9024SOL     OW38530   2.969   0.984   6.738  0.1516 -0.1247  0.4520
 9024SOL    HW138531   2.947   0.913   6.798  0.4632 -1.2378 -0.7466
 9024SOL    HW238532   2.996   1.045   6.806 -0.0686  1.2844 -0.7246
 9025SOL     OW38533   2.367   4.213   4.542 -0.0555 -0.0384 -0.0309
 9025SOL    HW138534   2.316   4.132   4.552  1.0077 -0.5282  1.3090
 9025SOL    HW238535   2.296   4.267   4.506  0.7021 -0.4282 -2.1571
 9026SOL     OW38536   4.316   1.261  14.701 -0.7174  0.7056 -0.1716
 9026SOL    HW138537   4.379   1.330  14.722  0.7129 -0.4220 -0.7343
 9026SOL    HW238538   4.375   1.190  14.727 -0.5703  0.6452 -0.6671
 9027SOL     OW38539   3.676   4.286   1.624 -0.4466  0.1669 -0.0516
 9027SOL    HW138540   3.603   4.342   1.650 -0.2550  1.1289 -1.5586
 9027SOL    HW238541   3.639   4.222   1.563 -0.3998 -0.5560  0.6907
 9028SOL     OW38542   2.359   3.549   4.133 -0.2054 -0.1277  0.2011
 9028SOL    HW138543   2.268   3.561   4.161  0.9156  2.1393  2.9071
 9028SOL    HW238544   2.388   3.487   4.200 -0.0752  0.0967  0.3529
 9029SOL     OW38545   1.406   4.315  11.071 -0.6133 -0.0434  0.0330
 9029SOL    HW138546   1.411   4.386  11.008 -0.7627 -0.8486 -0.8899
 9029SOL    HW238547   1.404   4.366  11.152 -0.5681  0.4433 -0.2724
 9030SOL     OW38548   1.584   4.044   7.072  0.2233 -0.4428 -0.4931
 9030SOL    HW138549   1.647   3.979   7.103 -0.4776 -1.1207 -0.4910
 9030SOL    HW238550   1.571   4.012   6.982  3.1304 -1.2651 -0.5995
 9031SOL     OW38551   3.664   2.963   4.312  0.5998 -0.6146  0.1244
 9031SOL    HW138552   3.577   2.988   4.280  0.7507 -0.3051 -0.0350
 9031SOL    HW238553   3.650   2.962   4.406  0.2913  0.3606  0.0865
 9032SOL     OW38554   0.059   1.517   3.600  0.0232  0.4490  0.2337
 9032SOL    HW138555   4.698   1.545   3.576 -0.7891 -1.4603  0.9864
 9032SOL    HW238556   0.044   1.441   3.655 -0.7451  1.8898  2.0062
 9033SOL     OW38557   2.936   3.126   4.262 -0.1988 -0.2658  0.2018
 9033SOL    HW138558   3.021   3.162   4.235  0.2823  0.6782  3.0229
 9033SOL    HW238559   2.877   3.197   4.239  1.7669  0.3615 -2.9247
 9034SOL     OW38560   2.724   2.876   6.781  0.2506 -0.5055  0.1960
 9034SOL    HW138561   2.764   2.898   6.697 -0.2573 -0.0699  0.0728
 9034SOL    HW238562   2.731   2.780   6.785 -2.7193 -0.7503 -0.8656
 9035SOL     OW38563   1.753   4.212   1.908 -0.6114  0.2444  0.0261
 9035SOL    HW138564   1.808   4.172   1.976 -1.1594 -0.2287  0.1883
 9035SOL    HW238565   1.708   4.278   1.960  0.6956  0.5573  0.7689
 9036SOL     OW38566   0.743   1.784   8.022  0.0464 -0.1436 -0.8428
 9036SOL    HW138567   0.694   1.865   8.037  1.1927  0.2649  0.6937
 9036SOL    HW238568   0.819   1.788   8.080  0.3242  0.3157 -1.2447
 9037SOL     OW38569   4.086   3.294  14.019  0.1499  0.6203 -0.1735
 9037SOL    HW138570   4.132   3.253  14.093 -1.4880  0.2172  0.6174
 9037SOL    HW238571   4.009   3.325  14.068 -0.6597  0.4853 -1.3720
 9038SOL     OW38572   3.669   3.734   9.227  0.6626  0.2749  0.0739
 9038SOL    HW138573   3.681   3.823   9.192  1.6079 -0.1551 -0.6947
 9038SOL    HW238574   3.601   3.744   9.293  1.7893 -0.0478  1.2747
 9039SOL     OW38575   3.600   1.657   6.846  0.6810 -0.4354 -0.0666
 9039SOL    HW138576   3.636   1.604   6.917  0.4799 -0.1007  0.2873
 9039SOL    HW238577   3.670   1.643   6.782 -0.2217  1.2420 -1.3946
 9040SOL     OW38578   3.828   3.988   9.137 -0.1303 -0.1201  0.2759
 9040SOL    HW138579   3.848   4.035   9.055 -1.5084  1.6740  0.9732
 9040SOL    HW238580   3.917   4.003   9.169  0.1721 -0.1086 -0.5631
 9041SOL     OW38581   3.078   4.218   2.183 -0.0886 -0.8357  0.0291
 9041SOL    HW138582   3.016   4.272   2.232  1.9765 -0.0748  1.8168
 9041SOL    HW238583   3.030   4.171   2.115  0.4355 -0.9492 -0.2596
 9042SOL     OW38584   3.825   1.124  13.062 -0.1092  0.2048 -0.0423
 9042SOL    HW138585   3.791   1.078  13.139  0.1934  2.4015  1.3958
 9042SOL    HW238586   3.788   1.070  12.992  1.0472  1.2472 -1.4513
 9043SOL     OW38587   4.556   2.190   3.238 -0.0666 -0.2326 -0.0484
 9043SOL    HW138588   4.516   2.218   3.321  0.9547 -1.1893  0.7701
 9043SOL    HW238589   4.651   2.194   3.247 -0.2334  0.0783  1.6516
 9044SOL     OW38590   4.126   2.743   3.235 -0.2102  0.6092 -0.0898
 9044SOL    HW138591   4.174   2.813   3.192  1.7846  0.0281  1.1696
 9044SOL    HW238592   4.061   2.725   3.167 -0.1619  1.1913 -0.2884
 9045SOL     OW38593   0.744   0.109   3.197 -0.3000 -0.1532  0.5324
 9045SOL    HW138594   0.771   0.170   3.265  0.8399  1.3442 -1.2528
 9045SOL    HW238595   0.655   0.092   3.228 -0.3441 -1.7399 -0.4241
 9046SOL     OW38596   0.683   3.732   2.800 -0.2198 -0.5037 -0.1012
 9046SOL    HW138597   0.589   3.725   2.813 -0.4320  1.1963 -0.6140
 9046SOL    HW238598   0.689   3.805   2.738  0.4838  1.5903  2.4461
 9047SOL     OW38599   0.048   2.506   3.300 -0.1489  0.2623 -0.1656
 9047SOL    HW138600   0.142   2.489   3.310 -0.3498 -0.1027  1.1228
 9047SOL    HW238601   0.011   2.465   3.378  1.5381  2.7621  1.9492
 9048SOL     OW38602   3.901   2.131  14.638 -0.0734 -0.5927  0.4540
 9048SOL    HW138603   3.886   2.215  14.682 -2.8319  0.1021 -1.8079
 9048SOL    HW238604   3.990   2.146  14.606 -0.6683 -1.1524 -1.4818
 9049SOL     OW38605   3.322   2.764   4.702 -0.5499  0.5930 -0.1742
 9049SOL    HW138606   3.244   2.710   4.713  2.3545 -2.8933  3.0924
 9049SOL    HW238607   3.387   2.702   4.734  1.2668  1.6435 -1.7782
 9050SOL     OW38608   0.198   0.857  17.298  0.4832 -0.0876  0.1448
 9050SOL    HW138609   0.255   0.815  17.234 -1.8922 -0.3755 -1.7755
 9050SOL    HW238610   0.107   0.830  17.288  0.8584 -1.1709 -0.2661
 9051SOL     OW38611   2.296   0.787  15.081  0.3636  0.5581 -0.0291
 9051SOL    HW138612   2.388   0.780  15.106  0.0093 -1.5375  0.6456
 9051SOL    HW238613   2.256   0.792  15.168 -4.4242  2.0453 -2.2957
 9052SOL     OW38614   0.092   3.684  12.147 -0.8318 -0.5657  0.2922
 9052SOL    HW138615   0.098   3.770  12.189  2.0929 -1.6017  1.9837
 9052SOL    HW238616   0.090   3.701  12.053  0.9801  2.3858  0.7953
 9053SOL     OW38617   4.333   3.648   6.547 -0.4241 -0.0582  0.3331
 9053SOL    HW138618   4.376   3.588   6.486 -0.3294 -0.3299  0.6664
 9053SOL    HW238619   4.289   3.585   6.604 -0.8502  0.8504  1.0224
 9054SOL     OW38620   3.138   4.029   5.633 -0.2624 -0.0663 -0.0357
 9054SOL    HW138621   3.211   3.967   5.627  0.7744  0.8924  2.2734
 9054SOL    HW238622   3.066   3.982   5.593 -0.2446  0.5240 -0.7511
 9055SOL     OW38623   1.586   3.486  12.628 -0.2805  0.1153 -0.1820
 9055SOL    HW138624   1.590   3.447  12.716  0.7443 -1.5237 -0.9545
 9055SOL    HW238625   1.613   3.410  12.577 -1.3255 -0.9645  0.8484
 9056SOL     OW38626   2.229   3.661   2.601  0.6607  0.3139  0.0500
 9056SOL    HW138627   2.262   3.750   2.610  1.4129  0.0344  0.1143
 9056SOL    HW238628   2.303   3.602   2.617 -0.7046 -0.7624  2.4586
 9057SOL     OW38629   0.798   0.242   4.544  0.7736 -0.0642  0.1919
 9057SOL    HW138630   0.844   0.304   4.488  1.7497 -0.2118  0.8353
 9057SOL    HW238631   0.742   0.194   4.483 -1.3150  1.5336  0.8395
 9058SOL     OW38632   0.735   3.317   5.013 -0.1731  0.2201 -0.2363
 9058SOL    HW138633   0.714   3.248   5.076  0.8531  1.1885  1.1313
 9058SOL    HW238634   0.651   3.364   5.015  0.1375  0.8148 -1.1235
 9059SOL     OW38635   2.890   2.384   5.550  0.0779  0.0018  0.5554
 9059SOL    HW138636   2.946   2.390   5.627 -0.5871 -1.3796  1.1500
 9059SOL    HW238637   2.949   2.412   5.480 -0.6149 -0.3978 -0.1996
 9060SOL     OW38638   1.277   1.496  16.364  0.1327 -0.2149  0.1848
 9060SOL    HW138639   1.289   1.528  16.275  2.3883  1.1259  0.9993
 9060SOL    HW238640   1.332   1.418  16.364  0.0747 -0.2538 -0.6998
 9061SOL     OW38641   2.471   2.440   5.359 -0.0861 -0.1364 -0.1550
 9061SOL    HW138642   2.542   2.380   5.381 -1.1608 -0.7751  1.6028
 9061SOL    HW238643   2.487   2.456   5.266 -0.0725  3.2127  0.4194
 9062SOL     OW38644   2.220   1.545   0.501  0.4172 -0.6882 -0.5388
 9062SOL    HW138645   2.295   1.538   0.560 -0.2255  0.8284  0.4558
 9062SOL    HW238646   2.229   1.460   0.458  0.5377  0.2665 -2.4012
 9063SOL     OW38647   0.352   0.310   7.743 -0.3280  0.4561 -0.4885
 9063SOL    HW138648   0.428   0.324   7.798  0.4894 -0.5589 -1.3372
 9063SOL    HW238649   0.345   0.215   7.755  1.8954  0.4093  0.4635
 9064SOL     OW38650   2.319   1.934   3.748 -0.5246 -0.4394  0.5414
 9064SOL    HW138651   2.330   1.964   3.658  0.5420 -1.5296  0.3072
 9064SOL    HW238652   2.369   1.992   3.805 -2.0261  0.4885  0.9195
 9065SOL     OW38653   4.462   3.020   3.183 -0.0153  0.0417 -0.0374
 9065SOL    HW138654   4.458   2.984   3.272  2.3388 -0.9088 -0.2990
 9065SOL    HW238655   4.542   2.977   3.154  1.3477  1.6942  1.2794
 9066SOL     OW38656   0.204   0.242  12.371 -0.1394 -0.2588 -0.2764
 9066SOL    HW138657   0.116   0.228  12.337 -0.9320  0.0689  1.6097
 9066SOL    HW238658   0.207   0.193  12.453  4.2949  0.5871  0.0837
 9067SOL     OW38659   3.009   0.159   6.715  0.1473 -0.7365  0.1454
 9067SOL    HW138660   2.974   0.222   6.778 -1.3413 -1.2975 -0.1362
 9067SOL    HW238661   3.098   0.187   6.693  0.7632 -3.0441 -0.3288
 9068SOL     OW38662   1.172   2.108   1.898 -0.0438  0.0798 -0.4944
 9068SOL    HW138663   1.239   2.053   1.936 -0.1525 -0.1725 -0.6640
 9068SOL    HW238664   1.199   2.196   1.922 -0.8888 -0.2528  1.6269
 9069SOL     OW38665   2.120   3.982  12.501  0.0904 -0.0626 -0.0602
 9069SOL    HW138666   2.207   4.018  12.517 -0.9364  0.7539  3.6540
 9069SOL    HW238667   2.074   4.053  12.545  0.4755  0.7434 -0.9463
 9070SOL     OW38668   0.796   3.167   8.171 -0.1992 -0.6053  0.1411
 9070SOL    HW138669   0.818   3.112   8.246 -2.5054 -0.4248  0.9347
 9070SOL    HW238670   0.825   3.253   8.201 -1.2622 -0.7723  1.6376
 9071SOL     OW38671   3.802   3.939   3.676  0.2599  0.5970  0.8340
 9071SOL    HW138672   3.886   3.898   3.653  0.1646 -0.6182  2.7049
 9071SOL    HW238673   3.745   3.876   3.633  0.3803  1.0686 -0.0213
 9072SOL     OW38674   4.051   4.561  14.427  0.6637 -0.3341 -0.3013
 9072SOL    HW138675   4.088   4.581  14.341 -2.8970 -1.3815 -2.0718
 9072SOL    HW238676   3.959   4.575  14.406  0.3298 -0.8028  0.8592
 9073SOL     OW38677   3.875   2.148   7.256 -0.4385  0.4144 -0.0687
 9073SOL    HW138678   3.878   2.212   7.328 -0.3912 -1.2070  1.3797
 9073SOL    HW238679   3.878   2.070   7.312 -1.7751  1.2431  1.1820
 9074SOL     OW38680   1.250   2.688   8.900 -0.2342 -0.1584  0.5893
 9074SOL    HW138681   1.225   2.769   8.944 -1.2652  1.0079 -2.1141
 9074SOL    HW238682   1.230   2.706   8.808 -3.9616 -1.3176  1.1532
 9075SOL     OW38683   2.333   1.320   8.235 -0.1253 -0.1295  0.1141
 9075SOL    HW138684   2.394   1.317   8.161  1.2920 -1.5117  1.3220
 9075SOL    HW238685   2.254   1.335   8.184  0.2935  0.7170 -0.2850
 9076SOL     OW38686   2.479   1.897   5.099  0.3024  0.0678 -0.4443
 9076SOL    HW138687   2.491   1.989   5.121 -3.8872  0.3715  0.7086
 9076SOL    HW238688   2.531   1.850   5.164 -0.0874  2.0940  1.3435
 9077SOL     OW38689   3.024   2.251   8.745  0.4533  0.9367 -0.3775
 9077SOL    HW138690   3.039   2.160   8.719 -0.1260  0.2362  1.7134
 9077SOL    HW238691   3.072   2.241   8.827  1.3445 -0.8508 -1.1113
 9078SOL     OW38692   1.086   1.668   3.756  0.2115  0.4738 -0.0884
 9078SOL    HW138693   1.051   1.660   3.844  1.9055  1.6670  0.7166
 9078SOL    HW238694   1.052   1.756   3.738  0.7831  0.6306 -0.4316
 9079SOL     OW38695   4.674   0.649   2.353 -0.2328 -0.3269  0.6120
 9079SOL    HW138696   4.628   0.731   2.336  2.9222  1.3689  0.4095
 9079SOL    HW238697   4.652   0.636   2.445 -0.4706 -0.8033  0.4921
 9080SOL     OW38698   0.083   3.456   7.624  0.0646  0.4222 -0.0478
 9080SOL    HW138699   0.121   3.389   7.681  3.5519  0.1308 -2.7449
 9080SOL    HW238700   0.031   3.511   7.683 -1.4910 -0.7734 -0.3100
 9081SOL     OW38701   4.198   0.291   2.789  0.1483 -0.3503  1.0358
 9081SOL    HW138702   4.106   0.301   2.763  0.2783  0.9496  1.0496
 9081SOL    HW238703   4.187   0.279   2.883  0.6922 -1.4922  0.9484
 9082SOL     OW38704   3.081   0.050   6.103  0.4732 -0.6379  0.8278
 9082SOL    HW138705   3.023   0.126   6.113  0.6295 -0.4336  0.1803
 9082SOL    HW238706   3.023   4.702   6.099  0.8892 -0.9779  1.3566
 9083SOL     OW38707   0.047   2.425   7.575  0.6315 -0.1844  0.5860
 9083SOL    HW138708   0.021   2.512   7.603  1.4278 -0.0837  1.0140
 9083SOL    HW238709   0.143   2.417   7.576  0.5377 -0.9854  2.7186
 9084SOL     OW38710   3.493   0.471  16.419 -0.4418  0.1895 -0.3128
 9084SOL    HW138711   3.421   0.408  16.416  0.7208 -1.1462 -0.3897
 9084SOL    HW238712   3.566   0.419  16.385 -1.1652 -1.2398  0.3444
 9085SOL     OW38713   4.013   2.628   8.671  1.0677 -0.0253  0.0005
 9085SOL    HW138714   4.103   2.613   8.639  0.3662 -0.0958 -1.9346
 9085SOL    HW238715   4.010   2.723   8.671 -1.6469 -0.1423  2.3278
 9086SOL     OW38716   1.054   0.170   6.031 -0.1664  0.2778  0.4132
 9086SOL    HW138717   1.099   0.093   6.066 -2.6679 -1.5964 -0.5077
 9086SOL    HW238718   1.013   0.138   5.951 -0.1712  0.7271  0.2413
 9087SOL     OW38719   4.428   3.870   9.157 -0.3759 -0.0456 -0.2630
 9087SOL    HW138720   4.518   3.870   9.124  0.2121  0.5258  1.3772
 9087SOL    HW238721   4.383   3.824   9.086  1.3534 -1.9037 -0.1669
 9088SOL     OW38722   1.110   0.650   4.409 -0.1083 -0.4781  0.4256
 9088SOL    HW138723   1.077   0.728   4.365  0.7622 -1.2411 -1.6059
 9088SOL    HW238724   1.143   0.689   4.490 -1.3275  0.5465  0.4136
 9089SOL     OW38725   2.431   0.959   2.777 -0.2308  0.9286 -0.0035
 9089SOL    HW138726   2.404   0.878   2.733  0.4737 -0.8509  2.8922
 9089SOL    HW238727   2.425   1.012   2.697 -0.3381 -1.9846 -1.9514
 9090SOL     OW38728   1.783   1.650   2.059  0.4001  0.0977  0.1767
 9090SOL    HW138729   1.876   1.640   2.037 -0.0822 -0.3393 -1.6300
 9090SOL    HW238730   1.757   1.558   2.066 -2.1147  0.4611 -4.4896
 9091SOL     OW38731   2.082   4.071   9.218 -1.1905 -0.2301  0.0469
 9091SOL    HW138732   2.136   4.062   9.296  0.1765  0.8731 -0.7645
 9091SOL    HW238733   2.110   4.158   9.189  0.3182 -0.6080  0.3800
 9092SOL     OW38734   1.701   4.012  17.485  0.2357  0.4264 -0.1823
 9092SOL    HW138735   1.756   3.957  17.540 -3.8622 -1.9843  1.4593
 9092SOL    HW238736   1.762   4.077  17.450 -0.8936  1.2926 -0.5489
 9093SOL     OW38737   4.039   1.462  11.086  0.5366 -0.3677  0.2388
 9093SOL    HW138738   3.967   1.492  11.030 -0.0735  0.9787  1.7566
 9093SOL    HW238739   3.996   1.382  11.117 -0.6512 -0.3990 -1.4236
 9094SOL     OW38740   1.916   3.680   8.966 -0.1360 -0.0973 -0.1070
 9094SOL    HW138741   1.987   3.632   9.008  1.4170  0.1255 -2.4718
 9094SOL    HW238742   1.948   3.667   8.876 -1.8316 -0.1226 -0.7059
 9095SOL     OW38743   0.593   1.041   0.914 -0.4875 -0.3020 -0.0601
 9095SOL    HW138744   0.544   1.121   0.897  1.2668  0.1251 -3.2082
 9095SOL    HW238745   0.625   1.051   1.003  1.8431  3.2549 -1.3298
 9096SOL     OW38746   2.634   4.422   2.418  0.5859 -0.0978 -0.0141
 9096SOL    HW138747   2.666   4.372   2.493  0.9515  1.2582  0.7522
 9096SOL    HW238748   2.556   4.464   2.454  1.5191  2.8838 -1.4645
 9097SOL     OW38749   3.573   3.702  12.901  0.3398 -0.2994 -0.4499
 9097SOL    HW138750   3.503   3.691  12.964 -0.9770 -1.1673 -2.0646
 9097SOL    HW238751   3.541   3.653  12.825  0.4494 -0.7965 -0.1770
 9098SOL     OW38752   3.162   2.864   0.452 -0.0130  0.4511  0.2646
 9098SOL    HW138753   3.229   2.931   0.443  0.0733  0.0565 -1.9660
 9098SOL    HW238754   3.113   2.918   0.515 -0.8446  1.8954 -1.6237
 9099SOL     OW38755   2.647   4.358  13.966 -0.1596  0.3028  0.0288
 9099SOL    HW138756   2.692   4.369  14.050  0.7345  2.4962 -0.7576
 9099SOL    HW238757   2.630   4.264  13.971 -0.8609  0.3994 -0.5213
 9100SOL     OW38758   0.758   4.386   3.942 -0.3255 -0.2552 -0.3603
 9100SOL    HW138759   0.710   4.374   3.860  0.7832 -0.3593 -0.9971
 9100SOL    HW238760   0.761   4.299   3.982  0.3802 -0.0350  0.0808
 9101SOL     OW38761   4.365   2.639   6.664 -0.3008 -0.2639  0.0393
 9101SOL    HW138762   4.359   2.733   6.648  2.1263 -0.1371 -0.0982
 9101SOL    HW238763   4.453   2.638   6.700 -0.1351  2.4328 -0.3105
 9102SOL     OW38764   3.639   0.730  16.339 -0.1685 -0.2888 -0.0795
 9102SOL    HW138765   3.688   0.722  16.421 -0.1171  1.2707  0.0302
 9102SOL    HW238766   3.591   0.647  16.334  2.4948 -1.9208  1.4362
 9103SOL     OW38767   4.488   4.152   2.373  0.1868  0.8127 -0.1533
 9103SOL    HW138768   4.490   4.218   2.304  1.1306  1.8052  0.8316
 9103SOL    HW238769   4.444   4.096   2.309  0.4365 -0.1947  0.5633
 9104SOL     OW38770   3.564   3.630   8.662 -0.3018  0.3589  0.8486
 9104SOL    HW138771   3.566   3.600   8.571 -1.3139 -5.6042  2.7948
 9104SOL    HW238772   3.658   3.638   8.675 -0.0536 -2.5254  0.8523
 9105SOL     OW38773   1.672   1.560   2.482  0.4026  0.5480  0.5739
 9105SOL    HW138774   1.610   1.541   2.412 -0.2556 -2.2199  1.9171
 9105SOL    HW238775   1.705   1.475   2.510  1.7083  1.0376  0.5400
 9106SOL     OW38776   4.321   3.920  12.717 -0.1590  0.0883  0.2433
 9106SOL    HW138777   4.227   3.933  12.732 -0.0471 -1.4619  2.3717
 9106SOL    HW238778   4.331   3.825  12.719 -1.3996 -0.0479 -0.3145
 9107SOL     OW38779   1.497   3.094   4.608 -0.0380 -0.2147 -0.3064
 9107SOL    HW138780   1.566   3.079   4.673 -2.8138 -0.1779  2.6649
 9107SOL    HW238781   1.511   3.005   4.574 -0.9805  0.2887 -2.0139
 9108SOL     OW38782   2.205   0.408   8.213 -0.0253  0.4098 -0.6636
 9108SOL    HW138783   2.201   0.397   8.308 -1.6750  0.0726 -0.7621
 9108SOL    HW238784   2.282   0.356   8.191  0.0008  0.7658 -1.4337
 9109SOL     OW38785   0.054   2.655  14.569  0.0492 -0.4436 -0.0076
 9109SOL    HW138786   0.111   2.679  14.496  1.3200 -2.4058  0.3402
 9109SOL    HW238787   4.695   2.641  14.531  1.3778 -1.8691 -2.5014
 9110SOL     OW38788   2.361   2.717   4.921  0.5494 -0.3060  0.8222
 9110SOL    HW138789   2.349   2.799   4.969 -1.1264  0.2614 -0.5750
 9110SOL    HW238790   2.307   2.735   4.844 -1.3684  0.4948  2.3713
 9111SOL     OW38791   2.719   4.134   3.101 -0.4683 -0.1486  0.1612
 9111SOL    HW138792   2.753   4.155   3.188  0.5793 -0.2234 -0.2258
 9111SOL    HW238793   2.668   4.211   3.076 -1.1667 -0.5378  0.4015
 9112SOL     OW38794   1.421   0.027  14.171 -0.5071  0.2585  0.6125
 9112SOL    HW138795   1.372   0.079  14.236 -0.7755  0.5106  0.2093
 9112SOL    HW238796   1.355   4.687  14.160  0.6377 -0.5505 -1.1629
 9113SOL     OW38797   3.979   4.386  17.065 -0.2772 -0.0384 -0.2292
 9113SOL    HW138798   4.018   4.408  16.980 -2.9697  2.0222 -0.9460
 9113SOL    HW238799   3.920   4.315  17.040 -0.0517 -0.5287  0.6538
 9114SOL     OW38800   3.510   1.456   4.757 -0.4149  0.0122  0.1110
 9114SOL    HW138801   3.416   1.475   4.763 -0.2243  0.7446  0.8397
 9114SOL    HW238802   3.517   1.411   4.842 -0.7610 -0.7638 -0.2664
 9115SOL     OW38803   1.201   4.241   6.173  0.2297  0.3276 -0.0629
 9115SOL    HW138804   1.170   4.248   6.263  2.8597 -0.3025  0.8896
 9115SOL    HW238805   1.141   4.189   6.119  0.1849 -2.4875  2.6854
 9116SOL     OW38806   3.442   1.996   3.290  0.1210  0.4008  0.0596
 9116SOL    HW138807   3.403   1.909   3.282 -0.0263  0.5005 -0.2978
 9116SOL    HW238808   3.531   1.968   3.310  0.9926  0.6931 -3.4997
 9117SOL     OW38809   1.476   4.127   0.398 -0.2151  0.0256  0.2921
 9117SOL    HW138810   1.471   4.067   0.472  1.0687 -1.8211 -1.1295
 9117SOL    HW238811   1.426   4.088   0.327 -2.5550  1.1670  1.3156
 9118SOL     OW38812   2.588   2.159  17.309 -0.1434 -0.2405 -0.2487
 9118SOL    HW138813   2.596   2.100  17.384 -2.7195 -2.6704 -1.9151
 9118SOL    HW238814   2.662   2.134  17.253  0.3996  0.2858  0.2300
 9119SOL     OW38815   0.859   4.256   6.853  0.0116 -0.0868 -0.0504
 9119SOL    HW138816   0.797   4.212   6.796 -0.8826  0.3785  0.5583
 9119SOL    HW238817   0.801   4.322   6.892 -0.2654  0.3286 -1.1742
 9120SOL     OW38818   2.709   0.250  12.273 -0.2820 -0.7024 -0.0570
 9120SOL    HW138819   2.649   0.242  12.199  0.0409 -1.0026 -0.2830
 9120SOL    HW238820   2.642   0.295  12.324 -1.4219 -0.2278 -1.9527
 9121SOL     OW38821   4.142   0.164   5.090  0.4159  0.1372  0.0766
 9121SOL    HW138822   4.093   0.170   5.008  0.2521 -1.7351  0.0567
 9121SOL    HW238823   4.064   0.155   5.146  1.1793 -0.4569  1.0411
 9122SOL     OW38824   4.239   3.877  13.396 -0.5571 -0.3392 -0.1134
 9122SOL    HW138825   4.273   3.958  13.434 -2.4717  1.3162 -1.9123
 9122SOL    HW238826   4.263   3.889  13.304 -0.4223 -0.1566 -0.0543
 9123SOL     OW38827   1.928   2.220   7.405  0.2256 -0.3642  0.1225
 9123SOL    HW138828   1.881   2.230   7.488 -1.0730 -2.4463 -0.3646
 9123SOL    HW238829   1.868   2.156   7.369 -0.2029 -0.3142  0.7596
 9124SOL     OW38830   4.198   2.157  16.645  0.0091 -0.4174  0.3256
 9124SOL    HW138831   4.228   2.232  16.697  2.5777 -1.0822 -0.2063
 9124SOL    HW238832   4.123   2.203  16.607  0.4296  0.9670  1.1559
 9125SOL     OW38833   0.556   2.480  12.519  0.3144 -0.3223  0.5495
 9125SOL    HW138834   0.469   2.516  12.501 -0.1115  0.0547  3.4544
 9125SOL    HW238835   0.607   2.562  12.514 -0.1088 -0.0820  0.1250
 9126SOL     OW38836   0.034   2.025  13.185 -0.0418  0.7501  0.1432
 9126SOL    HW138837   0.072   2.102  13.143  2.1290 -0.0941  0.4990
 9126SOL    HW238838   4.691   2.015  13.122  0.5844 -1.5913 -0.1810
 9127SOL     OW38839   0.910   1.240   1.134  0.0482 -0.1857  0.0395
 9127SOL    HW138840   0.944   1.280   1.054 -3.5677 -0.7085 -1.7369
 9127SOL    HW238841   0.880   1.159   1.094  0.5468 -1.2589  1.8423
 9128SOL     OW38842   2.625   0.226   7.402  0.1910 -0.1788 -0.2165
 9128SOL    HW138843   2.574   0.219   7.321  0.5306 -2.8786 -0.2060
 9128SOL    HW238844   2.628   0.321   7.405  0.2571 -0.2242  0.8708
 9129SOL     OW38845   1.240   3.600   9.722  0.0477 -0.5572  0.0935
 9129SOL    HW138846   1.165   3.557   9.764  0.2854  0.1172  1.2056
 9129SOL    HW238847   1.276   3.523   9.678  0.8915  0.7153 -1.4466
 9130SOL     OW38848   2.535   0.221   7.887 -0.0408  0.1709 -0.0775
 9130SOL    HW138849   2.593   0.293   7.861  0.1679 -0.9415 -2.7116
 9130SOL    HW238850   2.585   0.178   7.957 -0.9675 -0.4673  0.1818
 9131SOL     OW38851   3.382   2.999   2.132 -0.2224  0.0587  0.1020
 9131SOL    HW138852   3.429   3.059   2.190  2.8548  0.6956 -3.0024
 9131SOL    HW238853   3.456   2.951   2.095  0.4691  0.9711  0.2680
 9132SOL     OW38854   3.909   2.373   6.304 -0.0695 -0.3643  0.2213
 9132SOL    HW138855   3.861   2.417   6.374 -0.6531 -0.4018 -0.1586
 9132SOL    HW238856   3.884   2.425   6.228 -0.5301  1.0545  1.3413
 9133SOL     OW38857   4.064   4.180   3.578 -0.4025  0.0176 -0.6724
 9133SOL    HW138858   4.023   4.257   3.618 -2.7612 -1.1761 -0.7891
 9133SOL    HW238859   4.124   4.222   3.516 -0.0984  1.2884  0.4618
 9134SOL     OW38860   1.088   2.209   6.360  0.3427  0.7196 -0.2002
 9134SOL    HW138861   1.097   2.114   6.355  1.2699  0.7570  0.7024
 9134SOL    HW238862   1.038   2.229   6.439  0.6707 -1.8397  0.6575
 9135SOL     OW38863   3.368   0.669   1.311  0.0964  0.5386  0.2103
 9135SOL    HW138864   3.277   0.689   1.288  0.3066  1.4863  0.2016
 9135SOL    HW238865   3.419   0.743   1.278  0.5945 -0.3571 -0.9890
 9136SOL     OW38866   2.852   3.277   8.878 -0.2636 -0.1798  0.3727
 9136SOL    HW138867   2.935   3.278   8.926 -0.2629  0.4175  0.3605
 9136SOL    HW238868   2.839   3.371   8.872  0.5873 -0.1780 -1.3805
 9137SOL     OW38869   2.958   2.016   3.273 -0.1951 -0.3427  0.0723
 9137SOL    HW138870   2.905   2.007   3.194  0.1855 -0.6062 -0.1528
 9137SOL    HW238871   2.956   2.109   3.294  2.3094  0.2446 -2.3188
 9138SOL     OW38872   0.216   4.580   3.840 -0.7129 -0.5127  0.3470
 9138SOL    HW138873   0.145   4.564   3.903  0.8554 -0.2200  2.1927
 9138SOL    HW238874   0.176   4.621   3.764 -0.3170  0.8409  0.8692
 9139SOL     OW38875   0.177   2.404  10.126  0.1125 -0.5141  0.2644
 9139SOL    HW138876   0.135   2.380  10.043 -2.1686 -0.9751  1.5603
 9139SOL    HW238877   0.159   2.327  10.181  0.6107 -1.2121 -0.5564
 9140SOL     OW38878   3.249   3.723   5.826  0.3344 -0.2331 -0.4443
 9140SOL    HW138879   3.283   3.758   5.743  2.2389 -0.0264  0.4070
 9140SOL    HW238880   3.299   3.643   5.810  2.3428  0.8615  0.3253
 9141SOL     OW38881   3.890   2.876   4.148 -0.1641 -0.2030  0.0554
 9141SOL    HW138882   3.809   2.861   4.198 -0.7806 -0.1485 -0.9146
 9141SOL    HW238883   3.850   2.927   4.078 -1.8259 -0.4938  0.7774
 9142SOL     OW38884   0.904   0.170   5.783  0.3179 -0.3979  0.1310
 9142SOL    HW138885   0.984   0.216   5.759 -0.3198  0.3051 -0.6646
 9142SOL    HW238886   0.854   0.165   5.701 -0.0116  2.0273  0.1783
 9143SOL     OW38887   1.689   2.262  12.229 -0.6734 -0.4902 -0.2034
 9143SOL    HW138888   1.736   2.286  12.150  1.5196 -2.0452  0.6367
 9143SOL    HW238889   1.731   2.316  12.296  1.1855  0.8920 -2.5119
 9144SOL     OW38890   1.208   0.317   0.772 -0.3424  0.3175  0.0929
 9144SOL    HW138891   1.229   0.290   0.682 -0.1741  1.3049 -0.1682
 9144SOL    HW238892   1.119   0.280   0.766  0.6957 -2.3350  0.9945
 9145SOL     OW38893   1.475   4.608   6.843 -0.2565  0.3900  0.2057
 9145SOL    HW138894   1.476   4.553   6.922  2.0372 -1.7307 -1.3009
 9145SOL    HW238895   1.568   4.630   6.832 -0.1756 -0.3054 -0.4770
 9146SOL     OW38896   0.858   2.590   7.647  0.2395  0.3571  0.1835
 9146SOL    HW138897   0.927   2.655   7.656 -1.1213  1.6655  1.1459
 9146SOL    HW238898   0.795   2.637   7.702  1.9048 -1.0113  3.2610
 9147SOL     OW38899   2.352   2.499   3.432 -0.3195 -0.0853 -0.0914
 9147SOL    HW138900   2.367   2.438   3.504 -0.7186 -1.4788 -1.1968
 9147SOL    HW238901   2.259   2.485   3.413 -0.5961  1.2093  0.2474
 9148SOL     OW38902   1.293   4.493   2.650 -0.8844  0.8623  0.1405
 9148SOL    HW138903   1.339   4.528   2.726  0.6504  2.1495 -1.4020
 9148SOL    HW238904   1.209   4.539   2.658 -0.0721  2.6284 -1.6383
 9149SOL     OW38905   0.101   2.824   4.154  0.0837  0.0993 -0.2769
 9149SOL    HW138906   0.034   2.893   4.160 -1.6330 -1.6643  1.0632
 9149SOL    HW238907   0.071   2.781   4.074 -2.9369 -1.5420  1.7042
 9150SOL     OW38908   3.901   0.054   0.612 -0.3793 -0.3704 -0.3133
 9150SOL    HW138909   3.906   4.691   0.645 -2.3489 -0.4829 -0.3098
 9150SOL    HW238910   3.984   0.056   0.565  1.2892 -0.5408  2.5943
 9151SOL     OW38911   3.066   3.551   8.071  0.5574 -0.1296  0.8491
 9151SOL    HW138912   3.031   3.628   8.116  0.6147  1.2949 -1.4899
 9151SOL    HW238913   3.154   3.589   8.070  0.6325 -0.3195  0.1211
 9152SOL     OW38914   0.579   2.048   8.587  0.6199  0.1199 -0.3486
 9152SOL    HW138915   0.546   2.057   8.498  0.2491  0.0618 -0.2168
 9152SOL    HW238916   0.499   2.025   8.635 -0.7447  0.6279 -2.3820
 9153SOL     OW38917   0.317   4.651   3.330  0.3668 -0.3524 -0.7815
 9153SOL    HW138918   0.252   4.711   3.293  0.8071  1.2717  1.0922
 9153SOL    HW238919   0.394   4.708   3.338  0.5122 -0.7660  0.7400
 9154SOL     OW38920   0.714   0.056   0.510 -0.0741  0.1113 -0.2990
 9154SOL    HW138921   0.625   0.034   0.484  1.2655 -4.1820 -1.2602
 9154SOL    HW238922   0.701   0.149   0.526 -1.9731  0.0156 -1.3505
 9155SOL     OW38923   3.114   0.644   6.210  0.1720 -0.2304  0.3761
 9155SOL    HW138924   3.080   0.560   6.178  2.8108 -1.6087  1.2034
 9155SOL    HW238925   3.076   0.648   6.298 -1.9826  0.6855 -0.6031
 9156SOL     OW38926   4.444   1.003   3.615 -0.1175  0.1355 -0.6467
 9156SOL    HW138927   4.349   1.002   3.612 -0.1598  0.9662  0.3532
 9156SOL    HW238928   4.456   0.933   3.679 -1.6714  1.1842  0.7531
 9157SOL     OW38929   3.123   2.311   1.438 -0.2630 -0.1635  0.1188
 9157SOL    HW138930   3.181   2.348   1.371  0.2521  0.8231  1.1081
 9157SOL    HW238931   3.116   2.223   1.400 -1.6114  0.2005 -0.4887
 9158SOL     OW38932   2.606   1.346  13.443  0.1460 -0.0748 -0.7264
 9158SOL    HW138933   2.642   1.385  13.523 -1.3851 -0.1943  0.0258
 9158SOL    HW238934   2.538   1.293  13.484 -0.1230  1.7785  1.1973
 9159SOL     OW38935   4.722   4.566   8.567  0.5945 -0.3001  0.5671
 9159SOL    HW138936   0.009   4.474   8.590 -2.2232 -0.7690  0.5294
 9159SOL    HW238937   0.053   4.603   8.633  1.1718 -1.6184  0.7818
 9160SOL     OW38938   0.041   1.584   6.455 -0.1594 -0.2184  0.0970
 9160SOL    HW138939   0.027   1.599   6.362  1.5576  0.9365  0.0423
 9160SOL    HW238940   0.113   1.646   6.459 -0.5163  0.0500  2.3294
 9161SOL     OW38941   3.101   0.678   4.604 -0.0539 -0.1602  0.4623
 9161SOL    HW138942   3.156   0.676   4.526  1.3070 -2.1043  1.4845
 9161SOL    HW238943   3.017   0.681   4.558  0.2580 -0.7989 -0.1582
 9162SOL     OW38944   1.593   0.698   7.160 -0.0283 -0.1109  0.2681
 9162SOL    HW138945   1.567   0.653   7.241 -0.1768  0.5658  0.5937
 9162SOL    HW238946   1.656   0.765   7.189  0.3935 -0.3336 -0.1355
 9163SOL     OW38947   1.810   4.034  10.225  1.2038 -0.1243 -0.3603
 9163SOL    HW138948   1.732   4.030  10.280  2.4158 -2.5683  1.1578
 9163SOL    HW238949   1.790   3.955  10.174 -0.5948  0.1678 -0.1050
 9164SOL     OW38950   2.472   3.289   8.465 -0.0729 -0.1312  0.4643
 9164SOL    HW138951   2.530   3.313   8.537  1.7056  0.5897 -1.2019
 9164SOL    HW238952   2.480   3.193   8.466 -0.3328 -0.1562 -0.2258
 9165SOL     OW38953   4.263   1.739   9.608  0.2456  0.0853  0.3130
 9165SOL    HW138954   4.211   1.793   9.548  1.8650  2.0008  0.6501
 9165SOL    HW238955   4.237   1.776   9.692  0.2939 -0.8155  0.7233
 9166SOL     OW38956   1.370   1.806  11.741 -0.1729 -0.3308 -0.2806
 9166SOL    HW138957   1.407   1.895  11.742  0.8922 -0.7769  0.0858
 9166SOL    HW238958   1.418   1.765  11.813 -1.2194  0.5655  0.9226
 9167SOL     OW38959   0.072   0.656   5.798 -0.3223 -0.1274 -0.3686
 9167SOL    HW138960   0.089   0.606   5.878 -0.3297 -2.4290 -1.8232
 9167SOL    HW238961   0.106   0.743   5.821 -0.2908 -0.7434  1.9096
 9168SOL     OW38962   1.564   4.512  12.884  0.3894 -0.1887 -0.1196
 9168SOL    HW138963   1.586   4.596  12.923  0.1523  0.2951 -1.0283
 9168SOL    HW238964   1.471   4.493  12.898 -0.0542  1.0281 -1.3671
 9169SOL     OW38965   1.204   1.496   6.637  0.2092  0.0639  0.3378
 9169SOL    HW138966   1.264   1.423   6.623  0.2767  0.3417 -0.8560
 9169SOL    HW238967   1.245   1.547   6.708  0.1798 -0.3962  0.6831
 9170SOL     OW38968   4.067   0.097   4.361 -0.3641 -0.6808  0.1178
 9170SOL    HW138969   4.075   0.121   4.268  0.2773  0.0194  0.3538
 9170SOL    HW238970   4.099   0.007   4.359 -2.0243 -1.2628 -0.2612
 9171SOL     OW38971   3.354   0.847  10.382  0.0537  0.0340 -0.3998
 9171SOL    HW138972   3.443   0.883  10.381  0.6918 -1.5738 -0.8253
 9171SOL    HW238973   3.342   0.825  10.474 -2.2358 -2.0810 -1.1977
 9172SOL     OW38974   3.268   0.973   2.000  0.6376  0.1009  0.5157
 9172SOL    HW138975   3.265   0.888   1.956  2.2769 -0.6601  1.9189
 9172SOL    HW238976   3.298   0.952   2.088 -0.6278  1.7494  1.3402
 9173SOL     OW38977   0.598   0.947   1.175 -0.5768  0.2357  0.5901
 9173SOL    HW138978   0.624   0.932   1.266 -1.1676  1.3225  0.9401
 9173SOL    HW238979   0.532   0.881   1.159 -0.4009  0.7688 -2.3798
 9174SOL     OW38980   1.975   0.062   6.824  0.0632 -0.0085  0.0553
 9174SOL    HW138981   1.988   4.709   6.774  0.8804 -0.0355  0.3035
 9174SOL    HW238982   1.889   0.047   6.863  1.1555  0.3435  2.6139
 9175SOL     OW38983   0.019   4.599   3.637  0.2827  0.2400  0.1035
 9175SOL    HW138984   0.051   4.668   3.578  0.6914  0.0552  0.1062
 9175SOL    HW238985   0.060   4.523   3.595 -1.2906 -0.4615 -0.1334
 9176SOL     OW38986   2.991   0.273   7.538  0.2036 -0.0337 -0.1790
 9176SOL    HW138987   2.908   0.228   7.552 -0.4711  1.2591 -0.0446
 9176SOL    HW238988   3.018   0.292   7.628  1.2022  1.2906 -0.7441
 9177SOL     OW38989   2.663   3.504  15.806 -0.2205 -0.4002 -0.2684
 9177SOL    HW138990   2.685   3.431  15.749 -0.7095  1.1841 -2.4726
 9177SOL    HW238991   2.680   3.588  15.763  0.0975  0.2270  1.0479
 9178SOL     OW38992   2.136   4.609   7.209 -0.0120  0.4079 -0.3151
 9178SOL    HW138993   2.184   4.603   7.126  1.2218  0.2949  0.4148
 9178SOL    HW238994   2.058   4.556   7.190 -0.5402  2.1228 -2.9337
 9179SOL     OW38995   0.148   3.468   3.846  0.4406 -0.2696 -0.4005
 9179SOL    HW138996   0.147   3.562   3.827  1.1266 -0.0373  0.6997
 9179SOL    HW238997   0.233   3.438   3.813  0.1781  1.2531 -2.4750
 9180SOL     OW38998   1.445   4.199   2.316 -0.2720 -0.0752 -0.1715
 9180SOL    HW138999   1.496   4.263   2.267 -2.3662  1.8856  0.2146
 9180SOL    HW239000   1.490   4.205   2.401  0.1715  1.0107 -0.4831
 9181SOL     OW39001   4.318   3.131   0.488 -0.0668 -0.0879 -0.6276
 9181SOL    HW139002   4.309   3.061   0.423  1.9188 -1.4157  0.5132
 9181SOL    HW239003   4.409   3.128   0.517  0.3457 -0.0347 -1.8973
 9182SOL     OW39004   1.782   3.386   6.100  0.1180 -0.5193 -0.1872
 9182SOL    HW139005   1.788   3.291   6.113  1.2156 -0.6801 -1.8989
 9182SOL    HW239006   1.689   3.398   6.081 -0.2531  1.3101  2.6464
 9183SOL     OW39007   1.834   2.455  17.036  0.2897 -0.0454  0.0930
 9183SOL    HW139008   1.841   2.511  16.959  2.6530  1.3724  1.3414
 9183SOL    HW239009   1.922   2.439  17.071  1.2961  4.2108 -0.4928
 9184SOL     OW39010   0.083   2.203   5.292  0.1954 -0.9817 -0.1823
 9184SOL    HW139011   0.148   2.177   5.227  0.7100 -1.4290  0.5152
 9184SOL    HW239012   0.015   2.138   5.273 -0.4366 -0.7013  1.1306
 9185SOL     OW39013   4.708   3.485   6.301  0.1751 -0.1664  0.4591
 9185SOL    HW139014   0.033   3.476   6.222 -0.5134  1.3631 -0.1693
 9185SOL    HW239015   4.706   3.580   6.291  0.4478 -0.5046 -2.9426
 9186SOL     OW39016   4.696   3.527   8.131  1.1026  0.0651 -0.2271
 9186SOL    HW139017   4.646   3.538   8.050  1.2159 -3.4877 -0.7757
 9186SOL    HW239018   4.669   3.602   8.184  1.4113 -0.6928  0.9951
 9187SOL     OW39019   0.678   3.735   5.107 -0.1797  0.4061  0.0280
 9187SOL    HW139020   0.641   3.657   5.064 -0.7773  2.2348 -2.7652
 9187SOL    HW239021   0.684   3.715   5.200 -0.2990 -1.4041 -0.3543
 9188SOL     OW39022   3.198   1.785  16.732  0.1756 -0.8104  0.0242
 9188SOL    HW139023   3.139   1.721  16.772  0.2229 -0.4130  0.7323
 9188SOL    HW239024   3.202   1.742  16.647  0.4867  0.6426 -0.6966
 9189SOL     OW39025   0.173   0.359   4.465 -0.0427 -0.5927  0.1639
 9189SOL    HW139026   0.190   0.432   4.406 -0.3448 -0.5142  0.1718
 9189SOL    HW239027   0.263   0.332   4.481  0.3029  2.3689  3.2334
 9190SOL     OW39028   0.068   1.820   7.113 -0.1162  0.6388 -0.4717
 9190SOL    HW139029   0.161   1.831   7.094  0.5396  0.6230  2.7203
 9190SOL    HW239030   0.026   1.763   7.049 -1.6016  0.8321  0.3101
 9191SOL     OW39031   1.892   0.770   7.974 -0.2909 -0.3079  0.2115
 9191SOL    HW139032   1.869   0.806   7.888 -1.4770  0.5597  0.8982
 9191SOL    HW239033   1.810   0.763   8.022 -0.1976  0.4353  0.4798
 9192SOL     OW39034   1.367   3.641   5.310 -0.4461 -0.2035  0.1106
 9192SOL    HW139035   1.291   3.584   5.315 -1.0524  0.3883 -2.7329
 9192SOL    HW239036   1.433   3.572   5.298 -1.6205 -1.3226  0.1330
 9193SOL     OW39037   0.600   0.545   8.528  0.6102 -0.0941 -0.3767
 9193SOL    HW139038   0.554   0.611   8.579  0.5507 -0.0137 -0.5356
 9193SOL    HW239039   0.568   0.479   8.589  4.4786 -2.2701 -0.6774
 9194SOL     OW39040   1.848   3.718   7.352 -0.2981 -0.5939 -0.5011
 9194SOL    HW139041   1.796   3.687   7.426  1.9046  2.0905  2.2086
 9194SOL    HW239042   1.923   3.759   7.397 -0.7756  1.7539 -1.8240
 9195SOL     OW39043   2.906   2.716   6.980  0.6991 -0.1255 -0.0389
 9195SOL    HW139044   2.940   2.777   6.915  0.8710 -0.8674 -0.6499
 9195SOL    HW239045   2.958   2.731   7.058 -0.9738  0.3599  0.9793
 9196SOL     OW39046   3.237   3.269   0.240  1.0098 -0.4677 -0.6118
 9196SOL    HW139047   3.247   3.293   0.333 -1.7926  0.0412 -0.4559
 9196SOL    HW239048   3.261   3.348   0.192 -0.2694  1.0181  1.1734
 9197SOL     OW39049   0.284   4.681  13.076 -0.2122  0.1305 -0.2161
 9197SOL    HW139050   0.243   4.689  12.990 -1.6041  0.1827  0.4402
 9197SOL    HW239051   0.331   0.036  13.088  1.0263 -0.8690  1.7628
 9198SOL     OW39052   1.788   2.043   2.068 -0.0464  0.6976 -0.0493
 9198SOL    HW139053   1.811   1.958   2.106  1.9464  1.4775  0.4798
 9198SOL    HW239054   1.872   2.085   2.089 -0.9886  1.9298  1.2387
 9199SOL     OW39055   1.425   2.167   5.209 -0.0328  0.2938  0.3233
 9199SOL    HW139056   1.514   2.172   5.174 -0.7433  0.2965 -1.5008
 9199SOL    HW239057   1.445   2.104   5.278 -2.4042  0.7945  1.4681
 9200SOL     OW39058   3.354   1.410   3.633 -0.1945 -0.1088 -0.1868
 9200SOL    HW139059   3.439   1.385   3.671 -0.1016  0.9831  0.3088
 9200SOL    HW239060   3.312   1.439   3.714  0.9799  1.8551 -0.2804
 9201SOL     OW39061   0.868   2.931  11.240  0.4116 -0.0699 -0.1966
 9201SOL    HW139062   0.896   2.989  11.168 -0.8900 -0.1093 -0.7329
 9201SOL    HW239063   0.853   3.006  11.298 -1.0314  0.1549 -0.8483
 9202SOL     OW39064   0.917   4.375   0.650 -0.9887  0.0376 -0.2760
 9202SOL    HW139065   0.989   4.313   0.655 -1.1977 -0.0251  1.6402
 9202SOL    HW239066   0.893   4.378   0.742  0.1925 -0.9076  0.0576
 9203SOL     OW39067   4.172   4.605   6.871  0.2553  0.5004  0.1161
 9203SOL    HW139068   4.087   4.650   6.867  1.4691  3.0881  3.0580
 9203SOL    HW239069   4.225   4.658   6.930 -1.7605  1.4969  1.0399
 9204SOL     OW39070   2.903   2.237   2.819  0.2156 -0.0372 -0.0147
 9204SOL    HW139071   2.978   2.218   2.875 -0.1516 -0.6253  0.2721
 9204SOL    HW239072   2.939   2.303   2.758  0.5610 -1.1029 -0.9626
 9205SOL     OW39073   1.781   0.671   0.003 -0.1527  0.4378  0.1182
 9205SOL    HW139074   1.786   0.577   0.020 -4.3474 -0.2033 -2.0569
 9205SOL    HW239075   1.788   0.716   0.087 -2.3106  0.6663  0.1984
 9206SOL     OW39076   3.325   2.410   5.947 -0.1775  0.3516 -0.2422
 9206SOL    HW139077   3.347   2.335   6.001  1.9239  0.0581 -1.4949
 9206SOL    HW239078   3.255   2.455   5.995  0.5100  1.5882 -0.3955
 9207SOL     OW39079   0.437   0.673   8.207 -0.1826 -0.1590 -0.2660
 9207SOL    HW139080   0.404   0.650   8.120  0.6176  3.0663 -1.4017
 9207SOL    HW239081   0.385   0.754   8.211 -2.7481 -1.8437  0.7479
 9208SOL     OW39082   1.008   3.127   4.574 -0.1726  0.1364 -0.3703
 9208SOL    HW139083   0.922   3.168   4.563 -0.0944  0.0774 -1.2215
 9208SOL    HW239084   0.992   3.034   4.559 -1.9893  0.6848 -1.8687
 9209SOL     OW39085   3.535   2.300   5.548  0.1851 -0.2992 -0.8641
 9209SOL    HW139086   3.448   2.322   5.579  0.7665 -2.5212  2.3618
 9209SOL    HW239087   3.543   2.355   5.470  0.5271 -1.4946 -1.6792
 9210SOL     OW39088   2.433   2.736   2.818 -0.4023  0.0791  0.2877
 9210SOL    HW139089   2.361   2.678   2.842 -2.0942  0.9216 -2.7254
 9210SOL    HW239090   2.504   2.675   2.800 -1.4181 -0.9495 -0.1666
 9211SOL     OW39091   4.401   0.129  11.717  0.0541  0.0333  0.0547
 9211SOL    HW139092   4.337   0.084  11.772 -0.8931 -0.6169 -1.5642
 9211SOL    HW239093   4.346   0.158  11.644  2.3766  2.9722 -0.5225
 9212SOL     OW39094   0.629   2.676   0.039  0.7050 -0.0229 -0.3949
 9212SOL    HW139095   0.653   2.703   0.127 -1.1717  1.4575 -0.3458
 9212SOL    HW239096   0.546   2.630   0.047  0.7814 -0.1374 -0.2733
 9213SOL     OW39097   1.052   0.520   2.962 -0.4075 -0.3108  0.5541
 9213SOL    HW139098   1.018   0.549   3.047 -1.5014 -1.8688  0.6420
 9213SOL    HW239099   1.084   0.434   2.990  1.3575  0.6804  1.5942
 9214SOL     OW39100   2.376   0.903  13.825 -0.0642 -0.3415 -0.5368
 9214SOL    HW139101   2.453   0.960  13.825 -0.9838  0.8738  1.6131
 9214SOL    HW239102   2.314   0.974  13.840  0.7353  0.3348 -0.4021
 9215SOL     OW39103   0.619   0.855   0.620  0.4816 -0.2700  0.0943
 9215SOL    HW139104   0.634   0.762   0.603  0.3978 -0.5032  1.3285
 9215SOL    HW239105   0.523   0.850   0.616  0.4249  0.3738  0.6348
 9216SOL     OW39106   0.371   4.419   9.496 -0.2698 -0.0349  0.0299
 9216SOL    HW139107   0.285   4.460   9.495 -0.6160 -0.8162 -2.8700
 9216SOL    HW239108   0.433   4.485   9.529 -1.5182  1.7947 -1.2947
 9217SOL     OW39109   2.353   1.992   8.645 -0.0796 -0.3252 -0.1761
 9217SOL    HW139110   2.303   1.949   8.576 -2.7008  0.5641  1.1478
 9217SOL    HW239111   2.314   2.080   8.645 -0.8588 -0.6765 -0.5737
 9218SOL     OW39112   3.178   1.310   4.508  0.3310 -0.6206 -0.4485
 9218SOL    HW139113   3.259   1.325   4.459 -0.2825  2.9474 -0.4094
 9218SOL    HW239114   3.174   1.215   4.515 -0.5892 -0.6699 -1.7363
 9219SOL     OW39115   1.451   2.821   1.240  0.2676  0.3086  0.1692
 9219SOL    HW139116   1.452   2.914   1.263 -2.2673  0.5770 -0.8544
 9219SOL    HW239117   1.538   2.814   1.200  1.7583 -0.1565  3.4863
 9220SOL     OW39118   2.611   3.653  14.134  0.2949  0.1646 -0.1429
 9220SOL    HW139119   2.661   3.584  14.180 -0.3953 -0.0841  0.2395
 9220SOL    HW239120   2.653   3.733  14.165  1.9903 -1.2152  1.1210
 9221SOL     OW39121   1.173   3.473   2.834  0.2931 -0.0160  0.0970
 9221SOL    HW139122   1.119   3.509   2.763 -1.8133  1.2487  2.3466
 9221SOL    HW239123   1.178   3.383   2.803 -1.9324 -0.4300  0.9604
 9222SOL     OW39124   3.634   3.514   6.307 -0.3329  0.0003  0.4813
 9222SOL    HW139125   3.682   3.577   6.361 -2.2659 -0.2355  2.4894
 9222SOL    HW239126   3.605   3.561   6.229  0.1510  0.1252  0.3784
 9223SOL     OW39127   2.315   2.321   7.951 -0.3628 -0.2501 -0.5774
 9223SOL    HW139128   2.377   2.284   7.888 -0.6887 -1.3349 -0.2536
 9223SOL    HW239129   2.249   2.362   7.894 -0.2573  2.3152  1.1526
 9224SOL     OW39130   0.892   1.086   7.818 -0.4159 -0.0579 -0.1811
 9224SOL    HW139131   0.837   1.008   7.806 -1.0502  0.2023  1.0916
 9224SOL    HW239132   0.976   1.046   7.841 -0.1448  0.4998 -0.2092
 9225SOL     OW39133   3.588   2.458   1.118  0.5653 -0.0267 -0.3077
 9225SOL    HW139134   3.683   2.461   1.127  0.5157 -0.9245  0.6134
 9225SOL    HW239135   3.564   2.535   1.067 -2.8033  0.8010  2.4448
 9226SOL     OW39136   3.600   3.112   7.993 -0.1705 -0.5243  0.0223
 9226SOL    HW139137   3.544   3.183   7.961 -0.1544 -0.2656  0.5655
 9226SOL    HW239138   3.574   3.049   7.926  3.2515 -0.7511 -1.0901
 9227SOL     OW39139   0.113   0.862   6.334  0.1883 -0.1129  0.2229
 9227SOL    HW139140   0.109   0.956   6.317  2.5434 -0.2800 -1.1435
 9227SOL    HW239141   0.058   0.852   6.412 -1.1224 -0.7886 -0.7891
 9228SOL     OW39142   4.119   3.330   5.687 -0.3839 -0.9212 -0.1820
 9228SOL    HW139143   4.169   3.412   5.682 -1.8646  0.0420  1.0888
 9228SOL    HW239144   4.041   3.351   5.636 -1.5673 -0.1306  1.9793
 9229SOL     OW39145   0.525   0.684   7.831 -0.4492  0.6048 -0.5397
 9229SOL    HW139146   0.496   0.640   7.751 -0.9680 -1.0538  0.5634
 9229SOL    HW239147   0.452   0.695   7.892 -0.4190 -1.6807 -0.1036
 9230SOL     OW39148   0.283   1.057  14.428 -0.4192 -0.0246  0.4556
 9230SOL    HW139149   0.346   1.073  14.498 -0.2933  0.0545  0.3232
 9230SOL    HW239150   0.267   1.144  14.393 -1.3046 -0.1348  0.5812
 9231SOL     OW39151   4.205   1.342  12.546 -0.3779  0.0983  1.1031
 9231SOL    HW139152   4.142   1.395  12.498  2.9802  0.8777 -2.4735
 9231SOL    HW239153   4.177   1.357  12.636 -2.6259  0.3147  0.3691
 9232SOL     OW39154   2.213   2.105   8.412  0.5007  0.3038  0.1128
 9232SOL    HW139155   2.292   2.127   8.364 -0.9056  0.2784 -2.2376
 9232SOL    HW239156   2.166   2.059   8.342 -0.5152  0.1784  0.8772
 9233SOL     OW39157   0.365   2.861   4.074  0.6369  0.2245  0.2665
 9233SOL    HW139158   0.274   2.834   4.079  1.1185 -1.1993  1.1899
 9233SOL    HW239159   0.375   2.923   4.146 -0.7254  0.5438  0.1729
 9234SOL     OW39160   2.080   1.360   8.099  0.7556  0.0927 -0.2437
 9234SOL    HW139161   2.003   1.361   8.042  0.3039  1.7568  0.4035
 9234SOL    HW239162   2.073   1.276   8.144 -2.3637 -0.8310 -2.4368
 9235SOL     OW39163   2.051   2.878  15.267  0.0720 -0.3244 -0.1512
 9235SOL    HW139164   2.048   2.899  15.174 -0.6790  0.6520  0.0932
 9235SOL    HW239165   1.963   2.844  15.280 -0.2587  0.1160 -1.2443
 9236SOL     OW39166   3.853   3.401   8.968 -0.4213  0.5615  0.0387
 9236SOL    HW139167   3.898   3.463   9.025  0.8076 -0.6814  0.4270
 9236SOL    HW239168   3.894   3.317   8.991 -0.8135 -0.1437 -1.8148
 9237SOL     OW39169   2.429   1.784   6.329  0.2913 -0.1565  0.2213
 9237SOL    HW139170   2.456   1.854   6.269  0.6431  0.8041  1.5011
 9237SOL    HW239171   2.334   1.787   6.323  0.4595  1.4128 -1.7468
 9238SOL     OW39172   1.533   0.050   6.496  0.3699  0.0684 -0.0601
 9238SOL    HW139173   1.596   0.069   6.565  0.3690  2.8368 -0.8105
 9238SOL    HW239174   1.462   0.026   6.556  0.5555 -0.3237 -0.0028
 9239SOL     OW39175   3.760   0.532   8.603 -0.5337 -0.3724  1.0566
 9239SOL    HW139176   3.704   0.466   8.643 -0.9830 -0.2761  0.5802
 9239SOL    HW239177   3.846   0.509   8.640  1.2067  3.1719 -0.7684
 9240SOL     OW39178   0.507   4.079  15.488 -0.0540 -0.3320 -0.1176
 9240SOL    HW139179   0.580   4.139  15.471  0.3328 -0.2908  1.7784
 9240SOL    HW239180   0.550   3.995  15.475  2.1834  0.8295 -0.1297
 9241SOL     OW39181   1.266   4.174  12.152 -0.5188  0.1124 -0.3108
 9241SOL    HW139182   1.303   4.151  12.066  1.0946 -0.0057  0.4212
 9241SOL    HW239183   1.194   4.234  12.131 -0.1947  0.5241 -0.2472
 9242SOL     OW39184   0.870   0.586   2.306  0.0760 -0.4831 -0.2630
 9242SOL    HW139185   0.958   0.559   2.282  1.1259  3.0096 -0.2261
 9242SOL    HW239186   0.870   0.680   2.325 -1.2540 -0.2339 -1.4802
 9243SOL     OW39187   2.007   4.167   3.550 -0.4950 -0.0793 -0.1923
 9243SOL    HW139188   2.027   4.086   3.503 -0.1035 -0.9161  1.4059
 9243SOL    HW239189   2.090   4.214   3.553 -0.2798 -0.4970  0.5226
 9244SOL     OW39190   0.551   3.427   3.087  0.4174  0.1108  0.0245
 9244SOL    HW139191   0.534   3.516   3.118  1.0377  0.5064 -0.7582
 9244SOL    HW239192   0.627   3.437   3.028  0.2480  3.4484  0.4116
 9245SOL     OW39193   2.844   3.735   4.638 -0.4983  0.5768 -0.2490
 9245SOL    HW139194   2.798   3.793   4.578  0.1253  0.4186 -0.8740
 9245SOL    HW239195   2.879   3.672   4.575 -0.5518  0.0708  0.2255
 9246SOL     OW39196   3.723   3.796   3.417 -0.3957  0.1749  0.0063
 9246SOL    HW139197   3.687   3.852   3.347  0.3534  0.0235 -0.4981
 9246SOL    HW239198   3.809   3.831   3.442 -1.1447  2.2567 -0.2553
 9247SOL     OW39199   1.170   2.062  14.438 -0.4556  0.2084 -0.3383
 9247SOL    HW139200   1.191   1.977  14.476 -1.2769 -1.5059 -3.7018
 9247SOL    HW239201   1.121   2.027  14.363 -0.8462 -0.0821  0.0559
 9248SOL     OW39202   3.107   3.178   0.019 -0.5696 -0.0575 -0.3810
 9248SOL    HW139203   3.155   3.103  17.696  0.8045  0.6091  0.0574
 9248SOL    HW239204   3.132   3.169   0.111  1.9412  0.3005 -1.0286
 9249SOL     OW39205   4.442   1.418  12.415  0.0504 -0.1139  0.0773
 9249SOL    HW139206   4.424   1.366  12.336  1.3679  0.3702 -0.5409
 9249SOL    HW239207   4.369   1.400  12.474 -1.3666 -0.9175 -1.9254
 9250SOL     OW39208   2.891   1.410   8.233 -0.0703 -0.3252  0.5935
 9250SOL    HW139209   2.880   1.325   8.192  1.2880 -0.6911  0.9665
 9250SOL    HW239210   2.983   1.424   8.208 -0.3109 -1.6773 -1.0318
 9251SOL     OW39211   2.839   3.657   2.213 -0.0635 -0.0553  0.2111
 9251SOL    HW139212   2.827   3.631   2.121 -0.7822  3.7977 -0.8173
 9251SOL    HW239213   2.923   3.699   2.196  0.3022 -1.0058 -0.3038
 9252SOL     OW39214   2.424   4.504  14.202 -0.5350  0.6887 -0.2510
 9252SOL    HW139215   2.406   4.596  14.183 -0.7925  0.2048 -2.3329
 9252SOL    HW239216   2.477   4.500  14.282 -0.0695 -0.5801 -0.6195
 9253SOL     OW39217   0.079   3.207  14.438  0.4033  0.4608  0.1770
 9253SOL    HW139218   0.009   3.183  14.377 -0.3859  0.1561  1.2123
 9253SOL    HW239219   0.162   3.197  14.390  1.0874  1.4483  1.1602
 9254SOL     OW39220   2.170   3.115   9.577  0.2713 -0.2396  0.4472
 9254SOL    HW139221   2.130   3.033   9.546 -0.9041  0.2978  0.5633
 9254SOL    HW239222   2.094   3.167   9.551  0.7957  0.1922 -0.2030
 9255SOL     OW39223   1.654   2.982   8.829 -0.6438 -0.0031  0.6434
 9255SOL    HW139224   1.624   3.063   8.871  1.4133  1.7373 -1.2578
 9255SOL    HW239225   1.651   2.922   8.904  1.5309 -0.5882  0.2753
 9256SOL     OW39226   0.343   3.728   5.142 -0.1144 -0.2205 -0.1021
 9256SOL    HW139227   0.274   3.712   5.206 -0.2053 -2.5599 -0.7697
 9256SOL    HW239228   0.385   3.642   5.149  1.6008  0.5712 -0.7458
 9257SOL     OW39229   2.988   1.817   3.977  0.1288 -0.7495  0.0522
 9257SOL    HW139230   2.940   1.898   3.958 -0.5092 -1.6919 -2.3166
 9257SOL    HW239231   2.931   1.756   3.931  0.0936  0.9997 -2.2338
 9258SOL     OW39232   0.675   1.681   3.986 -0.2408  0.2961  0.2821
 9258SOL    HW139233   0.633   1.599   3.958 -0.2128 -0.0489  1.2820
 9258SOL    HW239234   0.757   1.640   4.013  1.0309  2.1376 -0.7959
 9259SOL     OW39235   2.146   2.856   3.420  0.0521  0.7820 -0.6840
 9259SOL    HW139236   2.056   2.831   3.401  0.1726  2.0267 -2.9234
 9259SOL    HW239237   2.150   2.934   3.364 -0.7882  0.4210 -1.2474
 9260SOL     OW39238   2.343   2.651  12.862  0.4780 -0.3775 -0.6293
 9260SOL    HW139239   2.417   2.593  12.846  0.3154 -0.4134 -1.2546
 9260SOL    HW239240   2.383   2.725  12.907  0.7821 -0.5008 -0.6921
 9261SOL     OW39241   4.348   2.949   5.024  0.0823  0.4431 -0.4220
 9261SOL    HW139242   4.380   2.910   5.105 -3.0452  1.3861  1.2725
 9261SOL    HW239243   4.417   2.916   4.966  0.0576  2.8626 -1.8651
 9262SOL     OW39244   2.020   2.390   9.277 -0.1087  0.7642 -0.2399
 9262SOL    HW139245   1.943   2.337   9.295  1.9160 -1.8815  0.7412
 9262SOL    HW239246   2.080   2.330   9.233  0.8189  1.0043  0.6906
 9263SOL     OW39247   2.417   3.504   3.004 -0.3402  0.7892  0.0662
 9263SOL    HW139248   2.511   3.486   3.012 -0.5606 -1.1399 -1.6276
 9263SOL    HW239249   2.407   3.571   3.071  0.8860  0.6204  0.4134
 9264SOL     OW39250   3.566   2.605   9.912  1.1284 -0.0450  0.1502
 9264SOL    HW139251   3.588   2.689   9.952  1.5420  1.1699 -2.6604
 9264SOL    HW239252   3.642   2.600   9.856 -0.7353  0.2135 -2.3878
 9265SOL     OW39253   2.882   0.199   4.845  0.0894 -0.5391 -0.0792
 9265SOL    HW139254   2.833   0.132   4.893  2.2541 -2.1999 -0.1603
 9265SOL    HW239255   2.969   0.159   4.835 -0.9833 -2.4187 -1.8642
 9266SOL     OW39256   0.633   0.717   3.668  0.7972 -0.1946 -0.1890
 9266SOL    HW139257   0.587   0.634   3.654  1.1535 -0.6303  1.1370
 9266SOL    HW239258   0.702   0.717   3.602  0.9472  0.4292 -0.0309
 9267SOL     OW39259   2.332   1.035   7.407 -0.5778 -0.5732  0.1896
 9267SOL    HW139260   2.375   1.021   7.322 -2.3169 -0.9831 -0.6268
 9267SOL    HW239261   2.239   1.020   7.386 -1.0628  1.1174  1.1868
 9268SOL     OW39262   0.913   0.362   1.044  0.1258  0.4093  0.3012
 9268SOL    HW139263   0.842   0.359   1.108 -1.1857 -0.8788 -1.2294
 9268SOL    HW239264   0.873   0.387   0.961 -0.5794  1.8959  1.0968
 9269SOL     OW39265   2.984   2.391   7.292 -0.4951 -0.5020  0.4151
 9269SOL    HW139266   3.022   2.321   7.344  0.8362  0.2195  0.4102
 9269SOL    HW239267   2.896   2.400   7.328 -0.3267  0.6151  0.5572
 9270SOL     OW39268   2.296   3.146   9.132  0.0640  0.5302  0.3507
 9270SOL    HW139269   2.302   3.062   9.177 -0.0422 -0.6392 -1.8448
 9270SOL    HW239270   2.315   3.115   9.043 -2.9875 -0.8263  0.1706
 9271SOL     OW39271   4.338   3.440   2.450  0.3631 -0.0621 -0.1127
 9271SOL    HW139272   4.364   3.507   2.513 -0.0985 -1.7815  1.8839
 9271SOL    HW239273   4.243   3.450   2.454  0.3950  0.2025  0.0116
 9272SOL     OW39274   3.850   3.103  16.581 -0.2172  0.0462 -0.0383
 9272SOL    HW139275   3.907   3.180  16.591  0.0258 -0.4226  2.2840
 9272SOL    HW239276   3.774   3.121  16.636  0.8360 -0.3311  1.5703
 9273SOL     OW39277   0.118   1.889   3.406 -0.1898  0.8493 -0.2030
 9273SOL    HW139278   0.036   1.841   3.408  1.7469 -2.6092 -3.6356
 9273SOL    HW239279   0.098   1.957   3.470  0.5323  0.4339  0.4647
 9274SOL     OW39280   0.913   1.376   0.577 -0.4664  0.0889  0.5060
 9274SOL    HW139281   0.964   1.339   0.505 -2.4134 -2.7226  0.5597
 9274SOL    HW239282   0.941   1.466   0.593 -0.9498  0.2058  0.6861
 9275SOL     OW39283   2.715   4.520   8.035  0.8419  0.0925 -0.5038
 9275SOL    HW139284   2.753   4.601   8.001  1.0863  0.0852 -0.2481
 9275SOL    HW239285   2.648   4.502   7.969  1.2686 -0.5322 -0.7680
 9276SOL     OW39286   1.853   1.051   3.664  0.0352 -0.0350  0.3143
 9276SOL    HW139287   1.939   1.093   3.664 -0.3454  0.7468  0.0814
 9276SOL    HW239288   1.807   1.108   3.602  1.5270  2.5700  1.5898
 9277SOL     OW39289   3.676   3.358   8.753 -0.4369  0.1919 -0.2374
 9277SOL    HW139290   3.705   3.432   8.700  1.7873 -1.1456 -0.8754
 9277SOL    HW239291   3.725   3.363   8.835 -1.1521 -0.0046  0.2094
 9278SOL     OW39292   3.781   1.546  16.821 -0.5238 -0.2295  0.2767
 9278SOL    HW139293   3.794   1.466  16.870 -0.5995 -0.4866 -0.1207
 9278SOL    HW239294   3.855   1.597  16.855 -1.2877  2.4149 -1.9283
 9279SOL     OW39295   1.794   2.484   5.024  0.3474  0.3862  0.0992
 9279SOL    HW139296   1.702   2.510   5.032  1.2091  2.7566  2.1837
 9279SOL    HW239297   1.820   2.512   4.936  0.3733 -1.8192 -0.5815
 9280SOL     OW39298   2.137   3.589   5.948  0.2242  0.0071 -0.7603
 9280SOL    HW139299   2.212   3.633   5.989 -0.3311 -0.9855  1.3155
 9280SOL    HW239300   2.164   3.583   5.856  2.1805 -0.5792 -0.1523
 9281SOL     OW39301   1.463   3.429   6.614  0.1782  0.1716  0.3492
 9281SOL    HW139302   1.503   3.363   6.557  0.8931  0.3753  0.6171
 9281SOL    HW239303   1.379   3.448   6.572  0.2375  0.6591  0.4572
 9282SOL     OW39304   3.996   3.088   7.551  0.4965 -0.1532 -0.3786
 9282SOL    HW139305   3.932   3.156   7.531 -0.7397 -1.5113 -1.0249
 9282SOL    HW239306   3.949   3.042   7.621  0.8547  0.4575  0.2615
 9283SOL     OW39307   4.336   0.555   2.721  0.0918 -0.1129  0.1747
 9283SOL    HW139308   4.334   0.462   2.746 -0.9273 -0.3679 -0.8772
 9283SOL    HW239309   4.252   0.586   2.753 -0.9885 -2.5433 -0.3323
 9284SOL     OW39310   4.286   3.348   2.029 -0.7668 -0.4483 -0.1891
 9284SOL    HW139311   4.365   3.399   2.010 -0.5307 -1.9695 -3.2632
 9284SOL    HW239312   4.223   3.417   2.009  0.3396  0.3670 -0.9407
 9285SOL     OW39313   1.956   3.483   9.233 -0.1156 -0.1312  0.0770
 9285SOL    HW139314   2.041   3.517   9.202  0.3216 -1.6720 -0.4174
 9285SOL    HW239315   1.956   3.390   9.209  2.0232  0.4915 -2.4808
 9286SOL     OW39316   3.127   2.938   8.950  0.5035  0.0126 -0.4322
 9286SOL    HW139317   3.039   2.964   8.978  0.9027 -0.8410  1.6361
 9286SOL    HW239318   3.136   3.002   8.879  0.1758 -0.0541 -0.5348
 9287SOL     OW39319   3.715   3.415  16.573 -0.5455  0.0821  0.5473
 9287SOL    HW139320   3.740   3.415  16.481  1.5236 -0.6353  1.1168
 9287SOL    HW239321   3.699   3.507  16.591  1.8889  0.3512  1.3655
 9288SOL     OW39322   3.796   0.527   2.174  0.7004  0.2404 -0.3131
 9288SOL    HW139323   3.781   0.446   2.125  1.7931  1.1123 -2.1189
 9288SOL    HW239324   3.772   0.510   2.265  0.2178  0.4058 -0.4093
 9289SOL     OW39325   2.458   0.273   8.128 -0.1565  0.2656 -0.4171
 9289SOL    HW139326   2.463   0.366   8.151  1.9686  0.2943 -0.9897
 9289SOL    HW239327   2.443   0.279   8.034 -4.2701 -0.0832  0.2053
 9290SOL     OW39328   3.841   3.338   5.628 -0.3314  0.7868 -0.0953
 9290SOL    HW139329   3.788   3.396   5.683  1.0432  0.6310  1.4245
 9290SOL    HW239330   3.826   3.250   5.663 -1.0526  0.4398 -1.2775
 9291SOL     OW39331   2.410   1.673   4.880 -0.8219 -0.1113  0.2398
 9291SOL    HW139332   2.497   1.645   4.908 -1.1375  0.2197  1.5516
 9291SOL    HW239333   2.408   1.766   4.902 -2.6188 -0.3586  1.1276
 9292SOL     OW39334   4.311   3.950  17.677  0.0936  0.7559 -0.3687
 9292SOL    HW139335   4.400   3.971  17.648  0.9752 -2.0270  0.3038
 9292SOL    HW239336   4.276   4.033  17.709  1.5693  1.2155  0.0205
 9293SOL     OW39337   3.035   2.936   7.422  0.2090 -0.3207  0.0150
 9293SOL    HW139338   3.092   2.887   7.361  1.7389  0.4704  0.8122
 9293SOL    HW239339   2.978   2.971   7.354  1.3573 -0.4746 -1.0320
 9294SOL     OW39340   4.257   1.410   8.542 -0.0923 -0.0029  0.1176
 9294SOL    HW139341   4.205   1.440   8.617 -1.1314 -0.8178 -0.2775
 9294SOL    HW239342   4.276   1.326   8.583 -2.2216  0.3822  1.8744
 9295SOL     OW39343   1.424   4.685   6.152  0.1837  0.2550  0.0661
 9295SOL    HW139344   1.345   4.644   6.118 -0.3774  2.3270 -1.1286
 9295SOL    HW239345   1.440   4.631   6.230  2.1384 -0.3342 -0.7518
 9296SOL     OW39346   3.980   3.699   0.523 -0.7170  0.2831 -0.2420
 9296SOL    HW139347   4.007   3.719   0.433 -2.4562  1.0142 -0.5949
 9296SOL    HW239348   3.942   3.778   0.562 -1.6730 -1.1722  1.7450
 9297SOL     OW39349   4.493   3.024  16.988  0.0249  0.2009  0.2163
 9297SOL    HW139350   4.497   2.928  16.984 -0.7205  0.1628  0.4305
 9297SOL    HW239351   4.407   3.038  16.948 -0.2141  0.9967  1.0261
 9298SOL     OW39352   1.119   1.260   8.094  0.2834  0.1587  0.5327
 9298SOL    HW139353   1.028   1.279   8.118 -0.0490 -0.8703  0.0609
 9298SOL    HW239354   1.126   1.304   8.009 -1.0657  0.9118  0.8054
 9299SOL     OW39355   0.427   0.654   1.817 -0.0544  0.2743  0.0106
 9299SOL    HW139356   0.359   0.721   1.830  1.3196  1.2049  2.5065
 9299SOL    HW239357   0.495   0.709   1.856  0.5485 -1.2548  1.1258
 9300SOL     OW39358   2.657   3.462   3.096  0.0327  0.3878 -0.7022
 9300SOL    HW139359   2.735   3.507   3.063 -1.0909  1.8963 -1.3022
 9300SOL    HW239360   2.667   3.482   3.189 -2.3823  0.7759 -0.5263
 9301SOL     OW39361   2.536   1.299   8.060  0.1099 -0.0367  0.2391
 9301SOL    HW139362   2.548   1.217   8.013  0.9187  0.4623 -0.4256
 9301SOL    HW239363   2.570   1.369   8.003  1.0316 -0.6365  0.0556
 9302SOL     OW39364   2.400   4.216  15.587  0.0884  0.2959 -0.9791
 9302SOL    HW139365   2.383   4.131  15.626  0.7039  0.3987 -0.4901
 9302SOL    HW239366   2.447   4.257  15.660  0.2438 -2.2161  0.3004
 9303SOL     OW39367   2.496   4.128   7.057 -0.2713 -0.7901  0.5049
 9303SOL    HW139368   2.495   4.217   7.022 -2.7277 -0.6003  1.0393
 9303SOL    HW239369   2.514   4.072   6.982  0.6061  1.4861 -0.9629
 9304SOL     OW39370   2.957   0.620   3.681 -0.1240 -0.2057  0.4631
 9304SOL    HW139371   2.897   0.678   3.635  2.2245  1.1807 -0.8670
 9304SOL    HW239372   3.020   0.615   3.608  0.6842 -2.2053  1.3028
 9305SOL     OW39373   2.078   1.336   4.383 -0.1441  0.1575  0.6736
 9305SOL    HW139374   2.160   1.366   4.422  0.1103  0.8075 -0.3680
 9305SOL    HW239375   2.107   1.334   4.291 -2.2412 -1.8282  0.0556
 9306SOL     OW39376   3.371   1.662   1.898  0.3114 -0.0811  0.8002
 9306SOL    HW139377   3.303   1.700   1.842  0.0649  1.7569  2.3720
 9306SOL    HW239378   3.345   1.574   1.925 -1.1476  0.2041  0.2745
 9307SOL     OW39379   4.660   2.837   6.274  0.0097 -0.3664  0.5195
 9307SOL    HW139380   4.641   2.919   6.227  1.3037  0.7028  1.8426
 9307SOL    HW239381   0.011   2.866   6.320  0.4014 -2.1260  0.9495
 9308SOL     OW39382   3.018   0.350   3.744  0.4129 -0.2192  0.5356
 9308SOL    HW139383   3.037   0.399   3.824  0.5268 -1.9814  1.5951
 9308SOL    HW239384   2.961   0.411   3.697  0.6430  1.0000  1.8391
 9309SOL     OW39385   1.779   1.328   7.536 -0.3826 -0.3506  0.4580
 9309SOL    HW139386   1.826   1.267   7.594 -0.1011  1.2204  1.8662
 9309SOL    HW239387   1.697   1.287   7.562 -0.7017  0.6971  1.0920
 9310SOL     OW39388   2.844   4.014   2.358  0.3127 -0.3169  0.3067
 9310SOL    HW139389   2.939   4.003   2.351  0.0695 -2.2632  0.1945
 9310SOL    HW239390   2.827   4.059   2.276  2.0716 -0.3604 -0.0855
 9311SOL     OW39391   2.607   0.026   6.013  0.2533 -0.3170 -0.6437
 9311SOL    HW139392   2.696   0.039   6.046  1.2678 -1.9052 -2.7470
 9311SOL    HW239393   2.618   4.673   5.964  2.6117 -0.0015 -0.6392
 9312SOL     OW39394   1.376   3.492   7.854 -0.6300 -0.1165  0.3502
 9312SOL    HW139395   1.353   3.567   7.909  1.1953  1.4873 -1.0513
 9312SOL    HW239396   1.296   3.443   7.869 -0.9572  0.4720  0.5212
 9313SOL     OW39397   1.509   0.717  17.670  0.6478  0.0496 -0.5322
 9313SOL    HW139398   1.603   0.697  17.680  0.1429 -2.1749 -0.1669
 9313SOL    HW239399   1.500   0.700  17.576  0.1764 -1.1328 -0.2814
 9314SOL     OW39400   3.916   1.695   4.429  0.3861  0.4023  0.2772
 9314SOL    HW139401   3.990   1.661   4.379  0.2479  3.3536 -1.9701
 9314SOL    HW239402   3.941   1.685   4.521 -0.1552  1.9286  0.5891
 9315SOL     OW39403   1.843   4.088   5.796  0.2302 -0.8303  0.0020
 9315SOL    HW139404   1.761   4.043   5.813  0.2724 -1.7081 -2.1410
 9315SOL    HW239405   1.810   4.178   5.799  0.7036 -0.6140 -1.6550
 9316SOL     OW39406   2.876   2.883   3.628 -0.8547  0.2451 -0.3098
 9316SOL    HW139407   2.877   2.787   3.634  0.3918  0.3662  1.2800
 9316SOL    HW239408   2.863   2.889   3.533 -0.4108  0.2448 -0.3712
 9317SOL     OW39409   4.069   2.292   8.947 -0.1001  0.5606  0.0618
 9317SOL    HW139410   4.135   2.359   8.967 -0.4831  0.3697  1.9824
 9317SOL    HW239411   4.006   2.338   9.003  1.4675  0.0857  2.2367
 9318SOL     OW39412   3.522   3.801   2.129 -0.3891  0.5112  0.1967
 9318SOL    HW139413   3.552   3.711   2.116 -1.6223  0.3086 -1.3172
 9318SOL    HW239414   3.452   3.813   2.065 -1.5700 -0.1854  1.3493
 9319SOL     OW39415   0.104   3.782  12.631  0.1408  0.0298 -0.1539
 9319SOL    HW139416   0.191   3.777  12.592 -0.0273 -0.4781 -0.4799
 9319SOL    HW239417   0.073   3.868  12.605  1.1041  0.5234  0.3540
 9320SOL     OW39418   1.578   0.946   3.101 -0.1447  0.3649  0.1414
 9320SOL    HW139419   1.530   0.864   3.088  1.8045 -0.5222 -1.3602
 9320SOL    HW239420   1.643   0.932   3.032  0.4711  0.7179  0.6527
 9321SOL     OW39421   2.633   2.882   2.717 -0.5020  0.1568 -0.3979
 9321SOL    HW139422   2.549   2.898   2.762  0.1248 -0.3312  0.9644
 9321SOL    HW239423   2.687   2.830   2.777 -1.7335 -1.0185 -0.2945
 9322SOL     OW39424   3.984   1.448  11.676 -0.1836  0.0249  0.1852
 9322SOL    HW139425   4.020   1.370  11.719  1.1828  0.1945 -0.6445
 9322SOL    HW239426   4.035   1.455  11.595 -1.3399 -2.6613 -0.7712
 9323SOL     OW39427   1.170   4.487   9.292  0.2142  0.3155 -0.3591
 9323SOL    HW139428   1.203   4.570   9.257 -1.2011  1.3156  0.6967
 9323SOL    HW239429   1.106   4.521   9.354  0.3836 -1.1702  0.6167
 9324SOL     OW39430   2.393   3.443   2.629  0.8244  0.6326  0.3672
 9324SOL    HW139431   2.383   3.365   2.684 -1.5696  1.4084  1.0258
 9324SOL    HW239432   2.481   3.472   2.651  1.2513  0.1625 -0.7348
 9325SOL     OW39433   3.847   0.064   8.583 -0.0961  0.4764 -0.4510
 9325SOL    HW139434   3.888   0.124   8.646  1.8849 -2.0968  0.7181
 9325SOL    HW239435   3.870   0.108   8.502  2.1838  1.5708  0.7913
 9326SOL     OW39436   4.360   1.083  10.867 -0.5826 -0.2723 -0.3471
 9326SOL    HW139437   4.334   1.174  10.880  0.7405  0.2131 -1.0592
 9326SOL    HW239438   4.455   1.090  10.868 -0.5799 -0.7400  2.5323
 9327SOL     OW39439   4.460   0.262   6.944  0.7067 -0.8961 -0.4407
 9327SOL    HW139440   4.391   0.275   6.879  0.9187 -1.1442 -0.7150
 9327SOL    HW239441   4.531   0.317   6.911 -0.9422  0.6886 -1.4003
 9328SOL     OW39442   1.088   3.680  10.884  0.3734 -0.0535 -0.0795
 9328SOL    HW139443   1.156   3.621  10.916  0.4520  0.2612  0.3381
 9328SOL    HW239444   1.037   3.618  10.831  1.5754 -0.1207 -1.1618
 9329SOL     OW39445   0.623   2.923   1.742  0.1879  0.2817 -0.3054
 9329SOL    HW139446   0.670   2.872   1.676 -0.2359  1.6769 -1.7079
 9329SOL    HW239447   0.556   2.962   1.685  0.3154  1.3187  0.2475
 9330SOL     OW39448   3.916   4.288  12.041 -0.3832 -0.3655  0.4316
 9330SOL    HW139449   3.988   4.324  11.990 -0.4008 -1.3213 -0.2667
 9330SOL    HW239450   3.864   4.368  12.038  0.9339  0.5148  0.9848
 9331SOL     OW39451   1.055   1.786   6.842 -0.3217  0.1055 -0.3191
 9331SOL    HW139452   0.961   1.769   6.846  0.0068 -1.0450  2.5658
 9331SOL    HW239453   1.060   1.852   6.773  1.0465  1.0608  0.6818
 9332SOL     OW39454   4.432   2.136  10.463 -0.0587 -0.1018  0.2113
 9332SOL    HW139455   4.519   2.148  10.501 -0.3134 -0.3565  0.8815
 9332SOL    HW239456   4.414   2.218  10.417 -0.7405 -1.1685 -1.4233
 9333SOL     OW39457   0.016   4.257   7.125 -0.4952  0.0497 -0.2854
 9333SOL    HW139458   0.112   4.261   7.129 -0.5863 -0.2971  2.3814
 9333SOL    HW239459   0.001   4.290   7.037 -2.4127  0.3764  0.1724
 9334SOL     OW39460   4.537   4.573   8.831 -0.4149  0.1912 -0.7777
 9334SOL    HW139461   4.505   4.494   8.874  2.1663 -0.0683  0.7117
 9334SOL    HW239462   4.580   4.524   8.760  2.0120 -0.9367  1.4634
 9335SOL     OW39463   1.658   4.513  15.113  0.7656  0.2321 -0.3161
 9335SOL    HW139464   1.645   4.494  15.206  3.7876 -2.0581 -0.3634
 9335SOL    HW239465   1.751   4.500  15.099  0.6161  0.8809 -1.9032
 9336SOL     OW39466   2.187   4.524   4.596 -0.0013  0.0782  0.3415
 9336SOL    HW139467   2.137   4.454   4.638 -1.6194  0.4203 -1.0042
 9336SOL    HW239468   2.150   4.595   4.649 -0.1989  0.0688  0.2164
 9337SOL     OW39469   4.504   1.656   3.508  0.4366 -0.1726  0.2618
 9337SOL    HW139470   4.501   1.571   3.552 -1.9217 -0.8192 -1.1943
 9337SOL    HW239471   4.412   1.680   3.521  1.0771  2.9878 -0.8557
 9338SOL     OW39472   2.187   2.066  16.732 -0.4623 -0.5836  0.5351
 9338SOL    HW139473   2.105   2.091  16.774  0.5564 -1.5318  3.1600
 9338SOL    HW239474   2.223   2.140  16.683 -0.1996  0.2054  1.8910
 9339SOL     OW39475   0.055   4.276   8.490 -0.0050 -0.0788 -0.2773
 9339SOL    HW139476   0.089   4.192   8.520 -0.4285 -0.5309 -1.0862
 9339SOL    HW239477   0.037   4.256   8.399 -1.4998  0.1640 -0.0414
 9340SOL     OW39478   3.061   3.019  15.562  0.1319  0.3618  0.7522
 9340SOL    HW139479   3.092   3.108  15.582  0.6009  0.3436  0.1117
 9340SOL    HW239480   3.127   2.987  15.501 -1.2400 -0.1667 -0.4389
 9341SOL     OW39481   1.132   1.309   3.014 -0.4964 -0.0518 -0.8804
 9341SOL    HW139482   1.144   1.295   3.108 -1.5694  1.5258 -0.5048
 9341SOL    HW239483   1.192   1.238   2.991  1.6107  1.8047 -1.0599
 9342SOL     OW39484   3.335   1.367  16.768 -0.1838  0.2754  0.3656
 9342SOL    HW139485   3.310   1.290  16.718  0.5685  0.4605 -0.2908
 9342SOL    HW239486   3.422   1.401  16.747  1.0060 -2.7992  0.3704
 9343SOL     OW39487   4.695   3.711  15.358  0.3264 -0.1556  0.0146
 9343SOL    HW139488   4.636   3.696  15.432  0.0933  0.4053 -0.0547
 9343SOL    HW239489   4.647   3.778  15.309 -0.6571 -0.3991  0.6407
 9344SOL     OW39490   3.282   1.826   4.945 -0.1383 -0.5557 -0.1796
 9344SOL    HW139491   3.274   1.796   5.036  1.4182  0.2714  0.2356
 9344SOL    HW239492   3.277   1.744   4.896 -0.1096  0.2496 -1.5115
 9345SOL     OW39493   4.196   0.247   6.337  0.5531  0.1616  0.7991
 9345SOL    HW139494   4.160   0.187   6.271  1.7122  0.4306 -0.0949
 9345SOL    HW239495   4.227   0.323   6.287  0.0011 -0.5003 -0.5587
 9346SOL     OW39496   3.269   2.007   8.827 -0.0387 -0.2133  0.1889
 9346SOL    HW139497   3.197   1.998   8.765 -1.0658 -0.4811  1.4077
 9346SOL    HW239498   3.228   2.053   8.900  0.3448 -0.1684  0.3764
 9347SOL     OW39499   2.266   2.228   5.635 -0.5522 -0.3471 -0.2509
 9347SOL    HW139500   2.335   2.169   5.606  0.5714  0.8798 -0.0564
 9347SOL    HW239501   2.199   2.168   5.667  0.1702 -0.6316  0.7048
 9348SOL     OW39502   1.799   3.259   2.033  0.3091 -0.6177 -0.5142
 9348SOL    HW139503   1.867   3.320   2.062 -1.0597  1.2788 -1.3475
 9348SOL    HW239504   1.787   3.282   1.941  0.0106 -0.9075 -0.5479
 9349SOL     OW39505   4.497   1.149   4.328  0.0133  0.5206  0.0796
 9349SOL    HW139506   4.448   1.205   4.267  0.4188  0.2223 -0.5229
 9349SOL    HW239507   4.486   1.191   4.413  0.6698  0.4412  0.2005
 9350SOL     OW39508   3.547   3.809  16.216  0.1695 -0.0510 -0.5464
 9350SOL    HW139509   3.579   3.876  16.277  0.3047 -1.6490  1.1264
 9350SOL    HW239510   3.476   3.849  16.166 -0.9170 -0.1158  0.9573
 9351SOL     OW39511   2.493   4.048   5.112  0.4091  0.1819  0.5238
 9351SOL    HW139512   2.512   3.955   5.122  0.6317  0.0326 -1.2247
 9351SOL    HW239513   2.582   4.084   5.118  1.2742 -2.1106  1.6093
 9352SOL     OW39514   3.611   2.609   0.688 -0.4961  0.2927  0.7942
 9352SOL    HW139515   3.543   2.674   0.702 -0.9955  0.1561 -1.0024
 9352SOL    HW239516   3.562   2.526   0.680  3.6117 -2.1321  0.7836
 9353SOL     OW39517   0.776   2.238   8.656 -0.0896 -0.2161 -0.3866
 9353SOL    HW139518   0.706   2.175   8.641 -0.3368 -0.2973  1.1516
 9353SOL    HW239519   0.785   2.232   8.751 -2.4184  0.3018 -0.1423
 9354SOL     OW39520   2.284   1.532  15.482  0.2237 -0.2102  0.4655
 9354SOL    HW139521   2.308   1.550  15.391 -0.0705  0.8219  0.6015
 9354SOL    HW239522   2.250   1.617  15.508 -0.4617 -0.9349  1.9190
 9355SOL     OW39523   1.564   2.657   3.418 -0.2507 -0.2780 -0.3620
 9355SOL    HW139524   1.637   2.718   3.411  0.6038 -1.2501  0.2207
 9355SOL    HW239525   1.498   2.713   3.376 -0.6932 -1.5348 -1.3422
 9356SOL     OW39526   0.256   4.471  16.525 -0.0360 -0.3903 -0.4490
 9356SOL    HW139527   0.193   4.456  16.596 -1.2527 -0.8444 -1.6091
 9356SOL    HW239528   0.291   4.384  16.509 -0.2175 -0.8978  1.9516
 9357SOL     OW39529   3.840   3.271   1.213  0.2541 -0.4776  0.5868
 9357SOL    HW139530   3.849   3.249   1.120  0.9148  1.4785  0.1771
 9357SOL    HW239531   3.823   3.184   1.249 -4.0996  0.3983  0.6624
 9358SOL     OW39532   0.951   4.338   8.659 -0.5406  0.4691 -0.2194
 9358SOL    HW139533   0.907   4.270   8.710 -4.2698  1.5140 -2.0267
 9358SOL    HW239534   1.030   4.290   8.635  1.0309  3.7835 -1.6505
 9359SOL     OW39535   2.728   3.908   4.447  0.1379  0.3682 -0.1527
 9359SOL    HW139536   2.704   3.881   4.358 -0.5685  1.0735 -0.1750
 9359SOL    HW239537   2.774   3.990   4.431 -2.2011  1.5301 -0.9528
 9360SOL     OW39538   0.359   4.619   0.089  0.6498  0.0683 -0.2578
 9360SOL    HW139539   0.385   4.544   0.143 -1.0592  0.9883  1.8452
 9360SOL    HW239540   0.282   4.589   0.042  0.5174 -1.4428  0.9246
 9361SOL     OW39541   4.078   0.456   7.144 -0.0865 -0.0708 -0.5369
 9361SOL    HW139542   4.059   0.520   7.076  0.9727  1.3127  0.4745
 9361SOL    HW239543   4.071   0.514   7.220  1.1600 -1.8682  0.9713
 9362SOL     OW39544   4.226   0.807  13.460 -0.0707  0.3052 -0.5957
 9362SOL    HW139545   4.173   0.752  13.519 -0.3275  0.7367 -0.4275
 9362SOL    HW239546   4.160   0.824  13.392 -0.6897  1.1938  0.2309
 9363SOL     OW39547   1.046   2.769  11.114 -0.2598  0.0385  0.1258
 9363SOL    HW139548   1.100   2.730  11.182 -0.4371 -0.8790 -0.2529
 9363SOL    HW239549   0.979   2.825  11.153 -1.6486 -1.1640 -0.4992
 9364SOL     OW39550   2.621   3.085   6.279 -0.5475 -0.0369  0.2889
 9364SOL    HW139551   2.571   3.155   6.238 -2.5793 -1.5191  0.2273
 9364SOL    HW239552   2.669   3.136   6.344 -0.6232 -1.3574  1.3842
 9365SOL     OW39553   1.210   1.157  10.637  0.3167  0.8031 -0.4601
 9365SOL    HW139554   1.151   1.102  10.585  1.7631 -1.3179  0.1544
 9365SOL    HW239555   1.290   1.104  10.637  0.0482  0.3983  0.6268
 9366SOL     OW39556   4.246   2.679   8.498 -0.1781  0.5110  0.2602
 9366SOL    HW139557   4.306   2.728   8.441 -0.2325  0.5310  0.2201
 9366SOL    HW239558   4.227   2.601   8.445  0.0425  0.6162  0.0260
 9367SOL     OW39559   0.451   2.807   9.379  0.0835 -0.4013  0.0885
 9367SOL    HW139560   0.398   2.739   9.336  0.2131  0.3498 -1.2569
 9367SOL    HW239561   0.389   2.816   9.452  0.3653  0.6278  0.1941
 9368SOL     OW39562   3.145   0.783   3.977  0.0977 -0.0232 -0.6449
 9368SOL    HW139563   3.186   0.860   3.938  0.4997 -0.1323 -0.4340
 9368SOL    HW239564   3.182   0.712   3.924 -1.4634 -1.2197 -0.1075
 9369SOL     OW39565   2.649   1.058   6.440  0.1334  0.1399  0.3649
 9369SOL    HW139566   2.600   1.140   6.428  0.0586  0.4985  3.1034
 9369SOL    HW239567   2.725   1.106   6.473  1.6356 -1.6419 -0.5604
 9370SOL     OW39568   2.160   0.243   7.453  0.5351  0.3075 -0.4104
 9370SOL    HW139569   2.184   0.208   7.367 -0.9558  1.8037 -1.4163
 9370SOL    HW239570   2.083   0.292   7.424  1.2871  0.6168 -1.8797
 9371SOL     OW39571   1.010   1.998   3.856  0.0384 -0.0940 -0.3257
 9371SOL    HW139572   0.918   1.988   3.833 -0.3843 -1.3282  1.9273
 9371SOL    HW239573   1.002   2.079   3.906  0.7341  0.0039 -0.3657
 9372SOL     OW39574   2.845   1.619   7.079  0.2605 -0.1186 -0.2104
 9372SOL    HW139575   2.874   1.640   7.168  3.1689 -2.9181 -0.4620
 9372SOL    HW239576   2.813   1.702   7.044  2.0461  1.0299  0.9118
 9373SOL     OW39577   3.925   4.222   7.474 -0.2573  0.1968 -0.1349
 9373SOL    HW139578   3.863   4.237   7.403  0.5972 -0.1900 -0.9543
 9373SOL    HW239579   3.978   4.301   7.481  0.2771 -0.2148  0.4640
 9374SOL     OW39580   1.673   1.412   4.626 -0.2083  0.4038 -0.1762
 9374SOL    HW139581   1.672   1.441   4.535  0.5057  1.1449  0.0552
 9374SOL    HW239582   1.741   1.345   4.631 -1.2377 -0.6841 -0.6743
 9375SOL     OW39583   0.560   0.796   6.182 -0.1540 -0.3894  0.2484
 9375SOL    HW139584   0.568   0.795   6.277 -3.2291  2.5678  0.5110
 9375SOL    HW239585   0.650   0.807   6.149  0.2453 -2.5336  0.6229
 9376SOL     OW39586   3.956   1.395   4.006  0.5801 -0.2575  0.1396
 9376SOL    HW139587   3.941   1.354   3.921 -2.5797 -1.5481  1.3452
 9376SOL    HW239588   4.042   1.358   4.028  1.6104  1.0804 -1.5894
 9377SOL     OW39589   0.946   1.384  11.609 -0.2896  0.0813 -0.2849
 9377SOL    HW139590   0.933   1.479  11.606  2.7050  0.4944 -0.3327
 9377SOL    HW239591   0.948   1.364  11.516 -1.9790  1.5217 -0.6371
 9378SOL     OW39592   4.191   2.263   5.288  0.0280  0.0579  0.9112
 9378SOL    HW139593   4.238   2.206   5.227  0.4828  1.6059 -0.1871
 9378SOL    HW239594   4.113   2.271   5.233  1.7808 -1.1458 -1.7810
 9379SOL     OW39595   2.545   2.547   1.756 -0.0816  0.2896  0.1729
 9379SOL    HW139596   2.574   2.561   1.666 -0.3247 -0.2096  0.0202
 9379SOL    HW239597   2.452   2.537   1.735  0.5247 -1.1687 -1.8378
 9380SOL     OW39598   3.301   1.447   8.398 -0.3866  0.2049  0.0275
 9380SOL    HW139599   3.323   1.487   8.483 -1.1504 -0.3842  0.5017
 9380SOL    HW239600   3.367   1.382   8.374 -0.5059  0.6706 -1.5787
 9381SOL     OW39601   1.291   3.903  10.356 -0.1369  0.7172 -0.2989
 9381SOL    HW139602   1.325   3.964  10.421  0.9929 -0.7882  0.5130
 9381SOL    HW239603   1.258   3.959  10.286 -1.7429 -1.1336 -1.0163
 9382SOL     OW39604   2.145   3.471   8.783 -0.1931  0.1268  0.1146
 9382SOL    HW139605   2.077   3.405   8.772 -0.8212  0.5944  1.1197
 9382SOL    HW239606   2.150   3.492   8.877 -1.2545 -0.4484  0.2986
 9383SOL     OW39607   3.385   3.573   7.751 -0.0806 -0.2649 -0.4357
 9383SOL    HW139608   3.330   3.628   7.807 -1.5702 -1.7426 -0.4840
 9383SOL    HW239609   3.343   3.602   7.670 -3.6948 -1.5442  0.9923
 9384SOL     OW39610   3.234   1.314   5.133  0.0735  0.1165 -0.3134
 9384SOL    HW139611   3.152   1.282   5.170 -0.0417  1.5235  0.6355
 9384SOL    HW239612   3.288   1.234   5.127 -1.1355 -0.9072  2.4753
 9385SOL     OW39613   2.337   0.221  13.088  0.2861 -0.1867 -0.3857
 9385SOL    HW139614   2.358   0.236  13.180 -0.5574 -1.4731  0.0055
 9385SOL    HW239615   2.333   0.312  13.056  0.2199  0.0836  0.3794
 9386SOL     OW39616   2.287   0.537   5.295  0.0989 -0.1104 -0.3526
 9386SOL    HW139617   2.214   0.503   5.347  1.5555  1.6133  2.8041
 9386SOL    HW239618   2.239   0.569   5.218 -0.9106 -0.8324 -0.0344
 9387SOL     OW39619   4.691   0.065   8.238 -0.8030  0.6314  0.5545
 9387SOL    HW139620   4.614   0.112   8.206 -1.3961  0.6807  2.0316
 9387SOL    HW239621   0.014   0.065   8.157 -2.0725  2.8263 -0.2286
 9388SOL     OW39622   0.230   0.223   6.757  0.3678  0.2736  0.2265
 9388SOL    HW139623   0.173   0.147   6.746 -0.8822  1.5286 -1.9148
 9388SOL    HW239624   0.256   0.236   6.665  0.8692  0.2233  0.3616
 9389SOL     OW39625   4.167   2.447   8.326 -0.3263  0.1545  0.0593
 9389SOL    HW139626   4.142   2.393   8.401 -2.3548  2.8158  1.2981
 9389SOL    HW239627   4.082   2.478   8.297 -0.1933  1.2437  0.8206
 9390SOL     OW39628   1.902   1.018   2.758  0.1901 -0.1822  0.2218
 9390SOL    HW139629   1.913   1.093   2.700 -1.6457  0.6896  0.9826
 9390SOL    HW239630   1.942   0.953   2.700 -1.2018 -1.8475  1.1298
 9391SOL     OW39631   2.105   4.199   5.754 -0.1587 -0.0283 -0.2570
 9391SOL    HW139632   2.117   4.169   5.664  1.1048  0.0360 -0.1159
 9391SOL    HW239633   2.024   4.155   5.778 -0.8299  1.0986 -0.4388
 9392SOL     OW39634   1.687   4.680   7.079 -0.4919 -0.2532  0.2277
 9392SOL    HW139635   1.638   4.604   7.109  0.4528  0.1005  2.6953
 9392SOL    HW239636   1.659   0.025   7.134 -1.6457 -1.7853  1.6590
 9393SOL     OW39637   3.692   0.490   2.418  0.1767 -0.1557 -0.1076
 9393SOL    HW139638   3.637   0.419   2.383  0.2989  0.1186 -0.8510
 9393SOL    HW239639   3.626   0.544   2.461 -0.2093 -0.9760  0.3444
 9394SOL     OW39640   0.602   2.614   9.920  0.1363 -0.0636  0.4975
 9394SOL    HW139641   0.594   2.523   9.946 -1.2909  0.9636  3.6148
 9394SOL    HW239642   0.569   2.653  10.001 -0.2343 -3.7371  2.1059
 9395SOL     OW39643   1.871   2.583   4.188  0.1329  0.2950  0.1413
 9395SOL    HW139644   1.898   2.674   4.205  1.8558 -0.2457  0.3206
 9395SOL    HW239645   1.934   2.528   4.234 -0.2990 -0.7030 -0.4564
 9396SOL     OW39646   3.467   2.653   2.250 -0.1492 -0.2284  0.1756
 9396SOL    HW139647   3.456   2.621   2.340  2.1966 -1.2479  0.1074
 9396SOL    HW239648   3.378   2.679   2.228 -0.1128 -0.1748  0.0921
 9397SOL     OW39649   0.141   4.684   7.602 -0.4403 -0.0744  0.4582
 9397SOL    HW139650   0.060   4.633   7.611  0.4406 -1.4076  0.8258
 9397SOL    HW239651   0.196   4.670   7.679  1.5274 -3.4087 -1.5578
 9398SOL     OW39652   3.740   1.588  11.634 -0.2430 -0.6334 -0.0480
 9398SOL    HW139653   3.807   1.529  11.667 -1.0475 -1.8523 -0.6083
 9398SOL    HW239654   3.732   1.564  11.542 -0.4602 -2.3403  0.4196
 9399SOL     OW39655   4.191   0.657  17.470  0.1762 -0.3480  0.1867
 9399SOL    HW139656   4.110   0.666  17.420  0.5079  1.6179 -0.0143
 9399SOL    HW239657   4.163   0.654  17.561 -1.7029 -2.5884 -0.4588
 9400SOL     OW39658   1.606   0.907   3.888  0.0759  0.2247  0.2474
 9400SOL    HW139659   1.673   0.942   3.829 -2.0540  0.6963 -1.8775
 9400SOL    HW239660   1.643   0.824   3.919  2.0391  0.1819 -2.1974
 9401SOL     OW39661   4.502   3.453   5.125  0.0244 -0.1617  0.4029
 9401SOL    HW139662   4.570   3.389   5.143 -0.6246 -0.6743  0.9978
 9401SOL    HW239663   4.455   3.420   5.049 -1.1381  0.6970  0.7501
 9402SOL     OW39664   1.945   1.971  15.573  0.1853 -0.7765 -0.0853
 9402SOL    HW139665   1.957   2.060  15.541 -1.8497 -0.0815  1.0687
 9402SOL    HW239666   1.852   1.954  15.589  0.4699 -0.5008  1.8633
 9403SOL     OW39667   2.473   2.594   1.098 -0.6140 -0.3002 -0.1131
 9403SOL    HW139668   2.517   2.536   1.160  3.3761  3.0775  0.1682
 9403SOL    HW239669   2.434   2.529   1.040 -0.2964 -0.5701 -0.0199
 9404SOL     OW39670   4.426   4.281  10.942 -0.4810  0.0441 -0.2244
 9404SOL    HW139671   4.511   4.295  10.984  0.2150  0.3066 -1.7255
 9404SOL    HW239672   4.403   4.194  10.975 -1.0662  0.2267 -0.1671
 9405SOL     OW39673   3.936   2.624   4.905 -0.0181  0.2508 -0.0653
 9405SOL    HW139674   3.918   2.696   4.844 -0.5283  0.4856  0.3607
 9405SOL    HW239675   4.025   2.600   4.879 -0.4557 -0.8325 -0.5360
 9406SOL     OW39676   4.513   0.660  13.692  0.0963 -0.2508 -0.2366
 9406SOL    HW139677   4.590   0.667  13.635 -0.9191  0.9908 -1.4660
 9406SOL    HW239678   4.442   0.673  13.629 -0.0884 -0.9141 -0.1658
 9407SOL     OW39679   2.898   0.757  14.179  0.0786 -0.3471  0.4103
 9407SOL    HW139680   2.819   0.705  14.195  0.2545 -1.1057 -1.1565
 9407SOL    HW239681   2.962   0.686  14.174  1.5518  1.1339 -1.6638
 9408SOL     OW39682   1.037   0.325   9.919 -0.2152  0.2705 -0.5395
 9408SOL    HW139683   1.005   0.332   9.829 -0.4519  1.0049 -0.4021
 9408SOL    HW239684   0.967   0.279   9.965  0.0584 -0.0968 -0.4933
 9409SOL     OW39685   2.051   1.285  17.074 -0.4442 -0.2257  0.2926
 9409SOL    HW139686   2.086   1.362  17.029  0.1432  0.3642  1.7749
 9409SOL    HW239687   2.005   1.328  17.146 -3.1061 -2.3941 -0.1260
 9410SOL     OW39688   1.537   1.400   3.632  0.9304 -0.2804 -0.3367
 9410SOL    HW139689   1.540   1.466   3.564  4.3993  0.1822  0.3001
 9410SOL    HW239690   1.450   1.408   3.672  0.2552 -0.1545 -1.8485
 9411SOL     OW39691   4.678   0.661   0.621 -0.8395 -0.2525  0.1623
 9411SOL    HW139692   4.624   0.728   0.662  0.4131 -1.5026  3.8700
 9411SOL    HW239693   4.630   0.585   0.655  0.9975 -2.0615 -1.2372
 9412SOL     OW39694   2.401   4.686   5.002 -0.4944 -0.3126  0.2109
 9412SOL    HW139695   2.482   4.674   5.051 -1.9411  0.1821  2.7079
 9412SOL    HW239696   2.407   4.634   4.922 -0.3014  1.0370 -0.6508
 9413SOL     OW39697   0.034   1.466   2.270 -0.0048  0.1815 -0.1296
 9413SOL    HW139698   0.058   1.549   2.229 -0.6657 -0.4593 -1.8231
 9413SOL    HW239699   0.014   1.417   2.190  1.4411  1.7397 -1.4558
 9414SOL     OW39700   0.243   1.150   3.949  0.7550  0.1238  0.1487
 9414SOL    HW139701   0.180   1.187   4.011  1.2141  1.6994 -0.3398
 9414SOL    HW239702   0.190   1.075   3.920 -1.6255  1.1999  1.6871
 9415SOL     OW39703   0.285   4.465   2.334  0.5768  0.0230 -0.2184
 9415SOL    HW139704   0.207   4.431   2.379  0.6844  2.4017  1.7557
 9415SOL    HW239705   0.354   4.430   2.390 -0.2194 -1.0683  0.0908
 9416SOL     OW39706   2.851   1.172  16.342 -0.1782 -0.1271  0.1984
 9416SOL    HW139707   2.813   1.249  16.384 -1.0158 -1.3386  1.6474
 9416SOL    HW239708   2.898   1.203  16.265  0.0824 -0.1217  0.3569
 9417SOL     OW39709   4.146   4.470   4.550 -0.5035  0.1630  0.1200
 9417SOL    HW139710   4.166   4.514   4.467 -1.4902 -0.1405 -0.2787
 9417SOL    HW239711   4.096   4.395   4.516  2.6998 -1.7649 -0.3587
 9418SOL     OW39712   0.994   0.956   1.415  0.2848  0.3381 -0.7310
 9418SOL    HW139713   0.922   0.942   1.353 -0.6579  1.7466  0.0448
 9418SOL    HW239714   1.059   0.896   1.379  0.8753  1.1169 -0.9666
 9419SOL     OW39715   1.948   0.298  14.565 -0.0752 -0.0907  0.0328
 9419SOL    HW139716   2.005   0.293  14.488 -0.7847  2.0636 -0.6223
 9419SOL    HW239717   1.877   0.242  14.532  2.8185 -3.0156 -1.1747
 9420SOL     OW39718   0.583   4.080   5.822 -0.2163 -0.5089 -0.4153
 9420SOL    HW139719   0.630   4.163   5.812 -0.0626 -0.6798 -1.1060
 9420SOL    HW239720   0.563   4.087   5.915 -2.4849  0.3088 -0.9466
 9421SOL     OW39721   1.755   2.376   5.639 -0.1401  0.0946  0.6742
 9421SOL    HW139722   1.796   2.302   5.682 -0.1693 -0.3312 -0.0251
 9421SOL    HW239723   1.822   2.410   5.579  0.0955 -2.6597 -0.6092
 9422SOL     OW39724   2.252   2.534   2.862  0.2587  0.1352 -0.0220
 9422SOL    HW139725   2.193   2.480   2.809 -0.3556  1.0368 -0.2577
 9422SOL    HW239726   2.304   2.470   2.911  0.9146  1.6370  1.2534
 9423SOL     OW39727   4.544   3.741  12.921 -1.0559  0.7201 -0.9835
 9423SOL    HW139728   4.587   3.826  12.913  1.2395 -0.1630  1.7298
 9423SOL    HW239729   4.546   3.728  13.016 -0.1821 -0.1089 -1.1177
 9424SOL     OW39730   3.994   3.958   5.594  0.6816  0.1658  0.3010
 9424SOL    HW139731   3.983   3.904   5.672  0.5474  2.1530  1.6675
 9424SOL    HW239732   4.083   3.928   5.576 -0.1499 -0.7420 -2.2779
 9425SOL     OW39733   1.089   3.253   8.443 -0.1571 -0.0437 -0.1715
 9425SOL    HW139734   1.161   3.211   8.491 -0.9654 -1.0355  0.1772
 9425SOL    HW239735   1.093   3.333   8.495 -0.3041  0.2189 -0.5673
 9426SOL     OW39736   1.558   0.103  10.574  0.1495  0.2081 -0.0138
 9426SOL    HW139737   1.471   0.066  10.562  0.0448  0.2164  0.7136
 9426SOL    HW239738   1.601   0.026  10.609 -1.8471 -0.8730  0.0196
 9427SOL     OW39739   0.336   2.234   0.377  0.4027  0.0271 -0.0270
 9427SOL    HW139740   0.243   2.252   0.361  0.4912 -0.3211 -0.9625
 9427SOL    HW239741   0.382   2.296   0.321 -2.3597  2.1993  0.0844
 9428SOL     OW39742   0.676   1.081   4.772 -0.3698 -0.0593 -0.1868
 9428SOL    HW139743   0.709   1.170   4.764  2.1179 -0.8186  1.5900
 9428SOL    HW239744   0.691   1.068   4.865 -3.2265  1.3569  0.4691
 9429SOL     OW39745   0.530   4.047   6.361  0.2007 -0.2737 -0.2856
 9429SOL    HW139746   0.520   3.971   6.418  3.0365 -0.7413 -0.4088
 9429SOL    HW239747   0.517   4.119   6.422  0.2428  0.4561 -1.1271
 9430SOL     OW39748   3.474   1.230   8.383 -0.0761 -0.1990 -0.0388
 9430SOL    HW139749   3.512   1.203   8.299  0.4458  1.6555 -0.3985
 9430SOL    HW239750   3.431   1.147   8.402 -2.6070  1.6271  2.2192
 9431SOL     OW39751   3.981   0.416   8.144 -0.0412  0.4239 -0.4384
 9431SOL    HW139752   4.033   0.496   8.150  0.9716 -0.3032  0.5596
 9431SOL    HW239753   3.972   0.391   8.052  1.1875  1.1879 -0.7767
 9432SOL     OW39754   1.821   2.189   3.763 -0.1447 -0.3071 -0.4107
 9432SOL    HW139755   1.770   2.264   3.794  1.3514 -0.5956  2.6790
 9432SOL    HW239756   1.892   2.190   3.826 -0.6688 -2.9145  0.2310
 9433SOL     OW39757   3.701   4.389   4.042 -0.0375  0.3779 -0.0519
 9433SOL    HW139758   3.620   4.353   4.005 -0.1285  1.3965 -0.8397
 9433SOL    HW239759   3.718   4.447   3.968 -2.5080  2.1297  0.7600
 9434SOL     OW39760   2.449   0.758   4.282 -0.3176  0.0820 -0.5467
 9434SOL    HW139761   2.474   0.834   4.335 -0.0834 -1.4115  1.5029
 9434SOL    HW239762   2.529   0.707   4.267 -0.3060 -0.0059 -0.2012
 9435SOL     OW39763   2.036   0.252   9.870 -0.2209  0.0198  0.4546
 9435SOL    HW139764   1.948   0.273   9.839 -0.8569 -1.2684  1.3746
 9435SOL    HW239765   2.074   0.258   9.783 -0.3549  0.6885  0.4428
 9436SOL     OW39766   1.656   2.068   0.074  0.2881  0.7372  0.0986
 9436SOL    HW139767   1.628   2.120  17.711 -3.7166 -1.2001  0.2114
 9436SOL    HW239768   1.732   2.110   0.114  1.8673 -1.4870 -0.5753
 9437SOL     OW39769   1.402   3.745   2.711  0.0975 -0.0066 -0.0767
 9437SOL    HW139770   1.385   3.793   2.629  1.2452  3.1201  1.4979
 9437SOL    HW239771   1.327   3.775   2.763 -1.1113 -2.5518 -0.3842
 9438SOL     OW39772   2.372   0.883  13.215 -0.2280  0.1825 -0.2200
 9438SOL    HW139773   2.302   0.911  13.157 -1.0232 -0.3162  0.5015
 9438SOL    HW239774   2.377   0.964  13.266 -3.6018 -0.2436  0.7391
 9439SOL     OW39775   1.874   1.168   5.540 -0.5437  0.2628 -0.4715
 9439SOL    HW139776   1.831   1.233   5.596 -0.0742 -1.7969  2.2609
 9439SOL    HW239777   1.877   1.213   5.455 -1.5559 -0.0792 -0.6914
 9440SOL     OW39778   3.219   0.688   4.353 -0.6109 -0.5743 -0.2110
 9440SOL    HW139779   3.308   0.692   4.389 -0.0502  1.1408 -1.7915
 9440SOL    HW239780   3.234   0.612   4.297  0.2457 -1.7734  1.6065
 9441SOL     OW39781   3.532   4.102   4.630 -0.1818  0.2168 -0.0465
 9441SOL    HW139782   3.600   4.158   4.593 -0.5152 -0.8516 -2.2774
 9441SOL    HW239783   3.585   4.027   4.656  0.0841  0.5779  0.4492
 9442SOL     OW39784   0.810   1.743   6.341  0.0190  0.7838 -0.1152
 9442SOL    HW139785   0.895   1.708   6.366 -2.0088 -3.2674  1.2460
 9442SOL    HW239786   0.771   1.678   6.400 -1.5203  1.6722 -0.1460
 9443SOL     OW39787   0.588   2.505   1.875 -0.0354  0.2807  0.1873
 9443SOL    HW139788   0.679   2.535   1.880  0.2405 -0.5796  0.3598
 9443SOL    HW239789   0.594   2.413   1.847 -0.8227  0.0774  0.6803
 9444SOL     OW39790   1.213   1.607   1.970 -0.4689  0.1097  0.0849
 9444SOL    HW139791   1.150   1.550   2.015  0.1127 -1.9768 -1.7655
 9444SOL    HW239792   1.160   1.666   1.917  0.3893  1.2740  0.5232
 9445SOL     OW39793   0.821   1.545   7.837  0.9047 -0.5180  0.0664
 9445SOL    HW139794   0.852   1.629   7.870 -0.3260  0.5533 -1.5094
 9445SOL    HW239795   0.900   1.526   7.787 -0.3195  1.0982 -2.4866
 9446SOL     OW39796   2.840   2.232   3.635 -0.0467  0.6590  0.1596
 9446SOL    HW139797   2.932   2.217   3.612 -0.1474 -1.4423  1.1504
 9446SOL    HW239798   2.793   2.213   3.553 -1.6394  0.7158  1.0674
 9447SOL     OW39799   1.971   4.618  16.462 -0.4708 -0.4147 -0.5101
 9447SOL    HW139800   1.939   4.533  16.433 -0.3449 -0.8903  0.7732
 9447SOL    HW239801   1.937   4.678  16.395  2.4978  2.6070  0.6738
 9448SOL     OW39802   0.550   0.993  10.057  0.6893 -0.3476 -0.2904
 9448SOL    HW139803   0.545   1.088  10.047 -1.1326 -0.6267 -2.1591
 9448SOL    HW239804   0.467   0.973  10.100  1.4726 -2.2105  0.3583
 9449SOL     OW39805   1.049   4.386   4.200 -0.6622  0.4894 -0.5614
 9449SOL    HW139806   1.111   4.439   4.250  0.5290 -1.5527  0.0916
 9449SOL    HW239807   0.978   4.450   4.188 -0.3063  1.2684  1.4432
 9450SOL     OW39808   0.839   2.190   2.834 -0.5168  0.4653 -0.3684
 9450SOL    HW139809   0.923   2.175   2.790 -2.2421 -3.5225 -2.2164
 9450SOL    HW239810   0.868   2.208   2.923 -0.8645 -1.9733  0.2299
 9451SOL     OW39811   0.750   1.886  12.186 -0.1601 -0.1721 -0.2653
 9451SOL    HW139812   0.686   1.912  12.252 -1.4653  0.7055 -1.8811
 9451SOL    HW239813   0.767   1.971  12.145  3.8345 -0.3820  0.8915
 9452SOL     OW39814   4.602   1.987   5.835  0.3158  0.3765  0.4772
 9452SOL    HW139815   4.653   2.015   5.760 -0.8852 -2.2311 -1.3285
 9452SOL    HW239816   4.651   1.909   5.863 -1.2467 -0.4177  1.0151
 9453SOL     OW39817   4.033   0.873   6.593 -0.2916 -0.2122  0.6835
 9453SOL    HW139818   4.091   0.854   6.519 -1.6631  0.7631 -0.6459
 9453SOL    HW239819   3.961   0.915   6.546  0.0794  1.3781  1.5496
 9454SOL     OW39820   4.255   2.011  12.699  0.0102  0.3623 -0.1066
 9454SOL    HW139821   4.297   2.096  12.713 -0.3338  0.4399  0.4772
 9454SOL    HW239822   4.193   2.033  12.630  0.0943  2.8478  0.6131
 9455SOL     OW39823   2.715   0.999  16.166  0.5792 -0.1887  0.0574
 9455SOL    HW139824   2.787   1.049  16.203 -1.0335  1.5162  0.9097
 9455SOL    HW239825   2.684   0.949  16.242  0.6899  1.1813  0.9885
 9456SOL     OW39826   2.997   0.947   6.473 -0.2970 -0.0785 -0.0045
 9456SOL    HW139827   2.978   0.948   6.567 -0.3649  2.2880 -0.0467
 9456SOL    HW239828   2.989   0.856   6.444  1.1805  0.6653 -2.7892
 9457SOL     OW39829   0.937   4.434  15.604 -0.1645 -0.0015  0.3559
 9457SOL    HW139830   1.010   4.390  15.562 -0.9092 -1.3560  0.4586
 9457SOL    HW239831   0.866   4.394  15.554 -0.5277  1.8316 -0.5864
 9458SOL     OW39832   2.445   3.651   8.311 -0.1518 -0.4856  0.1254
 9458SOL    HW139833   2.395   3.577   8.278 -0.2129 -0.3696 -0.0421
 9458SOL    HW239834   2.490   3.626   8.392 -0.6686  0.3213  0.6567
 9459SOL     OW39835   2.334   3.497   2.376 -0.4003 -0.0105  0.1867
 9459SOL    HW139836   2.348   3.476   2.469 -2.2409  1.6665  0.8402
 9459SOL    HW239837   2.424   3.486   2.345  0.2849  0.6369  1.9486
 9460SOL     OW39838   2.464   4.431   8.169  0.0434 -0.5329  0.4541
 9460SOL    HW139839   2.489   4.500   8.231  0.2110 -0.3060  0.1328
 9460SOL    HW239840   2.467   4.481   8.087 -2.2985  1.8358  1.8116
 9461SOL     OW39841   0.025   3.285   2.196  1.1503  0.6142 -0.2899
 9461SOL    HW139842   0.096   3.348   2.201 -0.4062  2.4688 -2.0008
 9461SOL    HW239843   0.023   3.245   2.109  2.7783  0.7708 -0.3843
 9462SOL     OW39844   0.267   4.044  11.853 -0.1172  0.0755 -0.1571
 9462SOL    HW139845   0.270   4.053  11.758 -0.1772  2.6420  0.1051
 9462SOL    HW239846   0.312   3.961  11.872 -0.8598 -0.7315 -1.9019
 9463SOL     OW39847   1.554   3.376   1.290 -0.0290  0.1878  0.0362
 9463SOL    HW139848   1.579   3.284   1.280 -0.4307  0.2048 -1.1236
 9463SOL    HW239849   1.533   3.401   1.200  0.8952 -2.3317 -0.8621
 9464SOL     OW39850   1.579   1.300   1.940 -0.7059  0.5367  0.5125
 9464SOL    HW139851   1.639   1.315   2.013 -1.0740  0.4559  0.8282
 9464SOL    HW239852   1.585   1.206   1.922 -1.9968  0.0876  2.4598
 9465SOL     OW39853   1.624   3.368   3.352 -0.0074 -0.2394  0.0648
 9465SOL    HW139854   1.620   3.306   3.279 -1.4544  0.0875 -0.1382
 9465SOL    HW239855   1.684   3.433   3.316  0.0717 -0.8011 -0.8217
 9466SOL     OW39856   0.114   1.696   2.140  0.1734 -0.7978  0.1628
 9466SOL    HW139857   0.077   1.720   2.055 -0.8307  1.6538  1.2786
 9466SOL    HW239858   0.198   1.736   2.116 -0.4300  0.7478  0.6048
 9467SOL     OW39859   2.781   2.568  11.325 -0.5311 -0.3447  0.2476
 9467SOL    HW139860   2.794   2.481  11.363  1.1761 -1.8803 -3.8989
 9467SOL    HW239861   2.852   2.567  11.261 -1.0355 -2.3811 -0.2645
 9468SOL     OW39862   4.343   0.132   1.948 -0.0560 -0.1662 -0.4277
 9468SOL    HW139863   4.424   0.081   1.940 -0.5850 -1.0424 -0.1813
 9468SOL    HW239864   4.370   0.214   1.990  0.4523 -1.4873  1.8199
 9469SOL     OW39865   1.190   3.825   3.855 -0.0150 -0.2470  0.4117
 9469SOL    HW139866   1.258   3.845   3.918  1.1061  1.4068 -1.3282
 9469SOL    HW239867   1.223   3.878   3.783 -1.7801 -0.0800 -0.2667
 9470SOL     OW39868   1.233   1.095   5.443  0.1699 -0.3401  0.2149
 9470SOL    HW139869   1.282   1.084   5.362  0.2875 -3.1878  0.6760
 9470SOL    HW239870   1.149   1.054   5.424 -1.7661  2.3559  2.8796
 9471SOL     OW39871   0.018   0.481  10.341 -0.1415  0.2217 -0.0574
 9471SOL    HW139872   0.092   0.530  10.375  1.0513 -3.0168  2.0746
 9471SOL    HW239873   0.027   0.412  10.407 -1.6808 -0.6381 -0.7539
 9472SOL     OW39874   2.183   4.261  16.882  0.1590  0.4195 -1.0644
 9472SOL    HW139875   2.229   4.224  16.957 -0.8405  0.5334 -0.4005
 9472SOL    HW239876   2.265   4.284  16.838 -0.1246 -1.4651 -2.5654
 9473SOL     OW39877   0.886   2.754  10.245 -0.2198 -0.3436 -0.2837
 9473SOL    HW139878   0.820   2.810  10.204  0.5892  0.3323 -0.6742
 9473SOL    HW239879   0.933   2.729  10.166 -1.6146 -1.9999 -0.5742
 9474SOL     OW39880   2.737   4.673  11.899  0.0333  0.5200 -0.5120
 9474SOL    HW139881   2.660   4.660  11.844 -1.1761  0.2719  1.2777
 9474SOL    HW239882   2.766   4.582  11.911  0.3069  0.5444 -0.9410
 9475SOL     OW39883   4.608   3.479   8.552  0.1939  0.5416 -0.5339
 9475SOL    HW139884   4.612   3.419   8.478 -2.5210  1.5170 -1.4675
 9475SOL    HW239885   4.593   3.406   8.613  1.4498  0.7211 -0.0016
 9476SOL     OW39886   0.510   2.931   5.904 -0.3280  0.2801  0.8210
 9476SOL    HW139887   0.542   2.965   5.987  1.0163  0.1961  0.3451
 9476SOL    HW239888   0.425   2.901   5.937 -0.0650 -3.5251 -1.9802
 9477SOL     OW39889   2.682   0.399   7.720 -0.5430 -0.5326 -0.2184
 9477SOL    HW139890   2.709   0.481   7.762  0.2914 -0.5447 -0.7180
 9477SOL    HW239891   2.682   0.424   7.627  0.9553  0.4169  0.0342
 9478SOL     OW39892   0.869   2.106  13.213 -0.0281 -0.4025  0.2974
 9478SOL    HW139893   0.886   2.097  13.119  1.0139  0.4280  0.4127
 9478SOL    HW239894   0.791   2.053  13.230 -0.9695  0.0332 -2.6079
 9479SOL     OW39895   3.972   4.011   7.094 -0.3510 -0.3953  0.3169
 9479SOL    HW139896   3.964   4.018   6.999  0.0086  0.9897  0.3876
 9479SOL    HW239897   3.987   4.101   7.120  0.0372 -0.7223  1.2351
 9480SOL     OW39898   0.316   3.670  14.248 -0.5711  0.3819 -0.3390
 9480SOL    HW139899   0.391   3.657  14.190 -0.1766 -0.2915  0.3201
 9480SOL    HW239900   0.329   3.598  14.310 -0.4263 -0.7291 -1.6745
 9481SOL     OW39901   2.635   1.952   8.582  0.2975  0.5630 -0.2533
 9481SOL    HW139902   2.540   1.964   8.578  0.3401  1.1487  0.5032
 9481SOL    HW239903   2.660   2.041   8.604  2.1086 -0.2942  1.1488
 9482SOL     OW39904   1.451   4.422   8.842 -0.1626 -0.1664 -0.9354
 9482SOL    HW139905   1.433   4.515   8.857 -0.7357 -0.3708 -0.3407
 9482SOL    HW239906   1.460   4.429   8.747  0.1306 -2.1661 -1.0743
 9483SOL     OW39907   4.412   3.763   5.217  0.4325  0.2406  0.4757
 9483SOL    HW139908   4.504   3.755   5.194  0.2070  1.0264 -0.6924
 9483SOL    HW239909   4.390   3.686   5.270  1.0368 -0.1203  0.1978
 9484SOL     OW39910   4.097   3.774   4.708 -0.0360 -0.3860 -0.2555
 9484SOL    HW139911   4.064   3.710   4.771  1.4101 -0.7260  0.1652
 9484SOL    HW239912   4.191   3.757   4.717 -0.4839 -2.3410  0.6224
 9485SOL     OW39913   3.356   4.432   3.639 -0.6512  0.4444 -0.0885
 9485SOL    HW139914   3.355   4.523   3.666  1.1053 -0.0704  1.6802
 9485SOL    HW239915   3.296   4.433   3.565 -0.6454 -1.6186 -0.1181
 9486SOL     OW39916   2.614   3.516   4.724  0.3374 -0.2604  0.3023
 9486SOL    HW139917   2.548   3.577   4.692 -0.1626 -1.7120 -1.4324
 9486SOL    HW239918   2.617   3.549   4.814 -0.8357  0.6173  0.0269
 9487SOL     OW39919   2.014   0.614   6.260  0.0634  0.0184 -0.6481
 9487SOL    HW139920   1.974   0.549   6.202 -0.9441  1.7471 -1.9021
 9487SOL    HW239921   2.077   0.664   6.208 -1.8523  1.2393 -1.8311
 9488SOL     OW39922   4.153   3.964   8.333  0.3957  0.5221  0.6102
 9488SOL    HW139923   4.155   4.059   8.346  1.3397  0.7071 -0.9424
 9488SOL    HW239924   4.211   3.936   8.403  2.4593 -0.1016 -1.3728
 9489SOL     OW39925   0.274   3.959   3.840  0.3179 -0.4588 -0.0088
 9489SOL    HW139926   0.367   3.937   3.834  0.5443  0.5653 -0.3548
 9489SOL    HW239927   0.265   3.968   3.935 -1.0268  0.5175 -0.2298
 9490SOL     OW39928   3.222   1.214  12.290 -0.0475  0.0219 -0.3918
 9490SOL    HW139929   3.150   1.167  12.333  0.0856 -0.0621 -0.2608
 9490SOL    HW239930   3.298   1.166  12.323 -1.0352  0.3894  2.4563
 9491SOL     OW39931   1.762   0.973   5.359  0.2784 -0.0842 -0.2024
 9491SOL    HW139932   1.813   0.995   5.437 -2.4581 -0.1385  1.6003
 9491SOL    HW239933   1.678   1.003   5.395 -0.6583 -2.2485 -0.6241
 9492SOL     OW39934   2.304   2.229   2.210 -0.0066  0.5451 -0.5710
 9492SOL    HW139935   2.327   2.269   2.126 -0.2431  1.4530 -0.2088
 9492SOL    HW239936   2.389   2.212   2.249 -0.9090  1.1833  1.6761
 9493SOL     OW39937   3.303   4.638   6.180  0.1871  0.3610 -0.1977
 9493SOL    HW139938   3.292   4.581   6.104  2.1499 -0.1867 -0.0926
 9493SOL    HW239939   3.225   4.691   6.169 -0.0650  0.2099  0.8560
 9494SOL     OW39940   3.427   3.883   1.357  0.1932  0.4389 -0.0231
 9494SOL    HW139941   3.511   3.850   1.328  0.5018  1.5209 -0.3558
 9494SOL    HW239942   3.371   3.863   1.282  0.4449  0.8257 -0.3072
 9495SOL     OW39943   3.659   0.138   7.250 -0.0868 -0.1843 -0.0352
 9495SOL    HW139944   3.716   0.149   7.326 -0.6132  1.7263  0.0736
 9495SOL    HW239945   3.706   0.184   7.180  2.9924 -1.2276  1.3501
 9496SOL     OW39946   1.290   3.603  11.535  0.4696  0.3946  0.4035
 9496SOL    HW139947   1.238   3.680  11.558  1.5650  1.1771  0.2049
 9496SOL    HW239948   1.241   3.527  11.567  0.3728 -0.7589 -2.5334
 9497SOL     OW39949   1.154   3.181  10.208 -0.2355  0.0990 -0.3894
 9497SOL    HW139950   1.230   3.227  10.243 -0.1417  0.1537 -0.6683
 9497SOL    HW239951   1.195   3.128  10.140  2.9340  1.7933  0.2263
 9498SOL     OW39952   0.288   3.805   9.777 -0.4619 -0.2482  0.0166
 9498SOL    HW139953   0.223   3.873   9.799 -3.3756 -2.1686 -2.6305
 9498SOL    HW239954   0.250   3.784   9.691 -2.5069 -2.2346  1.4086
 9499SOL     OW39955   2.479   0.149  14.151  0.1544 -0.0509  0.4926
 9499SOL    HW139956   2.475   0.110  14.238  3.0547 -0.1255  0.5956
 9499SOL    HW239957   2.391   0.187  14.150 -0.1276 -0.7106 -0.0379
 9500SOL     OW39958   0.485   1.916   1.091  0.0960  0.2763 -1.3838
 9500SOL    HW139959   0.531   1.885   1.169  0.4091  1.3894 -1.1174
 9500SOL    HW239960   0.518   2.006   1.083  0.3652  0.3881  1.0243
 9501SOL     OW39961   0.045   1.917   8.681 -0.6519  0.5747  0.6485
 9501SOL    HW139962   0.037   1.991   8.740 -0.4678  0.7317  0.4731
 9501SOL    HW239963   4.686   1.884   8.654 -0.1861 -1.6757  1.8713
 9502SOL     OW39964   1.403   2.177   8.435 -0.0863 -0.5124  0.9017
 9502SOL    HW139965   1.484   2.147   8.394 -1.2479 -2.6675  0.1914
 9502SOL    HW239966   1.366   2.094   8.466  1.0555 -1.1869  0.4771
 9503SOL     OW39967   3.959   3.958   7.484  0.2543 -0.4921 -0.8356
 9503SOL    HW139968   3.876   3.937   7.528  0.6410 -2.8289 -1.2354
 9503SOL    HW239969   3.948   4.053   7.485 -1.8236 -0.7416 -0.2576
 9504SOL     OW39970   3.628   1.982   2.456  0.3885  0.1799 -0.3228
 9504SOL    HW139971   3.588   2.031   2.383  0.6854 -1.6778 -1.7298
 9504SOL    HW239972   3.573   2.004   2.531  1.8463 -0.4059  0.9118
 9505SOL     OW39973   0.648   1.503   2.478  0.4270 -0.5529 -0.2956
 9505SOL    HW139974   0.587   1.563   2.521  2.5218 -0.2601  2.2555
 9505SOL    HW239975   0.729   1.554   2.475 -1.5560  2.6277  0.0863
 9506SOL     OW39976   1.706   1.020   1.674  0.0511 -0.4746  0.4177
 9506SOL    HW139977   1.776   1.031   1.739 -0.4594 -0.0867  0.9036
 9506SOL    HW239978   1.739   0.939   1.635 -1.8170 -2.2186  2.5146
 9507SOL     OW39979   1.594   0.810   9.573  0.5335  0.2064  0.0716
 9507SOL    HW139980   1.500   0.792   9.582  0.7111 -0.6544  0.2760
 9507SOL    HW239981   1.611   0.782   9.483  1.6291  0.4950  0.1950
 9508SOL     OW39982   2.681   3.233  10.287  0.5891  0.3367 -0.1832
 9508SOL    HW139983   2.667   3.274  10.372 -0.2552 -2.5598  1.0894
 9508SOL    HW239984   2.608   3.171  10.285 -0.7042  1.8602 -0.5913
 9509SOL     OW39985   1.917   0.942   6.861  0.5144  0.4041 -0.1739
 9509SOL    HW139986   1.891   1.012   6.802 -0.0944  1.3384  1.2065
 9509SOL    HW239987   1.913   0.863   6.807 -0.3074  0.4608 -0.1955
 9510SOL     OW39988   1.588   2.669   0.588  0.7817 -0.2210 -0.2560
 9510SOL    HW139989   1.634   2.607   0.645  0.2026 -0.0756  0.3771
 9510SOL    HW239990   1.645   2.687   0.513 -0.6980 -1.3405 -1.6494
 9511SOL     OW39991   1.018   0.192   2.839 -0.3573  0.0710 -0.1339
 9511SOL    HW139992   0.955   0.162   2.773 -1.2136 -1.1436  1.2238
 9511SOL    HW239993   0.957   0.247   2.888  0.3413  2.5892 -2.1036
 9512SOL     OW39994   2.567   0.024   6.621  0.2953 -0.1058 -0.0547
 9512SOL    HW139995   2.485   0.073   6.623 -0.0913 -0.8671  2.3883
 9512SOL    HW239996   2.550   4.695   6.546  0.0787  1.4631 -1.1844
 9513SOL     OW39997   3.378   3.390   9.566  0.1199 -0.1016 -0.0487
 9513SOL    HW139998   3.323   3.390   9.644  0.3919 -0.3981  0.1459
 9513SOL    HW239999   3.362   3.300   9.537 -3.8306  0.5077  0.2138
 9514SOL     OW40000   0.771   3.189  10.404 -0.1211  0.1439 -0.3792
 9514SOL    HW140001   0.796   3.129  10.334  1.0048  1.2227 -0.9032
 9514SOL    HW240002   0.846   3.185  10.464 -0.8817 -1.4384  0.4823
 9515SOL     OW40003   2.516   3.924   3.762 -0.3365 -0.1229  0.4059
 9515SOL    HW140004   2.610   3.943   3.764 -0.2369 -0.4102 -1.8371
 9515SOL    HW240005   2.508   3.862   3.834 -0.2077  0.8513  1.2542
 9516SOL     OW40006   0.292   4.225   3.427 -0.1076 -0.0188 -0.7281
 9516SOL    HW140007   0.269   4.154   3.367 -1.4763  1.2380 -1.6949
 9516SOL    HW240008   0.298   4.175   3.509  0.2219  0.7519 -0.2854
 9517SOL     OW40009   3.722   0.403   8.178 -0.3244 -0.0694 -0.0132
 9517SOL    HW140010   3.817   0.387   8.177 -0.6234 -1.6745 -2.1965
 9517SOL    HW240011   3.685   0.348   8.109  2.0140 -0.6390 -0.8156
 9518SOL     OW40012   0.755   3.120   1.885 -0.7575 -0.4009 -0.3095
 9518SOL    HW140013   0.839   3.103   1.844 -0.8947  0.3478 -0.9117
 9518SOL    HW240014   0.698   3.077   1.821  0.5288 -0.1200 -1.6145
 9519SOL     OW40015   1.421   1.358   2.292 -0.5808  0.2450 -0.7993
 9519SOL    HW140016   1.348   1.310   2.251  0.6103 -0.9762 -1.5042
 9519SOL    HW240017   1.397   1.446   2.264 -0.4442  0.8023  0.8249
 9520SOL     OW40018   0.970   4.039  12.019  0.3013  0.0475 -0.1033
 9520SOL    HW140019   1.056   3.998  12.010  0.1803 -0.4048  0.7128
 9520SOL    HW240020   0.934   4.004  12.101 -0.6593  1.6564  0.1613
 9521SOL     OW40021   1.111   4.028   9.265  0.1134  0.1745  0.0904
 9521SOL    HW140022   1.186   4.083   9.242 -0.0466 -0.0169 -0.8959
 9521SOL    HW240023   1.040   4.091   9.261  0.5243  0.7610  2.0218
 9522SOL     OW40024   0.281   1.840  15.457 -0.0517  0.3851 -0.6999
 9522SOL    HW140025   0.315   1.924  15.427  1.4938 -0.5297 -1.5389
 9522SOL    HW240026   0.307   1.834  15.549  0.9521 -0.0917 -1.0105
 9523SOL     OW40027   3.714   1.957   3.884 -0.0337 -0.4997 -0.0216
 9523SOL    HW140028   3.769   1.959   3.962  0.8177 -0.1685 -0.6167
 9523SOL    HW240029   3.626   1.980   3.913  0.4559  3.5488 -1.6722
 9524SOL     OW40030   1.308   4.608   5.639  0.0792  0.0272 -0.2195
 9524SOL    HW140031   1.346   4.696   5.642  0.1831  0.0392 -1.7067
 9524SOL    HW240032   1.227   4.614   5.588 -1.2807 -1.5702  1.7650
 9525SOL     OW40033   2.154   2.478   6.004  0.0985  0.1785 -0.0144
 9525SOL    HW140034   2.083   2.490   5.941 -0.6891 -3.7584  0.0934
 9525SOL    HW240035   2.225   2.445   5.949 -1.3916 -1.7446 -0.7804
 9526SOL     OW40036   1.953   3.275   2.523  0.5114  0.2800  0.2394
 9526SOL    HW140037   1.998   3.359   2.511  1.6431 -0.4200 -0.4487
 9526SOL    HW240038   2.024   3.212   2.536 -0.0214 -0.3203  0.1866
 9527SOL     OW40039   3.831   0.211   8.356  0.1960 -0.2454  0.7472
 9527SOL    HW140040   3.918   0.245   8.334  0.3069 -0.9950  0.0180
 9527SOL    HW240041   3.776   0.286   8.333  0.2836 -0.1237  0.9337
 9528SOL     OW40042   3.030   2.632  11.256 -0.0980  0.4085 -0.1210
 9528SOL    HW140043   3.090   2.573  11.301 -1.7041  0.2554  1.8133
 9528SOL    HW240044   3.036   2.598  11.166  3.1139  3.5746 -1.0886
 9529SOL     OW40045   1.358   0.512  10.515 -0.5194  0.2161  0.0172
 9529SOL    HW140046   1.387   0.454  10.445 -0.4721  0.3576 -0.0810
 9529SOL    HW240047   1.285   0.565  10.483 -1.7157 -0.4466  1.6125
 9530SOL     OW40048   1.757   2.565  17.419  0.8343  0.4241  0.6983
 9530SOL    HW140049   1.687   2.506  17.391  0.6679  1.8993 -2.0176
 9530SOL    HW240050   1.820   2.498  17.447  2.0147  0.7394 -1.1581
 9531SOL     OW40051   1.334   4.457   0.078  0.6177 -0.1960 -0.3353
 9531SOL    HW140052   1.242   4.480   0.094  0.6714 -0.0442 -0.2426
 9531SOL    HW240053   1.347   4.501  17.706  0.9645 -0.8990 -0.6453
 9532SOL     OW40054   4.138   0.621   9.002 -0.2080  0.2410 -0.3767
 9532SOL    HW140055   4.171   0.558   8.938  0.3497 -0.5493  0.7116
 9532SOL    HW240056   4.076   0.675   8.952 -0.7938 -0.0158  0.0722
 9533SOL     OW40057   0.881   4.411   9.715  0.0318  0.0987 -0.3649
 9533SOL    HW140058   0.918   4.473   9.777 -1.2492  0.2461  0.2464
 9533SOL    HW240059   0.951   4.347   9.723 -0.6651 -0.5814  0.2308
 9534SOL     OW40060   0.825   1.200  11.887 -0.1140  1.0302 -0.5007
 9534SOL    HW140061   0.760   1.135  11.860  1.4055 -0.0666 -1.5249
 9534SOL    HW240062   0.812   1.186  11.981 -0.1310  0.5275 -0.5796
 9535SOL     OW40063   4.054   1.948   5.395  0.0561  0.3455  0.0497
 9535SOL    HW140064   4.036   1.863   5.437 -1.3787  1.3960  1.5899
 9535SOL    HW240065   3.984   1.957   5.330  1.6311  0.4850 -1.6069
 9536SOL     OW40066   2.387   3.062   3.376  0.3657  0.5676  0.1856
 9536SOL    HW140067   2.398   3.123   3.448  0.5081  0.0567  0.5911
 9536SOL    HW240068   2.473   3.058   3.335  0.1915 -0.1792 -0.1242
 9537SOL     OW40069   2.277   2.766   0.881 -0.0639  0.0567 -0.2922
 9537SOL    HW140070   2.313   2.827   0.945  0.9580  1.4602 -2.1871
 9537SOL    HW240071   2.203   2.820   0.854  1.2692  2.9400  1.8178
 9538SOL     OW40072   0.042   1.321   3.174  0.0513 -0.0865  0.7266
 9538SOL    HW140073   4.714   1.325   3.252  1.0636  1.0062  1.3960
 9538SOL    HW240074   0.054   1.413   3.151 -3.3847 -0.4141 -2.4651
 9539SOL     OW40075   4.630   3.077   6.159 -0.1984 -0.3112 -0.0700
 9539SOL    HW140076   4.629   3.169   6.132 -0.7639  0.0333  1.1134
 9539SOL    HW240077   4.621   3.039   6.072  0.7881  0.2228 -0.4059
 9540SOL     OW40078   1.648   0.143  10.116 -0.4074  0.0216 -0.3899
 9540SOL    HW140079   1.564   0.127  10.073 -0.2447 -0.7891 -0.4061
 9540SOL    HW240080   1.646   0.073  10.182  0.8151  0.1627 -0.2073
 9541SOL     OW40081   0.339   3.079   8.959 -0.5757  0.6199 -0.0601
 9541SOL    HW140082   0.377   3.081   8.871 -2.1642  1.0078 -0.7409
 9541SOL    HW240083   0.246   3.071   8.935 -1.0993  1.7536  1.5976
 9542SOL     OW40084   1.567   2.531   8.641 -0.0905 -0.0605 -0.2911
 9542SOL    HW140085   1.653   2.569   8.659 -0.8214  1.3191  0.2946
 9542SOL    HW240086   1.591   2.439   8.627  1.8087 -0.1156  3.1370
 9543SOL     OW40087   4.570   2.629   6.840 -0.1093 -0.1047  0.4285
 9543SOL    HW140088   4.568   2.547   6.888 -0.1724 -1.1680 -1.4003
 9543SOL    HW240089   4.657   2.635   6.802  1.4511  1.0279  4.1778
 9544SOL     OW40090   2.072   4.319   4.065 -0.2642 -0.6930 -0.5423
 9544SOL    HW140091   2.079   4.305   3.971 -0.5385 -3.0345 -0.2211
 9544SOL    HW240092   1.981   4.346   4.068  0.0352  0.4777 -2.2613
 9545SOL     OW40093   3.101   3.627   6.377  0.4717  0.0569 -0.5074
 9545SOL    HW140094   3.177   3.615   6.434 -0.9103 -1.6646  0.9610
 9545SOL    HW240095   3.097   3.722   6.389  1.0772  0.0344 -0.0885
 9546SOL     OW40096   3.089   3.109   2.831 -0.0286  0.1434  0.2511
 9546SOL    HW140097   3.068   3.034   2.887 -3.4833 -0.4446 -1.8398
 9546SOL    HW240098   3.114   3.071   2.747 -2.5170  0.3050 -0.5603
 9547SOL     OW40099   1.564   3.393  13.383 -0.1878  0.2142 -0.9302
 9547SOL    HW140100   1.539   3.480  13.415  1.0275 -0.0894  0.8708
 9547SOL    HW240101   1.606   3.352  13.459  1.1059  1.0100 -1.2303
 9548SOL     OW40102   1.437   0.567   0.172  0.1648  0.2027 -0.2053
 9548SOL    HW140103   1.478   0.626   0.108 -1.1816 -1.6887 -2.7612
 9548SOL    HW240104   1.377   0.514   0.120 -1.2361  1.3332  0.2914
 9549SOL     OW40105   0.782   1.065   3.003  0.2742  0.2299  0.0008
 9549SOL    HW140106   0.806   1.147   2.962  1.4922  0.2717  0.7840
 9549SOL    HW240107   0.766   1.093   3.093  1.0153  2.7603 -0.6827
 9550SOL     OW40108   1.463   3.993  15.575  0.0261  0.1183 -0.0159
 9550SOL    HW140109   1.498   3.995  15.486 -0.9738  0.9677 -0.3917
 9550SOL    HW240110   1.386   3.939  15.558 -1.8691  2.6352  0.5866
 9551SOL     OW40111   3.503   1.540   4.191  0.2340  0.2079 -0.6088
 9551SOL    HW140112   3.561   1.515   4.119  0.3857 -1.4003  0.0594
 9551SOL    HW240113   3.436   1.596   4.151 -0.1826  1.4850  1.8503
 9552SOL     OW40114   2.794   2.605  10.972 -0.2779  0.2126 -0.3972
 9552SOL    HW140115   2.888   2.585  10.972 -0.8514 -2.5269  0.7370
 9552SOL    HW240116   2.792   2.698  10.952 -0.2472  0.4070  0.5157
 9553SOL     OW40117   1.196   3.950  12.867  0.4003  0.3067  0.3486
 9553SOL    HW140118   1.249   3.904  12.802 -0.3862 -0.8065  0.4998
 9553SOL    HW240119   1.233   4.038  12.874  0.6774  0.1236  1.2199
 9554SOL     OW40120   4.548   2.728   4.019 -0.1011 -0.8365 -0.1685
 9554SOL    HW140121   4.533   2.698   3.930  1.8165 -0.2385 -0.6755
 9554SOL    HW240122   4.593   2.651   4.055 -1.6063 -1.5700  0.1628
 9555SOL     OW40123   1.641   2.184   5.893  0.2752  0.1043 -0.0775
 9555SOL    HW140124   1.726   2.225   5.874  0.3449 -0.4650 -1.0344
 9555SOL    HW240125   1.675   2.101   5.926  0.5149 -0.2321 -1.1391
 9556SOL     OW40126   1.111   0.960  14.469  0.3684 -0.1344  0.1600
 9556SOL    HW140127   1.123   0.998  14.382 -1.5188  5.3527  2.2640
 9556SOL    HW240128   1.098   1.035  14.527 -0.4037 -0.2260  0.1050
 9557SOL     OW40129   1.123   2.073   5.416  0.3254  0.1923 -0.0018
 9557SOL    HW140130   1.065   2.085   5.490 -0.3501 -1.0510 -0.3186
 9557SOL    HW240131   1.120   2.153   5.363  0.5567 -0.3059 -0.7791
 9558SOL     OW40132   0.015   4.310  13.231  0.0630  0.1234  0.7353
 9558SOL    HW140133   4.716   4.218  13.242  0.7798 -0.5857 -3.2980
 9558SOL    HW240134   4.666   4.334  13.179  0.4337 -0.1285  0.0669
 9559SOL     OW40135   3.424   3.130   4.042 -0.0618  0.1540 -0.1292
 9559SOL    HW140136   3.411   3.080   4.123  0.3641  0.1995 -0.0316
 9559SOL    HW240137   3.369   3.077   3.983 -1.2971 -0.0685  1.2349
 9560SOL     OW40138   2.921   0.638   4.129 -0.6072  0.4123  0.0648
 9560SOL    HW140139   2.984   0.705   4.102 -2.1963  0.9407 -2.2672
 9560SOL    HW240140   2.885   0.615   4.044 -0.9550 -0.5568  0.4820
 9561SOL     OW40141   1.600   3.709  17.402  0.4211 -0.1961  0.0676
 9561SOL    HW140142   1.542   3.726  17.329  0.6221 -0.7529 -0.2236
 9561SOL    HW240143   1.566   3.622  17.426  3.2961 -1.1137  0.8463
 9562SOL     OW40144   0.763   3.597   2.258 -0.0278  0.2930 -0.1272
 9562SOL    HW140145   0.822   3.673   2.254 -0.3414  0.5571  0.1783
 9562SOL    HW240146   0.818   3.526   2.292  1.4631  0.5797 -1.9868
 9563SOL     OW40147   0.780   3.517   2.926 -1.5215 -0.5578  0.0185
 9563SOL    HW140148   0.749   3.588   2.870 -1.1664 -0.1122  0.3946
 9563SOL    HW240149   0.837   3.570   2.982  0.1947 -1.7658 -0.5654
 9564SOL     OW40150   3.907   0.079  15.653  0.0685 -0.5813  0.4044
 9564SOL    HW140151   3.872   0.050  15.738 -2.4637  2.5933  0.4626
 9564SOL    HW240152   3.820   0.093  15.615  0.3936  0.1170 -0.0766
 9565SOL     OW40153   3.865   2.747  13.597 -0.2230 -0.6415 -0.1089
 9565SOL    HW140154   3.895   2.817  13.540 -0.0161  0.9732  1.9770
 9565SOL    HW240155   3.771   2.750  13.580 -0.3237  0.8827  0.7573
   4.72780   4.72780  17.71190
