Membrane in water
40155
    1TCq1    O1    1   2.133   2.029  10.897  0.9533 -0.3070  0.2437
    1TCq1    C1    2   2.052   1.977  10.990  0.4332  0.8083  0.0192
    1TCq1    O2    3   2.031   1.858  11.015 -0.2816  0.1525 -0.1689
    1TCq1    C2    4   1.994   2.082  11.069  0.3679 -0.1898  0.3036
    1TCq1    C3    5   2.071   2.192  11.088 -0.0028  0.3148  0.2352
    1TCq1    C4    6   2.031   2.291  11.176  0.0359 -1.0105  0.0580
    1TCq1    C5    7   1.920   2.265  11.256 -0.5362 -0.2126 -0.2695
    1TCq1    C6    8   1.849   2.151  11.242 -0.1926 -0.0007 -0.2949
    1TCq1    C7    9   1.893   2.053  11.151 -0.4839 -0.0036  0.1259
    1TCq1    C8   10   1.720   2.132  11.312  0.6140 -0.4275 -0.0648
    1TCq1    O4   11   1.666   2.229  11.362  0.9254  0.1557  0.3041
    1TCq1    C9   12   2.107   2.420  11.179 -0.3863  0.7451  0.1774
    1TCq1    O5   13   2.194   2.445  11.095  0.1758 -0.5863 -0.5172
    1TCq1    O6   14   2.050   2.510  11.247 -0.1206 -0.1680  0.5759
    1TCq1    H1   15   2.124   2.124  10.876 -0.1153 -0.4299  0.1428
    1TCq1    H2   16   2.155   2.221  11.026 -0.5495  0.3368 -0.4913
    1TCq1    H3   17   1.901   2.329  11.341 -0.0376 -0.1471 -0.2035
    1TCq1    H4   18   1.835   1.963  11.134 -0.2933 -0.1242  0.1234
    2MPD2     C   19   1.481   1.830  11.667  0.2478 -0.4503 -0.7784
    2MPD2    C1   20   1.478   1.972  11.650 -0.1856 -0.1524 -0.1617
    2MPD2    C2   21   1.535   2.026  11.537  0.0099 -0.2169 -0.5668
    2MPD2    C3   22   1.602   1.950  11.439  0.1277  0.2459 -0.2641
    2MPD2    C4   23   1.607   1.813  11.464  0.4027 -0.0964 -0.8282
    2MPD2    C5   24   1.546   1.759  11.571  0.3150 -0.0906  0.3969
    2MPD2     H   25   1.535   2.134  11.544 -0.7657 -0.1656 -1.3235
    2MPD2    H1   26   1.681   1.759  11.407  3.1332  1.8542  0.8616
    2MPD2    H2   27   1.438   1.773  11.749 -1.5536  1.0399 -0.7160
    2MPD2    H3   28   1.575   1.655  11.586  0.6485 -0.0792 -0.2008
    2MPD2     N   29   1.688   1.998  11.330  0.4725 -0.4837 -0.4347
    2MPD2    H5   30   1.742   1.930  11.277 -0.1532  0.3330 -2.1028
    2MPD2    N1   31   1.399   2.053  11.733  0.6497 -0.1543 -0.6515
    2MPD2    H7   32   1.382   2.142  11.687 -0.3401 -0.0776 -0.1398
    3TCq1    O1   33   0.751   1.039  10.061 -0.4803 -0.5723 -0.6028
    3TCq1    C1   34   0.838   1.019   9.967 -0.0495 -0.7516 -0.3821
    3TCq1    O2   35   0.838   1.067   9.852 -0.3919  0.4433 -0.2023
    3TCq1    C2   36   0.877   0.882   9.995  0.1144  0.5924 -0.6652
    3TCq1    C3   37   0.835   0.788   9.900 -0.2650 -0.1282 -0.5198
    3TCq1    C4   38   0.834   0.660   9.939  0.0107  0.3542  0.7473
    3TCq1    C5   39   0.863   0.619  10.066  0.6815  0.4797 -0.8988
    3TCq1    C6   40   0.893   0.719  10.156  0.1552  0.4536  0.5717
    3TCq1    C7   41   0.899   0.849  10.122  0.3454  0.6095  0.0977
    3TCq1    C8   42   0.929   0.692  10.292 -0.3010 -0.3300 -0.6372
    3TCq1    O4   43   1.000   0.775  10.350  0.0108  0.0130 -1.2139
    3TCq1    C9   44   0.798   0.559   9.844  0.1023 -0.4251 -0.5586
    3TCq1    O5   45   0.746   0.598   9.737  0.6665  0.3105 -0.3002
    3TCq1    O6   46   0.852   0.448   9.865  0.7292  0.1669  0.0610
    3TCq1    H1   47   0.749   0.967  10.127 -1.1500  0.0331  0.0438
    3TCq1    H2   48   0.797   0.820   9.804 -1.4926  0.2212  0.0729
    3TCq1    H3   49   0.854   0.513  10.088 -1.2259  1.2709  2.1301
    3TCq1    H4   50   0.914   0.923  10.200 -3.0668 -0.2328  1.5596
    4MPD2     C   51   0.989   0.377  10.688 -0.5954  0.1557 -0.0713
    4MPD2    C1   52   0.894   0.326  10.610 -0.2766 -1.1093  0.0958
    4MPD2    C2   53   0.863   0.397  10.494 -0.3875 -0.2637  0.4603
    4MPD2    C3   54   0.932   0.512  10.456 -0.3287 -0.4127 -0.1512
    4MPD2    C4   55   1.026   0.560  10.545 -0.2437  0.1221  0.3133
    4MPD2    C5   56   1.044   0.493  10.663  0.1013  0.3332 -0.8373
    4MPD2     H   57   0.787   0.362  10.427 -1.4312  0.4921  1.2368
    4MPD2    H1   58   1.081   0.650  10.522  0.3404 -0.9892 -2.6155
    4MPD2    H2   59   1.024   0.323  10.775  1.0446  1.1559 -0.1229
    4MPD2    H3   60   1.131   0.524  10.720 -0.5128  0.9165 -0.2269
    4MPD2     N   61   0.897   0.567  10.335 -0.2073  0.2741  0.5062
    4MPD2    H5   62   0.819   0.528  10.284  0.7946 -2.6378  1.2303
    4MPD2    N1   63   0.824   0.207  10.638  0.6436  1.0019 -0.0862
    4MPD2    H7   64   0.751   0.181  10.572  0.2791  0.9585  0.3320
    5TCq1    O1   65   1.793   0.688  11.877 -0.2916  0.0379 -0.1993
    5TCq1    C1   66   1.736   0.602  11.964  0.0752  1.1131  0.0435
    5TCq1    O2   67   1.746   0.617  12.085 -0.3045 -0.3718  0.2397
    5TCq1    C2   68   1.613   0.565  11.900  0.7545  1.0675  0.1573
    5TCq1    C3   69   1.505   0.624  11.962 -0.1570 -0.7517 -0.1200
    5TCq1    C4   70   1.392   0.650  11.882  1.0789  0.3168 -0.4857
    5TCq1    C5   71   1.394   0.633  11.748 -0.5591  0.6349 -0.3642
    5TCq1    C6   72   1.508   0.578  11.690 -0.2488  0.1138 -0.1954
    5TCq1    C7   73   1.614   0.536  11.763  0.4233 -0.4177 -0.2817
    5TCq1    C8   74   1.491   0.518  11.557  0.3074  0.1342  0.0547
    5TCq1    O4   75   1.559   0.418  11.535  0.3063 -0.3013 -0.2571
    5TCq1    C9   76   1.279   0.718  11.941  0.6730 -0.2660 -0.1340
    5TCq1    O5   77   1.267   0.718  12.066 -0.1962 -0.0216  0.4935
    5TCq1    O6   78   1.205   0.791  11.870  0.2261 -1.0360  0.2641
    5TCq1    H1   79   1.763   0.674  11.785  0.9486  2.2582 -0.9350
    5TCq1    H2   80   1.495   0.645  12.068 -0.4093  2.6636 -0.8049
    5TCq1    H3   81   1.312   0.675  11.692 -0.5413  0.4913 -0.5000
    5TCq1    H4   82   1.705   0.499  11.718  0.0125 -2.8875  0.9073
    6MPD2     C   83   1.253   0.622  11.292 -0.0096 -0.1669 -0.8653
    6MPD2    C1   84   1.353   0.547  11.353 -0.8049 -0.1544 -0.4854
    6MPD2    C2   85   1.413   0.451  11.278 -0.2842  0.1083 -0.2804
    6MPD2    C3   86   1.373   0.429  11.149  0.7170 -0.7369  0.3468
    6MPD2    C4   87   1.270   0.500  11.096 -0.6955  0.1175 -0.0911
    6MPD2    C5   88   1.206   0.596  11.169  0.3395  0.1095  0.0886
    6MPD2     H   89   1.498   0.396  11.317  0.5552  1.8369  0.3317
    6MPD2    H1   90   1.234   0.487  10.994  1.3996  0.4261 -0.8744
    6MPD2    H2   91   1.204   0.710  11.333  0.6987 -0.8415  1.4163
    6MPD2    H3   92   1.135   0.659  11.117 -0.1242 -1.0627 -0.7068
    6MPD2     N   93   1.442   0.330  11.075 -0.1839 -0.3627 -0.5096
    6MPD2    H5   94   1.499   0.267  11.130 -1.2522 -1.5305 -0.7559
    6MPD2    N1   95   1.397   0.582  11.485 -0.2229 -0.4691  0.0885
    6MPD2    H7   96   1.368   0.673  11.520 -2.3355 -1.7315  1.6085
    7TCq1    O1   97   2.803   0.190  13.494  0.9006  0.0088  0.2200
    7TCq1    C1   98   2.900   0.102  13.528 -0.0629 -0.2122 -0.3026
    7TCq1    O2   99   3.015   0.113  13.485  0.0690 -0.5421  0.2237
    7TCq1    C2  100   2.874   0.039  13.650  0.0892  0.1817  0.4652
    7TCq1    C3  101   2.817   0.111  13.756 -0.0338  0.5078 -0.4356
    7TCq1    C4  102   2.840   0.069  13.881 -0.8232 -0.0151 -0.2444
    7TCq1    C5  103   2.919   4.689  13.908  0.0190 -0.1274  0.1540
    7TCq1    C6  104   2.978   4.617  13.800 -0.2505  0.3573  0.6188
    7TCq1    C7  105   2.960   4.660  13.667 -0.4191 -0.2501  0.6229
    7TCq1    C8  106   3.037   4.485  13.830  0.0617 -0.4018  0.2995
    7TCq1    O4  107   3.058   4.417  13.731 -0.2203  0.1124 -0.1670
    7TCq1    C9  108   2.760   0.134  13.981 -0.1053  0.2598 -0.7335
    7TCq1    O5  109   2.667   0.210  13.941  0.2100  0.2693 -0.1715
    7TCq1    O6  110   2.765   0.093  14.101 -0.2053 -0.2021 -0.0834
    7TCq1    H1  111   2.715   0.164  13.529  0.8345 -0.1776 -0.0827
    7TCq1    H2  112   2.750   0.193  13.734 -0.5174  0.9369  2.6281
    7TCq1    H3  113   2.931   4.660  14.012  2.0330 -0.0671 -0.0679
    7TCq1    H4  114   2.992   4.607  13.578  0.9634 -0.0969  1.0294
    8MPD2     C  115   3.336   4.194  14.116  0.5247  0.1919 -0.9500
    8MPD2    C1  116   3.315   4.194  13.978 -0.6489  0.4740  0.0164
    8MPD2    C2  117   3.212   4.276  13.927  0.3008 -0.1600  0.4446
    8MPD2    C3  118   3.134   4.357  14.004 -0.0519 -0.0098 -0.5593
    8MPD2    C4  119   3.157   4.350  14.143  0.3314 -0.2283 -0.1060
    8MPD2    C5  120   3.255   4.267  14.200 -0.5336 -0.6142  0.8954
    8MPD2     H  121   3.204   4.281  13.819 -1.1920 -0.5424  0.5331
    8MPD2    H1  122   3.111   4.410  14.221  0.9654  0.0302  0.0711
    8MPD2    H2  123   3.411   4.133  14.165  0.9531  0.5957 -1.1073
    8MPD2    H3  124   3.283   4.265  14.305 -3.6589 -2.6487  1.6774
    8MPD2     N  125   3.057   4.462  13.960  0.9068  0.0339 -0.5236
    8MPD2    H5  126   3.012   4.522  14.028  0.4906  0.3686 -1.0873
    8MPD2    N1  127   3.401   4.106  13.898 -0.0081 -0.4499  0.2801
    8MPD2    H7  128   3.484   4.067  13.940  1.4602 -0.1528 -2.3798
    9TCq1    O1  129   1.326   3.217  10.610 -0.4547 -0.1392 -0.2841
    9TCq1    C1  130   1.379   3.184  10.491 -0.6668  0.0672 -0.3025
    9TCq1    O2  131   1.319   3.119  10.408 -0.5014  0.2409 -0.4685
    9TCq1    C2  132   1.520   3.223  10.487 -0.1218  0.0643  0.5332
    9TCq1    C3  133   1.576   3.186  10.371 -0.6399  0.4276 -0.3224
    9TCq1    C4  134   1.710   3.182  10.357 -0.3242 -1.0659  0.0173
    9TCq1    C5  135   1.795   3.209  10.459 -0.7255 -0.8259 -0.3004
    9TCq1    C6  136   1.737   3.229  10.584 -0.5072 -0.3032 -0.3966
    9TCq1    C7  137   1.597   3.232  10.603 -0.3617 -0.2153 -0.1124
    9TCq1    C8  138   1.827   3.248  10.695 -0.2350  0.9125 -0.3547
    9TCq1    O4  139   1.946   3.246  10.670  0.2635  0.1364 -0.1535
    9TCq1    C9  140   1.769   3.162  10.231 -0.5999  0.5561  0.2083
    9TCq1    O5  141   1.689   3.156  10.132 -0.2010 -0.2534  0.4039
    9TCq1    O6  142   1.887   3.112  10.217  0.0839 -0.1707 -0.2371
    9TCq1    H1  143   1.380   3.282  10.660 -2.1061  1.7430 -0.9762
    9TCq1    H2  144   1.519   3.160  10.282  0.0380 -1.7019 -0.1255
    9TCq1    H3  145   1.902   3.218  10.442 -0.7332 -0.6491 -0.2528
    9TCq1    H4  146   1.558   3.278  10.693 -0.4680  2.5613 -1.5688
   10MPD2     C  147   1.966   3.263  10.954 -0.2406  0.2659 -0.4116
   10MPD2    C1  148   1.836   3.234  10.945 -0.2256 -0.1837  0.2215
   10MPD2    C2  149   1.762   3.212  11.057 -0.1558  0.4866 -0.3442
   10MPD2    C3  150   1.814   3.229  11.183 -0.4806  0.0962 -0.2553
   10MPD2    C4  151   1.940   3.281  11.189  0.5542 -0.3196  0.1000
   10MPD2    C5  152   2.019   3.289  11.075  0.2793  0.6695 -0.5233
   10MPD2     H  153   1.655   3.201  11.041 -0.1878  1.6317 -0.9217
   10MPD2    H1  154   1.993   3.311  11.278  0.4649 -2.7355  0.9578
   10MPD2    H2  155   2.034   3.270  10.870  2.8057 -1.6701  1.9095
   10MPD2    H3  156   2.122   3.320  11.085  0.1323  0.2844  2.2189
   10MPD2     N  157   1.748   3.216  11.305  0.1899 -0.1111 -0.0899
   10MPD2    H5  158   1.792   3.258  11.386 -1.0921 -0.3145  0.7115
   10MPD2    N1  159   1.770   3.236  10.821 -0.1182 -0.1607  0.5260
   10MPD2    H7  160   1.674   3.203  10.819 -0.4974  0.9652  0.3369
   11TCq1    O1  161   1.913   3.709  13.463  0.1301  0.8279  0.6877
   11TCq1    C1  162   1.877   3.659  13.582 -0.4543 -0.1137 -0.0368
   11TCq1    O2  163   1.788   3.710  13.649  0.1820  0.3931  0.0864
   11TCq1    C2  164   1.991   3.588  13.649  0.1849 -0.0769 -0.8628
   11TCq1    C3  165   2.123   3.600  13.606 -0.3776 -0.0614 -0.0627
   11TCq1    C4  166   2.216   3.580  13.702  0.5616  0.1361 -0.7486
   11TCq1    C5  167   2.194   3.546  13.834 -0.0161 -0.2982  0.3180
   11TCq1    C6  168   2.067   3.513  13.863 -0.6852  0.8303  0.4216
   11TCq1    C7  169   1.963   3.543  13.768 -0.2637 -0.2660 -0.3900
   11TCq1    C8  170   2.035   3.458  13.996  0.0632 -0.3681  0.5131
   11TCq1    O4  171   2.111   3.475  14.089  0.4492  0.6061 -0.3490
   11TCq1    C9  172   2.356   3.589  13.675 -0.0643  0.3476 -0.0560
   11TCq1    O5  173   2.437   3.595  13.775 -0.4859  0.3696 -0.4922
   11TCq1    O6  174   2.383   3.561  13.554  0.1741  0.8923  0.0468
   11TCq1    H1  175   1.969   3.642  13.419 -0.9373  0.0916  0.4661
   11TCq1    H2  176   2.152   3.641  13.510  0.7062  0.5248  0.5124
   11TCq1    H3  177   2.269   3.526  13.910  1.5664  1.3320 -0.8052
   11TCq1    H4  178   1.859   3.536  13.797 -0.3348 -0.9556 -0.8124
   12MPD2     C  179   1.875   3.346  14.224 -0.4032 -0.1259 -0.0573
   12MPD2    C1  180   1.856   3.309  14.091  0.8352  0.2372 -0.1324
   12MPD2    C2  181   1.765   3.214  14.059 -0.9703  0.4943  0.1952
   12MPD2    C3  182   1.707   3.145  14.160 -0.2738 -0.3401 -0.2834
   12MPD2    C4  183   1.734   3.171  14.293  0.2936 -0.2266  0.1675
   12MPD2    C5  184   1.813   3.276  14.328  0.5064 -0.1626  0.3931
   12MPD2     H  185   1.744   3.178  13.959  0.3826  0.1489  0.0318
   12MPD2    H1  186   1.688   3.117  14.375  2.4253 -0.1071  1.4290
   12MPD2    H2  187   1.934   3.433  14.248 -1.7910  0.0745  2.6660
   12MPD2    H3  188   1.831   3.303  14.431 -0.2764 -0.5027  0.6157
   12MPD2     N  189   1.607   3.049  14.131  0.2286 -0.4657  0.3353
   12MPD2    H5  190   1.572   3.045  14.036 -1.8120 -0.4501  1.0842
   12MPD2    N1  191   1.923   3.378  13.982 -0.5670 -0.3220 -0.7335
   12MPD2    H7  192   1.879   3.364  13.892 -2.3229  0.8770 -0.0840
   13TCq1    O1  193   2.017   2.992  10.416 -0.0770  0.2359 -0.5221
   13TCq1    C1  194   1.968   2.902  10.496  0.4162  0.2252  0.1160
   13TCq1    O2  195   2.005   2.863  10.603 -0.5464  0.3477 -0.2323
   13TCq1    C2  196   1.847   2.862  10.439 -0.3242  0.8780  0.2296
   13TCq1    C3  197   1.839   2.840  10.310 -0.2950 -0.7754  0.0955
   13TCq1    C4  198   1.718   2.828  10.254  0.2290 -0.3708  0.1073
   13TCq1    C5  199   1.605   2.841  10.327  0.6316  0.3321  0.0038
   13TCq1    C6  200   1.619   2.848  10.464  0.8610  0.3964  0.6049
   13TCq1    C7  201   1.743   2.855  10.522 -0.1099  0.3960  0.3318
   13TCq1    C8  202   1.503   2.857  10.555 -0.2556 -0.2954 -0.1827
   13TCq1    O4  203   1.514   2.897  10.667 -0.0987 -0.1268 -0.2956
   13TCq1    C9  204   1.702   2.821  10.110 -0.4691 -0.3297 -0.2236
   13TCq1    O5  205   1.585   2.849  10.067  0.1180  0.3208  0.3393
   13TCq1    O6  206   1.799   2.837  10.036  0.5789 -0.0887  0.3552
   13TCq1    H1  207   1.961   3.009  10.337  1.9561  2.2920 -1.4971
   13TCq1    H2  208   1.930   2.836  10.251 -0.5263  1.3211 -0.4364
   13TCq1    H3  209   1.508   2.848  10.279  0.7817  0.8852 -0.2206
   13TCq1    H4  210   1.739   2.864  10.630 -1.4750 -2.2847  0.5083
   14MPD2     C  211   1.164   2.774  10.456  0.1925  0.0543 -0.2835
   14MPD2    C1  212   1.265   2.812  10.546 -0.4965  0.0559 -0.0583
   14MPD2    C2  213   1.224   2.848  10.672  0.2065  0.5002  0.4429
   14MPD2    C3  214   1.096   2.842  10.714 -0.3748 -0.5295 -0.2016
   14MPD2    C4  215   1.000   2.825  10.617  0.5737  0.2599 -0.1003
   14MPD2    C5  216   1.035   2.782  10.490  0.0878 -0.0338  0.2584
   14MPD2     H  217   1.299   2.881  10.742  1.6236  0.3717 -1.0095
   14MPD2    H1  218   0.896   2.829  10.645  0.6419 -2.8033  0.5974
   14MPD2    H2  219   1.186   2.728  10.360 -1.5926 -1.0099 -0.1736
   14MPD2    H3  220   0.953   2.764  10.422 -0.7277 -0.3304  1.3202
   14MPD2     N  221   1.071   2.895  10.844  0.0445 -0.2865 -0.0412
   14MPD2    H5  222   1.152   2.925  10.899 -0.0979 -0.4609  0.2654
   14MPD2    N1  223   1.400   2.811  10.492 -0.1191  0.0491  0.2476
   14MPD2    H7  224   1.415   2.765  10.403  3.5205  1.6560  0.0426
   15TCq1    O1  225   2.690   1.956   2.557 -0.4479 -0.0339  0.0112
   15TCq1    C1  226   2.559   1.983   2.594 -0.4300  0.1725  0.2036
   15TCq1    O2  227   2.503   1.936   2.690 -0.2026  0.5293  0.0504
   15TCq1    C2  228   2.495   2.063   2.493 -0.4811 -0.1342  0.4703
   15TCq1    C3  229   2.393   2.130   2.545  0.5952 -0.1621  0.4218
   15TCq1    C4  230   2.316   2.208   2.466 -0.3074 -0.1425 -0.2567
   15TCq1    C5  231   2.334   2.202   2.333 -0.5104  0.1642 -0.5330
   15TCq1    C6  232   2.440   2.132   2.282  0.5227  0.0513  0.1937
   15TCq1    C7  233   2.533   2.073   2.361 -0.2400  1.0142 -0.8279
   15TCq1    C8  234   2.472   2.135   2.141 -0.4372 -0.7169 -0.3382
   15TCq1    O4  235   2.579   2.085   2.106  0.5877 -0.2307 -0.1988
   15TCq1    C9  236   2.223   2.290   2.525 -0.2036  0.1376  0.1214
   15TCq1    O5  237   2.144   2.345   2.444  0.2073  0.1959 -0.0999
   15TCq1    O6  238   2.192   2.269   2.646 -0.1528 -0.4626 -0.1255
   15TCq1    H1  239   2.718   2.035   2.507  0.3186 -0.2838  0.0466
   15TCq1    H2  240   2.365   2.119   2.649 -0.1482 -1.0604  0.1246
   15TCq1    H3  241   2.277   2.267   2.268  1.2986  3.7183  1.4137
   15TCq1    H4  242   2.605   2.005   2.316  0.9625  1.4438  0.4511
   16MPD2     C  243   2.259   2.256   1.867  0.8255  0.6548  0.3159
   16MPD2    C1  244   2.375   2.190   1.915 -0.8029 -0.1234  0.6780
   16MPD2    C2  245   2.474   2.154   1.833 -0.2787  0.2992  0.4628
   16MPD2    C3  246   2.461   2.176   1.699 -0.0939 -0.1339  0.6089
   16MPD2    C4  247   2.354   2.247   1.652  0.6434  0.1241  0.0049
   16MPD2    C5  248   2.255   2.290   1.732  0.2513 -0.4749 -0.4982
   16MPD2     H  249   2.560   2.097   1.867 -0.0530  0.3505 -0.0277
   16MPD2    H1  250   2.343   2.273   1.547  0.3576  0.0593  0.0190
   16MPD2    H2  251   2.175   2.280   1.931  0.5246 -2.4787  1.0871
   16MPD2    H3  252   2.175   2.345   1.683  0.9802  0.9089 -0.1504
   16MPD2     N  253   2.563   2.116   1.612 -0.8316  0.8788  0.3692
   16MPD2    H5  254   2.643   2.073   1.658 -1.0020 -0.8784 -0.9860
   16MPD2    N1  255   2.366   2.175   2.058  0.0781 -0.7203 -0.0548
   16MPD2    H7  256   2.280   2.201   2.106  0.1616  0.5867 -0.6143
   17TCq1    O1  257   1.224   1.901  10.779 -0.2994  0.2771  0.1263
   17TCq1    C1  258   1.170   2.017  10.833 -0.0181 -0.0765 -0.1035
   17TCq1    O2  259   1.102   2.033  10.929  0.5609 -0.4241  0.0694
   17TCq1    C2  260   1.272   2.114  10.795 -0.3758  0.0693 -0.2501
   17TCq1    C3  261   1.341   2.166  10.905  0.2966  0.3536 -0.0302
   17TCq1    C4  262   1.453   2.239  10.871  0.0243  0.4291 -0.0875
   17TCq1    C5  263   1.509   2.253  10.747  0.9047  0.3368 -0.6878
   17TCq1    C6  264   1.448   2.185  10.646 -1.2473  0.3335  0.5209
   17TCq1    C7  265   1.333   2.111  10.673  0.2978  0.3452  0.0740
   17TCq1    C8  266   1.500   2.193  10.506 -1.0039 -0.5014  0.6287
   17TCq1    O4  267   1.426   2.154  10.415 -0.3868 -0.5612  0.6627
   17TCq1    C9  268   1.540   2.281  10.985 -0.0669 -0.1253  0.5570
   17TCq1    O5  269   1.474   2.283  11.092 -0.0596  0.4665 -0.0634
   17TCq1    O6  270   1.656   2.320  10.960  0.3851 -0.1768 -0.0101
   17TCq1    H1  271   1.302   1.921  10.723 -1.6285 -0.6088 -2.0071
   17TCq1    H2  272   1.313   2.150  11.008  2.3929 -0.4195  0.4039
   17TCq1    H3  273   1.586   2.329  10.741 -0.0838  1.4094  0.3323
   17TCq1    H4  274   1.285   2.057  10.593  1.7273 -0.5782 -0.1636
   18MPD2     C  275   1.635   2.309  10.255 -0.0474  0.8111 -0.3124
   18MPD2    C1  276   1.684   2.310  10.390  0.0379  0.3437 -0.5281
   18MPD2    C2  277   1.812   2.355  10.413  0.5407 -0.5049 -0.1488
   18MPD2    C3  278   1.886   2.392  10.303  0.1315 -0.4839  1.1066
   18MPD2    C4  279   1.835   2.392  10.177  1.1723  0.0245  0.0903
   18MPD2    C5  280   1.714   2.353  10.158  0.7667 -0.2098 -0.8065
   18MPD2     H  281   1.856   2.358  10.513  0.4970 -1.7389 -0.0907
   18MPD2    H1  282   1.893   2.413  10.087  3.5747 -1.0996  1.3701
   18MPD2    H2  283   1.537   2.271  10.228 -0.2098 -0.4291  2.0394
   18MPD2    H3  284   1.681   2.328  10.058  0.6101  1.1248 -1.0753
   18MPD2     N  285   2.022   2.431  10.308  0.6853  0.3921 -0.0012
   18MPD2    H5  286   2.061   2.476  10.226 -0.6039 -0.1891 -0.9339
   18MPD2    N1  287   1.614   2.263  10.505 -0.5377  0.1907  0.5129
   18MPD2    H7  288   1.649   2.284  10.598 -1.2396 -0.4290  0.9160
   19TMC2    C1  289   2.394   3.030  13.826 -0.7421  0.3133 -0.3234
   19TMC2    C2  290   2.278   3.098  13.816 -0.5681 -0.0371 -0.1906
   19TMC2    C3  291   2.167   3.018  13.820 -0.1218 -0.1083  0.0928
   19TMC2    C4  292   2.401   2.891  13.816  0.0957  0.2285 -0.1730
   19TMC2    C5  293   2.286   2.821  13.810 -0.0170 -0.0093  0.0452
   19TMC2    C6  294   2.165   2.879  13.826 -0.2342  0.1125 -0.4749
   19TMC2     C  295   2.515   3.112  13.815  0.3954 -1.0281 -0.5632
   19TMC2     O  296   2.504   3.227  13.773  0.3247 -0.0326  0.0811
   19TMC2     H  297   2.267   3.202  13.842 -1.4814 -0.3274  0.5957
   19TMC2    H1  298   2.497   2.840  13.819  0.9253  1.6724 -1.9357
   19TMC2    H2  299   2.073   2.823  13.834  1.8846 -3.2692  0.5566
   19TMC2    C7  300   2.295   2.681  13.867  0.0521  0.5089 -0.1524
   19TMC2    C8  301   2.034   3.075  13.819  0.4830  0.4950  0.2985
   19TMC2    O1  302   2.204   2.636  13.933 -0.2738 -0.1716 -0.0252
   19TMC2    O2  303   1.931   3.015  13.849 -0.0815  0.5181 -0.6942
   19TMC2    O5  304   2.053   3.181  13.730 -0.5192  0.4733 -0.2400
   19TMC2    H5  305   2.142   3.217  13.710 -0.5668  0.7237 -0.0025
   20MPD2     C  306   2.795   3.196  13.778 -0.2221  0.2117  1.0893
   20MPD2    C1  307   2.751   3.100  13.867 -0.4921  0.3203  0.1574
   20MPD2    C2  308   2.839   3.034  13.956 -0.1311 -0.7103 -0.1394
   20MPD2    C3  309   2.969   3.070  13.966 -0.1400  0.1399  0.5305
   20MPD2    C4  310   3.008   3.177  13.885 -0.0145 -0.4816 -0.0478
   20MPD2    C5  311   2.924   3.237  13.798 -0.3752 -0.3178 -0.3076
   20MPD2     H  312   2.804   2.945  14.006  1.6085 -1.8088 -0.8983
   20MPD2    H1  313   3.111   3.210  13.880 -0.3156  0.4318 -0.3488
   20MPD2    H2  314   2.738   3.246  13.701  1.3101  0.0483 -0.1426
   20MPD2    H3  315   2.976   3.309  13.736 -1.2844  1.1540  0.6554
   20MPD2     N  316   3.052   3.028  14.067  0.1694  1.0305  0.6794
   20MPD2    H5  317   3.126   3.096  14.081  1.5687 -0.2448 -0.4716
   20MPD2    N1  318   2.622   3.047  13.866  0.3500  0.0527 -0.3085
   20MPD2    H7  319   2.600   2.966  13.924  1.2103 -0.5623 -0.8404
   21MPD2     C  320   1.020   3.642  14.485 -0.3991  0.3959  0.1143
   21MPD2    C1  321   1.001   3.500  14.483 -0.0570 -0.2336 -0.8047
   21MPD2    C2  322   0.876   3.453  14.458 -0.1991  0.1692  0.2169
   21MPD2    C3  323   0.778   3.541  14.415  0.6039  0.1181 -0.2736
   21MPD2    C4  324   0.796   3.678  14.417 -0.1777 -0.2881  0.1865
   21MPD2    C5  325   0.918   3.728  14.453 -0.3781  0.1470 -0.1019
   21MPD2     H  326   0.867   3.345  14.454  2.3868  0.0409 -2.1896
   21MPD2    H1  327   0.709   3.740  14.400 -0.8684 -1.1079  0.6769
   21MPD2    H2  328   1.115   3.680  14.522  0.0327  0.5487 -1.1466
   21MPD2    H3  329   0.940   3.834  14.453  0.5891 -0.0458 -3.3386
   21MPD2     N  330   0.653   3.493  14.373  0.3745 -0.2531  0.3547
   21MPD2    H5  331   0.585   3.561  14.342  1.3519  0.4312 -0.2854
   21MPD2    N1  332   1.106   3.408  14.518 -0.0770 -0.6376 -0.3125
   21MPD2    H7  333   1.069   3.317  14.543 -0.8991 -0.8589 -2.3472
   22TCq2    C1  334   0.611   3.357  14.365  0.1951  0.1779  0.4621
   22TCq2    O2  335   0.669   3.253  14.399  0.6807  0.3360  0.3705
   22TCq2    C2  336   0.465   3.348  14.343  0.0593 -0.1135  0.2736
   22TCq2    C3  337   0.412   3.218  14.331  0.1932 -0.1562  0.8391
   22TCq2    C4  338   0.278   3.203  14.349  0.4828 -0.4279  0.0587
   22TCq2    C5  339   0.193   3.311  14.366 -0.2253 -0.3678 -0.0018
   22TCq2    C6  340   0.253   3.433  14.370 -0.8310 -0.3493  0.3501
   22TCq2    C7  341   0.388   3.456  14.357  0.0668 -0.3029  0.0907
   22TCq2    C8  342   0.173   3.555  14.406  0.4025  0.0933 -0.0361
   22TCq2    O4  343   0.235   3.661  14.407 -0.8707  0.2887 -0.0379
   22TCq2    C9  344   0.230   3.067  14.350 -0.2741 -0.0623 -0.1513
   22TCq2    O5  345   0.313   2.969  14.352  0.1504 -0.2631 -0.2242
   22TCq2    O6  346   0.106   3.054  14.364 -1.0580 -0.1481 -0.0956
   22TCq2    H2  347   0.473   3.129  14.325  1.3123  0.8487 -2.9579
   22TCq2    H3  348   0.085   3.299  14.364 -0.2872  0.0946  0.4496
   22TCq2    H4  349   0.425   3.554  14.383 -0.8236 -0.4133  1.8034
   23MPD2     C  350   1.598   4.087  14.299  0.2756  0.3896  0.0771
   23MPD2    C1  351   1.549   4.180  14.384  0.2987 -0.4198  0.8572
   23MPD2    C2  352   1.450   4.262  14.342  0.0422 -0.4802 -0.3375
   23MPD2    C3  353   1.400   4.249  14.215 -0.4067  0.7747 -0.9147
   23MPD2    C4  354   1.459   4.163  14.126 -0.5482 -0.2369  0.1434
   23MPD2    C5  355   1.558   4.078  14.166 -0.2711  0.5720 -0.6665
   23MPD2     H  356   1.412   4.336  14.411 -1.6015 -0.2746 -1.4722
   23MPD2    H1  357   1.438   4.152  14.020 -0.2742  0.3735  0.0224
   23MPD2    H2  358   1.666   4.006  14.324  0.1052  1.0464  2.6539
   23MPD2    H3  359   1.587   4.003  14.094  0.8945  1.9630 -1.6389
   23MPD2     N  360   1.286   4.316  14.167  0.2220  0.4239 -0.4563
   23MPD2    H5  361   1.245   4.287  14.079  1.4385 -0.2880 -0.7701
   23MPD2    N1  362   1.592   4.176  14.520 -0.2382  0.7050 -0.0200
   23MPD2    H7  363   1.533   4.230  14.583  0.3048  0.5228  0.6499
   24TCq2    C1  364   1.216   4.412  14.236  0.6593  0.1728  0.2970
   24TCq2    O2  365   1.252   4.478  14.335  0.1460 -0.1545  0.1549
   24TCq2    C2  366   1.084   4.448  14.179 -0.6089 -0.2062 -0.2346
   24TCq2    C3  367   1.007   4.537  14.247 -0.3361 -0.0800 -0.0018
   24TCq2    C4  368   0.871   4.538  14.229  0.1728 -0.2021  0.0725
   24TCq2    C5  369   0.801   4.438  14.173  0.7389 -0.8864 -0.2672
   24TCq2    C6  370   0.881   4.346  14.112  0.4998  0.4728  0.5745
   24TCq2    C7  371   1.020   4.355  14.099  0.0610  0.6992 -0.1421
   24TCq2    C8  372   0.822   4.230  14.044  0.1118  0.5909  0.9360
   24TCq2    O4  373   0.878   4.187  13.947  0.7142  0.8293  0.0093
   24TCq2    C9  374   0.798   4.637  14.304  0.3494 -0.2224 -0.1477
   24TCq2    O5  375   0.863   0.020  14.327  0.0204  0.1558  0.5985
   24TCq2    O6  376   0.681   4.612  14.337  0.6900  0.2208 -0.3080
   24TCq2    H2  377   1.049   4.605  14.320  1.9833 -1.3915 -0.1146
   24TCq2    H3  378   0.694   4.436  14.160  0.6792  1.9731 -0.2643
   24TCq2    H4  379   1.069   4.280  14.038 -0.9190 -0.6654  0.7499
   25TMC2    C1  380   0.935   1.716  11.407  0.1039  0.2281  0.7934
   25TMC2    C2  381   1.035   1.787  11.465  0.0531 -0.1439 -0.0240
   25TMC2    C3  382   1.004   1.911  11.508  0.3768 -0.9487  0.5716
   25TMC2    C4  383   0.810   1.770  11.377 -0.4777 -0.1345 -0.4542
   25TMC2    C5  384   0.780   1.889  11.440  0.3989  0.1817  0.3041
   25TMC2    C6  385   0.877   1.959  11.511 -0.3256 -0.0611 -0.1539
   25TMC2     C  386   0.960   1.573  11.403  0.2888  0.0509  0.0240
   25TMC2     O  387   1.047   1.524  11.469 -0.2802  0.0121 -0.0252
   25TMC2     H  388   1.129   1.740  11.494 -0.4303 -1.4846 -0.6734
   25TMC2    H1  389   0.732   1.718  11.324 -0.4986 -1.8465  1.2361
   25TMC2    H2  390   0.841   2.049  11.558 -0.9109  0.3609 -1.4212
   25TMC2    C7  391   0.644   1.897  11.488  0.1525 -0.0017 -0.3248
   25TMC2    C8  392   1.090   1.961  11.609  0.1225 -0.0913 -0.1185
   25TMC2    O1  393   0.558   1.846  11.416  0.2159 -0.0121  0.2215
   25TMC2    O2  394   1.136   1.901  11.706 -0.3304  0.1661 -0.0974
   25TMC2    O5  395   1.062   2.093  11.603  0.2558 -0.9974 -0.0105
   25TMC2    H5  396   1.036   2.119  11.512  1.8678  0.4236 -0.0767
   26MPD2     C  397   0.731   1.125  11.319 -0.1268 -0.4063 -0.4136
   26MPD2    C1  398   0.682   1.217  11.239  0.7594  0.3123  0.2185
   26MPD2    C2  399   0.723   1.348  11.251 -0.0942  0.1359 -0.0195
   26MPD2    C3  400   0.826   1.378  11.329  0.5606 -0.0449  0.5415
   26MPD2    C4  401   0.878   1.286  11.414 -0.1225 -0.7599  0.0839
   26MPD2    C5  402   0.839   1.158  11.403 -0.1507 -0.0860 -0.1039
   26MPD2     H  403   0.671   1.428  11.200  1.7741  0.3018 -1.6413
   26MPD2    H1  404   0.964   1.300  11.478  0.2623  0.4034 -0.6835
   26MPD2    H2  405   0.703   1.021  11.304 -2.6413  0.4061 -1.4051
   26MPD2    H3  406   0.882   1.080  11.464  0.6179  0.0979 -0.4130
   26MPD2     N  407   0.863   1.513  11.329  0.0038  1.1031 -0.6509
   26MPD2    H5  408   0.806   1.574  11.271  0.1289  2.1016  0.2739
   26MPD2    N1  409   0.586   1.172  11.146  0.8490  0.6067 -0.1839
   26MPD2    H7  410   0.562   1.073  11.138 -3.0781  1.3526  2.3833
   27TMC2    C1  411   4.651   3.318  11.931 -0.4458 -0.2586 -0.3905
   27TMC2    C2  412   4.614   3.345  11.803 -1.4647  0.0840  0.0623
   27TMC2    C3  413   4.643   3.454  11.741  0.0962  0.1226  0.0979
   27TMC2    C4  414   4.715   3.410  12.004  0.4368 -0.0916  0.5611
   27TMC2    C5  415   0.028   3.529  11.938  0.7187 -0.4076 -0.8613
   27TMC2    C6  416   4.700   3.560  11.810 -0.6165  0.2839  0.1783
   27TMC2     C  417   4.553   3.235  12.002 -0.1766 -0.3859 -0.0763
   27TMC2     O  418   4.537   3.116  11.973 -0.1489  0.8715  0.1131
   27TMC2     H  419   4.551   3.273  11.752  0.1103 -0.3600 -1.2506
   27TMC2    H1  420   0.006   3.393  12.110  1.2828  0.5815  0.5542
   27TMC2    H2  421   4.718   3.652  11.756  0.0529  2.0684  3.4731
   27TMC2    C7  422   0.054   3.636  12.028 -0.0018  0.3923  1.4734
   27TMC2    C8  423   4.564   3.502  11.629  0.1101 -0.1669  0.2359
   27TMC2    O1  424   0.078   3.612  12.144  0.2539  0.4671 -0.1128
   27TMC2    O2  425   4.478   3.582  11.651 -0.4662 -0.4089 -0.6103
   27TMC2    O5  426   4.550   3.394  11.548  0.3079 -0.2171  0.7921
   27TMC2    H5  427   4.638   3.350  11.539  1.8194  3.0571 -0.5388
   28MPD2     C  428   4.167   3.169  12.337 -0.4369 -0.1487  0.0116
   28MPD2    C1  429   4.182   3.299  12.295 -1.1607 -0.0922  0.7976
   28MPD2    C2  430   4.278   3.341  12.209 -0.0324  0.0984  0.4539
   28MPD2    C3  431   4.375   3.258  12.158 -0.1175  0.5565 -0.3919
   28MPD2    C4  432   4.368   3.133  12.210  0.6149 -0.0789  0.8984
   28MPD2    C5  433   4.267   3.089  12.287 -0.6035 -0.7291  0.0151
   28MPD2     H  434   4.296   3.443  12.178 -2.2921  0.7537  1.3419
   28MPD2    H1  435   4.450   3.066  12.189 -0.4371 -1.6681  1.8904
   28MPD2    H2  436   4.086   3.136  12.402 -0.5741  1.4149  0.6215
   28MPD2    H3  437   4.274   2.987  12.325  0.3782  0.0461  1.9170
   28MPD2     N  438   4.484   3.305  12.095 -0.0545 -0.0239  0.5114
   28MPD2    H5  439   4.496   3.405  12.079  0.7080 -0.3638 -1.0335
   28MPD2    N1  440   4.081   3.379  12.350 -0.1615 -0.1912  0.2463
   28MPD2    H7  441   4.023   3.343  12.426 -0.7625 -1.2345 -0.7062
   29MPD2     C  442   3.413   1.338  14.174 -0.7424  0.3134 -0.9212
   29MPD2    C1  443   3.525   1.326  14.253 -0.2560  0.3976  0.1451
   29MPD2    C2  444   3.579   1.446  14.307 -0.5778  0.0114  0.2953
   29MPD2    C3  445   3.512   1.567  14.290 -0.0818 -0.4460  0.8440
   29MPD2    C4  446   3.398   1.568  14.203 -0.1220 -0.2301  0.5047
   29MPD2    C5  447   3.350   1.453  14.154 -0.4509 -0.4303 -0.1201
   29MPD2     H  448   3.661   1.442  14.377 -1.1438  0.3058  0.9701
   29MPD2    H1  449   3.332   1.652  14.187 -0.3645 -0.5402 -0.1075
   29MPD2    H2  450   3.360   1.263  14.116 -0.7945 -0.2308 -0.1693
   29MPD2    H3  451   3.266   1.452  14.086 -0.2680 -2.7085 -0.3211
   29MPD2     N  452   3.548   1.689  14.353 -0.0331  0.6032 -0.8911
   29MPD2    H5  453   3.479   1.763  14.347 -1.6061 -1.0236 -2.6943
   29MPD2    N1  454   3.596   1.206  14.274  0.8495  0.2972 -0.6920
   29MPD2    H7  455   3.671   1.217  14.341  0.8687 -0.8124 -0.5404
   30TCq2    C1  456   3.632   1.707  14.459  0.2164 -0.2693  0.5001
   30TCq2    O2  457   3.700   1.622  14.517  0.0530  0.2911 -0.1769
   30TCq2    C2  458   3.640   1.843  14.507 -0.0264 -0.0958 -0.1346
   30TCq2    C3  459   3.698   1.863  14.625 -0.6064  0.2794  0.3949
   30TCq2    C4  460   3.727   1.991  14.663 -0.1090 -0.4360  0.3802
   30TCq2    C5  461   3.693   2.097  14.584  0.4728 -0.9263  0.0132
   30TCq2    C6  462   3.640   2.071  14.461 -0.0249  0.0916 -0.1948
   30TCq2    C7  463   3.611   1.945  14.419  0.3605  0.1288 -0.1332
   30TCq2    C8  464   3.663   2.163  14.349  0.1644 -0.4133 -0.3390
   30TCq2    O4  465   3.611   2.136  14.246  0.6016 -0.2347 -0.4067
   30TCq2    C9  466   3.792   2.012  14.791  0.3705  0.4706 -0.4439
   30TCq2    O5  467   3.809   2.131  14.834  0.4325 -0.5194 -0.4647
   30TCq2    O6  468   3.849   1.912  14.843  0.0998 -0.2944  0.0242
   30TCq2    H2  469   3.717   1.782  14.694 -1.6090 -1.0085 -0.8450
   30TCq2    H3  470   3.716   2.197  14.617 -2.8258 -0.5165  1.1028
   30TCq2    H4  471   3.581   1.922  14.317  2.6644  0.5411 -0.9076
   31MPD2     C  472   1.844   0.110  14.667 -0.2248 -0.2665  0.1294
   31MPD2    C1  473   1.712   0.139  14.630 -0.0991  0.1645  0.7372
   31MPD2    C2  474   1.607   0.063  14.684 -0.3575 -0.0317  0.2830
   31MPD2    C3  475   1.637   4.709  14.794  0.5607 -0.5657 -0.0870
   31MPD2    C4  476   1.763   4.688  14.835  0.1911  0.3182 -0.3876
   31MPD2    C5  477   1.870   0.025  14.772  0.6876  0.1813 -0.4309
   31MPD2     H  478   1.505   0.080  14.653 -0.1157 -0.7265 -0.9097
   31MPD2    H1  479   1.781   4.616  14.913 -2.5492 -0.4327 -0.4559
   31MPD2    H2  480   1.927   0.171  14.632  0.3075 -1.5605 -0.8379
   31MPD2    H3  481   1.967   0.012  14.819  1.9130  0.9753 -2.7590
   31MPD2     N  482   1.544   4.632  14.874  0.1833 -0.0949 -0.1430
   31MPD2    H5  483   1.582   4.567  14.943 -3.0870 -0.3656  1.4417
   31MPD2    N1  484   1.688   0.228  14.527  0.0062  0.7086 -0.3325
   31MPD2    H7  485   1.764   0.289  14.498  0.7062 -0.3167 -0.6494
   32TCq2    C1  486   1.411   4.638  14.855  0.3850  0.0402 -0.0952
   32TCq2    O2  487   1.365   0.004  14.784 -0.4395 -0.0193 -0.1289
   32TCq2    C2  488   1.323   4.562  14.939  0.2914  0.0563  0.4169
   32TCq2    C3  489   1.190   4.597  14.928 -1.0645 -0.5371 -0.1572
   32TCq2    C4  490   1.092   4.559  15.019  0.1823 -0.4213  0.2603
   32TCq2    C5  491   1.132   4.489  15.128 -0.5369 -0.2329  0.1779
   32TCq2    C6  492   1.263   4.450  15.135 -0.3662  1.0320  0.3471
   32TCq2    C7  493   1.365   4.500  15.049  1.0081  1.0009 -0.4815
   32TCq2    C8  494   1.316   4.409  15.262  0.2602 -0.2674 -0.0161
   32TCq2    O4  495   1.409   4.331  15.265  0.2834 -0.1977  0.2121
   32TCq2    C9  496   0.961   4.612  15.012 -0.7964 -0.4730 -0.2418
   32TCq2    O5  497   0.944   4.683  14.905 -0.4858  0.7408 -0.2228
   32TCq2    O6  498   0.876   4.598  15.100  0.2166  0.1166 -0.0108
   32TCq2    H2  499   1.158   4.655  14.843 -0.6337  0.7224  0.5354
   32TCq2    H3  500   1.059   4.434  15.186  0.3324  1.2257  2.6636
   32TCq2    H4  501   1.468   4.471  15.067  0.0922 -1.0563  1.5079
   33MPD2     C  502   2.730   2.899  10.123  0.4923  0.0841 -0.0637
   33MPD2    C1  503   2.595   2.885  10.124 -0.3555  0.1455 -0.0963
   33MPD2    C2  504   2.519   2.946  10.023  0.6050  0.3110 -0.1368
   33MPD2    C3  505   2.579   3.024   9.924 -0.0650  0.1764  0.3395
   33MPD2    C4  506   2.722   3.047   9.932 -0.1532  0.1689  1.0345
   33MPD2    C5  507   2.788   2.967  10.020 -0.9086  0.9895 -0.1953
   33MPD2     H  508   2.412   2.929  10.037  1.2215 -4.2534 -0.8987
   33MPD2    H1  509   2.768   3.115   9.862  1.2223 -3.7526 -1.9267
   33MPD2    H2  510   2.794   2.848  10.194  1.1620  0.1568 -0.6142
   33MPD2    H3  511   2.895   2.980  10.030 -0.7966 -2.0451  2.4901
   33MPD2     N  512   2.503   3.091   9.821 -0.1883  0.5133  0.3785
   33MPD2    H5  513   2.541   3.176   9.781 -0.2211  1.3971  2.2330
   33MPD2    N1  514   2.538   2.796  10.222 -0.0377  0.5812 -0.7069
   33MPD2    H7  515   2.598   2.742  10.283  0.2692  0.0152 -1.5215
   34TCq2    C1  516   2.372   3.046   9.783 -0.5028  0.3013 -0.0743
   34TCq2    O2  517   2.312   2.952   9.833  0.2789  0.2650 -0.3976
   34TCq2    C2  518   2.296   3.140   9.701  0.5318 -0.6778  0.2613
   34TCq2    C3  519   2.171   3.096   9.669  0.0940  0.6189 -0.1438
   34TCq2    C4  520   2.106   3.153   9.562  1.0213  0.1722 -0.1368
   34TCq2    C5  521   2.162   3.252   9.490 -1.0289 -0.2746  0.6244
   34TCq2    C6  522   2.290   3.292   9.522  0.1490  1.1008 -0.8867
   34TCq2    C7  523   2.362   3.232   9.622 -0.3038  0.3381 -0.2495
   34TCq2    C8  524   2.363   3.380   9.426  0.1569  0.2789 -1.0755
   34TCq2    O4  525   2.474   3.419   9.464 -0.5456  0.4408 -0.2697
   34TCq2    C9  526   1.967   3.127   9.525  0.2746 -0.4058 -0.6379
   34TCq2    O5  527   1.914   3.041   9.602 -0.4395 -0.6471 -0.1707
   34TCq2    O6  528   1.924   3.180   9.417 -0.0992  0.4076  0.1417
   34TCq2    H2  529   2.113   3.023   9.724 -1.0443  1.2323 -0.5100
   34TCq2    H3  530   2.096   3.320   9.437  0.8478  3.0746  2.5673
   34TCq2    H4  531   2.469   3.250   9.617 -0.1271  0.0049  2.7505
   35MPD2     C  532   3.986   4.300  11.888 -0.0165  0.1896  0.1546
   35MPD2    C1  533   3.953   4.175  11.934  0.0784 -0.3336 -0.2565
   35MPD2    C2  534   3.839   4.124  11.885 -1.0109 -0.1540 -0.5817
   35MPD2    C3  535   3.750   4.190  11.801  0.1223  0.1559  0.2034
   35MPD2    C4  536   3.790   4.315  11.753  0.3946  0.2915 -0.6627
   35MPD2    C5  537   3.910   4.367  11.791  0.0302 -0.2755 -0.8045
   35MPD2     H  538   3.815   4.019  11.898  1.4302 -0.9127 -2.4124
   35MPD2    H1  539   3.726   4.368  11.683 -1.2800 -0.4557  0.2788
   35MPD2    H2  540   4.076   4.352  11.918 -0.8420  2.4155 -1.1691
   35MPD2    H3  541   3.933   4.466  11.754 -0.7210  0.5490  0.8983
   35MPD2     N  542   3.637   4.128  11.761 -0.3535  0.1983 -0.3794
   35MPD2    H5  543   3.621   4.034  11.794  0.3789  0.1896 -0.0480
   35MPD2    N1  544   4.047   4.108  12.029 -0.1089 -0.0764  0.0202
   35MPD2    H7  545   4.134   4.154  12.056 -0.3923 -0.2916  1.3041
   36TCq2    C1  546   3.512   4.193  11.740 -0.0717  0.4379 -0.2203
   36TCq2    O2  547   3.473   4.307  11.737 -0.1514  0.0055 -0.0808
   36TCq2    C2  548   3.404   4.093  11.756 -0.4806 -0.2266  0.0890
   36TCq2    C3  549   3.293   4.144  11.819  0.5438 -0.2008 -0.1112
   36TCq2    C4  550   3.198   4.053  11.858  0.5450  0.0498  0.3017
   36TCq2    C5  551   3.217   3.919  11.864  0.2792 -0.0882 -0.0583
   36TCq2    C6  552   3.333   3.870  11.809 -0.0142 -0.1436 -1.0815
   36TCq2    C7  553   3.430   3.958  11.757  0.0654  1.1747  0.2658
   36TCq2    C8  554   3.336   3.725  11.783  0.1801 -0.1378  0.4901
   36TCq2    O4  555   3.228   3.671  11.768  0.7728 -0.3431 -0.1116
   36TCq2    C9  556   3.080   4.099  11.922  0.4164  0.6858  0.8394
   36TCq2    O5  557   3.092   4.219  11.966 -0.3619 -0.6806 -0.1921
   36TCq2    O6  558   2.986   4.019  11.956 -0.0438  0.1469 -0.0256
   36TCq2    H2  559   3.278   4.252  11.819 -0.7291 -0.3723 -2.0227
   36TCq2    H3  560   3.139   3.863  11.914 -0.8603  0.4817 -1.1847
   36TCq2    H4  561   3.509   3.920  11.693  0.1002  0.2494  0.8495
   37TMC2    C1  562   0.691   4.314  11.580  0.0398  0.0259 -0.5729
   37TMC2    C2  563   0.682   4.313  11.446  0.2186  0.2728 -0.2862
   37TMC2    C3  564   0.805   4.318  11.375  0.2203 -0.8488  0.5125
   37TMC2    C4  565   0.815   4.320  11.655  0.5592  0.4012 -0.1119
   37TMC2    C5  566   0.922   4.344  11.578 -0.8588 -0.0876  0.1345
   37TMC2    C6  567   0.923   4.318  11.442 -1.0664 -0.1039 -0.0071
   37TMC2     C  568   0.570   4.289  11.647 -0.0188  0.1800 -0.2672
   37TMC2     O  569   0.465   4.303  11.580 -0.4475  0.1414 -0.5890
   37TMC2     H  570   0.587   4.316  11.393  0.3180 -0.5073 -0.5018
   37TMC2    H1  571   0.818   4.320  11.764  3.1065  1.2680 -0.1847
   37TMC2    H2  572   1.015   4.309  11.385 -0.8288 -1.3679  0.5787
   37TMC2    C7  573   1.053   4.339  11.642  0.0944 -0.3614 -0.2236
   37TMC2    C8  574   0.813   4.285  11.236 -0.7949 -0.3254  0.4843
   37TMC2    O1  575   1.060   4.288  11.753 -0.0188 -0.0016 -0.1573
   37TMC2    O2  576   0.913   4.301  11.166 -0.7553  0.0331 -0.2054
   37TMC2    O5  577   0.712   4.202  11.208 -0.1640  0.1633 -0.2017
   37TMC2    H5  578   0.657   4.182  11.286  0.1274 -1.3272 -0.3808
   38MPD2     C  579   0.312   4.240  12.073 -0.0389 -0.6997  0.1344
   38MPD2    C1  580   0.449   4.210  12.098  0.5025 -0.0094  0.0528
   38MPD2    C2  581   0.546   4.227  12.005  0.4943 -0.2934 -0.6028
   38MPD2    C3  582   0.507   4.259  11.877  0.4045  0.3195  0.0108
   38MPD2    C4  583   0.372   4.301  11.860 -0.2711 -0.7226 -0.5062
   38MPD2    C5  584   0.278   4.295  11.956  0.0408  0.1848  0.0242
   38MPD2     H  585   0.647   4.194  12.028  0.4527 -0.3010 -0.4359
   38MPD2    H1  586   0.346   4.345  11.764 -0.8239  0.3186  0.1234
   38MPD2    H2  587   0.239   4.234  12.152  0.7784  0.9234  1.0268
   38MPD2    H3  588   0.180   4.341  11.948  0.4319  0.9164 -0.5387
   38MPD2     N  589   0.599   4.256  11.775 -0.6198  0.0980 -0.4165
   38MPD2    H5  590   0.690   4.234  11.816  0.2349  0.4941 -2.1092
   38MPD2    N1  591   0.495   4.171  12.223  0.2249  0.1879 -0.5232
   38MPD2    H7  592   0.596   4.163  12.231  0.2426  0.2745 -0.6602
   39MPD2     C  593   3.411   1.427   1.415 -0.4298  0.0594  0.3468
   39MPD2    C1  594   3.331   1.520   1.475 -0.1928  0.3582  0.0793
   39MPD2    C2  595   3.196   1.528   1.437  0.2550  0.4368  0.5776
   39MPD2    C3  596   3.149   1.446   1.333  0.1629 -0.3723  0.5030
   39MPD2    C4  597   3.234   1.356   1.283  0.2265 -0.2634 -0.3176
   39MPD2    C5  598   3.369   1.342   1.315  0.2230  0.0471 -0.6172
   39MPD2     H  599   3.131   1.604   1.479  1.0844 -0.5092  3.5921
   39MPD2    H1  600   3.198   1.303   1.195  0.2232  0.3838 -0.7015
   39MPD2    H2  601   3.514   1.414   1.444  0.1751  0.0373 -1.7913
   39MPD2    H3  602   3.429   1.256   1.290 -0.9779 -1.2367  0.8767
   39MPD2     N  603   3.019   1.445   1.283 -0.2240  0.0251 -0.2470
   39MPD2    H5  604   2.986   1.364   1.232 -1.4578  0.3499  0.0296
   39MPD2    N1  605   3.389   1.622   1.556 -0.5423  0.0113  0.2870
   39MPD2    H7  606   3.489   1.617   1.574 -0.6515 -1.3603  0.4888
   40TCq2    C1  607   3.324   1.710   1.647 -0.0942  0.0559 -0.3188
   40TCq2    O2  608   3.202   1.719   1.668 -0.9339 -0.4381 -0.3406
   40TCq2    C2  609   3.412   1.795   1.727 -0.0091 -0.2758 -0.1599
   40TCq2    C3  610   3.361   1.844   1.842 -0.7243 -0.2610  0.3294
   40TCq2    C4  611   3.432   1.949   1.901 -0.3265 -0.0254 -0.4855
   40TCq2    C5  612   3.551   1.986   1.859  0.8172  1.0450 -0.8702
   40TCq2    C6  613   3.604   1.922   1.755  0.2735 -0.3623  0.2077
   40TCq2    C7  614   3.539   1.828   1.683  0.1629 -0.1173 -0.4361
   40TCq2    C8  615   3.722   1.971   1.702  0.1884  0.0621  0.0849
   40TCq2    O4  616   3.791   1.883   1.653 -0.5912 -0.0587 -0.3799
   40TCq2    C9  617   3.363   2.012   2.011 -0.7424 -0.3890 -0.3308
   40TCq2    O5  618   3.397   2.128   2.051  0.1870 -0.0917  0.4078
   40TCq2    O6  619   3.283   1.934   2.075  0.5471 -0.4754  0.6140
   40TCq2    H2  620   3.258   1.819   1.866 -0.9178  0.7055  0.5083
   40TCq2    H3  621   3.608   2.053   1.922 -1.3080  1.8882  0.1604
   40TCq2    H4  622   3.579   1.792   1.589  2.4451  1.0451  0.0992
   41TMC2    C1  623   2.366   4.240  14.371  0.1266  0.0205  0.4769
   41TMC2    C2  624   2.400   4.378  14.375  0.7867  0.7427  0.6634
   41TMC2    C3  625   2.425   4.440  14.259 -0.0777  0.1496  0.3110
   41TMC2    C4  626   2.360   4.177  14.250  0.8461 -0.1580  0.1484
   41TMC2    C5  627   2.387   4.252  14.140 -0.1503 -0.7189  0.3144
   41TMC2    C6  628   2.415   4.383  14.137  0.1665 -0.5839 -0.6814
   41TMC2     C  629   2.348   4.157  14.490  0.0037  0.8161 -0.2250
   41TMC2     O  630   2.344   4.037  14.483  0.4056 -0.1615  0.1956
   41TMC2     H  631   2.410   4.435  14.466  1.8280  2.3029 -0.4420
   41TMC2    H1  632   2.328   4.073  14.251  0.1673  0.0569  0.5593
   41TMC2    H2  633   2.418   4.445  14.048  0.6649 -0.6080 -0.6787
   41TMC2    C7  634   2.390   4.167  14.021 -0.3740 -0.2349 -0.5990
   41TMC2    C8  635   2.449   4.584  14.255  0.0924  0.7853 -0.3761
   41TMC2    O1  636   2.353   4.050  14.035  0.0860 -0.3339 -0.0807
   41TMC2    O2  637   2.415   4.647  14.354 -0.5688  0.3325  0.5155
   41TMC2    O5  638   2.565   4.612  14.185 -0.1404  0.1211  0.3765
   41TMC2    H5  639   2.581   4.542  14.118  1.2671 -1.3147  2.2229
   42MPD2     C  640   2.377   4.059  14.772  0.3637  0.2235  0.1858
   42MPD2    C1  641   2.381   4.193  14.736  0.3535  0.2169 -0.4016
   42MPD2    C2  642   2.427   4.285  14.835  0.3328  0.0815  0.4430
   42MPD2    C3  643   2.453   4.251  14.961 -0.0019 -0.2016  0.0166
   42MPD2    C4  644   2.441   4.121  15.000  0.0632 -0.5358  0.7294
   42MPD2    C5  645   2.401   4.026  14.909 -0.6797  0.2846  0.4582
   42MPD2     H  646   2.443   4.387  14.804  2.6591  0.1533  1.8937
   42MPD2    H1  647   2.462   4.083  15.100  2.5775  0.1053  0.4423
   42MPD2    H2  648   2.367   3.973  14.706 -0.4681 -0.4466  1.1849
   42MPD2    H3  649   2.389   3.920  14.928  0.6384  0.5459  2.6815
   42MPD2     N  650   2.513   4.333  15.058 -0.3488  0.5204  0.5148
   42MPD2    H5  651   2.530   4.284  15.145  1.0100 -1.7699 -1.0376
   42MPD2    N1  652   2.373   4.236  14.601 -0.4466 -0.2079  0.2221
   42MPD2    H7  653   2.397   4.333  14.581  0.1049  0.1154  2.4716
   43MPD2     C  654   4.215   2.739   0.352 -0.4115 -0.5348  0.1806
   43MPD2    C1  655   4.115   2.648   0.375 -0.2943  0.0251 -0.0082
   43MPD2    C2  656   4.019   2.686   0.464  0.4791  0.7264  0.5694
   43MPD2    C3  657   4.022   2.801   0.537  1.4067 -0.0734  0.3187
   43MPD2    C4  658   4.133   2.875   0.526  0.7629  0.2923 -0.3638
   43MPD2    C5  659   4.225   2.848   0.428  0.2839  0.1756 -0.3463
   43MPD2     H  660   3.946   2.608   0.481  0.9712  0.1423 -0.0075
   43MPD2    H1  661   4.136   2.967   0.585 -3.4836 -0.1215  0.5174
   43MPD2    H2  662   4.288   2.712   0.277  0.7290  0.6085  0.8715
   43MPD2    H3  663   4.308   2.918   0.425 -0.0745  0.5789 -0.6827
   43MPD2     N  664   3.938   2.836   0.643  0.2308  0.3726 -0.1330
   43MPD2    H5  665   3.965   2.920   0.693 -0.9276  1.1939 -0.8877
   43MPD2    N1  666   4.103   2.516   0.328 -0.3956  0.2844 -0.0057
   43MPD2    H7  667   4.026   2.459   0.362 -1.4050  1.2811 -0.6341
   44TCq2    C1  668   3.847   3.025   1.089 -0.2220 -0.8669  0.5811
   44TCq2    O2  669   3.952   3.081   1.050  0.0837 -1.0516 -0.0676
   44TCq2    C2  670   3.758   2.974   0.987  0.6883 -0.2320 -0.4811
   44TCq2    C3  671   3.622   2.973   0.997 -0.0545  0.5698 -0.5530
   44TCq2    C4  672   3.547   2.909   0.897 -0.5951 -0.0819  0.0258
   44TCq2    C5  673   3.613   2.834   0.804 -0.1198 -1.0056 -0.0867
   44TCq2    C6  674   3.748   2.840   0.798 -0.4447 -0.7759 -0.7243
   44TCq2    C7  675   3.819   2.916   0.886  0.7606  0.0210 -0.8163
   44TCq2    C8  676   3.816   2.773   0.679  0.1359  0.2665  0.2196
   44TCq2    O4  677   3.757   2.694   0.609  0.2657 -0.2931  0.2146
   44TCq2    C9  678   3.402   2.919   0.905  0.9324 -0.0642 -0.5919
   44TCq2    O5  679   3.348   3.023   0.959 -0.7048 -0.3274  0.3843
   44TCq2    O6  680   3.331   2.847   0.825 -0.6547 -0.3746  0.1380
   44TCq2    H2  681   3.559   3.021   1.071 -3.0622 -0.8397 -2.2024
   44TCq2    H3  682   3.559   2.790   0.721 -0.6172 -1.3319  0.4147
   44TCq2    H4  683   3.927   2.910   0.883  0.8505  1.1771  0.1578
   45TMC2    C1  684   1.004   0.150   9.020  0.2387  0.3918  0.0631
   45TMC2    C2  685   1.132   0.165   9.078 -0.0383  0.3905 -0.2011
   45TMC2    C3  686   1.169   0.293   9.124 -0.3457 -0.2039  0.2965
   45TMC2    C4  687   0.926   0.254   8.995 -0.6183  0.1397  0.2618
   45TMC2    C5  688   0.957   0.373   9.056 -0.5838  0.2198  0.3862
   45TMC2    C6  689   1.071   0.391   9.129 -0.3312 -0.2237 -0.3718
   45TMC2     C  690   0.968   0.021   8.982  0.4059 -0.1793 -0.8911
   45TMC2     O  691   1.061   4.665   8.952 -0.3598 -0.4039 -0.1767
   45TMC2     H  692   1.199   0.084   9.104 -1.1246 -0.5108 -0.2022
   45TMC2    H1  693   0.827   0.248   8.951 -0.3918 -1.5871  0.0014
   45TMC2    H2  694   1.082   0.484   9.183 -1.1497  0.2750 -1.0618
   45TMC2    C7  695   0.852   0.466   9.059  0.1175 -0.3388 -0.4787
   45TMC2    C8  696   1.282   0.305   9.210  0.2666  0.5163  0.1233
   45TMC2    O1  697   0.799   0.488   8.952  0.6331  0.4679 -0.3321
   45TMC2    O2  698   1.318   0.227   9.301  0.2880  0.1346 -0.5622
   45TMC2    O5  699   1.347   0.430   9.179 -0.0871  0.5092  0.6046
   45TMC2    H5  700   1.303   0.476   9.105 -0.5797 -0.2781  0.4060
   46MPD2     C  701   0.824   4.481   8.927 -0.0593 -0.4799 -0.1743
   46MPD2    C1  702   0.764   4.601   8.970 -0.4611  0.4985 -0.9609
   46MPD2    C2  703   0.627   4.607   8.990  0.2112 -0.8215 -0.3485
   46MPD2    C3  704   0.552   4.498   8.965  0.1127  0.4754  0.2299
   46MPD2    C4  705   0.607   4.390   8.907 -0.0525 -0.1902 -0.3606
   46MPD2    C5  706   0.739   4.384   8.893 -0.2169 -0.6453 -0.2774
   46MPD2     H  707   0.582   4.696   9.034 -0.6253 -1.3511 -0.1325
   46MPD2    H1  708   0.558   4.296   8.884 -0.5251 -0.4717  1.7588
   46MPD2    H2  709   0.930   4.462   8.913 -0.2976 -2.6742  0.9847
   46MPD2    H3  710   0.787   4.296   8.853  2.7677  0.8924 -0.1117
   46MPD2     N  711   0.410   4.496   8.989  0.1417 -0.0886  0.2680
   46MPD2    H5  712   0.375   4.586   9.021  1.1756  0.5595 -0.4192
   46MPD2    N1  713   0.841   4.719   8.997 -0.2656  0.1934 -0.1745
   46MPD2    H7  714   0.783   0.073   9.029  1.4026  1.1217  0.5713
   47TMC2    C1  715   3.416   0.175   9.156 -0.1757 -0.4503  0.4317
   47TMC2    C2  716   3.515   0.084   9.130  0.3385  0.9288 -0.0225
   47TMC2    C3  717   3.604   0.114   9.033 -0.5952  0.1769  0.4751
   47TMC2    C4  718   3.405   0.291   9.082 -0.1094  0.2161 -0.4478
   47TMC2    C5  719   3.497   0.319   8.987  0.0298 -0.0082 -0.6629
   47TMC2    C6  720   3.601   0.230   8.963 -0.9646  0.1759 -0.0486
   47TMC2     C  721   3.318   0.141   9.248  0.0202 -0.5153 -0.9295
   47TMC2     O  722   3.202   0.175   9.230 -0.1593  0.3140 -0.4968
   47TMC2     H  723   3.512   4.719   9.193  1.0346 -0.7249 -2.3152
   47TMC2    H1  724   3.333   0.368   9.106  0.2180 -0.1588  1.7257
   47TMC2    H2  725   3.660   0.245   8.873  2.1951  2.0444  2.3429
   47TMC2    C7  726   3.479   0.421   8.881 -0.9358 -0.7106 -0.7469
   47TMC2    C8  727   3.728   0.038   9.047  0.2811 -0.6144 -0.4562
   47TMC2    O1  728   3.578   0.449   8.809 -0.0362 -0.3103 -0.5379
   47TMC2    O2  729   3.762   4.699   9.148 -0.2274 -0.1938 -0.4127
   47TMC2    O5  730   3.787   0.012   8.933  0.0421  0.1347  0.3848
   47TMC2    H5  731   3.741   0.050   8.855  0.2884 -0.2237  0.0597
   48MPD2     C  732   3.168   0.127   9.512 -0.3670  0.0275  0.2976
   48MPD2    C1  733   3.286   0.066   9.480  0.5961  0.4855  0.2046
   48MPD2    C2  734   3.335   4.683   9.565  0.4967 -0.8206 -0.0618
   48MPD2    C3  735   3.256   4.639   9.673 -0.2129  0.1068  0.0773
   48MPD2    C4  736   3.142   4.709   9.704  0.3971  0.4460  0.5648
   48MPD2    C5  737   3.090   0.085   9.619 -0.6689 -0.2428 -0.6462
   48MPD2     H  738   3.423   4.629   9.534  0.2930 -0.8671 -0.5726
   48MPD2    H1  739   3.068   4.676   9.776  1.2129 -0.8957  0.7871
   48MPD2    H2  740   3.133   0.209   9.450 -0.3662  1.0947  1.6927
   48MPD2    H3  741   3.000   0.142   9.638  0.3394  0.2343  2.7044
   48MPD2     N  742   3.296   4.527   9.743  0.2830 -0.0006 -0.0791
   48MPD2    H5  743   3.372   4.473   9.702  2.0653  1.2524  1.5694
   48MPD2    N1  744   3.366   0.093   9.365 -0.5809 -0.0216  0.5067
   48MPD2    H7  745   3.460   0.054   9.360 -1.7653 -2.6292 -1.2060
   49MPD2     C  746   1.320   2.486  10.131  0.1478 -0.1976 -0.7114
   49MPD2    C1  747   1.204   2.436  10.185  0.0944  0.0156  0.5057
   49MPD2    C2  748   1.189   2.436  10.318 -0.6553  0.1954  0.4346
   49MPD2    C3  749   1.293   2.475  10.396 -0.0460 -0.3395  0.5555
   49MPD2    C4  750   1.410   2.512  10.341  0.6427 -0.0498 -0.2023
   49MPD2    C5  751   1.427   2.522  10.210 -0.3906  0.6128  0.2525
   49MPD2     H  752   1.093   2.407  10.359  0.4202 -1.1872  1.9822
   49MPD2    H1  753   1.495   2.519  10.407  0.0645 -2.5348  0.8231
   49MPD2    H2  754   1.328   2.487  10.023 -0.1127 -2.1139 -0.7587
   49MPD2    H3  755   1.517   2.558  10.161 -0.7484  0.9566 -0.1609
   49MPD2     N  756   1.293   2.484  10.534  0.6983 -0.2702 -0.0483
   49MPD2    H5  757   1.363   2.542  10.577  1.4922  1.5346 -3.7673
   49MPD2    N1  758   1.093   2.396  10.109  0.2020 -0.4265 -0.0034
   49MPD2    H7  759   1.009   2.371  10.160 -0.5550 -0.1704 -1.1232
   50TCq2    C1  760   1.080   2.419   9.974 -0.4616  0.2401  0.1752
   50TCq2    O2  761   1.152   2.478   9.895  0.3347  0.4769 -0.3123
   50TCq2    C2  762   0.973   2.335   9.925 -0.2738  0.0504 -1.0510
   50TCq2    C3  763   0.925   2.363   9.806 -0.4245  0.5246 -0.0963
   50TCq2    C4  764   0.811   2.305   9.758 -0.4777  0.5070 -0.0203
   50TCq2    C5  765   0.753   2.208   9.834 -0.2782 -0.2932  0.3352
   50TCq2    C6  766   0.803   2.176   9.955  0.4587  0.4812  0.1214
   50TCq2    C7  767   0.920   2.233  10.003  0.2458 -0.0209 -0.4482
   50TCq2    C8  768   0.758   2.054  10.019  0.2796  0.5227  0.2678
   50TCq2    O4  769   0.671   1.992   9.957 -0.2544  0.5211 -0.2732
   50TCq2    C9  770   0.756   2.342   9.631 -0.7046  0.2083 -0.4034
   50TCq2    O5  771   0.644   2.295   9.596 -0.0020  0.1914 -0.1123
   50TCq2    O6  772   0.837   2.403   9.554  0.2313 -0.2921  0.2137
   50TCq2    H2  773   0.969   2.436   9.738  1.8943 -0.2927  0.5327
   50TCq2    H3  774   0.678   2.149   9.783 -0.7372  0.5986 -0.0238
   50TCq2    H4  775   0.969   2.198  10.093  0.5823  1.3911 -0.0901
   51MPD2     C  776   0.834   1.195   0.932 -0.9807 -0.2392 -0.5468
   51MPD2    C1  777   0.786   1.060   0.952  0.1670  0.3725 -0.2153
   51MPD2    C2  778   0.812   1.006   1.080 -0.0689  0.0229 -0.8567
   51MPD2    C3  779   0.871   1.079   1.180  0.0011 -0.3020 -0.2597
   51MPD2    C4  780   0.900   1.208   1.159 -0.3588 -0.3615 -0.0430
   51MPD2    C5  781   0.889   1.261   1.038  0.6523  0.2815 -0.0503
   51MPD2     H  782   0.791   0.901   1.095 -3.0782  0.8187  0.6718
   51MPD2    H1  783   0.930   1.274   1.239  1.6426 -0.3737 -0.7789
   51MPD2    H2  784   0.814   1.250   0.841 -0.1340  1.1983  0.1251
   51MPD2    H3  785   0.918   1.364   1.025  1.7255  0.0730  0.6476
   51MPD2     N  786   0.901   1.026   1.308 -0.2181  0.2031 -0.2246
   51MPD2    H5  787   0.951   1.090   1.368  0.4717 -1.7519  1.2869
   51MPD2    N1  788   0.721   0.978   0.861 -0.0457  0.0327 -0.5253
   51MPD2    H7  789   0.693   0.885   0.892 -0.0948  0.5919  1.1240
   52TCq2    C1  790   0.891   0.892   1.352 -1.1283  0.0106  0.0217
   52TCq2    O2  791   0.858   0.795   1.288 -0.0026  0.1136 -0.1226
   52TCq2    C2  792   0.957   0.883   1.478  0.1353  0.3853 -0.2141
   52TCq2    C3  793   0.986   0.750   1.522  0.2566  0.9640 -1.2182
   52TCq2    C4  794   1.027   0.736   1.651 -0.4008 -0.0320 -0.8915
   52TCq2    C5  795   1.042   0.837   1.737 -0.1506  0.1764 -0.3837
   52TCq2    C6  796   0.992   0.959   1.701 -0.2386 -0.3733  0.0009
   52TCq2    C7  797   0.964   0.988   1.566  0.1194 -0.1885  0.1566
   52TCq2    C8  798   0.969   1.052   1.803  0.0995 -0.2815  0.3352
   52TCq2    O4  799   0.949   1.166   1.769  0.3988 -0.1056  0.5382
   52TCq2    C9  800   1.066   0.602   1.699 -0.1078 -0.5626  0.4058
   52TCq2    O5  801   1.106   0.584   1.819  0.0328 -0.0640 -0.1186
   52TCq2    O6  802   1.054   0.510   1.607  0.2710 -0.3583 -0.1743
   52TCq2    H2  803   0.959   0.667   1.457 -0.6718  0.0843  0.3159
   52TCq2    H3  804   1.071   0.806   1.837 -0.4707 -0.5949 -0.5300
   52TCq2    H4  805   0.935   1.089   1.543  1.3271  0.1430  0.1011
   53TMC2    C1  806   1.640   4.345  12.076  0.5281 -0.2064  0.6024
   53TMC2    C2  807   1.740   4.273  12.124 -0.2794 -0.4512 -0.0968
   53TMC2    C3  808   1.725   4.233  12.257 -0.2002  0.2072 -0.4665
   53TMC2    C4  809   1.543   4.398  12.154  0.5878 -0.3065  0.1824
   53TMC2    C5  810   1.528   4.353  12.286  0.0318  0.1097  0.5773
   53TMC2    C6  811   1.625   4.284  12.341  0.3963 -0.0566 -0.9709
   53TMC2     C  812   1.640   4.400  11.950 -0.2498 -0.1313 -0.3613
   53TMC2     O  813   1.746   4.438  11.903 -0.1124  0.2381 -0.3302
   53TMC2     H  814   1.817   4.234  12.058  1.9251 -0.1021  2.3129
   53TMC2    H1  815   1.479   4.481  12.123  2.4600  1.7319  1.7693
   53TMC2    H2  816   1.626   4.260  12.446 -2.2594  0.0076 -0.9372
   53TMC2    C7  817   1.418   4.398  12.363 -0.0450 -0.4725 -0.3499
   53TMC2    C8  818   1.837   4.197  12.334  0.2776 -0.2046  0.1986
   53TMC2    O1  819   1.366   4.505  12.335  0.5812  0.1543  0.1710
   53TMC2    O2  820   1.862   4.246  12.443  0.0742 -0.0654  0.5183
   53TMC2    O5  821   1.919   4.111  12.269 -0.4248  0.4805  0.2290
   53TMC2    H5  822   1.877   4.063  12.194  1.0030  1.9560 -1.5032
   54MPD2     C  823   1.551   4.477  11.673 -0.2543  0.1839 -0.8877
   54MPD2    C1  824   1.468   4.415  11.767 -0.1379  0.5279 -0.6175
   54MPD2    C2  825   1.332   4.394  11.738  0.4233  0.6990  0.2602
   54MPD2    C3  826   1.282   4.419  11.611  0.8776  0.3287  0.7613
   54MPD2    C4  827   1.366   4.484  11.523  0.1592  0.0855 -0.0118
   54MPD2    C5  828   1.495   4.515  11.548  0.1517 -0.4997 -0.5368
   54MPD2     H  829   1.262   4.371  11.817 -1.0433  1.4414 -0.8154
   54MPD2    H1  830   1.324   4.522  11.432  0.4224  1.6385  0.5092
   54MPD2    H2  831   1.656   4.499  11.685 -0.9706  2.5187  0.9774
   54MPD2    H3  832   1.549   4.573  11.475  0.4691 -1.6885 -1.2397
   54MPD2     N  833   1.152   4.406  11.573  0.0142  0.6761  0.2211
   54MPD2    H5  834   1.131   4.430  11.476 -2.0177  0.8911  0.7085
   54MPD2    N1  835   1.517   4.386  11.894 -0.0146  0.1117 -0.5319
   54MPD2    H7  836   1.442   4.353  11.955  1.7859 -1.9868  0.5434
   55MPD2     C  837   1.555   2.742   0.646  0.0062 -0.1608 -0.1784
   55MPD2    C1  838   1.499   2.613   0.639  0.5929  0.9767 -0.3118
   55MPD2    C2  839   1.390   2.581   0.709  1.0737  0.0361 -0.8525
   55MPD2    C3  840   1.332   2.680   0.786 -0.2625  0.1449  0.1244
   55MPD2    C4  841   1.392   2.806   0.799  0.2211  0.0116  0.4168
   55MPD2    C5  842   1.499   2.835   0.722  0.2294  0.0453  0.2744
   55MPD2     H  843   1.354   2.479   0.718  2.7175 -0.4218  0.5088
   55MPD2    H1  844   1.352   2.879   0.869 -1.4522 -0.1872 -0.3262
   55MPD2    H2  845   1.650   2.761   0.597 -0.2288 -0.3577 -0.7091
   55MPD2    H3  846   1.536   2.937   0.729  2.0640 -0.5264 -0.9416
   55MPD2     N  847   1.214   2.647   0.857  0.3488 -0.2014 -0.0454
   55MPD2    H5  848   1.188   2.550   0.848  0.9678 -0.0837 -2.9500
   55MPD2    N1  849   1.563   2.528   0.542 -0.3705 -0.7490 -0.1738
   55MPD2    H7  850   1.636   2.551   0.476  0.9131  0.0933  1.5536
   56TCq2    C1  851   1.536   2.391   0.538 -0.2521 -0.1903  0.8192
   56TCq2    O2  852   1.471   2.323   0.619 -0.3019  0.0654  0.1099
   56TCq2    C2  853   1.628   2.328   0.441  0.0565 -0.1760  0.0861
   56TCq2    C3  854   1.678   2.399   0.334 -0.3138  0.9927  0.0853
   56TCq2    C4  855   1.760   2.334   0.239 -0.5120 -0.2402  0.9415
   56TCq2    C5  856   1.780   2.200   0.249  0.3111  0.3338 -0.0596
   56TCq2    C6  857   1.718   2.124   0.348 -0.1900 -0.3106 -0.2401
   56TCq2    C7  858   1.647   2.190   0.444  0.0651 -0.0743  0.0968
   56TCq2    C8  859   1.719   1.983   0.337  0.0329  0.9838  0.4963
   56TCq2    O4  860   1.778   1.936   0.241 -0.0132  0.2939 -0.5196
   56TCq2    C9  861   1.831   2.417   0.139  0.0011 -0.0859 -0.1240
   56TCq2    O5  862   1.923   2.365   0.073  0.3831  0.3796  0.2863
   56TCq2    O6  863   1.835   2.538   0.157  0.1490 -0.2265  0.3405
   56TCq2    H2  864   1.682   2.507   0.329 -1.1745  1.0183 -0.0623
   56TCq2    H3  865   1.837   2.147   0.174  0.1192  1.2970 -0.9027
   56TCq2    H4  866   1.608   2.151   0.538 -3.7989  0.9854 -1.0566
   57TMC2    C1  867   1.303   3.207  13.563  0.1283  0.1020 -0.6781
   57TMC2    C2  868   1.363   3.112  13.641  0.1763 -0.2227  0.1177
   57TMC2    C3  869   1.462   3.037  13.587 -0.7196  0.1474  0.4866
   57TMC2    C4  870   1.338   3.207  13.430  0.0318  0.6744  0.0088
   57TMC2    C5  871   1.435   3.128  13.376 -0.1293  0.3733  0.2301
   57TMC2    C6  872   1.506   3.047  13.461 -0.0734 -0.7000  0.3679
   57TMC2     C  873   1.176   3.268  13.609  0.3314 -0.1768  0.7153
   57TMC2     O  874   1.123   3.341  13.526 -0.1834 -0.5321  0.2948
   57TMC2     H  875   1.349   3.117  13.748 -3.4063 -1.2585 -0.3089
   57TMC2    H1  876   1.285   3.275  13.364 -2.6160 -0.0443  1.3953
   57TMC2    H2  877   1.591   2.987  13.430 -0.3204 -0.8371 -0.0519
   57TMC2    C7  878   1.516   3.190  13.274 -0.8818 -1.0113  0.5383
   57TMC2    C8  879   1.532   2.942  13.674  0.1124 -0.0860  0.4429
   57TMC2    O1  880   1.501   3.311  13.266  0.3322  0.6359 -0.5047
   57TMC2    O2  881   1.579   2.973  13.786 -0.4147 -0.5674 -0.3015
   57TMC2    O5  882   1.502   2.823  13.628  0.2627  0.0581  0.4652
   57TMC2    H5  883   1.456   2.831  13.541 -0.1674 -1.7028  0.5334
   58MPD2     C  884   0.805   3.368  13.961 -0.4313 -0.0128 -0.0974
   58MPD2    C1  885   0.820   3.396  13.823 -0.8891  0.1763  0.3910
   58MPD2    C2  886   0.930   3.355  13.758  0.3477  0.3911 -0.9310
   58MPD2    C3  887   1.031   3.282  13.818 -0.4315 -0.2972 -1.2723
   58MPD2    C4  888   1.016   3.247  13.952 -0.2590  0.0163  0.3771
   58MPD2    C5  889   0.899   3.287  14.018  0.1296 -0.3195 -0.7794
   58MPD2     H  890   0.936   3.372  13.651 -0.4885  0.1852 -1.0094
   58MPD2    H1  891   1.091   3.191  14.006 -0.4773 -1.0904 -0.4654
   58MPD2    H2  892   0.730   3.412  14.026 -0.9617 -2.2102  0.7807
   58MPD2    H3  893   0.883   3.276  14.125  2.9539 -1.0702 -0.4395
   58MPD2     N  894   1.140   3.237  13.741 -0.1853 -0.3554  0.4062
   58MPD2    H5  895   1.202   3.174  13.792  0.3072 -0.0915  0.1268
   58MPD2    N1  896   0.731   3.487  13.759 -0.2539 -0.2287 -0.4355
   58MPD2    H7  897   0.754   3.509  13.663  2.6604  1.6260  0.6570
   59MPD2     C  898   3.376   3.072  13.110 -0.2288 -0.1914 -0.4513
   59MPD2    C1  899   3.471   3.077  13.015 -0.7193  0.1686  0.5524
   59MPD2    C2  900   3.591   3.140  13.044  0.3370 -0.5797 -0.2541
   59MPD2    C3  901   3.613   3.199  13.170 -0.3168 -0.5067 -0.0455
   59MPD2    C4  902   3.518   3.193  13.268 -0.0160 -0.2000 -0.0274
   59MPD2    C5  903   3.406   3.123  13.235 -0.0433  0.0566 -0.9905
   59MPD2     H  904   3.657   3.152  12.959  0.5944  2.1799  0.3467
   59MPD2    H1  905   3.531   3.242  13.364  0.9148 -0.1096 -0.2016
   59MPD2    H2  906   3.290   3.006  13.098  1.1273 -2.1668  0.6512
   59MPD2    H3  907   3.328   3.101  13.307  2.5152 -0.6302  1.5556
   59MPD2     N  908   3.733   3.266  13.198  0.1692  0.9352  0.0192
   59MPD2    H5  909   3.748   3.299  13.293 -0.2622  1.3730 -0.0650
   59MPD2    N1  910   3.454   3.035  12.880 -0.7455  0.3780 -0.0503
   59MPD2    H7  911   3.527   3.059  12.814 -1.4028 -1.2450 -1.3733
   60TCq2    C1  912   3.329   3.021  12.828  0.0401  0.7099  0.1026
   60TCq2    O2  913   3.218   3.014  12.888 -0.2821  0.2468 -0.0190
   60TCq2    C2  914   3.317   3.046  12.690 -0.4306  0.1686  0.1201
   60TCq2    C3  915   3.197   3.108  12.641  0.2203  0.1570  0.1901
   60TCq2    C4  916   3.195   3.158  12.514  0.8647  0.2838  0.6037
   60TCq2    C5  917   3.305   3.160  12.438  0.1411  0.4279 -0.2598
   60TCq2    C6  918   3.422   3.103  12.484  0.3290  0.5644 -0.2577
   60TCq2    C7  919   3.425   3.040  12.605  0.0619  0.1564  0.0421
   60TCq2    C8  920   3.547   3.111  12.410 -0.3339 -0.0671 -0.2262
   60TCq2    O4  921   3.632   3.023  12.417 -0.6476 -0.1493 -0.2059
   60TCq2    C9  922   3.088   3.237  12.477  0.2883  0.2960  0.1753
   60TCq2    O5  923   3.114   3.341  12.408  0.4380 -0.7196  0.2066
   60TCq2    O6  924   2.979   3.208  12.533  0.5983  0.3887  0.0529
   60TCq2    H2  925   3.112   3.124  12.706 -0.8272 -1.0313 -0.8872
   60TCq2    H3  926   3.289   3.209  12.343  0.0048  2.1758  0.6650
   60TCq2    H4  927   3.519   2.990  12.624 -0.3664 -0.8835 -0.5898
   61MPD2     C  928   2.887   4.650  14.906 -0.5180 -0.5581  0.0321
   61MPD2    C1  929   2.977   0.006  14.974 -0.1541  0.5775 -0.3221
   61MPD2    C2  930   3.027   0.108  14.906 -0.5934 -0.0753 -0.1947
   61MPD2    C3  931   2.985   0.149  14.781 -0.0569 -0.4980 -0.1044
   61MPD2    C4  932   2.892   0.075  14.715 -0.3915 -0.0911  0.9100
   61MPD2    C5  933   2.839   4.686  14.784 -0.1404  0.5365  0.0875
   61MPD2     H  934   3.090   0.174  14.965 -0.2181 -0.3554 -0.2850
   61MPD2    H1  935   2.860   0.106  14.616  2.6351  0.2655  0.0567
   61MPD2    H2  936   2.846   4.556  14.942 -0.2575  0.1099  2.0385
   61MPD2    H3  937   2.780   4.614  14.727  1.4143 -0.2722 -0.5159
   61MPD2     N  938   3.043   0.254  14.708  0.0538  0.4012  0.2207
   61MPD2    H5  939   2.998   0.282  14.622  1.3846 -3.0600 -1.5822
   61MPD2    N1  940   3.003   4.716  15.109  0.2981  0.6078 -0.1486
   61MPD2    H7  941   3.082   0.046  15.144  1.3245 -1.4088  0.5778
   62TCq2    C1  942   2.957   4.615  15.195 -0.0347 -0.3055 -0.3471
   62TCq2    O2  943   2.897   4.513  15.158  0.6681 -0.2640 -0.2834
   62TCq2    C2  944   2.999   4.638  15.336 -0.1433  0.3714 -0.3515
   62TCq2    C3  945   2.961   4.542  15.420 -0.2463 -0.6377  0.1122
   62TCq2    C4  946   2.944   4.575  15.554  0.1390 -0.6078  0.4038
   62TCq2    C5  947   2.956   4.706  15.592  0.3074 -0.4952  0.0425
   62TCq2    C6  948   2.990   0.078  15.503  0.2801  0.3814  0.0777
   62TCq2    C7  949   3.014   0.048  15.374  0.2875 -0.6488  0.1202
   62TCq2    C8  950   2.999   0.220  15.527 -0.6032  0.7152 -0.7733
   62TCq2    O4  951   3.014   0.299  15.435 -0.1490 -0.3679 -0.1849
   62TCq2    C9  952   2.899   4.478  15.646 -0.2331  0.2455  0.4791
   62TCq2    O5  953   2.878   4.359  15.605 -0.3138 -0.5090 -0.0104
   62TCq2    O6  954   2.827   4.522  15.736 -0.2385 -0.4380  0.3139
   62TCq2    H2  955   2.933   4.443  15.385 -0.3174 -0.6533  0.2136
   62TCq2    H3  956   2.933   0.005  15.695  0.9816  1.1123 -0.1612
   62TCq2    H4  957   3.037   0.124  15.299  1.8024  0.8367  2.1046
   63TMC2    C1  958   2.689   0.035  11.068 -0.2356 -0.0109 -0.2393
   63TMC2    C2  959   2.712   0.142  11.153  0.0550  0.2249  0.5392
   63TMC2    C3  960   2.814   0.232  11.124 -0.1472 -0.6134 -0.4884
   63TMC2    C4  961   2.753   0.017  10.957  0.8707 -0.1244 -0.1238
   63TMC2    C5  962   2.839   0.116  10.922  0.1637 -0.2915  0.0753
   63TMC2    C6  963   2.876   0.221  11.003 -0.4108 -0.4524  1.0474
   63TMC2     C  964   2.594   4.658  11.115  0.6627 -0.2630  0.3081
   63TMC2     O  965   2.504   4.706  11.182  0.2761 -0.6400  0.1812
   63TMC2     H  966   2.663   0.135  11.250 -0.2227  3.2773  0.6217
   63TMC2    H1  967   2.734   4.666  10.879 -1.2038  0.8233 -0.5165
   63TMC2    H2  968   2.955   0.288  10.969 -1.4167 -0.2552 -0.8789
   63TMC2    C7  969   2.814   0.154  10.784 -0.5462  0.5013 -0.2314
   63TMC2    C8  970   2.825   0.360  11.189  0.5447 -0.5876 -0.3475
   63TMC2    O1  971   2.697   0.142  10.750  0.6220 -0.2039  0.5192
   63TMC2    O2  972   2.915   0.440  11.163  0.0522  0.3558 -0.2998
   63TMC2    O5  973   2.703   0.392  11.232 -0.3887 -0.0524 -0.2306
   63TMC2    H5  974   2.642   0.320  11.259 -1.1512  0.3232 -0.9612
   64MPD2     C  975   2.308   4.232  11.080 -0.4281 -0.1057  0.3671
   64MPD2    C1  976   2.423   4.214  11.002 -0.3225  0.7443  0.6051
   64MPD2    C2  977   2.519   4.311  10.999  0.0306  0.6209 -0.3178
   64MPD2    C3  978   2.499   4.432  11.059  0.6855 -0.0328 -0.1538
   64MPD2    C4  979   2.383   4.452  11.129  1.1143 -0.2481 -0.4619
   64MPD2    C5  980   2.295   4.352  11.145 -0.1215 -1.6481 -0.4014
   64MPD2     H  981   2.608   4.299  10.938 -0.2630  1.4785 -0.9028
   64MPD2    H1  982   2.362   4.539  11.191 -0.0940 -1.5683  0.9780
   64MPD2    H2  983   2.238   4.153  11.107  0.5235 -0.6703  1.1614
   64MPD2    H3  984   2.224   4.361  11.226  0.8269 -0.3889  0.2852
   64MPD2     N  985   2.598   4.537  11.052 -0.0162 -0.5598 -0.1738
   64MPD2    H5  986   2.674   4.529  10.985  0.4034 -0.3635  0.2765
   64MPD2    N1  987   2.445   4.089  10.939  0.2899  0.5117  0.3434
   64MPD2    H7  988   2.530   4.083  10.883 -0.6054  0.4112 -1.0203
   65MPD2     C  989   3.180   4.497  15.949 -0.4746  0.1350 -0.8238
   65MPD2    C1  990   3.225   4.464  15.823  0.3694  0.4818  0.2045
   65MPD2    C2  991   3.235   4.325  15.795  0.0075 -0.7154  0.1472
   65MPD2    C3  992   3.206   4.223  15.883  0.1262 -0.0403  0.2346
   65MPD2    C4  993   3.165   4.268  16.008  0.5142 -0.1486 -0.3583
   65MPD2    C5  994   3.140   4.401  16.036  0.3687 -0.3745  0.0359
   65MPD2     H  995   3.287   4.296  15.705 -1.8629 -0.2041 -1.0985
   65MPD2    H1  996   3.129   4.204  16.088  1.3528 -0.0521  0.0957
   65MPD2    H2  997   3.170   4.599  15.983 -1.3403 -0.1928 -0.0849
   65MPD2    H3  998   3.097   4.427  16.132 -1.5374 -1.8859 -0.4067
   65MPD2     N  999   3.215   4.078  15.858  0.2795  0.2480 -0.3206
   65MPD2    H5 1000   3.175   4.017  15.928 -1.1183  1.6414  0.1061
   65MPD2    N1 1001   3.247   4.561  15.725  0.6873  0.6958 -0.6063
   65MPD2    H7 1002   3.291   4.529  15.639  0.3995 -2.3391  0.3730
   66TCq2    C1 1003   3.233   4.695  15.741  0.4121 -0.9792  0.6316
   66TCq2    O2 1004   3.177   0.038  15.822  0.9274 -0.0730 -0.3465
   66TCq2    C2 1005   3.293   0.040  15.627  0.8147 -0.0792 -0.0935
   66TCq2    C3 1006   3.366   4.696  15.529  0.0353  0.1058 -0.1550
   66TCq2    C4 1007   3.455   0.054  15.458 -0.2292  0.6390  0.4490
   66TCq2    C5 1008   3.470   0.191  15.484 -0.2840 -0.4266  0.6247
   66TCq2    C6 1009   3.394   0.243  15.588  0.7929  0.3520  0.1727
   66TCq2    C7 1010   3.304   0.169  15.659  0.3922 -0.1471  0.2002
   66TCq2    C8 1011   3.401   0.383  15.601  0.4611 -0.5394 -0.1018
   66TCq2    O4 1012   3.475   0.441  15.522 -0.2537  0.0873 -0.2642
   66TCq2    C9 1013   3.529   4.714  15.349 -0.1447 -0.3160 -0.3867
   66TCq2    O5 1014   3.518   4.588  15.339 -0.1603 -0.1385  0.2203
   66TCq2    O6 1015   3.611   0.062  15.287  0.4259 -0.2507 -0.1371
   66TCq2    H2 1016   3.370   4.590  15.511  2.4721 -0.5437  4.0402
   66TCq2    H3 1017   3.539   0.253  15.426  0.0250  0.5319  2.0215
   66TCq2    H4 1018   3.233   0.221  15.724 -0.4183 -1.2190  0.1708
   67MPD2     C 1019   3.416   3.813  14.212 -0.5038  0.2850  0.5322
   67MPD2    C1 1020   3.328   3.881  14.297 -0.1988 -0.2823  0.3794
   67MPD2    C2 1021   3.201   3.919  14.255 -0.2471 -0.3600 -0.3646
   67MPD2    C3 1022   3.169   3.899  14.119  0.7554  0.0321  0.1934
   67MPD2    C4 1023   3.247   3.822  14.040 -0.4819  0.1018 -0.2587
   67MPD2    C5 1024   3.369   3.779  14.090  0.5735  0.1263  0.0073
   67MPD2     H 1025   3.125   3.952  14.326  2.1973  1.9810  1.1595
   67MPD2    H1 1026   3.218   3.783  13.944 -0.3873 -1.9555  0.5505
   67MPD2    H2 1027   3.519   3.789  14.234 -0.6391 -2.4699 -1.9212
   67MPD2    H3 1028   3.422   3.707  14.028  3.1788  3.0819 -1.1807
   67MPD2     N 1029   3.045   3.951  14.072  0.1940 -0.0180  0.0226
   67MPD2    H5 1030   3.037   3.935  13.973 -0.1711 -1.1766  0.2443
   67MPD2    N1 1031   3.366   3.896  14.434  0.5661 -0.3973 -0.8618
   67MPD2    H7 1032   3.297   3.937  14.496 -1.9599 -1.6603 -2.8694
   68TCq2    C1 1033   3.489   3.865  14.490 -0.9866  0.0327 -0.1353
   68TCq2    O2 1034   3.578   3.788  14.453 -0.1781 -0.5097  0.1571
   68TCq2    C2 1035   3.514   3.929  14.616  0.1128  0.8171 -0.0338
   68TCq2    C3 1036   3.434   4.028  14.667  0.2798 -0.2455 -0.3154
   68TCq2    C4 1037   3.472   4.093  14.782 -0.5752 -1.1871 -0.0938
   68TCq2    C5 1038   3.586   4.051  14.847 -0.0215  0.1130 -0.4586
   68TCq2    C6 1039   3.655   3.944  14.798 -0.5155  0.8973 -0.5310
   68TCq2    C7 1040   3.628   3.882  14.685  0.1672  0.5417 -0.5367
   68TCq2    C8 1041   3.744   3.871  14.891  0.7727  0.3798  0.2085
   68TCq2    O4 1042   3.804   3.767  14.858  0.6177 -0.5959  0.1838
   68TCq2    C9 1043   3.403   4.210  14.836  0.2011 -0.3845  1.1150
   68TCq2    O5 1044   3.329   4.270  14.758 -0.1368 -0.3624 -0.2105
   68TCq2    O6 1045   3.432   4.249  14.953 -0.1546  0.0573 -0.2598
   68TCq2    H2 1046   3.345   4.067  14.618 -0.3444 -1.3631 -0.0474
   68TCq2    H3 1047   3.635   4.109  14.925  1.3592 -3.0447  1.0111
   68TCq2    H4 1048   3.687   3.793  14.664  1.9319  1.6924 -0.5414
   69TMC2    C1 1049   0.511   0.216  12.125 -0.0010 -0.3162  0.3058
   69TMC2    C2 1050   0.405   0.150  12.074  0.5557  0.4358 -0.2892
   69TMC2    C3 1051   0.385   0.152  11.938  0.3576 -0.1178 -0.3300
   69TMC2    C4 1052   0.575   0.315  12.050 -0.7415 -0.6067  0.2560
   69TMC2    C5 1053   0.551   0.310  11.913 -0.0392 -0.1614 -0.0434
   69TMC2    C6 1054   0.465   0.224  11.847  0.1844 -0.2059  0.1511
   69TMC2     C 1055   0.595   0.162  12.230  0.3061  0.3720  0.4043
   69TMC2     O 1056   0.548   0.075  12.303  0.0456 -0.4179 -0.0501
   69TMC2     H 1057   0.361   0.076  12.139  2.3088  0.5870  1.0646
   69TMC2    H1 1058   0.634   0.394  12.096 -1.1028 -1.4268  2.1264
   69TMC2    H2 1059   0.456   0.207  11.741 -0.0844  1.1554 -0.0425
   69TMC2    C7 1060   0.679   0.341  11.851 -0.7177  0.2159 -0.1737
   69TMC2    C8 1061   0.279   0.059  11.899  0.4835 -0.3089 -0.7910
   69TMC2    O1 1062   0.764   0.387  11.927 -0.2221 -0.5302 -0.0283
   69TMC2    O2 1063   0.264   4.669  11.939  0.1647  0.1323 -0.3334
   69TMC2    O5 1064   0.218   0.124  11.799  0.5823  0.4613 -0.1905
   69TMC2    H5 1065   0.232   0.221  11.807  0.1160  0.3941  1.4710
   70MPD2     C 1066   0.951   0.244  12.238  0.0700  0.0707 -0.2234
   70MPD2    C1 1067   0.836   0.193  12.289  0.3076  0.7907 -0.4828
   70MPD2    C2 1068   0.826   0.134  12.413  0.3810 -0.1842  0.6913
   70MPD2    C3 1069   0.944   0.107  12.479  0.6775 -0.5691  0.6881
   70MPD2    C4 1070   1.058   0.164  12.426 -0.5239  0.4766 -0.2883
   70MPD2    C5 1071   1.067   0.241  12.314 -0.0520 -0.4087 -0.0025
   70MPD2     H 1072   0.731   0.091  12.442 -0.6187  1.1989 -0.5058
   70MPD2    H1 1073   1.155   0.147  12.473  0.8250 -1.1515 -3.6458
   70MPD2    H2 1074   0.947   0.283  12.137  1.2506  0.9633  0.0817
   70MPD2    H3 1075   1.164   0.249  12.267  0.5851 -1.2358  1.1720
   70MPD2     N 1076   0.955   0.037  12.604 -0.5874  0.3614  0.4552
   70MPD2    H5 1077   1.049   0.006  12.630 -0.3327  2.3391  1.9821
   70MPD2    N1 1078   0.723   0.209  12.214 -0.5694  0.4522 -0.3873
   70MPD2    H7 1079   0.738   0.251  12.123  0.5624  0.5669 -0.1477
   71TMC2    C1 1080   3.008   1.128   1.490 -0.8724 -0.1670  0.6061
   71TMC2    C2 1081   3.124   1.167   1.546 -0.2732  0.3832  0.2652
   71TMC2    C3 1082   3.120   1.226   1.669  0.7779  0.7245  0.1167
   71TMC2    C4 1083   2.887   1.144   1.551 -0.5534 -0.4730  0.4122
   71TMC2    C5 1084   2.885   1.195   1.677  0.8742  0.3635 -0.8693
   71TMC2    C6 1085   3.004   1.243   1.733  0.4039 -0.1770  0.1232
   71TMC2     C 1086   3.000   1.115   1.347 -0.6019  0.6862  0.2093
   71TMC2     O 1087   2.902   1.165   1.291 -0.1604 -0.6505 -0.3304
   71TMC2     H 1088   3.220   1.148   1.500 -1.1205  0.4162 -1.5131
   71TMC2    H1 1089   2.799   1.104   1.502  0.2570  0.2356 -1.6574
   71TMC2    H2 1090   3.002   1.279   1.836 -0.2909  0.6477 -0.1789
   71TMC2    C7 1091   2.774   1.199   1.763 -0.0817  0.0869 -0.0437
   71TMC2    C8 1092   3.247   1.284   1.720  0.1166  0.3997  1.0052
   71TMC2    O1 1093   2.779   1.269   1.865 -0.1269  0.3355 -0.4323
   71TMC2    O2 1094   3.358   1.237   1.732 -0.3542 -0.0673 -0.6231
   71TMC2    O5 1095   3.211   1.401   1.780 -0.1760 -0.7626 -0.5321
   71TMC2    H5 1096   3.118   1.427   1.759 -0.1688 -0.7462 -0.5436
   72MPD2     C 1097   3.106   0.926   0.887  0.2760  0.6093  0.4834
   72MPD2    C1 1098   3.034   1.038   0.926 -0.4802  0.0977  0.6378
   72MPD2    C2 1099   3.030   1.065   1.059 -0.2246 -0.1393  0.4984
   72MPD2    C3 1100   3.094   0.988   1.155 -0.4132  0.5419  0.2284
   72MPD2    C4 1101   3.159   0.876   1.114 -0.5286  0.2617 -1.1999
   72MPD2    C5 1102   3.170   0.843   0.981  0.4142 -0.5023 -0.4641
   72MPD2     H 1103   2.975   1.155   1.087 -1.9550 -0.2662 -2.4153
   72MPD2    H1 1104   3.209   0.809   1.183  0.3327  0.1093 -1.9709
   72MPD2    H2 1105   3.123   0.891   0.786  0.9035  3.1028 -0.2581
   72MPD2    H3 1106   3.229   0.754   0.964 -0.6653 -1.3291  0.1072
   72MPD2     N 1107   3.090   1.028   1.291 -0.3513 -0.4435  0.0553
   72MPD2    H5 1108   3.146   0.974   1.356 -0.7032 -1.3826 -0.4165
   72MPD2    N1 1109   2.983   1.126   0.834 -0.0589 -0.0073 -0.0500
   72MPD2    H7 1110   2.952   1.214   0.872 -2.0852 -0.7283 -0.0328
   73TMC2    C1 1111   2.928   2.631  13.805  0.5150 -0.0253 -0.5561
   73TMC2    C2 1112   2.823   2.680  13.873  0.2402  0.3532  0.6225
   73TMC2    C3 1113   2.793   2.637  14.000  0.2534  0.0160  0.2832
   73TMC2    C4 1114   3.011   2.555  13.879 -0.4017 -0.2613 -0.0894
   73TMC2    C5 1115   2.998   2.528  14.011 -0.4522  0.3815  0.1425
   73TMC2    C6 1116   2.882   2.560  14.073  0.0793  0.6042  0.9470
   73TMC2     C 1117   3.007   2.739  13.752  0.1830 -0.0613  1.2072
   73TMC2     O 1118   3.126   2.747  13.785  0.2971 -0.0327  0.4001
   73TMC2     H 1119   2.755   2.759  13.844 -0.0492  0.2626  1.0496
   73TMC2    H1 1120   3.105   2.521  13.838 -0.2751  0.5669 -0.4898
   73TMC2    H2 1121   2.865   2.534  14.177 -0.7462 -1.4742  0.2699
   73TMC2    C7 1122   3.117   2.513  14.093  0.3806  0.8565  0.0193
   73TMC2    C8 1123   2.676   2.692  14.068  0.5766  0.0496 -0.8008
   73TMC2    O1 1124   3.119   2.458  14.206 -0.1645 -0.5953 -0.3748
   73TMC2    O2 1125   2.611   2.788  14.027 -0.4321 -0.2703  0.1339
   73TMC2    O5 1126   2.622   2.581  14.122 -0.7582 -0.1426  0.5062
   73TMC2    H5 1127   2.672   2.499  14.141 -1.8940 -0.6103  1.4509
   74MPD2     C 1128   3.092   3.178  13.486 -0.4049 -0.4068  0.0711
   74MPD2    C1 1129   3.168   3.116  13.587  0.5288 -0.3232 -0.8011
   74MPD2    C2 1130   3.118   2.999  13.639 -0.1851 -0.3249  0.0541
   74MPD2    C3 1131   3.001   2.935  13.594 -0.5031  0.0174  0.3937
   74MPD2    C4 1132   2.930   3.000  13.494  0.7167  0.7457 -0.1053
   74MPD2    C5 1133   2.987   3.111  13.436 -0.4502  0.2554  0.3704
   74MPD2     H 1134   3.159   2.957  13.731  1.2739 -1.7506 -1.2538
   74MPD2    H1 1135   2.849   2.961  13.434 -0.0971  0.2746  1.3007
   74MPD2    H2 1136   3.121   3.278  13.454 -0.6433 -0.5322 -0.5360
   74MPD2    H3 1137   2.937   3.152  13.349  3.8941  0.1078 -2.1964
   74MPD2     N 1138   2.948   2.824  13.658 -0.1789  0.5352 -0.6538
   74MPD2    H5 1139   2.852   2.799  13.638  0.0618 -1.0982  0.2322
   74MPD2    N1 1140   3.283   3.180  13.642  0.4973  0.3155  0.1803
   74MPD2    H7 1141   3.313   3.267  13.600  0.8290  1.1824  2.2402
   75TCq2    C1 1142   2.949   4.023  14.128  0.3226 -0.2536  0.4133
   75TCq2    O2 1143   2.932   4.045  14.249 -0.1199 -0.2396 -0.6597
   75TCq2    C2 1144   2.859   4.078  14.034  0.8160  0.0582  0.0981
   75TCq2    C3 1145   2.826   4.209  14.066 -0.6561 -0.5853 -0.4176
   75TCq2    C4 1146   2.773   4.288  13.973  0.5279 -0.5708 -0.2887
   75TCq2    C5 1147   2.775   4.249  13.843  0.6181  0.1832 -0.0622
   75TCq2    C6 1148   2.835   4.125  13.811 -0.2349 -0.1212 -0.1750
   75TCq2    C7 1149   2.877   4.030  13.904  0.6658 -0.2452 -0.2265
   75TCq2    C8 1150   2.866   4.092  13.675 -0.4073 -0.3878  0.0642
   75TCq2    O4 1151   2.854   3.974  13.648 -0.3230  0.2130  0.3376
   75TCq2    C9 1152   2.725   4.417  14.000  0.3159 -0.1664 -0.0119
   75TCq2    O5 1153   2.753   4.466  14.114 -0.1053  0.4156  0.8113
   75TCq2    O6 1154   2.621   4.460  13.933  0.0188  0.7766 -0.1493
   75TCq2    H2 1155   2.826   4.244  14.168 -1.1483  1.5659 -1.1538
   75TCq2    H3 1156   2.741   4.304  13.757 -1.2792 -1.7258 -0.5259
   75TCq2    H4 1157   2.886   3.927  13.873  2.7082  0.2255 -1.2112
   76MPD2     C 1158   1.649   4.705  12.322 -0.1115  0.5734  0.4851
   76MPD2    C1 1159   1.719   0.002  12.202  0.1911 -0.9646  0.1697
   76MPD2    C2 1160   1.845   4.664  12.192  0.2511  0.1590 -0.2722
   76MPD2    C3 1161   1.893   4.581  12.286 -0.4358  0.3866 -0.4071
   76MPD2    C4 1162   1.829   4.569  12.401 -0.4668  0.1352  0.4257
   76MPD2    C5 1163   1.712   4.632  12.423 -0.0313 -0.0661 -0.3045
   76MPD2     H 1164   1.904   4.689  12.104  0.1152 -0.6419 -0.5873
   76MPD2    H1 1165   1.868   4.510  12.483  1.0286 -1.3834 -1.3701
   76MPD2    H2 1166   1.548   0.020  12.334 -0.5414 -0.0848 -1.0264
   76MPD2    H3 1167   1.657   4.606  12.512  2.6169 -3.6376  0.2558
   76MPD2     N 1168   2.020   4.513  12.283 -0.9219 -0.3439  0.8210
   76MPD2    H5 1169   2.056   4.469  12.367 -0.7796 -1.7631  0.0211
   76MPD2    N1 1170   1.666   0.062  12.084  0.0231 -0.9522 -0.4219
   76MPD2    H7 1171   1.731   0.074  12.007 -0.1751 -0.9324 -0.5859
   77TCq2    C1 1172   2.105   4.518  12.172 -0.1409 -0.3463  0.8718
   77TCq2    O2 1173   2.074   4.555  12.060  0.1367  0.3312 -0.0383
   77TCq2    C2 1174   2.225   4.439  12.192 -0.0198  0.7845 -0.0685
   77TCq2    C3 1175   2.294   4.411  12.077 -0.0158 -0.3687  0.2987
   77TCq2    C4 1176   2.401   4.333  12.085  0.5342 -0.3141 -0.2877
   77TCq2    C5 1177   2.439   4.281  12.203 -0.4599 -0.0746 -0.2943
   77TCq2    C6 1178   2.363   4.304  12.319  0.4528  0.3855 -0.1808
   77TCq2    C7 1179   2.252   4.387  12.316 -0.8307 -0.6333 -0.2613
   77TCq2    C8 1180   2.411   4.273  12.450  0.5838  0.6377 -0.1484
   77TCq2    O4 1181   2.382   4.337  12.550 -0.5396  0.2908 -0.1918
   77TCq2    C9 1182   2.495   4.318  11.970  0.1161  0.0641 -0.5217
   77TCq2    O5 1183   2.591   4.234  11.988 -0.2166 -0.1065  0.0984
   77TCq2    O6 1184   2.464   4.370  11.859  0.1491  0.4926  0.0312
   77TCq2    H2 1185   2.263   4.450  11.980 -0.8887  1.9829  1.5352
   77TCq2    H3 1186   2.531   4.224  12.195 -1.0266 -0.8723 -1.2525
   77TCq2    H4 1187   2.199   4.409  12.408 -0.1842  0.7043 -0.2059
   78MPD1     C 1188   2.946   0.568   0.710  0.2515 -0.2072 -0.4978
   78MPD1    C1 1189   2.864   0.613   0.812  0.0665  0.5822 -0.4979
   78MPD1    C2 1190   2.825   0.523   0.905  0.2348  0.3008  0.2486
   78MPD1    C3 1191   2.855   0.386   0.903  0.2478 -0.0630  0.2816
   78MPD1    C4 1192   2.943   0.351   0.802 -0.2003  0.3701 -0.4519
   78MPD1    C5 1193   2.980   0.437   0.703 -0.0692 -0.1524 -0.6265
   78MPD1     H 1194   2.762   0.561   0.984 -2.4312  2.3937 -2.8841
   78MPD1    H1 1195   2.978   0.250   0.784 -0.7452 -0.1856  1.6018
   78MPD1    H2 1196   2.982   0.635   0.633 -0.6741  1.5493  0.5970
   78MPD1    H3 1197   3.036   0.401   0.618  0.6228 -2.0932  0.6741
   78MPD1     N 1198   2.816   0.284   0.996  0.4996  0.1135  0.2741
   78MPD1    H5 1199   2.846   0.188   0.981 -0.6429 -0.2026  0.0099
   78MPD1    N1 1200   2.813   0.744   0.805  0.3049  0.0812 -0.2194
   78MPD1    H6 1201   2.884   0.801   0.759 -1.7125  1.9789 -0.9274
   78MPD1    H7 1202   2.806   0.782   0.899 -0.2385  0.6358 -0.4917
   79TCq2    C1 1203   2.741   0.312   1.109 -0.3968 -0.2421 -0.5516
   79TCq2    O2 1204   2.676   0.410   1.140  0.6031  0.3419  0.5333
   79TCq2    C2 1205   2.726   0.203   1.204 -0.0805  0.1835  0.3481
   79TCq2    C3 1206   2.623   0.203   1.293  0.0428 -0.2490  0.2562
   79TCq2    C4 1207   2.647   0.158   1.418  0.0030  0.5802  0.6978
   79TCq2    C5 1208   2.761   0.099   1.454  0.1188 -0.5862 -0.4451
   79TCq2    C6 1209   2.856   0.081   1.358  0.9817  0.8635  0.0212
   79TCq2    C7 1210   2.835   0.121   1.227  0.1655 -0.4321 -0.0467
   79TCq2    C8 1211   2.995   0.098   1.396  0.2225 -0.1698 -0.2473
   79TCq2    O4 1212   3.073   0.108   1.303  0.3432 -0.6684 -0.2336
   79TCq2    C9 1213   2.537   0.156   1.516 -0.0807 -0.7457 -0.3677
   79TCq2    O5 1214   2.443   0.232   1.495 -0.8475  0.0920  0.5599
   79TCq2    O6 1215   2.555   0.076   1.611  0.3669  0.0254  0.4867
   79TCq2    H2 1216   2.525   0.249   1.280  0.2429 -0.1082 -0.7141
   79TCq2    H3 1217   2.787   0.059   1.551  0.8031  0.1390 -0.3298
   79TCq2    H4 1218   2.918   0.122   1.157  0.8312  2.4890  0.8066
   80MPD2     C 1219   1.303   3.899  12.627 -0.4136  0.0325  0.2587
   80MPD2    C1 1220   1.252   3.898  12.501 -0.4320 -1.7193 -0.3532
   80MPD2    C2 1221   1.116   3.909  12.492 -0.2166 -0.1676 -0.2921
   80MPD2    C3 1222   1.035   3.898  12.606 -0.0008  0.5342 -0.8755
   80MPD2    C4 1223   1.094   3.867  12.727  0.0154 -0.6018 -0.4077
   80MPD2    C5 1224   1.227   3.878  12.735 -0.0858 -0.9051  0.1774
   80MPD2     H 1225   1.082   3.936  12.392 -1.0471  0.3733  0.1381
   80MPD2    H1 1226   1.031   3.865  12.815 -2.1620  2.1920 -1.9137
   80MPD2    H2 1227   1.408   3.910  12.654 -0.4395 -1.9773  1.1391
   80MPD2    H3 1228   1.276   3.884  12.831  1.7918 -0.8267 -0.7831
   80MPD2     N 1229   0.901   3.932  12.611  0.2404 -0.1709 -0.8257
   80MPD2    H5 1230   0.864   3.928  12.705 -1.3752 -0.2343 -1.4587
   80MPD2    N1 1231   1.335   3.885  12.391 -0.1391 -0.1518  0.1288
   80MPD2    H7 1232   1.280   3.866  12.309 -1.3387  0.5179  0.7870
   81TCq2    C1 1233   1.470   3.859  12.396  0.3697 -0.0525 -0.5525
   81TCq2    O2 1234   1.554   3.895  12.475 -0.1260  0.1608  0.4166
   81TCq2    C2 1235   1.518   3.797  12.274  0.3992  0.0271 -0.1477
   81TCq2    C3 1236   1.632   3.858  12.213  1.0674  0.2001 -0.0059
   81TCq2    C4 1237   1.645   3.849  12.070 -0.3545  0.6315  0.1581
   81TCq2    C5 1238   1.551   3.777  12.003  0.3939  0.0285 -0.2812
   81TCq2    C6 1239   1.451   3.710  12.067 -0.1374  0.7059  0.2345
   81TCq2    C7 1240   1.423   3.727  12.202 -0.8657 -0.2404  0.1190
   81TCq2    C8 1241   1.382   3.618  11.992  0.0188  0.6570  0.4867
   81TCq2    O4 1242   1.377   3.624  11.870 -0.1775 -0.0056 -0.0023
   81TCq2    C9 1243   1.754   3.906  12.011 -0.5327  0.2117 -0.5015
   81TCq2    O5 1244   1.781   3.862  11.895 -0.8630  0.4107 -0.2005
   81TCq2    O6 1245   1.810   4.003  12.066 -0.0530 -0.4376 -0.0898
   81TCq2    H2 1246   1.698   3.919  12.273  0.6217  0.5109  0.1707
   81TCq2    H3 1247   1.562   3.765  11.896  2.0676 -0.8997 -0.0023
   81TCq2    H4 1248   1.335   3.683  12.248 -0.8451 -2.6435 -2.0971
   82MPD2     C 1249   4.543   3.610  10.645  0.5920  0.2333  0.6090
   82MPD2    C1 1250   4.501   3.479  10.646  0.4827 -0.2901  1.1014
   82MPD2    C2 1251   4.506   3.409  10.767  0.1737  0.3562 -0.1265
   82MPD2    C3 1252   4.581   3.456  10.874 -0.3529  0.1772  0.2819
   82MPD2    C4 1253   4.636   3.580  10.861  0.1703  0.2989  0.3226
   82MPD2    C5 1254   4.611   3.653  10.750 -0.0105 -0.9237 -0.2828
   82MPD2     H 1255   4.454   3.314  10.772 -0.4821  0.7743  1.1141
   82MPD2    H1 1256   4.708   3.617  10.934  0.0570 -1.4302  1.3183
   82MPD2    H2 1257   4.546   3.681  10.563 -2.4324 -1.4738 -0.9829
   82MPD2    H3 1258   4.658   3.750  10.744  0.0817 -1.0704 -1.9208
   82MPD2     N 1259   4.594   3.381  10.995  0.5050  0.1613  0.0069
   82MPD2    H5 1260   4.642   3.418  11.077  0.6384  0.3619 -0.1620
   82MPD2    N1 1261   4.442   3.431  10.527  0.3152 -0.2253 -0.3223
   82MPD2    H7 1262   4.444   3.498  10.450  2.0963  2.0123  1.6647
   83TCq2    C1 1263   4.552   3.253  11.005 -1.0601 -0.5750  0.4831
   83TCq2    O2 1264   4.497   3.180  10.925  0.2540  0.1663 -0.0545
   83TCq2    C2 1265   4.590   3.186  11.132  0.6239 -0.1679  0.1305
   83TCq2    C3 1266   4.693   3.240  11.204  0.0798 -0.9685  0.4917
   83TCq2    C4 1267   4.706   3.199  11.331 -0.3554  0.2661  0.0778
   83TCq2    C5 1268   4.618   3.116  11.390  0.5772  0.0870  0.7873
   83TCq2    C6 1269   4.508   3.069  11.315 -0.0428  0.1750 -0.2054
   83TCq2    C7 1270   4.497   3.095  11.177 -0.2176 -0.1317 -0.0936
   83TCq2    C8 1271   4.386   3.047  11.390 -0.3340  0.3917 -0.0820
   83TCq2    O4 1272   4.322   2.944  11.369 -0.3125  0.0435 -0.4416
   83TCq2    C9 1273   0.083   3.258  11.416  0.2678  0.4340  0.1644
   83TCq2    O5 1274   0.151   3.347  11.363  0.0531 -0.2547  0.2063
   83TCq2    O6 1275   0.046   3.264  11.536  0.3210  0.1528  0.0662
   83TCq2    H2 1276   0.055   3.291  11.162  0.1095 -0.2744  1.3861
   83TCq2    H3 1277   4.638   3.083  11.492  1.5367 -3.3830 -0.5340
   83TCq2    H4 1278   4.410   3.071  11.117 -1.5297  2.1540  0.8797
   84TCq2    C1 1279   1.196   2.443  10.616 -0.2493 -0.8290 -0.0693
   84TCq2    O2 1280   1.096   2.383  10.587  0.1371  0.2659 -0.5651
   84TCq2    C2 1281   1.201   2.509  10.743 -0.3103 -0.3258  0.4731
   84TCq2    C3 1282   1.315   2.556  10.801 -0.7410  0.3134 -0.3347
   84TCq2    C4 1283   1.310   2.626  10.921 -0.2110  0.7844 -0.2344
   84TCq2    C5 1284   1.198   2.634  10.984 -0.3152  0.4046  0.0732
   84TCq2    C6 1285   1.081   2.581  10.931  0.0839 -0.3268 -0.4487
   84TCq2    C7 1286   1.080   2.518  10.807 -0.3843 -0.3168 -0.6589
   84TCq2    C8 1287   0.966   2.594  11.009 -0.2934  0.5736 -1.0646
   84TCq2    O4 1288   0.978   2.641  11.121 -0.2037 -0.1498  0.0679
   84TCq2    C9 1289   1.426   2.665  10.991 -0.3260  0.1822  0.2938
   84TCq2    O5 1290   1.540   2.627  10.950 -0.1701 -0.1460 -0.7452
   84TCq2    O6 1291   1.415   2.722  11.102 -0.4229 -0.2808 -0.0298
   84TCq2    H2 1292   1.412   2.543  10.756 -1.7818  0.4728 -2.6391
   84TCq2    H3 1293   1.202   2.684  11.079  1.1168 -2.2266  1.3903
   84TCq2    H4 1294   0.994   2.473  10.759 -0.1296 -1.2660 -0.2251
   85MPD2     C 1295   0.617   0.289  16.291  0.1041  0.1717  0.1041
   85MPD2    C1 1296   0.553   0.260  16.172 -0.0069  0.9515 -0.2086
   85MPD2    C2 1297   0.616   0.302  16.053 -0.6267 -1.1047  0.7050
   85MPD2    C3 1298   0.725   0.388  16.052  0.1911 -0.3237 -0.7663
   85MPD2    C4 1299   0.784   0.414  16.175  0.1504 -0.0907 -0.0852
   85MPD2    C5 1300   0.736   0.352  16.290 -0.4019  0.5343 -0.8306
   85MPD2     H 1301   0.564   0.286  15.958 -1.3000  0.0710  0.8713
   85MPD2    H1 1302   0.879   0.466  16.187 -0.1443  0.0513  1.6700
   85MPD2    H2 1303   0.585   0.247  16.386 -0.4344  2.2045  0.8151
   85MPD2    H3 1304   0.776   0.366  16.390  2.4979 -0.3751 -1.8674
   85MPD2     N 1305   0.785   0.436  15.937 -0.3693  0.5717 -0.5799
   85MPD2    H5 1306   0.867   0.496  15.934  0.0186  0.1789  2.0173
   85MPD2    N1 1307   0.442   0.173  16.167 -0.3883  0.2183  0.1358
   85MPD2    H7 1308   0.413   0.157  16.071  1.6819 -1.6280 -0.1899
   86TCq2    C1 1309   0.748   0.405  15.808 -0.8136 -0.1552 -0.1868
   86TCq2    O2 1310   0.659   0.337  15.763  0.1050  0.3040 -0.6273
   86TCq2    C2 1311   0.838   0.461  15.714  0.0076 -0.3822 -0.6483
   86TCq2    C3 1312   0.816   0.416  15.581  0.6748 -0.4547  0.4568
   86TCq2    C4 1313   0.901   0.467  15.484  0.1793  0.5106  0.0392
   86TCq2    C5 1314   1.010   0.553  15.516  0.5109 -0.6249  0.0699
   86TCq2    C6 1315   1.026   0.592  15.645 -0.2027 -0.5332  0.8982
   86TCq2    C7 1316   0.945   0.548  15.745 -0.7890 -0.2135 -0.0959
   86TCq2    C8 1317   1.167   0.617  15.683  0.0733  0.6516 -0.1035
   86TCq2    O4 1318   1.241   0.563  15.603 -0.5485  0.1330  0.3290
   86TCq2    C9 1319   0.885   0.425  15.341 -0.3979 -0.2451  0.5086
   86TCq2    O5 1320   0.802   0.336  15.319 -0.5451 -0.5121  0.5959
   86TCq2    O6 1321   0.925   0.514  15.256 -0.1765 -0.0244 -0.3137
   86TCq2    H2 1322   0.744   0.339  15.562 -1.1459  1.2110  0.5973
   86TCq2    H3 1323   1.081   0.578  15.438 -0.3149  0.2582 -0.4027
   86TCq2    H4 1324   0.979   0.568  15.846  1.2123  3.3756 -1.4922
   87MPD2     C 1325   2.746   3.781   1.188 -1.0175 -0.1915 -0.0040
   87MPD2    C1 1326   2.755   3.797   1.049 -0.2143  1.0903 -0.2342
   87MPD2    C2 1327   2.701   3.910   0.993  0.2137 -0.3806 -0.3984
   87MPD2    C3 1328   2.632   4.008   1.074  0.8875  0.3239  0.0949
   87MPD2    C4 1329   2.632   3.995   1.209 -0.2474  0.9162 -0.2895
   87MPD2    C5 1330   2.684   3.882   1.263  0.3689  0.3518 -0.3115
   87MPD2     H 1331   2.696   3.914   0.885  0.8419 -1.1550 -0.4595
   87MPD2    H1 1332   2.588   4.057   1.286  1.9635  0.4836  1.3296
   87MPD2    H2 1333   2.774   3.693   1.244  0.1023  0.7806  0.9661
   87MPD2    H3 1334   2.689   3.868   1.370 -1.9970  0.9464 -0.1360
   87MPD2     N 1335   2.572   4.124   1.015 -0.1850  0.4302 -0.1805
   87MPD2    H5 1336   2.513   4.186   1.070 -1.5648  0.3360 -1.5550
   87MPD2    N1 1337   2.833   3.698   0.987 -0.4392  0.4340  0.3888
   87MPD2    H7 1338   2.869   3.623   1.044 -0.0580 -0.1483 -0.6111
   88TCq2    C1 1339   2.862   3.689   0.854 -0.1446  0.2040  0.1269
   88TCq2    O2 1340   2.860   3.782   0.772  0.0383  0.5622  0.0146
   88TCq2    C2 1341   2.928   3.567   0.822 -0.9175 -0.2467  0.6238
   88TCq2    C3 1342   2.887   3.453   0.893 -0.3620  0.1309  0.8633
   88TCq2    C4 1343   2.972   3.345   0.879 -0.1099 -0.8806  0.9105
   88TCq2    C5 1344   3.090   3.343   0.807  0.5122 -0.2591 -0.1064
   88TCq2    C6 1345   3.118   3.459   0.741 -0.5346 -0.2103 -0.7731
   88TCq2    C7 1346   3.045   3.572   0.745  0.1478 -0.1872  0.7899
   88TCq2    C8 1347   3.248   3.464   0.674 -0.5384 -0.6976 -0.2432
   88TCq2    O4 1348   3.269   3.546   0.585  0.0026 -0.7319 -0.9337
   88TCq2    C9 1349   2.944   3.219   0.955  0.4564 -0.2263  1.0174
   88TCq2    O5 1350   2.842   3.228   1.032 -0.1953 -0.3573  0.4603
   88TCq2    O6 1351   3.039   3.136   0.963 -0.3434 -0.0691  0.5833
   88TCq2    H2 1352   2.793   3.448   0.947 -1.6331  1.7737 -1.1667
   88TCq2    H3 1353   3.152   3.256   0.827 -1.5185 -1.3704  1.3121
   88TCq2    H4 1354   3.075   3.668   0.705  1.1880  0.0472  2.1352
   89MPD2     C 1355   3.938   2.142   1.575  0.3663 -0.0480  0.2881
   89MPD2    C1 1356   3.849   2.183   1.674 -0.4059 -0.9587  0.0620
   89MPD2    C2 1357   3.864   2.311   1.719 -0.0843  0.1580 -0.1710
   89MPD2    C3 1358   3.965   2.395   1.675 -0.3322 -0.2548  0.2434
   89MPD2    C4 1359   4.053   2.348   1.572  0.1725 -0.1733  0.7879
   89MPD2    C5 1360   4.031   2.226   1.514 -0.2958  0.4789 -0.0609
   89MPD2     H 1361   3.789   2.349   1.786  0.2848 -1.5394  1.2018
   89MPD2    H1 1362   4.139   2.399   1.531 -1.9689  1.7955 -1.2326
   89MPD2    H2 1363   3.927   2.047   1.523 -2.4204  0.3653  0.1678
   89MPD2    H3 1364   4.104   2.188   1.443 -0.7881 -2.6330  1.0849
   89MPD2     N 1365   3.977   2.517   1.746  0.0635 -0.0113  0.1604
   89MPD2    H5 1366   3.911   2.521   1.823  0.3912  4.3144  0.2107
   89MPD2    N1 1367   3.739   2.107   1.718  0.1479  0.4247 -0.1383
   89MPD2    H7 1368   3.668   2.157   1.772 -0.2798  2.1564 -2.3448
   90TCq2    C1 1369   4.059   2.619   1.715  0.5905 -0.3551 -0.8985
   90TCq2    O2 1370   4.126   2.630   1.616 -0.1672 -0.9802 -0.1286
   90TCq2    C2 1371   4.084   2.710   1.822  1.1557 -1.0221 -0.2199
   90TCq2    C3 1372   4.052   2.678   1.948  0.3433  0.5013  0.9693
   90TCq2    C4 1373   4.088   2.762   2.049 -0.1354  0.0150 -0.7235
   90TCq2    C5 1374   4.133   2.890   2.017  0.1564  0.1554 -0.9607
   90TCq2    C6 1375   4.159   2.923   1.887 -0.1405  0.0743 -0.2032
   90TCq2    C7 1376   4.153   2.828   1.791 -0.1231 -0.2680 -0.0284
   90TCq2    C8 1377   4.212   3.060   1.859 -0.3087  0.2689  0.5752
   90TCq2    O4 1378   4.174   3.152   1.931 -0.3887  0.3445  0.1778
   90TCq2    C9 1379   4.053   2.732   2.185  0.3340  0.8030 -0.1305
   90TCq2    O5 1380   4.084   2.821   2.270  0.1943 -0.9647  0.6229
   90TCq2    O6 1381   3.985   2.626   2.201 -0.3573 -0.2182  0.0229
   90TCq2    H2 1382   4.030   2.577   1.983  0.5817  0.5708  1.3247
   90TCq2    H3 1383   4.134   2.962   2.098 -1.4153  1.2097 -1.8871
   90TCq2    H4 1384   4.172   2.846   1.686  0.1097  1.0691  0.2422
   91TMC2    C1 1385   0.960   1.623  16.271  0.0292 -0.1221  0.0059
   91TMC2    C2 1386   0.958   1.703  16.386 -0.3299  0.2651  0.0921
   91TMC2    C3 1387   0.843   1.775  16.393 -0.6165  0.1236 -0.2673
   91TMC2    C4 1388   0.857   1.600  16.182  0.4587  0.3213  0.5865
   91TMC2    C5 1389   0.737   1.665  16.210  0.2123 -0.1670  0.8916
   91TMC2    C6 1390   0.734   1.766  16.308  0.3516 -0.4783 -0.1072
   91TMC2     C 1391   1.089   1.555  16.255  0.6013 -0.8122 -0.2724
   91TMC2     O 1392   1.097   1.454  16.188  0.5061  0.4014 -1.1870
   91TMC2     H 1393   1.030   1.703  16.467 -1.5463  1.5279  1.1609
   91TMC2    H1 1394   0.874   1.525  16.105 -0.8303  0.0976  0.5206
   91TMC2    H2 1395   0.635   1.810  16.316  0.3962 -0.3234 -0.3926
   91TMC2    C7 1396   0.611   1.631  16.137  0.4464  0.8265 -0.0151
   91TMC2    C8 1397   0.835   1.859  16.517 -0.1484  0.0064  0.2592
   91TMC2    O1 1398   0.511   1.697  16.160 -0.0866 -0.9905 -0.1897
   91TMC2    O2 1399   0.896   1.817  16.617 -0.5607  0.2011 -0.0843
   91TMC2    O5 1400   0.859   1.983  16.471 -0.0989 -0.3500  0.1488
   91TMC2    H5 1401   0.832   1.987  16.376 -1.6281 -0.2159  0.6010
   92MPD2     C 1402   1.352   1.440  16.323 -0.3614 -0.5153 -0.0514
   92MPD2    C1 1403   1.319   1.575  16.351  0.0588  0.0815 -0.3367
   92MPD2    C2 1404   1.413   1.662  16.415  0.3127  0.7401 -0.3645
   92MPD2    C3 1405   1.539   1.623  16.441 -0.3892  0.2323 -0.0948
   92MPD2    C4 1406   1.571   1.492  16.419  0.6400 -0.1965 -0.0336
   92MPD2    C5 1407   1.479   1.408  16.361  0.0970  0.0126 -0.1785
   92MPD2     H 1408   1.385   1.763  16.442 -3.0615  0.0906 -1.4152
   92MPD2    H1 1409   1.673   1.454  16.425  0.3939 -0.9188 -0.3816
   92MPD2    H2 1410   1.298   1.372  16.258 -0.4679  1.6504 -2.2185
   92MPD2    H3 1411   1.513   1.307  16.339 -0.0925 -0.0130 -0.3522
   92MPD2     N 1412   1.629   1.726  16.471  0.5860 -0.1310 -0.1932
   92MPD2    H5 1413   1.599   1.821  16.492 -0.5810 -1.0440  2.2297
   92MPD2    N1 1414   1.190   1.628  16.316  0.5926  0.7396 -0.2986
   92MPD2    H7 1415   1.170   1.720  16.354  0.4374  1.6198 -2.5220
   93MPD2     C 1416   2.358   1.138  13.181 -0.6766  0.3735  0.0832
   93MPD2    C1 1417   2.297   1.216  13.276 -0.2184 -0.2593  0.5912
   93MPD2    C2 1418   2.189   1.294  13.242  0.2136  0.6560 -0.3302
   93MPD2    C3 1419   2.144   1.316  13.114  0.2033 -0.1134  0.0506
   93MPD2    C4 1420   2.216   1.239  13.019 -0.8595 -0.2282 -0.1906
   93MPD2    C5 1421   2.314   1.150  13.049 -0.6022  0.4768  0.0384
   93MPD2     H 1422   2.136   1.337  13.325  1.0035  1.7332 -0.3858
   93MPD2    H1 1423   2.192   1.251  12.913  0.3222  3.3350 -0.0755
   93MPD2    H2 1424   2.453   1.088  13.198 -0.0820  0.8944 -1.6788
   93MPD2    H3 1425   2.359   1.083  12.976  0.5195 -0.5017  1.6150
   93MPD2     N 1426   2.034   1.392  13.067 -0.0687  0.0474 -0.6343
   93MPD2    H5 1427   2.034   1.428  12.972  0.0733 -1.3728 -1.1636
   93MPD2    N1 1428   2.352   1.224  13.407 -0.3752 -0.3316  0.1488
   93MPD2    H7 1429   2.325   1.294  13.475 -2.2039 -1.2569  0.3746
   94TCq2    C1 1430   2.460   1.153  13.460 -0.5611  0.2133  0.2134
   94TCq2    O2 1431   2.518   1.055  13.413  0.0973  0.7285 -0.2212
   94TCq2    C2 1432   2.491   1.181  13.594 -0.2236 -0.2546 -0.3890
   94TCq2    C3 1433   2.391   1.227  13.677 -0.0412 -1.0401 -0.1749
   94TCq2    C4 1434   2.431   1.286  13.792  0.6333  0.2585 -0.4565
   94TCq2    C5 1435   2.561   1.311  13.823  0.0579  0.1487 -0.4652
   94TCq2    C6 1436   2.658   1.265  13.738 -0.4413  0.1784  0.2479
   94TCq2    C7 1437   2.629   1.202  13.614 -0.0286  0.9183  0.1301
   94TCq2    C8 1438   2.790   1.322  13.767  0.4825  1.0000  0.1974
   94TCq2    O4 1439   2.882   1.260  13.716  0.6370  0.2299 -0.1975
   94TCq2    C9 1440   2.332   1.362  13.872 -0.0086 -0.4950 -0.2529
   94TCq2    O5 1441   2.221   1.389  13.817  0.6451 -0.0130 -0.4013
   94TCq2    O6 1442   2.378   1.431  13.967 -0.6327 -0.0529  0.8479
   94TCq2    H2 1443   2.287   1.223  13.646 -0.9849 -1.4202  3.0228
   94TCq2    H3 1444   2.598   1.347  13.918  2.0011 -0.4164 -0.9940
   94TCq2    H4 1445   2.707   1.178  13.542  0.4081  0.0638  0.8893
   95TMC2    C1 1446   2.439   3.472  16.119  0.0825 -0.4142  0.4461
   95TMC2    C2 1447   2.438   3.343  16.120  0.4515  0.3523  0.3826
   95TMC2    C3 1448   2.409   3.281  16.239  0.2991 -0.4597  0.6920
   95TMC2    C4 1449   2.399   3.557  16.223  0.1296 -0.3502 -0.1457
   95TMC2    C5 1450   2.352   3.494  16.334  1.0198 -0.3024 -0.4700
   95TMC2    C6 1451   2.373   3.355  16.347  0.3116 -0.0430 -0.2863
   95TMC2     C 1452   2.488   3.540  16.006  0.4294 -0.2451 -0.1571
   95TMC2     O 1453   2.565   3.631  16.026 -0.5114  0.4593  0.1050
   95TMC2     H 1454   2.477   3.293  16.033  0.8444  1.1102  0.1206
   95TMC2    H1 1455   2.408   3.664  16.211 -1.9088 -0.0079  1.2016
   95TMC2    H2 1456   2.347   3.309  16.442  0.3304 -2.6867 -1.5503
   95TMC2    C7 1457   2.327   3.563  16.463 -0.4399 -0.1979 -0.2815
   95TMC2    C8 1458   2.421   3.136  16.248  0.1699 -0.1304  0.2206
   95TMC2    O1 1459   2.309   3.489  16.557 -0.4202 -0.0500 -0.3618
   95TMC2    O2 1460   2.428   3.079  16.138 -0.3183  0.4752  0.0057
   95TMC2    O5 1461   2.323   3.102  16.336 -0.2787 -0.2534 -0.3881
   95TMC2    H5 1462   2.329   3.155  16.418 -1.9167 -0.7545  0.0489
   96MPD2     C 1463   2.644   3.535  15.506  0.3765  0.4143  0.4150
   96MPD2    C1 1464   2.711   3.574  15.621 -0.0424 -0.2704  0.2918
   96MPD2    C2 1465   2.645   3.558  15.750 -0.0349  0.3560 -0.0779
   96MPD2    C3 1466   2.515   3.510  15.758 -0.6146  0.2068  0.0275
   96MPD2    C4 1467   2.466   3.459  15.644 -0.2545  0.0433  0.2676
   96MPD2    C5 1468   2.525   3.477  15.523  0.5010  0.6677  0.0567
   96MPD2     H 1469   2.700   3.567  15.843 -0.5563  0.0438  0.2656
   96MPD2    H1 1470   2.371   3.407  15.637  1.2910 -2.4899 -1.5531
   96MPD2    H2 1471   2.693   3.546  15.410 -0.9506  2.2478 -0.0540
   96MPD2    H3 1472   2.469   3.452  15.434  0.8474 -1.3084  0.3834
   96MPD2     N 1473   2.444   3.487  15.886 -0.2799 -0.2330  0.2958
   96MPD2    H5 1474   2.361   3.429  15.879  0.8836 -2.1199  2.0363
   96MPD2    N1 1475   2.843   3.628  15.600  0.1997  0.5738  0.1975
   96MPD2    H7 1476   2.886   3.619  15.509 -0.5923  0.5618 -0.1767
   97MPD2     C 1477   0.240   1.068   1.098 -0.5005  0.2123 -0.3514
   97MPD2    C1 1478   0.116   1.051   1.036  0.4527  0.1825  0.3608
   97MPD2    C2 1479   0.107   1.069   0.900  0.1498 -0.3596  0.1372
   97MPD2    C3 1480   0.220   1.102   0.832  0.3075  0.0175  0.0715
   97MPD2    C4 1481   0.336   1.124   0.902 -0.1075  0.6894  0.1297
   97MPD2    C5 1482   0.351   1.099   1.032 -0.5231 -0.2949  0.0467
   97MPD2     H 1483   0.012   1.053   0.851  0.6524 -1.6795 -0.4081
   97MPD2    H1 1484   0.424   1.168   0.857 -0.8697 -1.2714 -3.2766
   97MPD2    H2 1485   0.252   1.070   1.206 -2.5342  0.4297 -0.1100
   97MPD2    H3 1486   0.443   1.119   1.086 -1.0472  1.0375  0.4479
   97MPD2     N 1487   0.216   1.116   0.690  0.3829 -0.1688 -0.3297
   97MPD2    H5 1488   0.131   1.102   0.638 -0.4876 -4.0066  2.1493
   97MPD2    N1 1489   0.002   1.040   1.122  0.1698 -0.0775  0.0379
   97MPD2    H7 1490   0.019   1.043   1.222 -2.2299 -3.0840  0.5236
   98TCq2    C1 1491   0.314   1.171   0.611 -0.1243 -0.0833 -0.2199
   98TCq2    O2 1492   0.421   1.218   0.645 -0.1508 -0.6335 -0.1589
   98TCq2    C2 1493   0.288   1.169   0.467 -0.0250 -0.1451 -0.9365
   98TCq2    C3 1494   0.217   1.072   0.404  0.3916  0.4292  0.1752
   98TCq2    C4 1495   0.145   1.102   0.296  0.1138  0.4229 -0.1975
   98TCq2    C5 1496   0.128   1.230   0.245  0.1266  0.3177 -0.0795
   98TCq2    C6 1497   0.194   1.328   0.321 -0.0753 -0.7766 -1.2232
   98TCq2    C7 1498   0.280   1.300   0.428  0.4201 -0.0812 -0.0944
   98TCq2    C8 1499   0.222   1.453   0.251  0.2165  0.4360  0.4506
   98TCq2    O4 1500   0.345   1.482   0.245  0.1306 -0.2598  0.3291
   98TCq2    C9 1501   0.070   0.985   0.240 -0.6286  0.0544  0.2047
   98TCq2    O5 1502   0.067   0.872   0.293 -0.4176  0.2698 -0.0494
   98TCq2    O6 1503   4.705   1.020   0.154 -0.0471 -0.5467  0.0720
   98TCq2    H2 1504   0.228   0.968   0.431  2.5363  0.2459 -1.4173
   98TCq2    H3 1505   0.056   1.260   0.170 -0.4802  1.7234  1.0590
   98TCq2    H4 1506   0.330   1.374   0.490 -2.0126  0.1652  1.5593
   99MPD2     C 1507   3.970   3.082   1.578  0.0734 -0.2662  0.0602
   99MPD2    C1 1508   3.863   2.998   1.570  0.3417 -0.3070 -0.9412
   99MPD2    C2 1509   3.812   2.961   1.451 -0.2980 -0.5518 -0.2460
   99MPD2    C3 1510   3.866   3.009   1.339  0.0175  0.0846 -0.2919
   99MPD2    C4 1511   3.984   3.075   1.346 -0.3626 -0.5503  0.3130
   99MPD2    C5 1512   4.034   3.115   1.467 -0.1624 -0.2204  0.5199
   99MPD2     H 1513   3.743   2.879   1.441 -1.4051  0.6874 -2.6753
   99MPD2    H1 1514   4.034   3.115   1.259 -0.7653 -2.3913 -0.7745
   99MPD2    H2 1515   4.013   3.116   1.671 -0.0552  1.0099 -0.3506
   99MPD2    H3 1516   4.122   3.174   1.491 -0.9711  0.7223  1.2055
   99MPD2     N 1517   3.802   2.989   1.217 -0.7200 -0.1148 -0.0072
   99MPD2    H5 1518   3.715   2.936   1.214 -1.0567  0.3887  0.6987
   99MPD2    N1 1519   3.800   2.946   1.690  0.3118  0.2231  0.0349
   99MPD2    H7 1520   3.741   2.864   1.678  0.4822 -0.1591  1.7030
  100TCq2    C1 1521   3.822   2.995   1.822 -0.1828 -0.1753  0.3017
  100TCq2    O2 1522   3.893   3.088   1.852  0.3870 -0.0983 -0.1389
  100TCq2    C2 1523   3.753   2.919   1.932  0.0884  0.2192  0.0921
  100TCq2    C3 1524   3.797   2.946   2.063 -0.2584  0.8818  0.0448
  100TCq2    C4 1525   3.739   2.864   2.156  0.4119 -0.6589 -0.2906
  100TCq2    C5 1526   3.631   2.779   2.129 -0.1803  0.0694 -0.5499
  100TCq2    C6 1527   3.582   2.775   2.002 -0.6731  0.6172 -0.2467
  100TCq2    C7 1528   3.638   2.843   1.903 -0.1036  0.0225 -0.0018
  100TCq2    C8 1529   3.443   2.751   1.999  0.6299 -0.1708  0.0465
  100TCq2    O4 1530   3.388   2.770   2.103  0.0660 -0.1439 -0.5071
  100TCq2    C9 1531   3.781   2.876   2.298  1.0027 -0.7932 -0.0381
  100TCq2    O5 1532   3.836   2.985   2.335  0.3257  0.5702  0.3545
  100TCq2    O6 1533   3.739   2.789   2.377 -0.1726  0.7600 -0.4694
  100TCq2    H2 1534   3.880   3.012   2.086  1.1313 -1.1573  0.9612
  100TCq2    H3 1535   3.573   2.729   2.205  1.2635 -1.0162 -0.1633
  100TCq2    H4 1536   3.593   2.849   1.805  1.1476  1.0079 -0.5237
  101MPD2     C 1537   4.616   3.760  12.841  0.1143 -0.3885 -0.1776
  101MPD2    C1 1538   4.526   3.835  12.908  0.0527 -0.7620 -0.7063
  101MPD2    C2 1539   4.435   3.780  12.997  0.2978  0.7244  0.1773
  101MPD2    C3 1540   4.432   3.643  13.017 -0.5567 -0.4013 -0.1797
  101MPD2    C4 1541   4.522   3.566  12.944  0.6207 -0.0464 -0.0329
  101MPD2    C5 1542   4.612   3.624  12.856 -0.7079  0.1517 -0.2893
  101MPD2     H 1543   4.360   3.841  13.047  2.9872  3.2261  1.2000
  101MPD2    H1 1544   4.519   3.458  12.946 -0.2305 -0.0457 -1.1969
  101MPD2    H2 1545   4.678   3.802  12.763 -0.8107 -2.7979 -2.2211
  101MPD2    H3 1546   4.676   3.563  12.793  0.1516  3.2396 -2.4179
  101MPD2     N 1547   4.336   3.592  13.106  1.0188 -0.2547 -0.3793
  101MPD2    H5 1548   4.286   3.663  13.160  0.1504 -0.3981 -0.9893
  101MPD2    N1 1549   4.516   3.975  12.876  1.1192 -0.3170  0.3070
  101MPD2    H7 1550   4.592   4.013  12.821 -0.6658  0.8219 -1.4141
  102TCq2    C1 1551   4.574   4.288  12.508  0.3405 -0.0130  0.8270
  102TCq2    O2 1552   4.687   4.271  12.549 -0.3499 -0.2415 -0.0671
  102TCq2    C2 1553   4.470   4.254  12.612 -0.1933 -0.3357  0.1710
  102TCq2    C3 1554   4.349   4.324  12.591  0.1065 -0.5352  0.5159
  102TCq2    C4 1555   4.258   4.301  12.693 -0.3661 -0.9991 -0.4333
  102TCq2    C5 1556   4.293   4.225  12.802  0.1056  0.0174 -0.1571
  102TCq2    C6 1557   4.416   4.179  12.832  0.0682  0.4065  0.3832
  102TCq2    C7 1558   4.507   4.192  12.729  0.3508  0.0050 -0.1320
  102TCq2    C8 1559   4.418   4.064  12.916  0.5023  0.3514 -0.1992
  102TCq2    O4 1560   4.328   4.061  13.002 -0.2386  0.5965 -0.4796
  102TCq2    C9 1561   4.126   4.347  12.689 -0.1477 -0.1264 -0.3148
  102TCq2    O5 1562   4.074   4.359  12.574 -0.2718 -0.4240 -0.2626
  102TCq2    O6 1563   4.079   4.393  12.791  0.8112  0.7084 -1.0800
  102TCq2    H2 1564   4.315   4.379  12.504  0.1462 -0.4609  0.5469
  102TCq2    H3 1565   4.203   4.201  12.858  0.3288  0.1190  0.2461
  102TCq2    H4 1566   4.609   4.178  12.761  0.0031  1.3698  1.5444
  103TMC2    C1 1567   2.674   4.346  13.068 -0.1396 -0.2361  0.3589
  103TMC2    C2 1568   2.777   4.431  13.065 -0.2483 -0.8662  0.5342
  103TMC2    C3 1569   2.825   4.491  13.179  0.0094 -0.6103 -0.3822
  103TMC2    C4 1570   2.605   4.329  13.181  0.1780  0.1240  0.1830
  103TMC2    C5 1571   2.645   4.388  13.302 -0.4052  0.3988 -0.4747
  103TMC2    C6 1572   2.760   4.468  13.297 -0.1355  0.3121 -0.3059
  103TMC2     C 1573   2.649   4.256  12.951  0.1732 -0.1333  0.6558
  103TMC2     O 1574   2.541   4.195  12.952 -0.1006  0.9679 -0.1805
  103TMC2     H 1575   2.823   4.468  12.974 -0.6401  0.6048  0.9320
  103TMC2    H1 1576   2.526   4.255  13.182  0.0866  0.2093 -1.5069
  103TMC2    H2 1577   2.801   4.508  13.389 -0.6675 -2.6753  1.2170
  103TMC2    C7 1578   2.587   4.360  13.431 -0.2276  0.1291  0.3346
  103TMC2    C8 1579   2.941   4.575  13.175  0.3053  0.3927 -1.1645
  103TMC2    O1 1580   2.646   4.409  13.525  1.4866  0.1214 -0.6422
  103TMC2    O2 1581   2.957   4.660  13.264 -0.2572 -0.0098 -0.6366
  103TMC2    O5 1582   3.025   4.548  13.065 -0.1371  0.0740 -0.1514
  103TMC2    H5 1583   2.998   4.463  13.025 -0.6105 -0.8733  2.1758
  104MPD2     C 1584   2.858   4.140  12.670 -0.6612 -0.5230  0.0015
  104MPD2    C1 1585   2.745   4.191  12.733 -0.6125  0.7633 -0.1277
  104MPD2    C2 1586   2.624   4.198  12.661  0.1552 -0.2019 -0.1990
  104MPD2    C3 1587   2.616   4.164  12.526  0.5479 -0.6594 -0.3764
  104MPD2    C4 1588   2.728   4.127  12.463  0.4033  0.1744 -0.5797
  104MPD2    C5 1589   2.844   4.113  12.539  0.0749  0.1537  1.0328
  104MPD2     H 1590   2.537   4.241  12.710 -0.1128 -0.6795 -0.2556
  104MPD2    H1 1591   2.707   4.099  12.361  1.5578  1.2143 -1.1031
  104MPD2    H2 1592   2.951   4.115  12.719 -1.5177 -0.1633  1.8175
  104MPD2    H3 1593   2.932   4.071  12.493 -0.6808  0.4528 -0.6862
  104MPD2     N 1594   2.510   4.181  12.436 -0.3819 -0.4664  0.7917
  104MPD2    H5 1595   2.514   4.144  12.342  1.0608  0.8733  0.3277
  104MPD2    N1 1596   2.754   4.248  12.863 -0.0302  0.1426 -0.1103
  104MPD2    H7 1597   2.846   4.273  12.898  0.0894 -0.2537 -0.1368
  105MPD2     C 1598   4.158   3.459  17.125  0.2635  0.2127  1.0152
  105MPD2    C1 1599   4.126   3.592  17.174  0.0815  0.1939 -0.4515
  105MPD2    C2 1600   4.109   3.599  17.307  0.0471  0.0931 -0.6546
  105MPD2    C3 1601   4.094   3.484  17.386  0.0300 -0.0431 -1.2317
  105MPD2    C4 1602   4.132   3.355  17.347  0.5613 -0.2941  0.0397
  105MPD2    C5 1603   4.177   3.353  17.218  0.6052  0.2730  0.1141
  105MPD2     H 1604   4.061   3.687  17.348 -0.3737 -0.5519  0.2434
  105MPD2    H1 1605   4.143   3.266  17.408  0.5943 -1.1447 -1.2033
  105MPD2    H2 1606   4.193   3.440  17.024  0.2100  1.5519  0.7442
  105MPD2    H3 1607   4.191   3.254  17.176  1.9671  0.4857  0.0702
  105MPD2     N 1608   4.036   3.509  17.515  0.2801  0.2763  0.3197
  105MPD2    H5 1609   4.025   3.607  17.538 -1.2128 -0.4237  2.4824
  105MPD2    N1 1610   4.097   3.706  17.095 -0.0387  0.3831 -0.0009
  105MPD2    H7 1611   4.076   3.790  17.147 -1.3090 -1.1438  1.9401
  106TCq2    C1 1612   4.002   3.416  17.602 -0.9656 -0.4445 -0.8513
  106TCq2    O2 1613   4.019   3.296  17.611  0.3196  0.2666  0.2754
  106TCq2    C2 1614   3.916   3.470   0.007  0.7200 -0.7169 -0.2299
  106TCq2    C3 1615   3.827   3.573  17.669  0.8456 -0.0726  0.5029
  106TCq2    C4 1616   3.727   3.594   0.067  0.0546 -0.5248  0.3265
  106TCq2    C5 1617   3.703   3.519   0.175  0.9118  0.1632 -0.4137
  106TCq2    C6 1618   3.785   3.413   0.196  0.1275  0.1599 -0.1386
  106TCq2    C7 1619   3.890   3.387   0.113 -0.5234  0.1240  0.0237
  106TCq2    C8 1620   3.786   3.342   0.323 -0.6421  0.0575  0.4805
  106TCq2    O4 1621   3.888   3.296   0.372  0.5163  0.3459  0.0591
  106TCq2    C9 1622   3.631   3.699   0.042 -0.1728  0.6166 -0.0546
  106TCq2    O5 1623   3.532   3.705   0.115  0.6175  0.4307  0.0525
  106TCq2    O6 1624   3.674   3.794  17.669  0.4768 -0.0197 -0.1117
  106TCq2    H2 1625   3.834   3.641  17.585 -1.0597  2.4046  2.3446
  106TCq2    H3 1626   3.620   3.543   0.240 -1.2103  0.9542 -3.4175
  106TCq2    H4 1627   3.968   3.320   0.146 -0.8075 -0.4344 -0.4274
  107TMC2    C1 1628   0.286   2.728  11.691 -0.4537  0.5620 -0.6641
  107TMC2    C2 1629   0.322   2.863  11.670 -0.9382 -0.0145  0.0047
  107TMC2    C3 1630   0.372   2.899  11.550  0.6438  0.2088 -0.5406
  107TMC2    C4 1631   0.315   2.628  11.598 -0.1987  0.1293 -0.2114
  107TMC2    C5 1632   0.366   2.677  11.483 -0.1107 -0.0370 -0.0708
  107TMC2    C6 1633   0.390   2.807  11.457  0.2409  0.1014  0.1830
  107TMC2     C 1634   0.239   2.700  11.832  0.6395  0.1667  0.5430
  107TMC2     O 1635   0.256   2.584  11.867 -0.0775 -0.6061 -0.4468
  107TMC2     H 1636   0.309   2.937  11.748 -1.1068 -1.7797  1.6655
  107TMC2    H1 1637   0.273   2.530  11.617 -2.6847  1.0557 -1.0221
  107TMC2    H2 1638   0.432   2.833  11.361  1.2102 -3.9499 -0.5060
  107TMC2    C7 1639   0.391   2.577  11.378  0.2077  0.8385 -0.6266
  107TMC2    C8 1640   0.373   3.036  11.504 -0.9927 -0.3598 -0.1785
  107TMC2    O1 1641   0.326   2.477  11.383  0.4376 -0.3986 -0.6532
  107TMC2    O2 1642   0.368   3.127  11.581  0.9484 -0.3209  0.9170
  107TMC2    O5 1643   0.310   3.038  11.380  0.1369  0.0845  0.0846
  107TMC2    H5 1644   0.296   2.949  11.343 -2.3589  0.9227 -0.9736
  108MPD2     C 1645   0.044   2.922  12.054  0.0279 -0.5962  0.0973
  108MPD2    C1 1646   0.101   2.802  12.012  0.1295  0.4812 -0.3818
  108MPD2    C2 1647   0.097   2.689  12.091  0.3326  0.0066  0.0387
  108MPD2    C3 1648   0.030   2.690  12.211  0.2998  0.4287  0.4627
  108MPD2    C4 1649   4.692   2.811  12.256 -0.1517 -0.1652 -0.2514
  108MPD2    C5 1650   4.706   2.924  12.180  0.7072  0.6812  0.6287
  108MPD2     H 1651   0.142   2.597  12.055 -0.8462 -1.0803  1.3505
  108MPD2    H1 1652   4.630   2.808  12.344  2.4813 -3.1230  1.5308
  108MPD2    H2 1653   0.039   3.015  11.999 -1.6218 -1.9768 -2.0975
  108MPD2    H3 1654   4.660   3.018  12.205 -1.5122  0.1097 -1.3538
  108MPD2     N 1655   0.035   2.571  12.285 -0.5530 -0.3804  0.1044
  108MPD2    H5 1656   0.077   2.489  12.242 -1.6239 -0.5062 -0.6757
  108MPD2    N1 1657   0.163   2.798  11.889 -0.4171 -0.2921 -0.7258
  108MPD2    H7 1658   0.148   2.882  11.834  0.1829 -0.4376 -1.1119
  109MPD2     C 1659   3.962   4.576   1.915  0.7344 -0.0748 -0.0366
  109MPD2    C1 1660   3.999   4.671   1.829  0.1881  0.8260 -0.3554
  109MPD2    C2 1661   4.099   0.031   1.875 -0.2593  0.1199 -0.0268
  109MPD2    C3 1662   4.151   0.021   2.006  0.1356 -0.1903  0.1658
  109MPD2    C4 1663   4.112   4.641   2.087 -0.4549 -1.0342 -0.2313
  109MPD2    C5 1664   4.020   4.555   2.043 -0.3956 -0.0500  0.1359
  109MPD2     H 1665   4.138   0.110   1.811  1.1446 -0.2705  0.3353
  109MPD2    H1 1666   4.138   4.635   2.192 -0.1014 -0.1814 -0.2734
  109MPD2    H2 1667   3.870   4.519   1.903  0.1262  0.4762  2.0557
  109MPD2    H3 1668   3.972   4.490   2.115 -1.9787  0.4305 -0.4816
  109MPD2     N 1669   4.245   0.126   2.037  0.4589  1.0149 -0.3156
  109MPD2    H5 1670   4.267   0.193   1.965  0.6279 -1.0493 -2.1853
  109MPD2    N1 1671   3.935   4.682   1.700 -0.2260 -1.0119 -0.0263
  109MPD2    H7 1672   3.858   4.621   1.676 -0.8930 -1.1363  2.3705
  110TCq2    C1 1673   4.305   0.145   2.156 -0.0870  0.1366 -0.0309
  110TCq2    O2 1674   4.283   0.087   2.259  0.1635 -0.5798 -0.0762
  110TCq2    C2 1675   4.399   0.250   2.158  0.4011  0.6648 -0.2089
  110TCq2    C3 1676   4.490   0.238   2.265 -0.5868  0.2696  1.4356
  110TCq2    C4 1677   4.604   0.315   2.272 -0.5172  0.7522  0.0673
  110TCq2    C5 1678   4.628   0.394   2.164 -0.0332 -0.1711 -0.2125
  110TCq2    C6 1679   4.548   0.399   2.056 -0.4835  0.1632 -0.4163
  110TCq2    C7 1680   4.432   0.328   2.051 -0.0472 -0.2605 -0.2308
  110TCq2    C8 1681   4.565   0.495   1.950 -0.3443 -0.7173  0.2735
  110TCq2    O4 1682   4.460   0.529   1.891  0.0532  0.2690 -0.3279
  110TCq2    C9 1683   4.679   0.331   2.399 -0.2721 -0.0613 -0.2244
  110TCq2    O5 1684   0.060   0.403   2.398  0.6032 -0.4836  0.5526
  110TCq2    O6 1685   4.642   0.263   2.496  0.4242 -0.1425 -0.0279
  110TCq2    H2 1686   4.470   0.171   2.348 -1.2596 -1.7502 -0.3448
  110TCq2    H3 1687   4.703   0.472   2.175 -0.5001  0.4570 -1.5117
  110TCq2    H4 1688   4.367   0.353   1.969 -0.0755  1.0179  0.1745
  111TMC2    C1 1689   0.653   0.133  11.169 -0.2053  0.9025  0.0062
  111TMC2    C2 1690   0.775   0.176  11.112 -0.2639 -0.2449  0.0254
  111TMC2    C3 1691   0.887   0.168  11.178  0.4181 -0.7454 -0.2448
  111TMC2    C4 1692   0.654   0.087  11.295  0.2205  0.3010  0.5631
  111TMC2    C5 1693   0.778   0.087  11.359  0.4290 -0.6637  0.0136
  111TMC2    C6 1694   0.895   0.123  11.304 -0.2938  0.3657 -0.3437
  111TMC2     C 1695   0.535   0.131  11.083 -0.5069 -0.6987  0.1876
  111TMC2     O 1696   0.549   0.168  10.969 -0.1181 -0.1514 -0.3819
  111TMC2     H 1697   0.777   0.214  11.010  0.7361  0.7340  0.4080
  111TMC2    H1 1698   0.571   0.041  11.346 -1.4506  0.8340 -1.6707
  111TMC2    H2 1699   0.996   0.115  11.344  0.2687  2.3082 -1.3279
  111TMC2    C7 1700   0.774   0.047  11.499  0.2771 -0.0990  0.7251
  111TMC2    C8 1701   1.008   0.209  11.109  0.0786 -0.1548  0.3595
  111TMC2    O1 1702   0.668   0.020  11.555 -0.0201  0.8822 -0.5149
  111TMC2    O2 1703   1.117   0.174  11.147  0.1233 -0.3141 -0.1586
  111TMC2    O5 1704   0.974   0.334  11.080  0.2538 -0.1633 -0.4839
  111TMC2    H5 1705   0.878   0.348  11.090 -0.4071 -2.8834 -3.2518
  112MPD2     C 1706   0.054   0.008  11.020 -0.0459 -0.4659  0.3215
  112MPD2    C1 1707   0.151   0.028  10.927 -0.2895 -0.7357 -0.3905
  112MPD2    C2 1708   0.277   0.060  10.964 -0.9381  0.3050  0.0337
  112MPD2    C3 1709   0.303   0.062  11.100 -0.3355 -0.0505  1.0626
  112MPD2    C4 1710   0.202   0.057  11.194 -0.3812 -0.5649  0.8370
  112MPD2    C5 1711   0.078   0.023  11.154  0.6167  0.1147  0.6799
  112MPD2     H 1712   0.354   0.046  10.889  1.2735  0.1332  2.3229
  112MPD2    H1 1713   0.220   0.067  11.301 -2.9382 -3.5565  1.5296
  112MPD2    H2 1714   4.672   4.722  10.996  0.7874 -1.7904 -2.8394
  112MPD2    H3 1715   4.719   0.018  11.224 -0.9687 -0.7805 -1.2271
  112MPD2     N 1716   0.430   0.088  11.155 -0.0463  0.2389  0.4256
  112MPD2    H5 1717   0.443   0.083  11.256  1.7883 -1.3043  0.1036
  112MPD2    N1 1718   0.129   0.003  10.785  0.3729  0.1275  0.7807
  112MPD2    H7 1719   0.201   0.029  10.718 -0.0486  1.9410  1.0401
  113MPD2     C 1720   2.935   2.808   0.706 -0.0223 -0.3513 -0.0361
  113MPD2    C1 1721   2.836   2.745   0.781 -0.1447 -0.6043 -0.3050
  113MPD2    C2 1722   2.730   2.688   0.715 -0.7908  0.9071 -0.0469
  113MPD2    C3 1723   2.714   2.697   0.576 -0.2352  0.3565 -0.0354
  113MPD2    C4 1724   2.808   2.769   0.507  0.3222  0.5576 -0.3229
  113MPD2    C5 1725   2.921   2.813   0.570  0.0325 -0.5311  0.1144
  113MPD2     H 1726   2.661   2.633   0.777 -0.8475  0.9872 -0.0387
  113MPD2    H1 1727   2.803   2.794   0.402 -1.2325  0.1716 -0.3293
  113MPD2    H2 1728   3.025   2.850   0.750 -0.8997  1.5440 -0.0547
  113MPD2    H3 1729   2.997   2.863   0.511 -0.8313  0.0103 -0.5432
  113MPD2     N 1730   2.596   2.649   0.513 -0.9745 -0.2507  0.7480
  113MPD2    H5 1731   2.601   2.667   0.413  0.0991  2.2345  1.2829
  113MPD2    N1 1732   2.828   2.747   0.926  0.5420  0.1251 -0.3197
  113MPD2    H7 1733   2.736   2.723   0.962 -1.0190  3.4255 -2.1095
  114TCq2    C1 1734   2.484   2.587   0.577  0.4612 -0.5870  0.2048
  114TCq2    O2 1735   2.481   2.550   0.692  0.1081  0.1771 -0.1195
  114TCq2    C2 1736   2.380   2.562   0.486  0.3756  0.2154  0.0721
  114TCq2    C3 1737   2.387   2.580   0.353  0.3858  0.0640  0.6918
  114TCq2    C4 1738   2.284   2.540   0.276 -0.2213  0.4362 -0.3162
  114TCq2    C5 1739   2.169   2.497   0.328 -0.3276  0.3147 -0.2797
  114TCq2    C6 1740   2.166   2.474   0.464  0.3055 -0.1567  0.2036
  114TCq2    C7 1741   2.266   2.519   0.542  0.0986  0.5624  0.3503
  114TCq2    C8 1742   2.035   2.489   0.527 -0.0779  0.0070 -0.9254
  114TCq2    O4 1743   1.948   2.558   0.473 -0.5916 -0.3826  0.0332
  114TCq2    C9 1744   2.302   2.545   0.128  0.5626  0.2466  0.2269
  114TCq2    O5 1745   2.421   2.539   0.082 -0.5879 -0.2034 -0.4485
  114TCq2    O6 1746   2.201   2.514   0.062  0.1491  0.3594 -0.0867
  114TCq2    H2 1747   2.481   2.607   0.307  0.9225 -2.0792  0.5697
  114TCq2    H3 1748   2.089   2.455   0.268 -0.6413 -0.3076  0.5662
  114TCq2    H4 1749   2.252   2.512   0.649  0.1609 -0.1302  0.3147
  115TMC2    C1 1750   3.806   1.047  17.616 -0.2704  0.0952 -0.1284
  115TMC2    C2 1751   3.930   1.009  17.589  0.5562  0.5471  0.1561
  115TMC2    C3 1752   4.021   1.108  17.571 -0.7491 -0.5052 -0.1139
  115TMC2    C4 1753   3.756   1.172  17.625 -0.1959 -0.4122  0.5435
  115TMC2    C5 1754   3.849   1.270  17.612  0.7042  0.2080 -0.2745
  115TMC2    C6 1755   3.983   1.238  17.573  0.2371 -0.1572  0.1099
  115TMC2     C 1756   3.715   0.929  17.625  0.1584  0.5025  0.1579
  115TMC2     O 1757   3.604   0.939  17.578 -0.2342  0.1716  0.3346
  115TMC2     H 1758   3.963   0.906  17.579  1.0186  0.6941  0.1738
  115TMC2    H1 1759   3.652   1.184  17.655 -0.1989  0.2477  0.2482
  115TMC2    H2 1760   4.063   1.311  17.570  1.8493 -2.0223 -2.2591
  115TMC2    C7 1761   3.798   1.396  17.653  0.6711 -0.4721  0.3639
  115TMC2    C8 1762   4.159   1.083  17.603 -0.3404 -0.1796  0.4878
  115TMC2    O1 1763   3.704   1.404   0.036 -0.5803  0.1422  0.3610
  115TMC2    O2 1764   4.253   1.154  17.570 -0.0945  0.6586 -0.7395
  115TMC2    O5 1765   4.153   1.011   0.021 -0.2198 -0.1098  0.4409
  115TMC2    H5 1766   4.061   0.994   0.050 -0.9061  2.4579 -0.1688
  116MPD2     C 1767   3.593   0.447   0.050 -0.1930  0.1463  0.3077
  116MPD2    C1 1768   3.561   0.522  17.635 -0.0358 -0.4520 -0.4308
  116MPD2    C2 1769   3.619   0.642  17.614  0.1026 -0.4892  0.4017
  116MPD2    C3 1770   3.702   0.699   0.020 -0.5290 -0.8838 -0.6161
  116MPD2    C4 1771   3.735   0.617   0.130  0.0195 -0.2754 -0.5980
  116MPD2    C5 1772   3.678   0.494   0.149 -0.1116  0.5892  0.1266
  116MPD2     H 1773   3.600   0.702  17.526  1.2744 -0.8974 -0.1239
  116MPD2    H1 1774   3.800   0.651   0.210  0.9484 -1.2635 -0.9355
  116MPD2    H2 1775   3.540   0.353   0.065 -1.1048  0.6689  0.3498
  116MPD2    H3 1776   3.698   0.442   0.242 -0.5529  1.4477  0.7012
  116MPD2     N 1777   3.773   0.821   0.001  0.0132 -0.9235  0.2675
  116MPD2    H5 1778   3.854   0.839   0.059 -0.0834 -0.7725  0.3554
  116MPD2    N1 1779   3.462   0.476  17.547 -0.2055 -0.0382 -0.3456
  116MPD2    H7 1780   3.452   0.543  17.472 -2.7441  0.8485  0.7818
  117TMC2    C1 1781   1.980   2.022  14.280 -0.0007 -0.0879 -0.1553
  117TMC2    C2 1782   2.030   1.894  14.282 -0.4179  0.1795 -0.3585
  117TMC2    C3 1783   2.124   1.872  14.190  0.2344 -0.5625 -0.2366
  117TMC2    C4 1784   2.027   2.120  14.192  0.7306  0.2712 -0.0859
  117TMC2    C5 1785   2.128   2.087  14.106  0.2910  0.5087 -0.0290
  117TMC2    C6 1786   2.170   1.960  14.095 -0.2327  0.2583  0.6365
  117TMC2     C 1787   1.861   2.039  14.348  0.5751 -0.0282 -0.3957
  117TMC2     O 1788   1.844   1.966  14.444  0.7623 -0.0228 -0.8576
  117TMC2     H 1789   1.982   1.822  14.347 -2.2517  3.6296  2.1152
  117TMC2    H1 1790   1.998   2.223  14.208 -0.0124 -0.1940  1.5833
  117TMC2    H2 1791   2.266   1.939  14.048 -2.0783 -3.3017 -1.5734
  117TMC2    C7 1792   2.183   2.192  14.022 -0.3306  0.1413  0.0869
  117TMC2    C8 1793   2.180   1.737  14.190 -0.4680 -0.3861  0.1545
  117TMC2    O1 1794   2.108   2.283  14.002  0.2694  0.4934 -0.1087
  117TMC2    O2 1795   2.253   1.686  14.111  0.0685 -0.4434  0.2523
  117TMC2    O5 1796   2.193   1.700  14.320  0.0135  0.1581 -0.5296
  117TMC2    H5 1797   2.189   1.780  14.377  0.7655 -0.5249  0.4933
  118MPD2     C 1798   2.516   2.222  13.872 -1.0033  0.0244  0.2855
  118MPD2    C1 1799   2.395   2.268  13.921 -0.2753 -0.8243 -0.3573
  118MPD2    C2 1800   2.355   2.396  13.895 -0.6642  0.1138  1.1095
  118MPD2    C3 1801   2.441   2.490  13.840  0.4113 -0.0889  0.0144
  118MPD2    C4 1802   2.562   2.443  13.796 -0.2916  0.4594  0.4591
  118MPD2    C5 1803   2.597   2.312  13.807  0.0019 -0.1239 -0.1112
  118MPD2     H 1804   2.258   2.427  13.931 -0.8196  0.1026  0.6950
  118MPD2    H1 1805   2.637   2.501  13.744 -0.9607  2.0030  1.2190
  118MPD2    H2 1806   2.553   2.123  13.896  0.8516  1.2308  2.3512
  118MPD2    H3 1807   2.702   2.298  13.784 -0.3627 -2.9561 -0.0485
  118MPD2     N 1808   2.407   2.622  13.817  0.5272  0.0045 -0.7612
  118MPD2    H5 1809   2.477   2.683  13.775 -0.3885 -0.0962 -2.3988
  118MPD2    N1 1810   2.316   2.175  13.986 -0.4895 -0.0819 -0.3156
  118MPD2    H7 1811   2.367   2.091  14.014  1.2116  0.4081 -1.9627
  119MPD2     C 1812   0.908   3.730  13.197 -0.4350  0.0327  0.2196
  119MPD2    C1 1813   0.782   3.710  13.219 -0.0983  0.0671  0.1292
  119MPD2    C2 1814   0.711   3.629  13.134 -0.0026  0.5923 -0.1047
  119MPD2    C3 1815   0.771   3.565  13.023 -0.2446 -0.5420  0.0352
  119MPD2    C4 1816   0.903   3.591  13.000  0.2461  0.6931  0.5721
  119MPD2    C5 1817   0.975   3.673  13.090  0.1064  0.3226 -0.4482
  119MPD2     H 1818   0.607   3.617  13.162 -0.2418 -0.3154 -1.4019
  119MPD2    H1 1819   0.958   3.558  12.912 -0.9280  1.3373 -0.4114
  119MPD2    H2 1820   0.956   3.796  13.268  0.7419 -1.3388  0.7116
  119MPD2    H3 1821   1.079   3.694  13.069  1.1552 -2.0130  2.2963
  119MPD2     N 1822   0.706   3.455  12.961  0.4698 -0.5200 -0.8741
  119MPD2    H5 1823   0.762   3.398  12.899 -0.0537 -1.0605 -0.8440
  119MPD2    N1 1824   0.726   3.769  13.343  0.2764  0.0698  0.6422
  119MPD2    H7 1825   0.783   3.799  13.421 -1.0960 -0.7826  1.9723
  120TCq2    C1 1826   0.569   3.438  12.960 -0.2512 -0.1820  0.4508
  120TCq2    O2 1827   0.482   3.518  12.980  0.2438 -0.0595  0.5816
  120TCq2    C2 1828   0.523   3.300  12.949 -0.0541 -1.1035 -0.2899
  120TCq2    C3 1829   0.612   3.200  12.966 -0.2253  0.2556  0.3275
  120TCq2    C4 1830   0.573   3.072  12.950  0.5285  0.8698  0.8789
  120TCq2    C5 1831   0.444   3.037  12.937 -0.3716  0.6546  0.8524
  120TCq2    C6 1832   0.360   3.143  12.938 -0.5216 -0.8463  0.6741
  120TCq2    C7 1833   0.393   3.272  12.938 -0.0428  0.4183 -0.1746
  120TCq2    C8 1834   0.226   3.113  12.979 -0.0914 -0.4941  0.3119
  120TCq2    O4 1835   0.166   3.030  12.915 -0.2833 -0.0649  0.2276
  120TCq2    C9 1836   0.671   2.962  12.958  0.5085  0.1802  0.9080
  120TCq2    O5 1837   0.778   2.993  13.016  0.1142 -0.9837  0.4689
  120TCq2    O6 1838   0.645   2.849  12.907  0.0065 -0.1861 -0.2670
  120TCq2    H2 1839   0.715   3.214  12.995  0.0610  0.5034 -0.8045
  120TCq2    H3 1840   0.409   2.934  12.943 -1.1836  0.7980 -1.3865
  120TCq2    H4 1841   0.321   3.354  12.936 -2.1674 -1.4702 -1.4135
  121TMC2    C1 1842   1.941   0.455  13.963  0.1032 -0.5311 -0.2804
  121TMC2    C2 1843   1.950   0.338  14.031 -0.3939  0.0723  0.5537
  121TMC2    C3 1844   1.857   0.238  14.014  0.5663  1.0452 -0.3133
  121TMC2    C4 1845   1.840   0.477  13.877  0.1331 -0.0361  0.1150
  121TMC2    C5 1846   1.737   0.386  13.861  0.1503 -0.2544 -0.0860
  121TMC2    C6 1847   1.744   0.264  13.932 -0.0819  0.0236 -0.3199
  121TMC2     C 1848   2.058   0.537  13.962 -0.1080  0.1345  0.3912
  121TMC2     O 1849   2.141   0.530  14.051  0.0173  0.5958 -0.3861
  121TMC2     H 1850   2.032   0.323  14.101 -0.6499 -0.4688  0.7381
  121TMC2    H1 1851   1.825   0.575  13.835 -0.1651 -0.5970 -1.0893
  121TMC2    H2 1852   1.663   0.192  13.924 -0.7267  0.8866 -1.4953
  121TMC2    C7 1853   1.651   0.417  13.750  1.1574 -0.4264 -0.2267
  121TMC2    C8 1854   1.842   0.145  14.123  0.6414  0.0377 -0.3675
  121TMC2    O1 1855   1.685   0.502  13.667  0.6660 -0.0972  0.0226
  121TMC2    O2 1856   1.828   0.191  14.236  0.6350  0.2264  0.3565
  121TMC2    O5 1857   1.779   0.034  14.073 -0.0378  0.1148 -0.2877
  121TMC2    H5 1858   1.808   0.022  13.981  0.8711 -0.4862  0.0794
  122MPD2     C 1859   2.270   0.736  13.892 -0.0200 -0.0647 -0.2717
  122MPD2    C1 1860   2.174   0.688  13.804  0.0957  0.5906 -0.8349
  122MPD2    C2 1861   2.193   0.729  13.672 -0.6034  0.4940  0.7739
  122MPD2    C3 1862   2.294   0.813  13.624 -0.3508 -0.2052  0.2226
  122MPD2    C4 1863   2.391   0.855  13.716  0.1994 -0.2288  0.3311
  122MPD2    C5 1864   2.369   0.816  13.846  0.0672  0.0374 -0.1760
  122MPD2     H 1865   2.121   0.688  13.602 -0.0660 -0.5606  0.8471
  122MPD2    H1 1866   2.473   0.925  13.703 -2.0740  2.2954 -0.4481
  122MPD2    H2 1867   2.265   0.717  13.999 -0.7655  2.0565  0.0597
  122MPD2    H3 1868   2.443   0.855  13.915 -0.4745 -0.1240  0.5076
  122MPD2     N 1869   2.319   0.837  13.488 -0.5574  0.0479 -0.3652
  122MPD2    H5 1870   2.399   0.891  13.456  0.0465 -1.4866 -1.4641
  122MPD2    N1 1871   2.068   0.602  13.842 -0.7744 -0.6958  0.1035
  122MPD2    H7 1872   1.998   0.578  13.773 -0.0253 -0.1600 -0.8411
  123MPD2     C 1873   1.051   3.405  10.478  0.1335  0.0721 -0.5459
  123MPD2    C1 1874   0.996   3.414  10.356 -0.4649  0.2971  0.0252
  123MPD2    C2 1875   1.017   3.532  10.287 -0.1957 -0.4785 -0.0738
  123MPD2    C3 1876   1.072   3.642  10.340 -0.1480 -0.2301 -1.0637
  123MPD2    C4 1877   1.112   3.635  10.476 -0.7642 -0.7315  0.1859
  123MPD2    C5 1878   1.095   3.516  10.545  0.0487  0.1566 -0.2827
  123MPD2     H 1879   0.987   3.529  10.183  3.5114  1.8318 -1.1920
  123MPD2    H1 1880   1.156   3.720  10.527 -2.1002  0.0887 -0.0167
  123MPD2    H2 1881   1.056   3.311  10.532 -2.2775  0.9514  1.1905
  123MPD2    H3 1882   1.125   3.506  10.648 -0.4676 -0.4373 -0.1932
  123MPD2     N 1883   1.069   3.753  10.259  0.6280 -0.0660 -0.1744
  123MPD2    H5 1884   1.023   3.745  10.169 -1.0584 -1.5325  0.8108
  123MPD2    N1 1885   0.942   3.299  10.290 -0.4944  0.5088 -0.1466
  123MPD2    H7 1886   0.971   3.211  10.332  3.2536  1.5104 -0.5916
  124TCq2    C1 1887   1.115   3.878  10.298 -0.1126  0.0091  0.4930
  124TCq2    O2 1888   1.157   3.920  10.402  0.3812  0.0252 -0.4084
  124TCq2    C2 1889   1.068   3.977  10.198  0.2570  0.2519  1.0406
  124TCq2    C3 1890   1.017   4.096  10.257  0.3243 -0.7389  0.0053
  124TCq2    C4 1891   0.953   4.183  10.173 -0.0345  0.0321  0.4285
  124TCq2    C5 1892   0.954   4.150  10.041 -0.5016 -0.7034  0.7439
  124TCq2    C6 1893   1.001   4.032   9.990  0.8241  0.1587 -0.4541
  124TCq2    C7 1894   1.057   3.944  10.069  0.4403  0.2630  0.2507
  124TCq2    C8 1895   0.975   4.007   9.849  0.5734 -0.4319 -0.7111
  124TCq2    O4 1896   0.929   4.101   9.783 -0.2045  0.2402  0.1685
  124TCq2    C9 1897   0.918   4.311  10.211  0.4217  0.6806 -0.1477
  124TCq2    O5 1898   0.910   4.330  10.332 -0.3376 -0.1545 -0.3631
  124TCq2    O6 1899   0.868   4.384  10.124 -0.1179 -0.1293  0.2188
  124TCq2    H2 1900   1.041   4.110  10.362 -2.1513  2.0666  0.1789
  124TCq2    H3 1901   0.914   4.227   9.976 -0.2579 -2.7035 -1.7258
  124TCq2    H4 1902   1.110   3.856  10.032  0.3237 -0.0902  0.9342
  125TMC2    C1 1903   3.572   1.146   8.242  0.0840 -0.3349 -0.1076
  125TMC2    C2 1904   3.706   1.119   8.255 -0.0754  0.2236  0.2908
  125TMC2    C3 1905   3.738   1.036   8.358 -0.0674  0.5402 -0.6713
  125TMC2    C4 1906   3.473   1.090   8.321 -0.1511 -0.1792  0.3791
  125TMC2    C5 1907   3.512   0.998   8.415 -0.0685 -0.2246  0.0074
  125TMC2    C6 1908   3.646   0.969   8.433  0.2353  0.2967 -0.1820
  125TMC2     C 1909   3.530   1.205   8.117  0.3734  0.4799 -0.1110
  125TMC2     O 1910   3.600   1.208   8.017 -0.0546 -0.0974 -0.2317
  125TMC2     H 1911   3.785   1.163   8.196 -0.1533 -0.8458 -0.6001
  125TMC2    H1 1912   3.369   1.109   8.294 -0.6406  0.1327  2.5067
  125TMC2    H2 1913   3.676   0.894   8.505 -3.0095 -1.0381 -0.2586
  125TMC2    C7 1914   3.423   0.955   8.513  1.0059 -0.2545 -0.2300
  125TMC2    C8 1915   3.880   1.005   8.383  0.5075 -0.6028 -0.3542
  125TMC2    O1 1916   3.314   1.009   8.503  0.4246  0.4578  0.0437
  125TMC2    O2 1917   3.934   0.973   8.487 -0.3614  0.1075 -0.4219
  125TMC2    O5 1918   3.937   1.001   8.260  0.1980 -0.1459  0.2007
  125TMC2    H5 1919   3.878   0.981   8.185  1.6059  0.5885 -1.1106
  126MPD1     C 1920   3.148   1.385   7.832 -0.1700  1.3271 -0.9682
  126MPD1    C1 1921   3.139   1.444   7.954 -0.1910 -0.0296  0.6302
  126MPD1    C2 1922   3.226   1.399   8.058 -0.0609 -0.1479 -0.1096
  126MPD1    C3 1923   3.335   1.317   8.025 -0.2518 -0.3325 -0.3777
  126MPD1    C4 1924   3.356   1.283   7.898  0.4422  0.4093  0.2217
  126MPD1    C5 1925   3.264   1.314   7.801 -0.4287  0.1044 -0.2921
  126MPD1     H 1926   3.197   1.428   8.158 -0.0934 -0.8455  0.0808
  126MPD1    H1 1927   3.439   1.217   7.876  1.0607  1.6183 -1.0976
  126MPD1    H2 1928   3.065   1.405   7.765 -0.6989  2.5858  0.0642
  126MPD1    H3 1929   3.285   1.275   7.702  0.6303  0.1836 -0.1003
  126MPD1     N 1930   3.413   1.270   8.127  0.1197 -0.3146 -0.4997
  126MPD1    H5 1931   3.376   1.275   8.221  0.8894 -1.3933 -0.1380
  126MPD1    N1 1932   3.024   1.510   7.995 -0.3771  0.0541  0.1992
  126MPD1    H6 1933   2.968   1.557   7.924 -0.6453 -1.7976 -0.8058
  126MPD1    H7 1934   3.028   1.557   8.085 -0.0353 -0.7533  0.6049
  127MPD2     C 1935   3.382   3.761   9.303 -1.2473  0.3042  0.5938
  127MPD2    C1 1936   3.267   3.831   9.313  0.0646 -0.1546  0.0099
  127MPD2    C2 1937   3.245   3.907   9.426  1.2711  0.2147 -0.6004
  127MPD2    C3 1938   3.343   3.921   9.518  0.1894 -0.8963  0.5630
  127MPD2    C4 1939   3.463   3.857   9.509 -0.2911 -0.4134 -0.0008
  127MPD2    C5 1940   3.475   3.771   9.402 -0.1562 -0.0273  0.1909
  127MPD2     H 1941   3.143   3.942   9.442  0.5092 -1.3825 -1.9504
  127MPD2    H1 1942   3.536   3.864   9.589 -1.7640 -1.2220  1.4142
  127MPD2    H2 1943   3.415   3.697   9.222  0.3150 -1.1311  2.3400
  127MPD2    H3 1944   3.571   3.722   9.393 -1.4452 -2.6535  0.8146
  127MPD2     N 1945   3.309   4.002   9.631  0.2677  0.1255 -0.6910
  127MPD2    H5 1946   3.219   4.048   9.626 -0.5572 -1.2973  1.0761
  127MPD2    N1 1947   3.167   3.801   9.213 -0.4549  0.6190  0.0376
  127MPD2    H7 1948   3.198   3.732   9.145  0.1924  0.2945  0.6695
  128TCq2    C1 1949   3.045   3.864   9.193  0.2936  0.4852  0.2305
  128TCq2    O2 1950   2.974   3.927   9.267 -0.4639 -0.0005  0.1735
  128TCq2    C2 1951   2.982   3.816   9.070  0.2421  0.2774 -0.9443
  128TCq2    C3 1952   3.060   3.774   8.968 -0.5428  0.2555  0.5506
  128TCq2    C4 1953   3.007   3.730   8.851 -0.1249 -0.3536 -0.0977
  128TCq2    C5 1954   2.869   3.721   8.837 -0.4033  0.1046 -0.1636
  128TCq2    C6 1955   2.790   3.756   8.951 -0.1035 -0.1584 -0.4567
  128TCq2    C7 1956   2.845   3.803   9.071  0.0646 -0.0128  0.4268
  128TCq2    C8 1957   2.643   3.718   8.941 -0.0128  0.0565 -1.1428
  128TCq2    O4 1958   2.607   3.700   8.829 -0.4377  0.5639 -0.1854
  128TCq2    C9 1959   3.096   3.678   8.749  0.0471 -0.2985  0.6340
  128TCq2    O5 1960   3.215   3.654   8.783 -0.2375 -0.3507 -0.0247
  128TCq2    O6 1961   3.034   3.632   8.648  0.5028 -0.9497  0.0541
  128TCq2    H2 1962   3.169   3.778   8.964 -0.5313  0.4370  1.1067
  128TCq2    H3 1963   2.827   3.669   8.752  0.4042  0.7576 -0.9592
  128TCq2    H4 1964   2.786   3.822   9.159  1.2103  2.2726  0.7168
  129MPD2     C 1965   4.668   0.655   1.092 -0.1920 -0.1527 -0.9269
  129MPD2    C1 1966   0.067   0.648   1.161 -0.3556  0.5751  0.0725
  129MPD2    C2 1967   0.180   0.687   1.092 -0.8959 -0.3682  0.2277
  129MPD2    C3 1968   0.174   0.710   0.957 -0.1410 -0.7137 -0.3537
  129MPD2    C4 1969   0.048   0.728   0.894 -0.1156 -0.2575 -0.2301
  129MPD2    C5 1970   4.657   0.703   0.963  0.1915 -0.3450 -0.3324
  129MPD2     H 1971   0.271   0.690   1.150 -1.5770  0.7278  1.2338
  129MPD2    H1 1972   0.034   0.766   0.793 -1.8086 -2.6873 -0.9294
  129MPD2    H2 1973   4.572   0.669   1.140  0.1655 -1.9682  0.2843
  129MPD2    H3 1974   4.561   0.739   0.926  0.5042 -1.1600 -1.9378
  129MPD2     N 1975   0.291   0.744   0.892  0.3664 -0.0596 -0.0566
  129MPD2    H5 1976   0.381   0.756   0.938  0.4168 -1.0553  0.1012
  129MPD2    N1 1977   0.089   0.598   1.290  0.6132  0.0322  0.1278
  129MPD2    H7 1978   0.181   0.600   1.332  0.8709  0.1573 -0.4462
  130TCq2    C1 1979   4.714   0.553   1.370  0.2042 -0.3761 -0.1935
  130TCq2    O2 1980   4.601   0.516   1.339  0.0806  0.2534 -0.5225
  130TCq2    C2 1981   0.046   0.504   1.501 -0.3409 -0.1788  0.1401
  130TCq2    C3 1982   0.172   0.544   1.554  0.6174  0.0368 -0.4751
  130TCq2    C4 1983   0.231   0.470   1.647 -0.2120 -0.0942 -1.2457
  130TCq2    C5 1984   0.161   0.362   1.698  0.9188  0.5633  0.2014
  130TCq2    C6 1985   0.034   0.333   1.658  0.0686  0.9398  0.4902
  130TCq2    C7 1986   4.696   0.414   1.563  0.0814 -0.2105  0.6476
  130TCq2    C8 1987   4.676   0.222   1.693 -0.1882 -0.2393 -0.2255
  130TCq2    O4 1988   4.581   0.189   1.625  0.4648 -0.0957 -0.3111
  130TCq2    C9 1989   0.365   0.503   1.696  0.0514  0.4537 -0.1970
  130TCq2    O5 1990   0.383   0.486   1.815 -0.0869  0.1383 -0.2197
  130TCq2    O6 1991   0.445   0.567   1.618  0.0758  0.0369  0.1253
  130TCq2    H2 1992   0.234   0.624   1.517  1.0682  1.0622  2.4455
  130TCq2    H3 1993   0.210   0.296   1.769  1.0363  0.6478  0.1995
  130TCq2    H4 1994   4.593   0.397   1.535  0.0455  1.6355 -0.3440
  131MPD2     C 1995   0.402   3.664   9.666 -0.2764  0.0509 -0.7978
  131MPD2    C1 1996   0.494   3.687   9.764  0.1319  0.6078 -0.1619
  131MPD2    C2 1997   0.556   3.580   9.833 -0.2213  0.2777  0.4747
  131MPD2    C3 1998   0.527   3.446   9.807 -0.0209 -0.2117 -0.1853
  131MPD2    C4 1999   0.432   3.429   9.710 -0.3440  0.0900 -0.6220
  131MPD2    C5 2000   0.377   3.533   9.642 -0.3405  0.3606  0.7745
  131MPD2     H 2001   0.634   3.600   9.906 -2.7560 -1.2416  3.6222
  131MPD2    H1 2002   0.389   3.332   9.688 -2.0664  0.4618  1.1183
  131MPD2    H2 2003   0.360   3.746   9.610  0.8593  1.5287  0.5190
  131MPD2    H3 2004   0.293   3.513   9.576  0.9460 -2.4334 -0.0031
  131MPD2     N 2005   0.593   3.347   9.870  0.5124 -0.3050 -0.5058
  131MPD2    H5 2006   0.654   3.377   9.946  0.3857 -0.8573 -0.1893
  131MPD2    N1 2007   0.528   3.819   9.799 -0.2950  0.1678 -0.1314
  131MPD2    H7 2008   0.493   3.892   9.738 -0.3322  1.3628  1.3143
  132TCq2    C1 2009   0.619   4.298   9.737  0.2049 -0.4890  0.0106
  132TCq2    O2 2010   0.523   4.362   9.689 -0.1956  0.4020  0.5166
  132TCq2    C2 2011   0.604   4.213   9.858 -0.9285  0.5115 -0.1466
  132TCq2    C3 2012   0.553   4.267   9.973 -0.1032  0.0157  0.1468
  132TCq2    C4 2013   0.540   4.187  10.079 -0.0422 -0.1742 -0.1053
  132TCq2    C5 2014   0.581   4.059  10.063 -0.4167 -0.2583 -0.1853
  132TCq2    C6 2015   0.605   4.001   9.938 -0.2605 -0.4601  0.4129
  132TCq2    C7 2016   0.620   4.083   9.833  0.0664 -0.6692  0.1803
  132TCq2    C8 2017   0.585   3.858   9.924 -0.3699 -0.5647  0.0892
  132TCq2    O4 2018   0.612   3.787  10.020  0.0745 -0.4933 -0.3029
  132TCq2    C9 2019   0.515   4.242  10.212  0.2253 -0.3951 -0.5074
  132TCq2    O5 2020   0.467   4.155  10.290  0.4904 -0.1802 -0.5091
  132TCq2    O6 2021   0.520   4.365  10.228  0.3195 -0.0892  0.3618
  132TCq2    H2 2022   0.541   4.375   9.966  2.7367  0.3761  1.0441
  132TCq2    H3 2023   0.571   3.997  10.152 -1.2238  1.3400  0.8206
  132TCq2    H4 2024   0.624   4.049   9.730  0.8894 -1.3651  0.4338
  133MPD2     C 2025   0.013   0.468   9.163 -0.2675  0.1540 -0.1875
  133MPD2    C1 2026   4.693   0.388   9.276  0.3881 -0.0758 -0.2744
  133MPD2    C2 2027   4.696   0.247   9.259 -0.1529 -0.2021  0.4892
  133MPD2    C3 2028   0.019   0.192   9.139  0.2459  0.2985 -0.7141
  133MPD2    C4 2029   0.045   0.274   9.032 -0.3882  0.0485  0.1969
  133MPD2    C5 2030   0.049   0.412   9.043 -0.2356  0.5289 -0.1760
  133MPD2     H 2031   4.684   0.183   9.346 -2.4271 -3.1233 -1.9972
  133MPD2    H1 2032   0.076   0.227   8.939  2.0161  0.1404  0.9356
  133MPD2    H2 2033   0.019   0.576   9.170 -0.4304  0.1147  0.5835
  133MPD2    H3 2034   0.078   0.480   8.963 -2.3081  2.1224  0.4085
  133MPD2     N 2035   0.028   0.053   9.112  0.4947  0.1983 -0.2402
  133MPD2    H5 2036   0.071   0.028   9.024  1.5416 -0.7521  0.5425
  133MPD2    N1 2037   4.633   0.467   9.389 -0.2408 -0.2923 -0.2935
  133MPD2    H7 2038   4.643   0.568   9.387 -1.3568 -0.1768 -0.0488
  134TCq2    C1 2039   4.573   0.406   9.497  0.3156 -0.1450 -1.2053
  134TCq2    O2 2040   4.566   0.287   9.533  0.0682 -0.3954  0.2745
  134TCq2    C2 2041   4.489   0.499   9.568 -0.1484 -0.3037  0.3439
  134TCq2    C3 2042   4.505   0.639   9.554  0.4244  0.6453 -0.4220
  134TCq2    C4 2043   4.415   0.720   9.621  0.3165 -0.2318  0.2290
  134TCq2    C5 2044   4.320   0.674   9.704  0.6598 -0.0430 -0.5767
  134TCq2    C6 2045   4.305   0.536   9.713 -0.1076 -0.1949  0.1048
  134TCq2    C7 2046   4.392   0.452   9.646 -0.1618 -0.0599 -0.2884
  134TCq2    C8 2047   4.214   0.490   9.821 -0.5982 -0.4590  0.2022
  134TCq2    O4 2048   4.217   0.368   9.843 -0.4819 -0.2176  0.2161
  134TCq2    C9 2049   4.403   0.854   9.572  0.0621  0.1886 -0.2257
  134TCq2    O5 2050   4.313   0.929   9.622 -0.4450  0.3121 -0.1942
  134TCq2    O6 2051   4.460   0.875   9.460 -0.2402  0.0564 -0.1053
  134TCq2    H2 2052   4.577   0.690   9.491  0.5006  0.1969 -0.6917
  134TCq2    H3 2053   4.252   0.748   9.745 -0.8662 -1.0611 -1.2797
  134TCq2    H4 2054   4.386   0.344   9.657 -1.6609  0.0814  0.3306
  135MPD2     C 2055   2.777   1.317   9.417  0.3958  0.0322 -0.5555
  135MPD2    C1 2056   2.773   1.180   9.396  0.7592  0.5754  0.5255
  135MPD2    C2 2057   2.892   1.124   9.350 -0.1923  0.1242  0.0045
  135MPD2    C3 2058   3.001   1.203   9.319  0.0090  0.0661  0.0702
  135MPD2    C4 2059   2.999   1.340   9.336 -0.5927 -0.2996 -0.1948
  135MPD2    C5 2060   2.890   1.395   9.384  0.4965 -0.1710  0.1736
  135MPD2     H 2061   2.886   1.019   9.321  0.6012  0.0136  0.2373
  135MPD2    H1 2062   3.078   1.408   9.307 -0.0774 -0.5284  0.6605
  135MPD2    H2 2063   2.693   1.380   9.442  0.2141  0.0848 -1.2802
  135MPD2    H3 2064   2.885   1.502   9.394 -0.6144 -0.5020  3.0676
  135MPD2     N 2065   3.114   1.153   9.255  0.2740  0.0155 -0.3020
  135MPD2    H5 2066   3.185   1.219   9.224  0.6940 -0.4460 -0.3236
  135MPD2    N1 2067   2.664   1.090   9.430 -0.3770 -0.1437  0.6143
  135MPD2    H7 2068   2.670   0.989   9.424 -1.1547 -0.1706  0.2449
  136TCq2    C1 2069   2.550   1.141   9.495 -0.3403 -0.3480  0.2343
  136TCq2    O2 2070   2.508   1.251   9.523 -0.4498  0.6013 -0.4177
  136TCq2    C2 2071   2.456   1.036   9.536 -0.2620  0.3075  0.5944
  136TCq2    C3 2072   2.325   1.062   9.563 -0.1114  0.8032 -0.2276
  136TCq2    C4 2073   2.248   0.963   9.617 -0.2468  0.0391  0.3158
  136TCq2    C5 2074   2.296   0.835   9.633  0.2647  0.0045  1.2951
  136TCq2    C6 2075   2.423   0.806   9.588 -0.3945 -0.0519 -1.2860
  136TCq2    C7 2076   2.505   0.907   9.549 -0.4599 -0.1456  0.1343
  136TCq2    C8 2077   2.476   0.676   9.600 -1.0929 -0.4205  0.1958
  136TCq2    O4 2078   2.598   0.668   9.586 -0.0387 -0.0775 -0.6222
  136TCq2    C9 2079   2.111   0.983   9.648 -0.8676  0.8713 -0.4892
  136TCq2    O5 2080   2.063   1.080   9.586 -0.0120 -0.0839 -0.1210
  136TCq2    O6 2081   2.047   0.896   9.710 -0.0480  0.1007  0.1502
  136TCq2    H2 2082   2.274   1.156   9.545 -1.2855 -0.1690 -1.9381
  136TCq2    H3 2083   2.217   0.767   9.666  0.6816 -1.1430 -0.0554
  136TCq2    H4 2084   2.610   0.882   9.543  0.4387  4.0736 -1.7894
  137MPD2     C 2085   2.553   4.122  10.303  0.5510  0.3796 -0.5663
  137MPD2    C1 2086   2.420   4.092  10.309  0.3070 -0.1370  0.4621
  137MPD2    C2 2087   2.345   4.143  10.407  0.1856 -0.2222 -0.0200
  137MPD2    C3 2088   2.397   4.223  10.511  0.3927  0.0633 -0.2635
  137MPD2    C4 2089   2.528   4.250  10.504 -0.3718 -0.4973  0.0184
  137MPD2    C5 2090   2.604   4.202  10.396 -0.1261  0.3772 -0.3039
  137MPD2     H 2091   2.238   4.125  10.415  0.5722 -1.7679  1.6331
  137MPD2    H1 2092   2.580   4.320  10.568  1.2984 -0.5287 -1.3059
  137MPD2    H2 2093   2.619   4.076  10.230  1.1665  0.7221 -0.2199
  137MPD2    H3 2094   2.708   4.231  10.390 -0.1046  0.1926 -0.8187
  137MPD2     N 2095   2.311   4.270  10.611  0.4761 -0.1256  0.0779
  137MPD2    H5 2096   2.222   4.222  10.624 -0.7605  1.8923 -0.8646
  137MPD2    N1 2097   2.368   4.019  10.199 -0.0610 -0.0845  0.1452
  137MPD2    H7 2098   2.433   3.986  10.128 -1.1725 -0.7949 -0.5345
  138TCq2    C1 2099   2.240   3.976  10.183 -0.1685  0.2405  0.2645
  138TCq2    O2 2100   2.140   4.012  10.243 -0.3195  0.7012 -0.4176
  138TCq2    C2 2101   2.220   3.903  10.057  0.0129 -0.4201  0.1928
  138TCq2    C3 2102   2.273   3.969   9.953  0.3693  0.3973 -0.1010
  138TCq2    C4 2103   2.227   3.950   9.823  0.0290 -0.5086 -0.5821
  138TCq2    C5 2104   2.110   3.877   9.802 -0.4805 -0.2849 -0.4139
  138TCq2    C6 2105   2.053   3.822   9.913  0.6856  0.3827 -0.0465
  138TCq2    C7 2106   2.099   3.844  10.042  1.0201 -0.2700  0.1711
  138TCq2    C8 2107   1.916   3.770   9.914  0.0722  0.5665  0.0295
  138TCq2    O4 2108   1.866   3.712  10.011 -0.2272 -0.0481  0.0657
  138TCq2    C9 2109   2.278   4.023   9.716 -0.4325  0.3135  0.2134
  138TCq2    O5 2110   2.237   4.006   9.597 -0.2489  0.2623 -0.2196
  138TCq2    O6 2111   2.353   4.117   9.755 -0.1608 -0.0553  0.0289
  138TCq2    H2 2112   2.358   4.033   9.975 -0.0561  1.2391 -0.8992
  138TCq2    H3 2113   2.073   3.851   9.703  1.1550  1.2464 -1.4251
  138TCq2    H4 2114   2.056   3.794  10.128  1.7711 -2.4631 -0.7251
  139TMC2    C1 2115   2.225   3.093  13.223 -0.6449 -0.8879 -0.3619
  139TMC2    C2 2116   2.273   3.148  13.105 -0.0120  0.2478 -0.3692
  139TMC2    C3 2117   2.222   3.264  13.067 -0.0155 -0.5660  0.1676
  139TMC2    C4 2118   2.133   3.158  13.294 -0.1765 -0.7632  0.8808
  139TMC2    C5 2119   2.081   3.278  13.257  0.1694  0.0647 -0.2426
  139TMC2    C6 2120   2.126   3.337  13.143 -0.2468  0.5521  0.1078
  139TMC2     C 2121   2.306   2.978  13.262 -0.3850 -0.0280 -0.0215
  139TMC2     O 2122   2.419   2.965  13.215  0.3074 -0.1162 -0.1171
  139TMC2     H 2123   2.332   3.090  13.034  2.5488 -0.0762  2.0312
  139TMC2    H1 2124   2.097   3.108  13.384  1.2702 -0.6161  1.5398
  139TMC2    H2 2125   2.078   3.429  13.112 -2.9632 -0.8437  0.2387
  139TMC2    C7 2126   1.989   3.351  13.341 -1.2664  0.5689  0.2593
  139TMC2    C8 2127   2.254   3.315  12.938  0.9970  0.6521  0.0299
  139TMC2    O1 2128   1.971   3.472  13.315  0.1939 -0.9786 -0.5653
  139TMC2    O2 2129   2.269   3.238  12.838 -0.1303  0.0469 -0.1710
  139TMC2    O5 2130   2.203   3.439  12.928 -0.2352  0.0716  0.8382
  139TMC2    H5 2131   2.218   3.477  13.017 -1.4333  0.0614  1.0432
  140MPD2     C 2132   2.207   2.717  13.504 -0.2819  0.1988  0.4328
  140MPD2    C1 2133   2.285   2.776  13.402  0.6332  0.5622  0.4175
  140MPD2    C2 2134   2.391   2.701  13.352  0.4080 -0.6957  0.1520
  140MPD2    C3 2135   2.421   2.574  13.402  0.1021 -0.0239  0.5302
  140MPD2    C4 2136   2.333   2.518  13.501  0.1139 -0.3516 -0.1847
  140MPD2    C5 2137   2.236   2.594  13.555 -0.0712  0.4382  0.0487
  140MPD2     H 2138   2.446   2.751  13.273  1.8494 -0.5718  1.2487
  140MPD2    H1 2139   2.357   2.431  13.562  1.0076  0.1485  0.1848
  140MPD2    H2 2140   2.127   2.774  13.550  1.2078  0.9146  2.1159
  140MPD2    H3 2141   2.173   2.549  13.631  0.2415 -1.5935 -0.8870
  140MPD2     N 2142   2.547   2.524  13.375 -0.2671 -1.0471 -0.1210
  140MPD2    H5 2143   2.601   2.594  13.325  0.7546 -1.6207  0.1913
  140MPD2    N1 2144   2.244   2.905  13.361  0.0528  0.3266 -0.0289
  140MPD2    H7 2145   2.151   2.935  13.388  1.1567  1.8127  2.1276
  141TCq2    C1 2146   2.541   4.463  15.047 -0.2488 -0.1011 -0.1100
  141TCq2    O2 2147   2.541   4.532  14.950  0.5109 -0.0573 -0.2385
  141TCq2    C2 2148   2.592   4.519  15.173 -0.1700 -0.5488  0.3486
  141TCq2    C3 2149   2.564   4.448  15.283  0.2938  0.6793 -0.2789
  141TCq2    C4 2150   2.569   4.513  15.400  0.1145 -0.5833 -0.3841
  141TCq2    C5 2151   2.620   4.635  15.409 -0.2238  0.5837  0.2729
  141TCq2    C6 2152   2.650   4.708  15.295 -0.2361  0.1472  0.4930
  141TCq2    C7 2153   2.629   4.648  15.175 -0.0821  0.5064 -0.4786
  141TCq2    C8 2154   2.677   0.130  15.315 -0.2704 -0.4833  0.4824
  141TCq2    O4 2155   2.662   0.173  15.431  0.0748 -0.4471  0.0435
  141TCq2    C9 2156   2.550   4.445  15.528  0.4525  0.4708 -0.6758
  141TCq2    O5 2157   2.587   4.498  15.638 -0.6056 -0.3579  0.4540
  141TCq2    O6 2158   2.537   4.317  15.522  0.3265  0.3622 -0.6870
  141TCq2    H2 2159   2.548   4.341  15.293  3.3648  0.5753  3.4433
  141TCq2    H3 2160   2.644   4.672  15.508  3.4864  1.2521 -0.8726
  141TCq2    H4 2161   2.653   4.699  15.082 -0.7139 -1.3798 -1.6884
  142MPD2     C 2162   0.845   2.675  10.122  0.3909  0.2517  0.3368
  142MPD2    C1 2163   0.753   2.658  10.023 -0.1494 -0.0802 -0.0160
  142MPD2    C2 2164   0.766   2.740   9.912  0.5341 -0.2243  0.1587
  142MPD2    C3 2165   0.871   2.823   9.892 -0.6063  0.3130 -0.1289
  142MPD2    C4 2166   0.965   2.834   9.991  0.3739 -0.6277  0.1247
  142MPD2    C5 2167   0.951   2.763  10.104  0.4042  0.7299  0.5268
  142MPD2     H 2168   0.690   2.736   9.835  0.3137  0.8482  0.3212
  142MPD2    H1 2169   1.056   2.892   9.982 -0.9115  1.0828 -1.7583
  142MPD2    H2 2170   0.849   2.618  10.215  1.9115  1.0652  0.7770
  142MPD2    H3 2171   1.023   2.791  10.180  0.5919 -1.2128  1.0631
  142MPD2     N 2172   0.878   2.911   9.782 -0.2098 -0.0797 -0.2714
  142MPD2    H5 2173   0.936   2.993   9.798 -0.5460 -0.1824  1.4951
  142MPD2    N1 2174   0.651   2.565  10.047 -0.0789 -0.1058 -0.6315
  142MPD2    H7 2175   0.637   2.537  10.144  2.2340  0.0319 -0.2675
  143TCq2    C1 2176   0.788   2.906   9.679 -0.3181  0.2719 -0.2594
  143TCq2    O2 2177   0.726   2.807   9.641 -0.6698 -0.6051 -0.0716
  143TCq2    C2 2178   0.759   3.032   9.617 -0.4956  0.0259  0.7800
  143TCq2    C3 2179   0.648   3.034   9.540  0.1259  0.1075 -0.4902
  143TCq2    C4 2180   0.606   3.152   9.488  0.1543  0.8476 -0.4298
  143TCq2    C5 2181   0.659   3.271   9.516  0.5747  0.0282  0.1743
  143TCq2    C6 2182   0.778   3.267   9.590 -0.0082 -0.0542  0.4237
  143TCq2    C7 2183   0.826   3.155   9.654  0.6853  0.6354  0.0174
  143TCq2    C8 2184   0.830   3.399   9.638 -0.0208  0.0353  0.7993
  143TCq2    O4 2185   0.897   3.404   9.740 -0.2967  0.3212 -0.6200
  143TCq2    C9 2186   0.487   3.154   9.404  0.2638 -0.9464  0.2033
  143TCq2    O5 2187   0.402   3.065   9.429 -0.1216  0.0019 -0.0716
  143TCq2    O6 2188   0.482   3.244   9.314  0.0400 -0.2873  0.1491
  143TCq2    H2 2189   0.593   2.943   9.517 -1.3812  1.4963 -2.4197
  143TCq2    H3 2190   0.606   3.360   9.486 -1.2260 -1.0991 -0.0294
  143TCq2    H4 2191   0.920   3.162   9.708  1.1254  0.9025 -0.7846
  144MPD2     C 2192   2.599   2.036   0.395 -0.5256  0.4323  0.8820
  144MPD2    C1 2193   2.649   1.928   0.322 -0.3668 -0.9635  0.4611
  144MPD2    C2 2194   2.738   1.840   0.370  0.6910 -0.9777  0.4548
  144MPD2    C3 2195   2.800   1.852   0.492 -0.3156  0.5766  0.3177
  144MPD2    C4 2196   2.765   1.961   0.560 -0.0568  0.4783 -0.8758
  144MPD2    C5 2197   2.667   2.053   0.512 -0.5800 -0.3767 -0.1178
  144MPD2     H 2198   2.774   1.763   0.302  0.5656 -0.3324 -0.3489
  144MPD2    H1 2199   2.817   1.974   0.654 -2.6751  1.2710  0.4499
  144MPD2    H2 2200   2.523   2.107   0.368  0.0454  0.7639  0.1501
  144MPD2    H3 2201   2.650   2.135   0.580  2.5819 -1.7829  2.3667
  144MPD2     N 2202   2.901   1.765   0.542 -0.0057 -0.2700  0.1870
  144MPD2    H5 2203   2.948   1.788   0.630  0.5421 -0.1993 -0.1203
  144MPD2    N1 2204   2.597   1.905   0.197  0.3072  0.7136 -0.2011
  144MPD2    H7 2205   2.613   1.816   0.151  0.0192  0.9115 -0.6950
  145TCq2    C1 2206   2.957   1.662   0.476  0.5437  0.0245 -0.3370
  145TCq2    O2 2207   2.929   1.620   0.367 -0.2164 -0.5188  0.3178
  145TCq2    C2 2208   3.060   1.604   0.556 -0.2567 -0.2203 -1.1106
  145TCq2    C3 2209   3.072   1.469   0.532  0.2448 -0.2033  0.4586
  145TCq2    C4 2210   3.178   1.409   0.596 -0.3612 -0.1399 -0.0036
  145TCq2    C5 2211   3.252   1.478   0.685 -0.4786  0.4729  0.2904
  145TCq2    C6 2212   3.233   1.612   0.718  0.3281  0.5846 -0.8880
  145TCq2    C7 2213   3.142   1.676   0.644  0.1695  0.2759  0.1502
  145TCq2    C8 2214   3.328   1.691   0.793  0.1324 -0.3955 -0.6180
  145TCq2    O4 2215   3.442   1.650   0.793 -0.2096  0.0458 -0.2998
  145TCq2    C9 2216   3.221   1.269   0.573 -0.2537  0.0220 -0.2252
  145TCq2    O5 2217   3.303   1.222   0.657  0.3870  0.0308  0.4309
  145TCq2    O6 2218   3.168   1.211   0.472 -0.2377  0.9216  0.8534
  145TCq2    H2 2219   3.019   1.415   0.454  0.1771  1.2335 -0.4738
  145TCq2    H3 2220   3.331   1.428   0.740 -2.0839 -0.9567  1.2892
  145TCq2    H4 2221   3.138   1.784   0.651 -0.5683  0.4079 -2.3119
  146TMC2    C1 2222   4.112   0.681  12.615 -0.1350 -0.4882  0.8158
  146TMC2    C2 2223   4.103   0.775  12.521  0.3985  0.4604  1.1355
  146TMC2    C3 2224   4.150   0.740  12.398 -0.8933  0.4110 -0.0578
  146TMC2    C4 2225   4.162   0.557  12.590  0.1471 -0.5343  0.4107
  146TMC2    C5 2226   4.216   0.526  12.468 -0.6620 -0.2241 -0.7902
  146TMC2    C6 2227   4.211   0.617  12.370  0.2590 -0.0132 -0.2770
  146TMC2     C 2228   4.072   0.710  12.750  0.2925  0.3656  0.3290
  146TMC2     O 2229   4.010   0.816  12.754 -0.1215 -0.1823  0.1007
  146TMC2     H 2230   4.064   0.874  12.542  0.8181  1.2414 -1.8436
  146TMC2    H1 2231   4.151   0.475  12.660 -1.5955  0.0353  0.8025
  146TMC2    H2 2232   4.243   0.587  12.271 -0.9548 -2.4651  0.0764
  146TMC2    C7 2233   4.256   0.387  12.437 -0.3686  0.0401  0.6763
  146TMC2    C8 2234   4.162   0.851  12.301 -0.0701  0.3728 -0.3691
  146TMC2    O1 2235   4.241   0.351  12.320  0.4888 -0.4374  0.2550
  146TMC2    O2 2236   4.158   0.967  12.335 -0.2737 -0.0376 -0.2577
  146TMC2    O5 2237   4.141   0.794  12.178 -0.3381  0.9036  0.4301
  146TMC2    H5 2238   4.142   0.696  12.171 -2.0381  0.9309 -0.3680
  147MPD2     C 2239   4.447   4.657  12.550  0.1539 -0.4637 -0.9877
  147MPD2    C1 2240   4.469   0.013  12.659 -0.2672 -0.0697 -0.2937
  147MPD2    C2 2241   4.421   0.144  12.658  0.9073 -0.1256  0.0737
  147MPD2    C3 2242   4.354   0.189  12.552 -0.1085 -0.3730  0.7791
  147MPD2    C4 2243   4.320   0.101  12.448  0.3473 -0.3802 -0.2371
  147MPD2    C5 2244   4.378   4.704  12.444  0.7481  0.4423 -0.0468
  147MPD2     H 2245   4.441   0.213  12.739  1.0435  1.2164 -1.1001
  147MPD2    H1 2246   4.245   0.125  12.374  0.6774  0.9512 -0.1433
  147MPD2    H2 2247   4.490   4.557  12.552 -1.1720 -1.0470 -1.5225
  147MPD2    H3 2248   4.343   4.643  12.361  1.6740  1.3519 -1.0889
  147MPD2     N 2249   4.310   0.324  12.547 -0.1138  0.0524  0.1126
  147MPD2    H5 2250   4.327   0.382  12.629 -1.0066  1.2828 -0.5690
  147MPD2    N1 2251   4.550   4.689  12.757  0.0750  0.0647  0.2842
  147MPD2    H7 2252   4.608   4.606  12.746 -0.2113 -0.2662  1.2573
  148MPD2     C 2253   0.803   3.387  11.359  0.0035  0.3471  0.0600
  148MPD2    C1 2254   0.820   3.385  11.219 -0.0382  0.1445  0.2161
  148MPD2    C2 2255   0.720   3.326  11.146  0.0646 -0.5344 -0.2194
  148MPD2    C3 2256   0.623   3.246  11.204 -0.4190  0.3428  0.5322
  148MPD2    C4 2257   0.617   3.240  11.339 -0.0571 -0.3367  0.4145
  148MPD2    C5 2258   0.706   3.316  11.414  0.2804 -0.3507 -0.0290
  148MPD2     H 2259   0.725   3.329  11.038  2.0247 -2.8482 -0.1714
  148MPD2    H1 2260   0.533   3.200  11.395 -0.7523  1.9974  1.0244
  148MPD2    H2 2261   0.865   3.447  11.425  0.8856 -0.3429 -0.1377
  148MPD2    H3 2262   0.704   3.318  11.522  1.2858  1.3352 -0.0351
  148MPD2     N 2263   0.515   3.186  11.134  0.0519  0.4819  0.4519
  148MPD2    H5 2264   0.432   3.150  11.181 -0.1801  3.0155  1.9743
  148MPD2    N1 2265   0.921   3.466  11.155 -0.3210  0.3444  0.2194
  148MPD2    H7 2266   0.912   3.473  11.054  0.5485  0.8356  0.1700
  149TCq2    C1 2267   1.014   3.543  11.220  0.0652 -0.6995 -0.3852
  149TCq2    O2 2268   1.023   3.560  11.343 -0.2452 -0.0956  0.1423
  149TCq2    C2 2269   1.078   3.631  11.123  0.0840 -0.1942  0.0616
  149TCq2    C3 2270   1.098   3.754  11.173  0.0847  0.2203  0.0854
  149TCq2    C4 2271   1.106   3.862  11.082  0.2682  0.0590 -0.1145
  149TCq2    C5 2272   1.064   3.847  10.953  0.2428  0.4184  0.0863
  149TCq2    C6 2273   1.027   3.719  10.907  0.3375 -0.3413 -0.0263
  149TCq2    C7 2274   1.039   3.611  10.990  0.1715 -0.1232 -0.0874
  149TCq2    C8 2275   0.925   3.695  10.804  0.5625  0.1379 -0.2804
  149TCq2    O4 2276   0.857   3.590  10.821 -0.2143 -0.1667 -0.0179
  149TCq2    C9 2277   1.119   3.994  11.139  0.2362  0.0045 -0.4022
  149TCq2    O5 2278   1.146   4.091  11.061  0.0441  0.2060  0.3362
  149TCq2    O6 2279   1.091   4.010  11.259 -0.0274 -0.6520  0.1950
  149TCq2    H2 2280   1.091   3.772  11.279  3.0180 -1.5588  0.5910
  149TCq2    H3 2281   1.047   3.937  10.895 -2.8611  0.1058  0.5008
  149TCq2    H4 2282   1.035   3.513  10.945  1.6042  0.3884 -1.3450
  150MPD2     C 2283   1.580   3.341  12.107 -0.9684 -0.3994 -0.3181
  150MPD2    C1 2284   1.621   3.386  11.984  0.4473 -0.3960 -0.2906
  150MPD2    C2 2285   1.733   3.473  11.975  0.3469 -0.9304 -0.5914
  150MPD2    C3 2286   1.796   3.522  12.096  0.7004 -0.3275  0.0975
  150MPD2    C4 2287   1.748   3.472  12.216 -0.5810 -0.1831  0.2748
  150MPD2    C5 2288   1.641   3.393  12.218 -0.2853  0.2801 -0.1397
  150MPD2     H 2289   1.766   3.519  11.882 -0.2747 -1.1451 -0.9168
  150MPD2    H1 2290   1.779   3.511  12.312 -1.6202 -0.6217  0.7952
  150MPD2    H2 2291   1.487   3.285  12.111 -0.2272 -1.4901  2.0053
  150MPD2    H3 2292   1.607   3.355  12.313 -0.0916 -0.9865 -0.5704
  150MPD2     N 2293   1.906   3.610  12.087 -0.2627  0.5718 -0.0203
  150MPD2    H5 2294   1.928   3.656  12.000 -1.9653  2.2247  0.4236
  150MPD2    N1 2295   1.548   3.332  11.877  0.3729 -0.0180  0.4805
  150MPD2    H7 2296   1.463   3.280  11.894  0.2771  0.0556  0.2351
  151TCq2    C1 2297   1.987   3.648  12.198 -0.0616 -0.1787 -0.0978
  151TCq2    O2 2298   2.000   3.589  12.304  0.0404  0.1130  0.1861
  151TCq2    C2 2299   2.091   3.750  12.167 -0.3033  0.2650 -0.3913
  151TCq2    C3 2300   2.084   3.826  12.055 -0.0237  0.0336 -0.7847
  151TCq2    C4 2301   2.189   3.914  12.039 -0.1722 -0.4574 -1.1498
  151TCq2    C5 2302   2.292   3.946  12.133 -0.0597 -0.6970  0.3513
  151TCq2    C6 2303   2.290   3.858  12.239 -1.1151 -0.0986  0.4293
  151TCq2    C7 2304   2.189   3.766  12.261 -0.4120 -0.3589  0.0446
  151TCq2    C8 2305   2.418   3.838  12.300 -0.3008  0.1884  0.4254
  151TCq2    O4 2306   2.507   3.920  12.291  0.8341  0.3496 -0.6371
  151TCq2    C9 2307   2.188   3.985  11.916 -0.1179  0.1045 -0.4239
  151TCq2    O5 2308   2.300   4.025  11.873  0.1555  0.1696  0.0367
  151TCq2    O6 2309   2.080   3.991  11.852  0.1325  0.3469 -0.1613
  151TCq2    H2 2310   2.013   3.811  11.974 -0.1339  0.9233 -0.8497
  151TCq2    H3 2311   2.368   4.022  12.121 -1.7451  0.9408  0.1884
  151TCq2    H4 2312   2.173   3.715  12.356 -0.6637  0.7452  0.5923
  152MPD2     C 2313   1.486   3.049  12.799  0.0512 -0.2669 -0.0879
  152MPD2    C1 2314   1.469   3.153  12.709  0.2043  0.3627  0.2942
  152MPD2    C2 2315   1.341   3.181  12.656 -0.5524 -0.3331  0.8447
  152MPD2    C3 2316   1.234   3.095  12.678 -0.2466  0.1898 -0.5595
  152MPD2    C4 2317   1.262   2.988  12.762 -0.1094  0.5558 -0.2438
  152MPD2    C5 2318   1.377   2.973  12.838  0.0136 -0.7005 -0.8962
  152MPD2     H 2319   1.328   3.271  12.597  3.6012  0.7020  1.5229
  152MPD2    H1 2320   1.187   2.913  12.784  2.3990 -2.1200 -0.7257
  152MPD2    H2 2321   1.584   3.036  12.846  1.0991  0.6026 -2.0441
  152MPD2    H3 2322   1.381   2.893  12.912  1.3394 -0.1890 -0.4112
  152MPD2     N 2323   1.105   3.111  12.625  0.1535 -0.4246  0.0845
  152MPD2    H5 2324   1.098   3.169  12.541  3.9476  0.9896  0.7401
  152MPD2    N1 2325   1.587   3.229  12.682 -0.2440 -0.8175 -0.1216
  152MPD2    H7 2326   1.669   3.201  12.733  0.9512  0.6526 -1.2221
  153TCq2    C1 2327   1.595   3.348  12.618  0.0716 -0.6815 -0.3212
  153TCq2    O2 2328   1.506   3.408  12.554  0.1802 -0.1703  0.1685
  153TCq2    C2 2329   1.732   3.392  12.616  0.4393 -0.2381 -0.4825
  153TCq2    C3 2330   1.830   3.298  12.614  0.5292  0.0910  0.5886
  153TCq2    C4 2331   1.958   3.333  12.607  1.3591 -0.5078  0.2522
  153TCq2    C5 2332   1.998   3.459  12.623  0.0151 -0.8887  0.5628
  153TCq2    C6 2333   1.898   3.563  12.630  0.0195 -0.0970 -0.1715
  153TCq2    C7 2334   1.773   3.522  12.604  0.4843 -0.5423  0.5382
  153TCq2    C8 2335   1.939   3.704  12.632  0.3928 -0.6341  0.3791
  153TCq2    O4 2336   1.858   3.793  12.607 -0.0701  0.1447 -0.6162
  153TCq2    C9 2337   2.059   3.228  12.593 -0.7555 -0.1406  0.1173
  153TCq2    O5 2338   2.023   3.113  12.620  0.0230 -0.4954 -0.2229
  153TCq2    O6 2339   2.175   3.265  12.558  0.3443  0.1778 -0.0813
  153TCq2    H2 2340   1.808   3.192  12.605  0.7430  0.0713  0.2892
  153TCq2    H3 2341   2.105   3.477  12.624  0.3672 -2.9117 -1.4042
  153TCq2    H4 2342   1.690   3.590  12.588  1.4374  0.6443  0.6411
  154MPD2     C 2343   2.645   3.373   0.084  0.1171 -0.0550 -0.2097
  154MPD2    C1 2344   2.683   3.342   0.214 -0.7218 -0.1248 -0.2865
  154MPD2    C2 2345   2.588   3.334   0.316  0.4991 -0.4496 -0.3658
  154MPD2    C3 2346   2.459   3.363   0.291  0.4485  0.3221 -0.4245
  154MPD2    C4 2347   2.420   3.398   0.163 -0.8486  0.6392 -0.3688
  154MPD2    C5 2348   2.511   3.404   0.062  0.3370  0.8627  0.1760
  154MPD2     H 2349   2.611   3.291   0.412  2.4599 -3.6951 -2.2737
  154MPD2    H1 2350   2.314   3.416   0.153 -1.4579 -2.4033  0.6374
  154MPD2    H2 2351   2.710   3.387  17.693  1.6873 -0.1185  0.9629
  154MPD2    H3 2352   2.482   3.437  17.657  1.2307  1.5360  0.1336
  154MPD2     N 2353   2.365   3.361   0.406 -0.6891  0.0916  0.3584
  154MPD2    H5 2354   2.403   3.332   0.495 -0.7416 -0.8546  0.0817
  154MPD2    N1 2355   2.816   3.310   0.229  0.5079  0.5515  0.5457
  154MPD2    H7 2356   2.874   3.315   0.146 -2.1383  1.8284 -1.2036
  155TCq2    C1 2357   2.875   3.306   0.357 -0.0574  0.2998  0.4026
  155TCq2    O2 2358   2.829   3.300   0.470  0.1996 -0.1898 -0.3761
  155TCq2    C2 2359   3.013   3.270   0.354 -0.5525  0.5758 -0.0272
  155TCq2    C3 2360   3.050   3.186   0.458 -0.2268  1.0284  0.6920
  155TCq2    C4 2361   3.179   3.142   0.460  0.3128 -0.0502 -0.6246
  155TCq2    C5 2362   3.267   3.192   0.367  0.3535 -0.4997  0.0424
  155TCq2    C6 2363   3.226   3.293   0.287  0.4203  0.0872 -0.7038
  155TCq2    C7 2364   3.097   3.339   0.279  0.0626 -0.3682  0.5788
  155TCq2    C8 2365   3.315   3.311   0.170  0.6457  0.4291  0.2164
  155TCq2    O4 2366   3.297   3.410   0.102  0.8097  0.6634 -0.3833
  155TCq2    C9 2367   3.218   3.048   0.560 -0.0380 -0.0516  0.0427
  155TCq2    O5 2368   3.137   3.018   0.650  0.1948  0.2756  0.2979
  155TCq2    O6 2369   3.320   2.975   0.529  0.1756  0.4995  0.0295
  155TCq2    H2 2370   2.979   3.139   0.525  0.5561  1.3249  1.7320
  155TCq2    H3 2371   3.372   3.171   0.384  0.8218  0.7083 -1.4103
  155TCq2    H4 2372   3.059   3.408   0.205 -0.1392  1.0198  1.9788
  156MPD2     C 2373   2.318   0.536  12.012 -0.2996 -0.2107  0.4655
  156MPD2    C1 2374   2.216   0.532  11.914 -0.7825 -0.2313 -0.2511
  156MPD2    C2 2375   2.111   0.620  11.928  0.3530 -0.2231 -0.0057
  156MPD2    C3 2376   2.101   0.727  12.018  0.6516 -0.0033  0.4750
  156MPD2    C4 2377   2.210   0.735  12.111  0.1409 -0.1245 -0.3316
  156MPD2    C5 2378   2.310   0.640  12.106 -0.2485  0.3206 -0.0178
  156MPD2     H 2379   2.022   0.629  11.866 -0.4792 -0.8144  1.1174
  156MPD2    H1 2380   2.196   0.808  12.189  0.0897 -0.6552  0.1578
  156MPD2    H2 2381   2.404   0.470  12.013 -1.0886 -1.2529  0.0093
  156MPD2    H3 2382   2.389   0.630  12.180  0.3552 -2.9954 -1.1232
  156MPD2     N 2383   1.998   0.822  12.009 -0.3477 -0.4538 -0.1649
  156MPD2    H5 2384   1.912   0.795  11.963 -0.6269 -0.6097  0.4533
  156MPD2    N1 2385   2.214   0.432  11.815  0.2079 -0.5760  0.2597
  156MPD2    H7 2386   2.301   0.382  11.797 -1.4455 -2.6056 -2.0274
  157TCq2    C1 2387   2.099   0.392  11.751  0.4585 -0.0467 -0.5090
  157TCq2    O2 2388   1.985   0.408  11.796 -0.1726  0.0093 -0.8841
  157TCq2    C2 2389   2.123   0.344  11.617  0.3744 -0.0687  0.2294
  157TCq2    C3 2390   2.236   0.268  11.596 -0.2224  0.4555 -0.4447
  157TCq2    C4 2391   2.309   0.292  11.488  0.4379 -0.0141 -0.4363
  157TCq2    C5 2392   2.265   0.390  11.400 -0.0154  0.0924  0.3743
  157TCq2    C6 2393   2.145   0.443  11.415  0.2680  0.5378 -0.6643
  157TCq2    C7 2394   2.067   0.423  11.525  0.0126 -0.1472 -0.7472
  157TCq2    C8 2395   2.124   0.570  11.350  0.6092  0.9369  0.7562
  157TCq2    O4 2396   2.218   0.652  11.350 -0.2829  0.8173  0.2237
  157TCq2    C9 2397   2.442   0.243  11.468  0.4339  0.6937 -0.7395
  157TCq2    O5 2398   2.484   0.147  11.543  0.6297 -0.1240 -0.2836
  157TCq2    O6 2399   2.508   0.278  11.364  0.3571 -0.3665  0.1960
  157TCq2    H2 2400   2.281   0.198  11.666  2.8694  1.5284 -1.3373
  157TCq2    H3 2401   2.330   0.426  11.321 -1.4639  2.0768  0.0948
  157TCq2    H4 2402   1.994   0.496  11.555  0.5913 -0.6175  1.8389
  158TMC2    C1 2403   2.099   4.407  13.689 -0.3197 -0.0605 -0.1683
  158TMC2    C2 2404   2.202   4.496  13.663 -0.2206 -0.3675 -0.0202
  158TMC2    C3 2405   2.196   4.566  13.550  0.6099 -0.4178 -0.0654
  158TMC2    C4 2406   1.984   4.410  13.619 -0.2679 -0.5569  0.7145
  158TMC2    C5 2407   1.974   4.487  13.506  0.0994  0.6391  0.1271
  158TMC2    C6 2408   2.077   4.573  13.473  0.3131 -0.0323  0.8412
  158TMC2     C 2409   2.082   4.388  13.836  0.0675 -0.0679 -0.5947
  158TMC2     O 2410   2.137   4.477  13.900  0.1705  0.2197  0.1283
  158TMC2     H 2411   2.288   4.495  13.728  0.1717  0.8059 -0.5192
  158TMC2    H1 2412   1.901   4.347  13.649 -2.3553  1.9200  0.1412
  158TMC2    H2 2413   2.068   4.642  13.389 -0.5580 -1.4896 -0.2501
  158TMC2    C7 2414   1.857   4.490  13.422 -0.6780 -0.0794 -0.6054
  158TMC2    C8 2415   2.258   4.691  13.549 -0.0990  0.2305  0.0961
  158TMC2    O1 2416   1.840   4.584  13.345 -0.3597  0.1643 -0.0694
  158TMC2    O2 2417   2.269   0.045  13.649 -0.3007 -0.5794 -0.2477
  158TMC2    O5 2418   2.287   0.004  13.424 -0.2070 -0.3017 -0.1769
  158TMC2    H5 2419   2.261   4.664  13.354 -1.6485  1.1131 -0.9229
  159MPD2     C 2420   1.981   4.151  14.271 -0.7943 -0.3122  0.6886
  159MPD2    C1 2421   1.968   4.058  14.167  0.4153  0.0719 -0.4752
  159MPD2    C2 2422   1.984   4.100  14.036  0.0466 -0.6108  0.6573
  159MPD2    C3 2423   2.017   4.228  14.013  0.2372  0.1346 -0.1720
  159MPD2    C4 2424   2.026   4.315  14.117  0.2804 -0.1890  0.8048
  159MPD2    C5 2425   2.025   4.276  14.244 -0.0329 -0.2187  0.6170
  159MPD2     H 2426   1.979   4.025  13.958  0.2520  0.7576 -0.6452
  159MPD2    H1 2427   2.051   4.419  14.099  0.0299 -0.3039 -0.2207
  159MPD2    H2 2428   1.965   4.111  14.370 -1.8212  0.2328  0.7469
  159MPD2    H3 2429   2.038   4.348  14.324 -0.3158 -0.6733  1.0698
  159MPD2     N 2430   2.038   4.266  13.879 -0.3822  0.0705  0.0911
  159MPD2    H5 2431   2.006   4.194  13.814 -1.0927 -0.0551  0.5724
  159MPD2    N1 2432   1.922   3.930  14.202  0.0888  0.3303  0.5918
  159MPD2    H7 2433   1.919   3.912  14.302  2.9847 -0.6889  0.5131
  160TMC2    C1 2434   0.960   2.946   1.475 -1.1275 -0.4084  0.1331
  160TMC2    C2 2435   0.992   2.815   1.489  0.4396  0.2166 -0.6151
  160TMC2    C3 2436   1.080   2.764   1.395  0.5776 -0.2758 -0.7931
  160TMC2    C4 2437   1.006   3.022   1.374  0.0090  0.3302 -0.2553
  160TMC2    C5 2438   1.096   2.970   1.289  0.3406  0.2612  0.6385
  160TMC2    C6 2439   1.138   2.840   1.300  0.6564  0.4042  0.4129
  160TMC2     C 2440   0.889   3.021   1.584 -0.3700  0.1216  0.8914
  160TMC2     O 2441   0.843   2.950   1.674 -0.1368 -0.0188  0.1236
  160TMC2     H 2442   0.953   2.751   1.567  0.8899 -0.5011 -0.9701
  160TMC2    H1 2443   0.966   3.121   1.352 -1.1941  0.1579  1.1570
  160TMC2    H2 2444   1.192   2.794   1.218 -2.4498  0.5935 -1.7489
  160TMC2    C7 2445   1.162   3.065   1.201  0.6010  0.6530 -0.0565
  160TMC2    C8 2446   1.080   2.619   1.393  0.0191 -0.0211  1.1664
  160TMC2    O1 2447   1.108   3.170   1.170  0.6457  0.1383 -0.3983
  160TMC2    O2 2448   1.167   2.555   1.337 -0.2477  0.4412 -0.0158
  160TMC2    O5 2449   0.952   2.590   1.381 -0.2063  0.1586  0.3712
  160TMC2    H5 2450   0.899   2.652   1.435 -1.7516  0.2394 -1.2635
  161MPD2     C 2451   0.737   3.222   1.742 -0.3349  0.0691 -0.4017
  161MPD2    C1 2452   0.818   3.247   1.638 -0.6609  0.5142 -0.0927
  161MPD2    C2 2453   0.822   3.372   1.584  0.3349 -0.4666  0.4158
  161MPD2    C3 2454   0.755   3.476   1.643 -0.2944 -0.4548 -0.3078
  161MPD2    C4 2455   0.688   3.449   1.767  0.0800  0.1745 -0.1993
  161MPD2    C5 2456   0.668   3.325   1.808  0.0630  0.0351 -0.5756
  161MPD2     H 2457   0.882   3.394   1.496 -0.8393  1.9501  0.2063
  161MPD2    H1 2458   0.635   3.526   1.822  1.4133  0.8326  0.1678
  161MPD2    H2 2459   0.723   3.122   1.783 -0.0529  0.6135  1.0099
  161MPD2    H3 2460   0.609   3.303   1.896  1.7965  1.9124  1.0627
  161MPD2     N 2461   0.758   3.609   1.597 -0.1991 -0.1758 -0.7085
  161MPD2    H5 2462   0.708   3.678   1.652  0.1232 -1.5322  1.2863
  161MPD2    N1 2463   0.897   3.157   1.569 -0.3009  1.1676  0.2482
  161MPD2    H7 2464   0.970   3.181   1.502 -1.2450 -0.1942 -1.2700
  162TMC2    C1 2465   3.481   4.689   1.057 -0.2495 -0.3368 -0.0147
  162TMC2    C2 2466   3.350   4.696   1.006  0.0958 -0.4112  0.4400
  162TMC2    C3 2467   3.243   4.657   1.085  0.1346 -0.3995  0.0346
  162TMC2    C4 2468   3.506   4.626   1.177  0.4030  0.3057  0.9030
  162TMC2    C5 2469   3.393   4.596   1.255  0.2776 -0.3887  0.0914
  162TMC2    C6 2470   3.263   4.609   1.211  0.0843  0.1895 -0.0029
  162TMC2     C 2471   3.600   4.718   0.970 -0.1032 -0.1188 -0.2981
  162TMC2     O 2472   3.704   4.663   1.004 -0.1843 -0.0392  0.2398
  162TMC2     H 2473   3.339   4.710   0.899  1.4698  3.1984  0.7528
  162TMC2    H1 2474   3.608   4.625   1.216  0.6249  1.4380  0.3447
  162TMC2    H2 2475   3.184   4.565   1.270  0.3343 -0.1874  0.0528
  162TMC2    C7 2476   3.405   4.555   1.391 -0.4110  0.2415  1.1586
  162TMC2    C8 2477   3.113   4.643   1.028 -0.1157  0.2299  0.3427
  162TMC2    O1 2478   3.301   4.550   1.458 -0.0741  0.0406  0.1933
  162TMC2    O2 2479   3.038   4.551   1.038  0.3148 -0.1960  0.1176
  162TMC2    O5 2480   3.078   0.034   0.973  0.1084  0.4880 -0.4380
  162TMC2    H5 2481   3.156   0.093   0.983  1.4348 -1.4179  0.2607
  163MPD2     C 2482   3.840   0.248   0.594  0.5457  0.4416 -0.3973
  163MPD2    C1 2483   3.875   0.133   0.663  0.3641  0.4035  0.0408
  163MPD2    C2 2484   3.791   0.076   0.751  0.2804  0.3306  0.3200
  163MPD2    C3 2485   3.664   0.121   0.771 -0.5597 -0.2474 -0.0036
  163MPD2    C4 2486   3.624   0.239   0.708  0.2602 -0.8565 -0.0269
  163MPD2    C5 2487   3.714   0.299   0.617 -0.1446  0.4292  0.1520
  163MPD2     H 2488   3.828   4.709   0.798 -2.8027 -0.3945  1.3218
  163MPD2    H1 2489   3.525   0.282   0.713 -1.3197 -4.1220 -2.6049
  163MPD2    H2 2490   3.903   0.288   0.515  0.2686  1.0515 -0.3075
  163MPD2    H3 2491   3.683   0.395   0.578 -0.0933  0.9589  1.4166
  163MPD2     N 2492   3.566   0.072   0.861  0.2552 -0.1273  0.0002
  163MPD2    H5 2493   3.474   0.115   0.858  0.0033 -0.6313  0.6735
  163MPD2    N1 2494   3.998   0.073   0.637  0.4164 -0.1098  0.7408
  163MPD2    H7 2495   4.018   4.721   0.702 -0.8403 -1.8457 -0.8940
  164TCq2    C1 2496   0.845   0.121  10.742 -0.5185 -0.3887 -0.6272
  164TCq2    O2 2497   0.906   0.134  10.849  0.1699  0.4661 -1.1838
  164TCq2    C2 2498   0.774   4.722  10.731  0.7364 -0.3864 -0.0752
  164TCq2    C3 2499   0.706   4.689  10.620  0.3658  0.1231 -0.2321
  164TCq2    C4 2500   0.624   4.589  10.622  0.1072  0.4119 -0.2210
  164TCq2    C5 2501   0.603   4.508  10.739  0.3694 -0.0463 -0.7947
  164TCq2    C6 2502   0.666   4.551  10.853 -0.1088  0.3989 -0.2574
  164TCq2    C7 2503   0.760   4.648  10.848 -0.3424 -0.0387  0.3603
  164TCq2    C8 2504   0.618   4.516  10.987  0.6743  1.2284 -0.5343
  164TCq2    O4 2505   0.694   4.507  11.085 -0.1535  0.4370 -0.1878
  164TCq2    C9 2506   0.556   4.554  10.501 -0.1336 -0.2456  0.2635
  164TCq2    O5 2507   0.599   4.602  10.392 -0.3426  0.0384 -0.2158
  164TCq2    O6 2508   0.459   4.472  10.505 -0.3117  0.2973  0.1242
  164TCq2    H2 2509   0.746   0.003  10.527  0.0322  0.0132 -0.4201
  164TCq2    H3 2510   0.539   4.420  10.737 -0.0670  0.2802 -1.0816
  164TCq2    H4 2511   0.806   4.683  10.940 -1.0452 -0.9633  1.0666
  165MPD2     C 2512   0.978   1.026   2.167 -0.6607 -0.2529  0.5783
  165MPD2    C1 2513   0.996   1.086   2.049 -0.8148  0.1791  0.3611
  165MPD2    C2 2514   1.009   1.220   2.050  0.0263  0.0745  0.1170
  165MPD2    C3 2515   0.992   1.289   2.172 -0.1583  0.2877  0.1135
  165MPD2    C4 2516   0.966   1.221   2.287 -0.0532 -0.0192 -0.9952
  165MPD2    C5 2517   0.963   1.087   2.281  0.5641  0.5997 -0.2229
  165MPD2     H 2518   1.029   1.273   1.957  1.2060 -1.2955 -0.4096
  165MPD2    H1 2519   0.964   1.270   2.384 -1.2267 -1.1643 -0.4315
  165MPD2    H2 2520   0.955   0.920   2.174  1.2615 -0.7732 -0.8537
  165MPD2    H3 2521   0.939   1.029   2.369 -2.3242 -0.7934 -1.9376
  165MPD2     N 2522   1.000   1.428   2.175 -0.3594 -0.8890 -0.0522
  165MPD2    H5 2523   0.951   1.490   2.239  1.0923 -0.2003  0.4153
  165MPD2    N1 2524   0.980   1.006   1.933  0.2734  0.5759  0.3297
  165MPD2    H7 2525   0.959   0.909   1.953  1.2674  0.3837  0.4563
  166TCq2    C1 2526   1.090   1.504   2.096  0.6143  0.5323  1.0202
  166TCq2    O2 2527   1.172   1.460   2.013 -0.3781  0.0617 -0.1772
  166TCq2    C2 2528   1.097   1.645   2.131 -0.2078 -0.2074  0.2202
  166TCq2    C3 2529   1.007   1.711   2.210  0.4312  0.5016  0.3404
  166TCq2    C4 2530   1.030   1.843   2.225 -0.0532 -0.1309 -0.2614
  166TCq2    C5 2531   1.117   1.914   2.143  0.1941 -0.0647  0.5341
  166TCq2    C6 2532   1.208   1.848   2.069 -0.4285  0.0374  0.3595
  166TCq2    C7 2533   1.193   1.709   2.062 -0.4798 -0.2639  0.0767
  166TCq2    C8 2534   1.282   1.917   1.964 -0.8416  0.2268  0.4427
  166TCq2    O4 2535   1.385   1.864   1.925  0.4426 -0.6404  0.0099
  166TCq2    C9 2536   0.952   1.929   2.308 -0.1502  0.4499 -0.0714
  166TCq2    O5 2537   0.863   1.870   2.380 -0.1424  0.1537 -0.6173
  166TCq2    O6 2538   0.990   2.047   2.334 -0.2529 -0.6763  0.0181
  166TCq2    H2 2539   0.923   1.666   2.261 -0.3090  2.1459  0.5744
  166TCq2    H3 2540   1.132   2.021   2.144 -0.6909  0.0578  1.6179
  166TCq2    H4 2541   1.263   1.656   1.998  0.4372  0.6740  0.2883
  167TMC2    C1 2542   4.335   3.889  12.508  0.8989  0.1713 -0.1484
  167TMC2    C2 2543   4.261   3.942  12.607 -0.3437 -0.9372  0.3991
  167TMC2    C3 2544   4.211   3.852  12.699 -0.0445 -1.0775 -0.4678
  167TMC2    C4 2545   4.356   3.750  12.500  0.6248  0.1820  0.8029
  167TMC2    C5 2546   4.299   3.668  12.591  0.9348  0.5022 -0.6551
  167TMC2    C6 2547   4.224   3.715  12.692 -0.0074  0.3637  0.6541
  167TMC2     C 2548   4.402   3.971  12.406  0.1277  0.0515  0.1139
  167TMC2     O 2549   4.360   4.083  12.385 -0.5201  0.0742 -0.0343
  167TMC2     H 2550   4.246   4.048  12.621 -0.8391 -0.7613 -1.4387
  167TMC2    H1 2551   4.391   3.702  12.409 -1.1383  0.1371  0.1535
  167TMC2    H2 2552   4.178   3.654  12.768  1.5303  0.3893  1.6011
  167TMC2    C7 2553   4.342   3.531  12.595  0.2680 -0.5146 -0.0591
  167TMC2    C8 2554   4.123   3.905  12.802 -1.2666  0.1059  0.8964
  167TMC2    O1 2555   4.269   3.443  12.644 -0.3368  0.1057 -0.2255
  167TMC2    O2 2556   4.124   3.858  12.917 -0.2617  0.2014 -0.3561
  167TMC2    O5 2557   4.013   3.960  12.737  0.1496 -0.5787 -0.1435
  167TMC2    H5 2558   4.037   3.975  12.643  0.5618  2.6195  0.4881
  168MPD2     C 2559   4.544   4.068  12.157 -0.4621  0.2503 -0.8241
  168MPD2    C1 2560   4.570   3.950  12.227 -0.5701  0.8717  0.4254
  168MPD2    C2 2561   4.653   3.855  12.175  0.3510  0.5154  0.4527
  168MPD2    C3 2562   4.705   3.871  12.048 -0.3989  0.3095  0.6020
  168MPD2    C4 2563   4.687   3.996  11.992  0.2312 -0.1373  0.1706
  168MPD2    C5 2564   4.613   4.094  12.042  0.6475  0.1248  0.2270
  168MPD2     H 2565   4.660   3.761  12.230 -1.4652 -0.5604 -1.1534
  168MPD2    H1 2566   0.019   4.016  11.901  3.1287 -1.7576  1.5953
  168MPD2    H2 2567   4.470   4.142  12.186 -0.5959 -0.5856  0.9632
  168MPD2    H3 2568   4.593   4.190  11.996 -1.3451 -0.4620 -0.1444
  168MPD2     N 2569   0.040   3.762  11.978 -0.8877  0.1834  0.3656
  168MPD2    H5 2570   0.056   3.775  11.879  1.6455 -2.7508  0.3905
  168MPD2    N1 2571   4.510   3.911  12.353 -0.3752 -0.4396  0.7800
  168MPD2    H7 2572   4.557   3.830  12.392 -1.2182 -1.5519 -0.4904
  169MPD1     C 2573   2.316   3.327   8.657 -0.2979 -0.4255 -0.1545
  169MPD1    C1 2574   2.420   3.409   8.695  0.2401 -0.3494  0.3802
  169MPD1    C2 2575   2.503   3.363   8.797 -0.1548  0.4061  0.3049
  169MPD1    C3 2576   2.472   3.251   8.877 -0.1717  0.4575 -0.2531
  169MPD1    C4 2577   2.353   3.187   8.849 -0.3527  0.7376 -0.5554
  169MPD1    C5 2578   2.274   3.228   8.743  0.6363  0.6368 -0.0683
  169MPD1     H 2579   2.590   3.421   8.825 -0.2951 -0.3225  2.2952
  169MPD1    H1 2580   2.316   3.106   8.912  1.6136  0.6856  0.5109
  169MPD1    H2 2581   2.256   3.369   8.577  1.2601  1.0920 -0.5335
  169MPD1    H3 2582   2.179   3.182   8.723  0.2607  1.3350  0.1012
  169MPD1     N 2583   2.557   3.227   8.984 -0.3169 -0.4258 -0.5141
  169MPD1    H5 2584   2.635   3.289   9.000  0.0207 -1.0448  0.2064
  169MPD1    N1 2585   2.454   3.515   8.618 -0.0360 -0.0255 -0.7727
  169MPD1    H6 2586   2.385   3.560   8.558 -0.4049 -0.0175 -0.3425
  169MPD1    H7 2587   2.496   3.590   8.674 -0.7859  0.5703 -1.0129
  170MPD1     C 2588   0.611   1.335  12.908  0.0023 -0.5199  1.0304
  170MPD1    C1 2589   0.628   1.469  12.909 -0.5931  0.2862  0.1620
  170MPD1    C2 2590   0.613   1.533  13.028 -0.3304  0.1519  0.0497
  170MPD1    C3 2591   0.611   1.466  13.149  0.0385  0.3723 -0.2918
  170MPD1    C4 2592   0.598   1.326  13.147 -0.3870 -0.2111  0.4538
  170MPD1    C5 2593   0.589   1.268  13.027  0.3057  0.2722  0.1867
  170MPD1     H 2594   0.599   1.640  13.038  0.6964  0.4367 -1.5279
  170MPD1    H1 2595   0.579   1.260  13.230 -0.4860 -1.6433 -0.7070
  170MPD1    H2 2596   0.605   1.270  12.821  1.6007 -0.7004  1.0533
  170MPD1    H3 2597   0.566   1.163  13.020  1.2779  0.1526 -1.2328
  170MPD1     N 2598   0.606   1.547  13.265  0.3331  0.2290 -0.8243
  170MPD1    H5 2599   0.643   1.641  13.263  1.1178 -0.0366  0.9334
  170MPD1    N1 2600   0.601   1.541  12.794 -0.8063  0.4420  0.1907
  170MPD1    H6 2601   0.636   1.637  12.798  1.3650 -0.3906  1.1129
  170MPD1    H7 2602   0.652   1.487  12.724  0.0808 -1.0696  1.9964
  171MPD1     C 2603   3.972   2.918  15.316 -0.2388 -0.3779 -0.8237
  171MPD1    C1 2604   3.886   2.811  15.296 -0.0918  0.5480 -0.1331
  171MPD1    C2 2605   3.906   2.695  15.368  0.3484 -0.6389  0.3770
  171MPD1    C3 2606   4.013   2.692  15.458  0.3477 -0.9763 -0.4810
  171MPD1    C4 2607   4.090   2.803  15.483  0.0791 -0.1030  0.1848
  171MPD1    C5 2608   4.071   2.916  15.411  1.1463 -0.2815 -0.5063
  171MPD1     H 2609   3.845   2.606  15.362  1.0262 -0.9104 -2.3562
  171MPD1    H1 2610   4.170   2.795  15.556 -0.3651  0.0060  0.6839
  171MPD1    H2 2611   3.956   3.014  15.269  0.2102  1.2864  2.3846
  171MPD1    H3 2612   4.133   3.001  15.436  0.8873  0.1812 -1.4630
  171MPD1     N 2613   4.049   2.570  15.524 -0.4287  0.2521  0.4230
  171MPD1    H5 2614   4.124   2.580  15.592 -1.0407  0.4015  1.0754
  171MPD1    N1 2615   3.772   2.835  15.219 -0.1529 -0.0039  0.1905
  171MPD1    H6 2616   3.781   2.904  15.145 -1.0135 -1.0941 -0.9267
  171MPD1    H7 2617   3.738   2.754  15.167  0.3057 -0.7614  1.0736
  172MPD1     C 2618   2.870   1.652  17.398 -0.0248 -0.4204 -0.4923
  172MPD1    C1 2619   2.842   1.787  17.380  0.3730 -0.3854  0.1280
  172MPD1    C2 2620   2.857   1.867  17.490 -0.2717 -0.1611 -0.2612
  172MPD1    C3 2621   2.906   1.814  17.604  0.0840 -0.6183 -0.3007
  172MPD1    C4 2622   2.944   1.677  17.611  0.6985 -0.1222 -0.9798
  172MPD1    C5 2623   2.924   1.597  17.504  0.4454 -0.1581  0.1480
  172MPD1     H 2624   2.819   1.969  17.493 -4.6180 -1.8093  1.4428
  172MPD1    H1 2625   2.981   1.629   0.006 -1.2384  3.1877  1.5835
  172MPD1    H2 2626   2.856   1.578  17.319 -2.3797 -0.7958  0.2603
  172MPD1    H3 2627   2.934   1.489  17.513  1.2508 -0.3420 -3.1447
  172MPD1     N 2628   2.929   1.893   0.024 -0.2275 -0.0893 -0.2536
  172MPD1    H5 2629   2.978   1.854   0.104 -0.5136 -1.9914 -0.9971
  172MPD1    N1 2630   2.785   1.828  17.258  0.8188  0.7235  0.1738
  172MPD1    H6 2631   2.804   1.927  17.244  1.2101  0.5730 -0.3568
  172MPD1    H7 2632   2.819   1.778  17.176 -2.7381  2.7897 -2.5796
  173MPD1     C 2633   0.206   1.883  13.488  0.3398 -0.1379  0.4810
  173MPD1    C1 2634   0.203   1.932  13.615  0.3848 -0.6996  0.1967
  173MPD1    C2 2635   0.181   1.842  13.722 -1.1219 -0.9613  0.2450
  173MPD1    C3 2636   0.172   1.704  13.705 -0.2457  0.9191  0.7475
  173MPD1    C4 2637   0.171   1.657  13.577 -0.8465  0.4833 -0.3670
  173MPD1    C5 2638   0.192   1.746  13.471  0.5348  0.0836  0.0427
  173MPD1     H 2639   0.159   1.889  13.817  2.5090  3.4788 -1.1063
  173MPD1    H1 2640   0.150   1.555  13.548 -2.1740  0.0488  2.1405
  173MPD1    H2 2641   0.197   1.953  13.406  0.6191  1.1826  1.5921
  173MPD1    H3 2642   0.185   1.714  13.368 -0.4764 -0.1333  0.1850
  173MPD1     N 2643   0.150   1.619  13.821 -0.0694  0.5942 -0.2274
  173MPD1    H5 2644   0.138   1.672  13.907  1.1775  0.1847  0.1956
  173MPD1    N1 2645   0.206   2.070  13.638  0.7001  0.1010 -1.1168
  173MPD1    H6 2646   0.205   2.097  13.736  0.0458 -2.7155 -0.3269
  173MPD1    H7 2647   0.281   2.112  13.583  0.3482  0.2704 -1.4690
  174MPD1     C 2648   0.124   0.688  14.415 -0.7748  0.5305  0.6991
  174MPD1    C1 2649   0.122   0.694  14.281 -0.3783  0.7603  0.3015
  174MPD1    C2 2650   0.117   0.821  14.227 -0.0919  0.3418  0.5259
  174MPD1    C3 2651   0.088   0.936  14.297  0.5498  0.4655  0.7469
  174MPD1    C4 2652   0.090   0.926  14.437  0.0709  0.2740 -0.0808
  174MPD1    C5 2653   0.101   0.802  14.495  0.2017  0.3005 -0.2130
  174MPD1     H 2654   0.118   0.826  14.118 -1.2346 -0.4666  0.4760
  174MPD1    H1 2655   0.077   1.005  14.510 -1.0523  0.7234 -0.7700
  174MPD1    H2 2656   0.158   0.593  14.455  2.5622  0.8065 -1.5095
  174MPD1    H3 2657   0.111   0.793  14.603 -2.0881 -2.2220 -0.1934
  174MPD1     N 2658   0.068   1.066  14.243 -0.3571 -0.7298  0.6480
  174MPD1    H5 2659   0.056   1.141  14.310  0.1959 -0.0784  0.0202
  174MPD1    N1 2660   0.171   0.592  14.201 -0.7364 -0.3309  0.0623
  174MPD1    H6 2661   0.131   0.602  14.108 -1.6581  0.6748  0.5656
  174MPD1    H7 2662   0.128   0.510  14.243  0.4508 -1.4439 -0.8881
  175MPD1     C 2663   2.433   3.074  15.569  0.6127  0.3661  0.4801
  175MPD1    C1 2664   2.317   2.998  15.564 -0.4414 -0.0850 -0.2985
  175MPD1    C2 2665   2.280   2.930  15.678 -0.6502 -1.1332 -0.6807
  175MPD1    C3 2666   2.342   2.966  15.799 -0.5091 -1.1651  0.4443
  175MPD1    C4 2667   2.460   3.047  15.803  0.0872 -0.5887  0.2592
  175MPD1    C5 2668   2.502   3.097  15.684 -0.6094  0.0714 -0.6642
  175MPD1     H 2669   2.192   2.869  15.668 -1.1858 -0.4598 -0.0876
  175MPD1    H1 2670   2.516   3.066  15.894 -2.3478  1.2607  1.3677
  175MPD1    H2 2671   2.475   3.105  15.473 -0.1600  1.4448  0.4879
  175MPD1    H3 2672   2.594   3.155  15.686  0.2531 -1.3485  1.3825
  175MPD1     N 2673   2.310   2.903  15.922 -0.1428 -0.5242 -0.1492
  175MPD1    H5 2674   2.363   2.928  16.004  0.6449 -1.0028 -0.5199
  175MPD1    N1 2675   2.269   2.959  15.437 -0.2169 -0.0075  0.8962
  175MPD1    H6 2676   2.279   3.042  15.379 -1.4169  0.2548  1.0658
  175MPD1    H7 2677   2.171   2.934  15.445 -0.6096  0.9738 -0.9106
  176MPD1     C 2678   0.923   0.517  17.372 -0.4190  0.6296 -0.3908
  176MPD1    C1 2679   0.880   0.634  17.422  0.3165  0.1843  0.7133
  176MPD1    C2 2680   0.751   0.666  17.415  0.0519 -0.5151 -0.5447
  176MPD1    C3 2681   0.653   0.576  17.373  0.4228  1.4045 -0.0645
  176MPD1    C4 2682   0.695   0.453  17.330  0.7323  0.1272 -0.1555
  176MPD1    C5 2683   0.830   0.422  17.324 -0.0724 -0.1911 -0.7160
  176MPD1     H 2684   0.708   0.759  17.450  1.0245 -0.1270 -0.3781
  176MPD1    H1 2685   0.628   0.378  17.289  3.3644 -0.8269 -2.6969
  176MPD1    H2 2686   1.029   0.499  17.361 -0.6349 -0.8668 -0.0937
  176MPD1    H3 2687   0.863   0.328  17.283 -0.5460 -0.8437  0.3826
  176MPD1     N 2688   0.520   0.619  17.371 -0.1684  0.5784 -0.0184
  176MPD1    H5 2689   0.507   0.717  17.392 -3.6578 -0.1118  0.9816
  176MPD1    N1 2690   0.971   0.735  17.443 -0.3377  0.0254  0.6211
  176MPD1    H6 2691   1.064   0.718  17.482  1.2365  2.3264 -2.1429
  176MPD1    H7 2692   0.935   0.808  17.505  1.1519 -0.6682  2.3127
  177MPD1     C 2693   3.549   3.904  10.603  0.0473 -0.0790  0.3114
  177MPD1    C1 2694   3.578   3.834  10.488  0.2892 -0.4538  0.0880
  177MPD1    C2 2695   3.534   3.882  10.367 -0.5879 -0.0569 -0.0706
  177MPD1    C3 2696   3.463   3.997  10.355  0.2075 -0.1403 -0.4306
  177MPD1    C4 2697   3.437   4.069  10.471 -0.0540 -0.1256  0.2118
  177MPD1    C5 2698   3.477   4.022  10.596 -0.0425  0.1594  0.0165
  177MPD1     H 2699   3.576   3.830  10.282 -1.4617  0.2849 -0.7203
  177MPD1    H1 2700   3.397   4.169  10.460  0.3384  0.0148  0.0250
  177MPD1    H2 2701   3.577   3.866  10.701 -0.3027  0.1056  0.4825
  177MPD1    H3 2702   3.461   4.078  10.687  3.7785 -0.1014  0.8478
  177MPD1     N 2703   3.431   4.039  10.219 -0.0014  0.0420 -0.3369
  177MPD1    H5 2704   3.478   4.000  10.138  0.3326 -2.2103  0.9310
  177MPD1    N1 2705   3.661   3.722  10.496 -0.1561 -0.5476 -0.4730
  177MPD1    H6 2706   3.678   3.677  10.585 -0.5766  0.2537  0.0066
  177MPD1    H7 2707   3.635   3.652  10.427 -0.1650  0.2500 -1.2977
  178MPD1     C 2708   0.748   1.577  17.437 -0.5734  0.0289  0.3827
  178MPD1    C1 2709   0.831   1.484  17.495  0.5798  0.2478  0.7240
  178MPD1    C2 2710   0.853   1.368  17.427 -0.3113  0.1913  0.0683
  178MPD1    C3 2711   0.769   1.332  17.323 -0.2370  0.2325 -0.3729
  178MPD1    C4 2712   0.666   1.416  17.281 -0.0153  0.4378 -0.3570
  178MPD1    C5 2713   0.662   1.544  17.325  0.2789 -0.0098  0.5035
  178MPD1     H 2714   0.921   1.295  17.470 -1.4146 -0.9333 -0.1263
  178MPD1    H1 2715   0.605   1.379  17.200  2.0612 -1.8146 -0.9167
  178MPD1    H2 2716   0.750   1.680  17.469 -0.3404  0.0103  0.4273
  178MPD1    H3 2717   0.587   1.609  17.283  0.6860 -0.0895 -0.3322
  178MPD1     N 2718   0.772   1.198  17.274 -0.5789  0.0029 -0.4823
  178MPD1    H5 2719   0.718   1.181  17.189 -3.1360 -0.8859  1.3412
  178MPD1    N1 2720   0.910   1.517  17.606 -1.0177  0.1602 -0.2365
  178MPD1    H6 2721   0.919   1.440  17.672 -0.6418  1.3226  1.0752
  178MPD1    H7 2722   0.853   1.585  17.656 -0.1838  3.1679 -3.3799
  179MPD1     C 2723   4.693   4.172  16.118 -0.2251  0.6198 -0.1079
  179MPD1    C1 2724   4.664   4.126  15.989  0.4760  0.0787 -0.2612
  179MPD1    C2 2725   4.598   4.005  15.973  0.6520  0.4445  0.4471
  179MPD1    C3 2726   4.573   3.923  16.083 -0.2120 -0.1383  0.3945
  179MPD1    C4 2727   4.611   3.975  16.209 -0.4773 -0.2654 -0.3651
  179MPD1    C5 2728   4.657   4.101  16.223  0.2573 -0.4841  0.3175
  179MPD1     H 2729   4.568   3.973  15.874 -1.7923  0.3613  1.2345
  179MPD1    H1 2730   4.600   3.909  16.294 -1.3239 -1.1270 -1.1368
  179MPD1    H2 2731   0.020   4.267  16.134 -2.2191  1.5655  0.5393
  179MPD1    H3 2732   4.689   4.138  16.320 -2.3388 -0.5537  1.1992
  179MPD1     N 2733   4.522   3.793  16.068  0.2489  0.4254 -0.2039
  179MPD1    H5 2734   4.502   3.751  16.158  0.2109  0.0430 -0.3883
  179MPD1    N1 2735   4.696   4.213  15.883 -0.2216  0.1155  0.2762
  179MPD1    H6 2736   4.698   4.166  15.793 -1.6977  1.1326 -0.2829
  179MPD1    H7 2737   0.052   4.275  15.898 -1.2212  1.2713  0.7618
  180MPD1     C 2738   4.462   0.061  15.290  0.0573 -0.1461 -0.1074
  180MPD1    C1 2739   4.531   4.692  15.207 -0.8491 -0.7884  0.1877
  180MPD1    C2 2740   4.499   4.689  15.073 -0.5698 -0.1902 -0.0943
  180MPD1    C3 2741   4.421   0.057  15.015 -0.4470  0.3562 -0.2235
  180MPD1    C4 2742   4.359   0.151  15.094  0.2367 -0.1841 -0.2664
  180MPD1    C5 2743   4.385   0.153  15.226  0.1205 -0.2876  1.0029
  180MPD1     H 2744   4.550   4.615  15.012 -2.7248 -0.1213 -1.9764
  180MPD1    H1 2745   4.294   0.230  15.057  2.3501  1.9976  0.6365
  180MPD1    H2 2746   4.478   0.073  15.396 -1.3775  0.8059 -0.0032
  180MPD1    H3 2747   4.339   0.223  15.295  2.5474  2.0453  0.2760
  180MPD1     N 2748   4.416   0.066  14.874  0.0655  0.2026 -0.0242
  180MPD1    H5 2749   4.470   4.719  14.824  0.1095  1.3255 -1.5403
  180MPD1    N1 2750   4.613   4.590  15.260  0.0181  0.2066 -0.4840
  180MPD1    H6 2751   4.662   4.523  15.201  3.1710 -0.3991  2.7529
  180MPD1    H7 2752   4.659   4.620  15.346 -1.5296 -1.1521  0.8177
  181MPD1     C 2753   1.589   1.640   9.970  0.5261  0.5624 -0.0193
  181MPD1    C1 2754   1.637   1.741   9.893 -0.2055 -0.8058 -0.0753
  181MPD1    C2 2755   1.763   1.792   9.923 -0.5608 -0.7086  0.4075
  181MPD1    C3 2756   1.842   1.732  10.021 -0.2020  0.6194  0.5477
  181MPD1    C4 2757   1.802   1.621  10.086 -0.1233 -0.7540  0.8849
  181MPD1    C5 2758   1.669   1.581  10.061  0.4056 -0.0208 -0.2228
  181MPD1     H 2759   1.798   1.875   9.863  1.0138 -1.4710  0.2613
  181MPD1    H1 2760   1.869   1.570  10.155 -0.1878 -0.5226  1.1195
  181MPD1    H2 2761   1.487   1.605   9.956  0.0680  1.5194  0.9028
  181MPD1    H3 2762   1.636   1.503  10.129 -0.7280  1.3915  0.8569
  181MPD1     N 2763   1.974   1.776  10.045 -0.7506 -0.5682  0.4806
  181MPD1    H5 2764   2.035   1.713  10.095  1.2151  0.8846 -0.1220
  181MPD1    N1 2765   1.562   1.796   9.793 -0.4761  0.3892  0.5180
  181MPD1    H6 2766   1.492   1.735   9.752 -1.5301  1.3269  0.9143
  181MPD1    H7 2767   1.619   1.830   9.717  1.0014  1.9196  2.3037
  182MPD1     C 2768   2.138   1.936   2.335 -0.3366 -0.2254 -0.1408
  182MPD1    C1 2769   2.205   1.821   2.322 -0.0835 -0.7802 -0.3490
  182MPD1    C2 2770   2.209   1.754   2.201  0.2089  0.4432  0.7790
  182MPD1    C3 2771   2.139   1.808   2.092  0.1711 -0.3243  0.4194
  182MPD1    C4 2772   2.071   1.925   2.108 -0.2226  0.1037  0.3293
  182MPD1    C5 2773   2.060   1.979   2.231 -0.0281 -0.1886 -0.1076
  182MPD1     H 2774   2.268   1.665   2.185  0.4244  0.5074  1.2256
  182MPD1    H1 2775   2.013   1.956   2.022 -2.6688 -1.5244  1.3781
  182MPD1    H2 2776   2.124   1.991   2.427  2.8278  0.3690 -0.0410
  182MPD1    H3 2777   1.994   2.058   2.265  1.0450 -0.1502  1.8907
  182MPD1     N 2778   2.124   1.747   1.969  0.1690 -0.5861 -0.3400
  182MPD1    H5 2779   2.060   1.796   1.907 -0.8056 -1.7014 -0.2066
  182MPD1    N1 2780   2.255   1.760   2.442 -0.1268 -0.3507  0.1031
  182MPD1    H6 2781   2.335   1.700   2.421 -1.3892 -1.2355 -2.2526
  182MPD1    H7 2782   2.279   1.823   2.517  0.2073 -0.5626  0.1764
  183MPD1     C 2783   4.320   1.621   9.481  0.1740  0.9898  0.5899
  183MPD1    C1 2784   4.229   1.656   9.389  0.5661 -0.3216  0.5531
  183MPD1    C2 2785   4.091   1.654   9.418  0.2551  0.4293  0.2662
  183MPD1    C3 2786   4.043   1.605   9.533  0.3653  1.0234  0.3746
  183MPD1    C4 2787   4.140   1.568   9.627 -0.3502 -0.1759 -0.2596
  183MPD1    C5 2788   4.270   1.581   9.603 -0.1016  0.5618 -0.5440
  183MPD1     H 2789   4.021   1.682   9.341  0.6203  0.2217 -0.1439
  183MPD1    H1 2790   4.120   1.519   9.722 -3.0400  1.5390  0.0295
  183MPD1    H2 2791   4.426   1.633   9.463  0.2784 -0.5471  0.1121
  183MPD1    H3 2792   4.339   1.564   9.685  1.5884  5.2594 -1.0170
  183MPD1     N 2793   3.900   1.587   9.552 -0.7672 -1.1378 -0.2961
  183MPD1    H5 2794   3.840   1.635   9.486 -1.2197 -2.3340 -0.7510
  183MPD1    N1 2795   4.270   1.679   9.263  0.1185 -0.2748  0.2462
  183MPD1    H6 2796   4.199   1.736   9.218 -0.2055 -0.6050  0.3451
  183MPD1    H7 2797   4.357   1.732   9.256  0.0661 -0.1998  0.1638
  184MPD1     C 2798   2.737   2.898  10.522 -0.9406 -0.1587  0.3568
  184MPD1    C1 2799   2.818   2.986  10.454  0.1981 -0.0448  0.6501
  184MPD1    C2 2800   2.761   3.087  10.386 -0.8185 -0.8229 -0.8320
  184MPD1    C3 2801   2.623   3.105  10.388  0.0423 -0.3901  0.1176
  184MPD1    C4 2802   2.539   3.019  10.458 -0.3625 -0.0553  0.7167
  184MPD1    C5 2803   2.599   2.916  10.519 -0.0491 -0.6998 -1.0405
  184MPD1     H 2804   2.821   3.157  10.330  1.2974 -2.0661 -0.1087
  184MPD1    H1 2805   2.433   3.038  10.468  0.1603  2.9531  0.7864
  184MPD1    H2 2806   2.782   2.826  10.589  0.1122  0.0288 -0.1406
  184MPD1    H3 2807   2.539   2.843  10.574  0.7340  0.8805  1.8844
  184MPD1     N 2808   2.549   3.209  10.326  0.3532  0.1062  1.0766
  184MPD1    H5 2809   2.448   3.211  10.330  0.2373 -0.0491 -1.3475
  184MPD1    N1 2810   2.951   2.948  10.431 -1.0869  0.7387  0.4600
  184MPD1    H6 2811   3.014   3.026  10.418  1.2694 -1.9664 -4.2191
  184MPD1    H7 2812   2.980   2.896  10.514  0.5647  0.2915 -0.3875
  185MPD1     C 2813   1.894   3.498   9.604  0.7644 -0.0356 -0.7386
  185MPD1    C1 2814   1.887   3.443   9.725 -0.1019  0.7427 -0.0907
  185MPD1    C2 2815   1.999   3.424   9.799  0.4862  0.2765 -0.3657
  185MPD1    C3 2816   2.115   3.490   9.764 -0.3771 -0.3709  0.1865
  185MPD1    C4 2817   2.121   3.564   9.645 -1.3220 -0.7854 -0.4406
  185MPD1    C5 2818   2.012   3.558   9.561 -0.0624 -0.5819 -0.2592
  185MPD1     H 2819   1.987   3.364   9.889  0.5358  2.0104  0.7930
  185MPD1    H1 2820   2.212   3.615   9.618 -2.9727  1.4605 -1.7549
  185MPD1    H2 2821   1.807   3.510   9.540  2.4785  0.4176 -2.9967
  185MPD1    H3 2822   2.024   3.598   9.460 -3.1594  1.7786  0.2994
  185MPD1     N 2823   2.232   3.489   9.844  0.1360  0.3141 -0.1558
  185MPD1    H5 2824   2.313   3.545   9.822 -1.1574  2.0670 -0.4254
  185MPD1    N1 2825   1.761   3.386   9.770  0.3642 -0.0330 -0.6721
  185MPD1    H6 2826   1.689   3.454   9.749  1.2984  0.5239 -2.1083
  185MPD1    H7 2827   1.752   3.375   9.871  1.6159 -2.2162 -0.7859
  186MPD1     C 2828   0.090   3.467  15.897 -0.3909  0.5225  0.1720
  186MPD1    C1 2829   0.136   3.414  16.012  0.2245 -0.4357  0.7116
  186MPD1    C2 2830   0.186   3.500  16.110  0.3138  0.1276  0.1802
  186MPD1    C3 2831   0.196   3.634  16.083  0.1512 -0.8391 -0.6446
  186MPD1    C4 2832   0.163   3.682  15.959  0.1733 -0.3168  0.3839
  186MPD1    C5 2833   0.099   3.597  15.875 -0.1735 -0.6583  0.3924
  186MPD1     H 2834   0.220   3.472  16.209 -1.9651 -1.8432  0.4224
  186MPD1    H1 2835   0.154   3.787  15.938 -3.0216 -0.3820  1.4010
  186MPD1    H2 2836   0.040   3.398  15.829 -1.4158  2.0298 -0.6112
  186MPD1    H3 2837   0.077   3.638  15.777  1.4153  0.4266  0.4884
  186MPD1     N 2838   0.229   3.733  16.178  0.4939 -0.6092  0.6439
  186MPD1    H5 2839   0.231   3.827  16.142 -2.3454 -1.3530 -1.5181
  186MPD1    N1 2840   0.127   3.278  16.026 -0.4347  0.2476 -0.0933
  186MPD1    H6 2841   0.172   3.255  16.114  0.1559  0.0402 -0.4473
  186MPD1    H7 2842   0.197   3.245  15.960 -0.5328 -1.0033  0.4267
  187MPD1     C 2843   0.131   0.581  17.646 -0.5606  0.0807  0.6822
  187MPD1    C1 2844   0.007   0.567  17.592  0.6932  0.8036  0.3945
  187MPD1    C2 2845   4.680   0.671  17.516  0.0415  0.6213 -0.0658
  187MPD1    C3 2846   0.033   0.790  17.513 -0.0139 -0.3207  0.0397
  187MPD1    C4 2847   0.155   0.795  17.581  0.5929  0.0064 -0.7937
  187MPD1    C5 2848   0.203   0.695  17.657 -0.7353  0.1062  1.3769
  187MPD1     H 2849   4.584   0.677  17.466 -0.2118 -2.7762  0.0245
  187MPD1    H1 2850   0.219   0.883  17.580 -3.5567  3.0412  0.1326
  187MPD1    H2 2851   0.185   0.510   0.012 -0.8864  0.0145  0.8949
  187MPD1    H3 2852   0.295   0.699   0.020  2.5370  1.9393 -3.8954
  187MPD1     N 2853   4.716   0.899  17.433 -0.1326 -0.5420 -0.7428
  187MPD1    H5 2854   0.034   0.988  17.460 -0.2317 -0.4153 -1.0056
  187MPD1    N1 2855   4.654   0.448  17.601 -0.9233 -0.1568 -0.3973
  187MPD1    H6 2856   4.679   0.372  17.664 -1.8398 -0.3875 -0.3129
  187MPD1    H7 2857   4.556   0.471  17.612 -0.6459  1.4675 -1.3657
  188MPD1     C 2858   0.063   1.039   9.795  0.9161  0.2428 -0.0148
  188MPD1    C1 2859   0.152   0.992   9.695 -0.5338 -0.0185 -0.8310
  188MPD1    C2 2860   0.165   0.856   9.680 -0.0212  0.0899  0.4769
  188MPD1    C3 2861   0.088   0.769   9.757  0.2415 -0.1619 -0.1431
  188MPD1    C4 2862   4.719   0.815   9.840 -0.1101  0.4206  0.5673
  188MPD1    C5 2863   4.705   0.950   9.854  0.4362 -0.1564  0.1423
  188MPD1     H 2864   0.226   0.814   9.601 -2.4113 -0.1427 -1.2718
  188MPD1    H1 2865   4.663   0.754   9.910  1.0470  1.2031  2.1781
  188MPD1    H2 2866   0.042   1.143   9.819  1.6800 -0.3031  2.9425
  188MPD1    H3 2867   4.645   0.990   9.934 -0.1848 -0.6175 -0.0959
  188MPD1     N 2868   0.080   0.632   9.723 -0.5014 -0.0370 -0.1420
  188MPD1    H5 2869   0.002   0.579   9.761 -0.4570 -0.0558 -0.0786
  188MPD1    N1 2870   0.201   1.075   9.596 -0.6416 -0.1693 -0.5568
  188MPD1    H6 2871   0.217   1.165   9.643  1.3773 -0.8061 -0.0176
  188MPD1    H7 2872   0.281   1.038   9.545 -0.0063 -1.2295  1.2066
  189MPD1     C 2873   1.221   1.616   0.328 -0.7834  0.0724 -0.8457
  189MPD1    C1 2874   1.105   1.557   0.339  0.0217 -0.0959  0.4500
  189MPD1    C2 2875   1.002   1.631   0.286 -0.7534 -0.1686  0.1874
  189MPD1    C3 2876   1.016   1.769   0.248 -0.8597 -0.7029 -0.1692
  189MPD1    C4 2877   1.135   1.829   0.250  0.3316  0.1786  0.0234
  189MPD1    C5 2878   1.238   1.743   0.284  0.2062  0.3918 -0.4731
  189MPD1     H 2879   0.902   1.589   0.284 -1.2432  1.0139 -0.0373
  189MPD1    H1 2880   1.158   1.927   0.210  0.3577  0.3486  0.4554
  189MPD1    H2 2881   1.309   1.564   0.363 -1.3454 -0.5903 -0.4124
  189MPD1    H3 2882   1.341   1.777   0.282  0.8758 -1.6327 -0.1460
  189MPD1     N 2883   0.904   1.847   0.215  0.2236 -0.6998 -0.5886
  189MPD1    H5 2884   0.816   1.800   0.200  0.0697 -1.2615  2.1046
  189MPD1    N1 2885   1.091   1.425   0.385 -0.4920 -0.3756 -0.0305
  189MPD1    H6 2886   1.151   1.401   0.464 -2.0103 -1.4248  0.8136
  189MPD1    H7 2887   0.996   1.410   0.418 -0.6939  0.1879 -0.3688
  190MPD1     C 2888   4.041   0.031  15.899  0.1017 -0.8942  0.4811
  190MPD1    C1 2889   4.120   4.651  15.869  1.0387  0.1724  0.6032
  190MPD1    C2 2890   4.239   4.672  15.808 -0.2000 -0.3932  0.9389
  190MPD1    C3 2891   4.268   0.075  15.757 -0.0163  0.5810  0.1131
  190MPD1    C4 2892   4.181   0.179  15.779  0.4484 -0.0452  0.1309
  190MPD1    C5 2893   4.072   0.158  15.856  0.6337  0.0664  0.4974
  190MPD1     H 2894   4.313   4.593  15.795  1.2313  1.0367  0.3167
  190MPD1    H1 2895   4.195   0.282  15.746 -1.0141  0.5973  1.4816
  190MPD1    H2 2896   3.949   0.012  15.952 -0.9334  1.2115 -0.5660
  190MPD1    H3 2897   4.008   0.244  15.870 -0.1417 -0.6009  1.0876
  190MPD1     N 2898   4.395   0.099  15.703 -0.2752 -0.2775  0.1856
  190MPD1    H5 2899   4.452   0.016  15.687 -0.8599 -0.4656 -0.8930
  190MPD1    N1 2900   4.102   4.532  15.937  0.1956 -0.2435  0.5313
  190MPD1    H6 2901   4.140   4.453  15.886 -1.6159 -1.1365  0.5531
  190MPD1    H7 2902   4.004   4.511  15.957 -0.0498  0.4330  0.0425
  191MPD1     C 2903   4.440   0.990  11.778 -0.2546 -0.5313  0.7285
  191MPD1    C1 2904   4.345   1.014  11.884  0.1408  0.3504 -0.2990
  191MPD1    C2 2905   4.341   1.145  11.926  0.2438  0.0213 -0.0498
  191MPD1    C3 2906   4.437   1.242  11.889 -0.1929  0.0048  0.1884
  191MPD1    C4 2907   4.519   1.216  11.783  0.7178  0.4470 -0.7021
  191MPD1    C5 2908   4.521   1.093  11.733 -0.1809 -0.3703  0.2850
  191MPD1     H 2909   4.253   1.177  11.979 -0.4495 -0.8377 -0.6795
  191MPD1    H1 2910   4.574   1.287  11.723 -1.0301  1.1636 -1.4601
  191MPD1    H2 2911   4.453   0.894  11.730 -0.2663 -1.2297  2.1147
  191MPD1    H3 2912   4.579   1.087  11.642 -1.5472 -0.6120 -0.5474
  191MPD1     N 2913   4.423   1.372  11.948 -0.1311 -0.3009 -0.7813
  191MPD1    H5 2914   4.348   1.395  12.012 -1.6792 -1.5863 -2.1527
  191MPD1    N1 2915   4.247   0.919  11.912  0.1670 -0.3122  0.1093
  191MPD1    H6 2916   4.279   0.823  11.903  2.6339  0.7821 -2.6800
  191MPD1    H7 2917   4.198   0.931  12.000  1.3454 -1.9833  0.9799
  192MPD1     C 2918   4.442   1.653  12.874 -0.4416 -0.0109 -0.4745
  192MPD1    C1 2919   4.354   1.589  12.793  0.1714 -0.0014 -0.0628
  192MPD1    C2 2920   4.375   1.600  12.658 -0.4175 -0.2464  0.5776
  192MPD1    C3 2921   4.470   1.681  12.608  0.6601  0.0002 -0.0974
  192MPD1    C4 2922   4.553   1.747  12.685  0.7551  0.3315 -0.2352
  192MPD1    C5 2923   4.542   1.721  12.822 -0.5000 -0.5086 -1.1242
  192MPD1     H 2924   4.314   1.542  12.590 -0.1749 -0.6750  0.7274
  192MPD1    H1 2925   4.630   1.815  12.652 -0.6403  0.2610 -3.6710
  192MPD1    H2 2926   4.434   1.640  12.981 -0.6735  1.9181 -0.2603
  192MPD1    H3 2927   4.610   1.768  12.891 -1.9187 -1.8068  1.1849
  192MPD1     N 2928   4.491   1.699  12.464 -0.0419 -0.6189 -0.4557
  192MPD1    H5 2929   4.562   1.768  12.440  0.3105 -0.8410 -0.0487
  192MPD1    N1 2930   4.248   1.515  12.848 -0.4893  0.0535 -0.1500
  192MPD1    H6 2931   4.216   1.556  12.935 -0.2689  0.3648 -0.2153
  192MPD1    H7 2932   4.173   1.508  12.779 -0.0887 -1.0165 -0.4902
  193MPD1     C 2933   3.680   2.439  16.135  0.2358  0.5843  0.1218
  193MPD1    C1 2934   3.626   2.539  16.205 -0.2766 -0.3604 -0.0305
  193MPD1    C2 2935   3.696   2.576  16.319 -0.1164 -0.0914 -0.0543
  193MPD1    C3 2936   3.770   2.484  16.384  0.7025  0.6611  0.0627
  193MPD1    C4 2937   3.823   2.384  16.310 -0.4025 -0.9243  0.0248
  193MPD1    C5 2938   3.778   2.364  16.180  0.0668  0.3271 -0.1201
  193MPD1     H 2939   3.665   2.666  16.371  0.2343  0.1465 -0.2591
  193MPD1    H1 2940   3.900   2.319  16.351 -0.2119  0.1382  1.3514
  193MPD1    H2 2941   3.636   2.409  16.040  2.0724 -1.7222  0.0144
  193MPD1    H3 2942   3.819   2.286  16.117 -1.3468  0.4965 -1.2557
  193MPD1     N 2943   3.834   2.506  16.506  0.1901  0.6811 -0.0102
  193MPD1    H5 2944   3.892   2.427  16.532 -2.2513 -1.6484 -1.5769
  193MPD1    N1 2945   3.537   2.629  16.141  0.1426 -0.1813 -0.4473
  193MPD1    H6 2946   3.491   2.678  16.217  0.9041 -1.1356  0.6510
  193MPD1    H7 2947   3.473   2.562  16.097 -0.2342 -0.0623 -0.0791
  194MPD1     C 2948   1.277   0.119  16.725 -0.6397  0.4388 -0.0185
  194MPD1    C1 2949   1.290   0.124  16.863  0.4582 -0.1824 -0.9260
  194MPD1    C2 2950   1.357   0.022  16.930 -0.4257  0.1732  0.2936
  194MPD1    C3 2951   1.425   4.650  16.866 -0.0137 -0.5635  0.6886
  194MPD1    C4 2952   1.416   4.652  16.727  0.1550 -0.0477 -0.2605
  194MPD1    C5 2953   1.335   0.021  16.652  0.2486  0.7152 -0.0493
  194MPD1     H 2954   1.353   0.014  17.038 -1.4031 -0.1950  0.2296
  194MPD1    H1 2955   1.457   4.575  16.663  1.1248  0.0685  0.2393
  194MPD1    H2 2956   1.210   0.186  16.673 -1.3565  0.5612  1.0392
  194MPD1    H3 2957   1.318   0.017  16.546  1.0610  1.6142 -0.2133
  194MPD1     N 2958   1.488   4.537  16.920 -0.2011 -0.2724  0.2072
  194MPD1    H5 2959   1.522   4.474  16.848 -0.5344  0.2276 -0.3808
  194MPD1    N1 2960   1.215   0.214  16.943 -0.1978 -0.7270 -0.3547
  194MPD1    H6 2961   1.253   0.234  17.036  0.3325 -3.6719  0.0589
  194MPD1    H7 2962   1.195   0.303  16.898 -4.6890 -0.9089  1.3037
  195MPD1     C 2963   4.467   0.668   0.419 -0.4161 -0.0458  0.4615
  195MPD1    C1 2964   4.506   0.614   0.300 -0.3331 -0.0989 -0.2165
  195MPD1    C2 2965   4.447   0.497   0.260  0.0116  0.5568  0.7835
  195MPD1    C3 2966   4.341   0.437   0.326 -0.4622 -0.0818  0.8328
  195MPD1    C4 2967   4.309   0.485   0.448  0.0122  0.3911 -0.0454
  195MPD1    C5 2968   4.379   0.595   0.499 -0.5060  0.0556 -0.3328
  195MPD1     H 2969   4.484   0.477   0.160 -0.5228 -0.3498  0.7567
  195MPD1    H1 2970   4.229   0.440   0.505 -0.3776 -0.0175 -0.9184
  195MPD1    H2 2971   4.512   0.758   0.458 -1.1133  0.8213 -0.7492
  195MPD1    H3 2972   4.344   0.639   0.592  0.0693  0.3012 -0.2292
  195MPD1     N 2973   4.259   0.333   0.272 -0.1348 -0.2310  0.0026
  195MPD1    H5 2974   4.183   0.302   0.332  0.0250 -1.5795 -0.4790
  195MPD1    N1 2975   4.587   0.688   0.214  0.1706 -0.2668  0.0502
  195MPD1    H6 2976   4.640   0.628   0.150 -0.6747 -1.1693  0.2045
  195MPD1    H7 2977   4.651   0.751   0.260  1.3528 -0.2157 -1.6601
  196MPD1     C 2978   2.422   1.084  17.649 -0.2322 -0.2741  0.7156
  196MPD1    C1 2979   2.500   1.200  17.652 -0.8686 -0.3191 -0.0309
  196MPD1    C2 2980   2.570   1.233   0.075  0.0860  0.4659 -0.8098
  196MPD1    C3 2981   2.573   1.148   0.185 -0.1502  0.0578 -0.2023
  196MPD1    C4 2982   2.501   1.027   0.168 -0.7712 -0.3781  0.0866
  196MPD1    C5 2983   2.433   0.997   0.056  0.4651  0.0198  0.0028
  196MPD1     H 2984   2.612   1.333   0.073  0.0429  0.4855 -0.7405
  196MPD1    H1 2985   2.512   0.946   0.240 -1.6864  0.6179  1.3420
  196MPD1    H2 2986   2.358   1.067  17.563  2.4152  0.4613 -1.3993
  196MPD1    H3 2987   2.369   0.909   0.057 -0.5311  0.7408 -0.3679
  196MPD1     N 2988   2.642   1.175   0.305  0.6795  0.2052 -0.1434
  196MPD1    H5 2989   2.629   1.107   0.379  2.5081 -0.3467 -0.3306
  196MPD1    N1 2990   2.499   1.291  17.545  0.1425  0.4534 -0.6308
  196MPD1    H6 2991   2.582   1.345  17.522  0.5410  0.5300  1.0117
  196MPD1    H7 2992   2.461   1.253  17.459 -3.5034 -1.0350  1.6483
  197MPD1     C 2993   3.061   3.182  17.648 -0.3930 -0.0315 -0.2758
  197MPD1    C1 2994   3.016   3.306  17.602  0.6706  0.3738  0.2287
  197MPD1    C2 2995   2.893   3.310  17.536  0.1107 -0.5613 -1.1129
  197MPD1    C3 2996   2.821   3.194  17.507  0.1441 -0.1388 -0.3423
  197MPD1    C4 2997   2.878   3.072  17.533  0.1790 -0.7525 -0.6420
  197MPD1    C5 2998   2.989   3.068  17.602  0.2925 -0.1102  0.1653
  197MPD1     H 2999   2.868   3.400  17.480  0.3459 -0.4596 -1.0553
  197MPD1    H1 3000   2.834   2.977  17.505 -1.9541 -0.5722  2.0977
  197MPD1    H2 3001   3.155   3.168   0.007 -0.2679  2.0215  0.0269
  197MPD1    H3 3002   3.028   2.969  17.627  1.3328  0.1151 -0.5678
  197MPD1     N 3003   2.706   3.195  17.426 -0.1255  0.3468  0.3112
  197MPD1    H5 3004   2.677   3.110  17.379  0.7958 -0.3956  1.0876
  197MPD1    N1 3005   3.070   3.425  17.645  0.7034 -0.6664 -0.0740
  197MPD1    H6 3006   3.052   3.511  17.593  0.6110 -0.8600 -0.3672
  197MPD1    H7 3007   3.171   3.415  17.653  0.9637 -0.2689 -2.7857
  198MPD1     C 3008   4.578   0.888  15.101  0.9242  0.2625 -0.1625
  198MPD1    C1 3009   4.586   0.884  15.235  0.3414 -0.1120 -0.2029
  198MPD1    C2 3010   4.707   0.872  15.307  0.8349  0.1047  0.0679
  198MPD1    C3 3011   0.098   0.877  15.229 -0.5839  0.1860 -0.2069
  198MPD1    C4 3012   0.091   0.883  15.093 -0.0388 -1.2965  0.5076
  198MPD1    C5 3013   4.693   0.894  15.026  0.4147  0.0483 -0.3581
  198MPD1     H 3014   4.713   0.878  15.415  0.4913  1.0460  0.0348
  198MPD1    H1 3015   0.181   0.869  15.034 -0.2833 -0.3223 -0.1054
  198MPD1    H2 3016   4.490   0.901  15.039  1.3353 -0.1394 -0.8326
  198MPD1    H3 3017   4.686   0.903  14.919 -0.5786 -0.0614 -0.2956
  198MPD1     N 3018   0.221   0.874  15.304 -0.9211  0.3223  0.4375
  198MPD1    H5 3019   0.213   0.878  15.405  0.4964  0.4132  0.5539
  198MPD1    N1 3020   4.462   0.880  15.306  0.6508  0.5003 -0.0866
  198MPD1    H6 3021   4.383   0.921  15.257 -2.3726 -2.2278  2.4853
  198MPD1    H7 3022   4.468   0.925  15.397 -0.2915  0.2270  0.1202
  199MPD1     C 3023   2.145   1.523   9.789  0.4976  0.2370 -0.0813
  199MPD1    C1 3024   2.261   1.593   9.777  0.0370  0.1194 -0.2296
  199MPD1    C2 3025   2.258   1.727   9.744  0.1631  0.3816 -0.3214
  199MPD1    C3 3026   2.134   1.787   9.731  0.1443 -0.3172  0.3660
  199MPD1    C4 3027   2.022   1.713   9.706 -0.4121  0.3566  0.7925
  199MPD1    C5 3028   2.027   1.586   9.755 -0.3086  0.5862  0.1209
  199MPD1     H 3029   2.350   1.781   9.725  0.3980  0.5738  1.3261
  199MPD1    H1 3030   1.925   1.752   9.677  1.0691  1.4241 -2.6612
  199MPD1    H2 3031   2.142   1.421   9.827  0.1866  0.3558  0.2104
  199MPD1    H3 3032   1.933   1.532   9.762 -0.0082  0.0789  0.2315
  199MPD1     N 3033   2.135   1.930   9.700  0.7104 -0.1450 -0.2445
  199MPD1    H5 3034   2.045   1.965   9.668  1.1857 -0.1641 -1.6160
  199MPD1    N1 3035   2.385   1.523   9.774 -0.5577  0.1178 -0.3481
  199MPD1    H6 3036   2.458   1.586   9.807 -1.0992  0.4013  0.3200
  199MPD1    H7 3037   2.394   1.437   9.827  0.6072  0.1386 -0.5221
  200MPD1     C 3038   0.197   2.487  14.680 -0.8542  0.8093  0.7988
  200MPD1    C1 3039   0.248   2.587  14.602 -0.3915 -0.4320  0.0814
  200MPD1    C2 3040   0.372   2.567  14.554 -0.1552  0.4049 -0.8134
  200MPD1    C3 3041   0.452   2.465  14.597  0.1439  0.0157 -0.2637
  200MPD1    C4 3042   0.393   2.361  14.667  0.2609 -0.1461  0.4527
  200MPD1    C5 3043   0.266   2.372  14.710  0.1867  0.2612 -1.4446
  200MPD1     H 3044   0.411   2.628  14.473  0.0345 -1.3277 -2.0442
  200MPD1    H1 3045   0.455   2.274  14.685 -1.1776 -0.9293  1.6165
  200MPD1    H2 3046   0.093   2.497  14.712 -1.0446  1.2455  0.0506
  200MPD1    H3 3047   0.219   2.291  14.766 -0.7330  0.7260 -1.5392
  200MPD1     N 3048   0.586   2.460  14.532  0.6110 -0.7084  0.4088
  200MPD1    H5 3049   0.603   2.539  14.471 -1.5506 -0.7688 -0.2737
  200MPD1    N1 3050   0.179   2.692  14.544  0.2229 -0.2810  0.3486
  200MPD1    H6 3051   0.113   2.735  14.609 -1.0134  0.9613 -1.7441
  200MPD1    H7 3052   0.237   2.767  14.509 -2.0255  1.0059 -0.6452
  201MPD1     C 3053   3.762   1.828  12.975  0.3869  0.5781  0.1348
  201MPD1    C1 3054   3.704   1.766  13.085  0.1198 -0.8212 -0.0204
  201MPD1    C2 3055   3.681   1.630  13.077 -0.4150  0.5177 -0.2550
  201MPD1    C3 3056   3.689   1.557  12.955 -1.3088  0.1587  0.6022
  201MPD1    C4 3057   3.722   1.628  12.842  0.0714  1.0099  0.8498
  201MPD1    C5 3058   3.763   1.761  12.857 -0.0213 -1.0812  0.0528
  201MPD1     H 3059   3.652   1.577  13.168 -1.9223  0.0830 -0.9852
  201MPD1    H1 3060   3.728   1.572  12.749 -0.2269  2.0604  0.1990
  201MPD1    H2 3061   3.788   1.932  12.989  0.5687  0.6948 -1.0857
  201MPD1    H3 3062   3.794   1.808  12.764 -1.5151 -1.2273 -0.5109
  201MPD1     N 3063   3.671   1.419  12.961 -0.9903  0.2905 -0.0328
  201MPD1    H5 3064   3.674   1.379  13.054  3.4000 -0.8563 -0.6705
  201MPD1    N1 3065   3.712   1.834  13.207  0.5771 -0.0729  0.5076
  201MPD1    H6 3066   3.676   1.784  13.288  0.9900 -1.4831 -0.1863
  201MPD1    H7 3067   3.682   1.931  13.203 -1.2404 -0.7306 -1.6075
  202MPD1     C 3068   4.341   0.508   9.178  0.3805  0.1965 -0.2348
  202MPD1    C1 3069   4.314   0.606   9.272  0.7294 -0.4473  0.0370
  202MPD1    C2 3070   4.195   0.596   9.338  1.1016  0.2210 -0.2408
  202MPD1    C3 3071   4.130   0.478   9.363  0.0051 -0.1616 -0.3895
  202MPD1    C4 3072   4.179   0.370   9.292  0.4760 -0.0104  0.6150
  202MPD1    C5 3073   4.279   0.388   9.198  0.5579  0.3379 -0.1106
  202MPD1     H 3074   4.166   0.682   9.397 -2.4164  0.6415 -2.6306
  202MPD1    H1 3075   4.132   0.273   9.301  1.1257 -0.5808 -2.3146
  202MPD1    H2 3076   4.418   0.517   9.102  1.5201  0.4386  0.9569
  202MPD1    H3 3077   4.312   0.303   9.140 -0.3675 -1.3717  1.8638
  202MPD1     N 3078   4.019   0.461   9.444  0.4060 -0.0961  0.0214
  202MPD1    H5 3079   3.990   0.364   9.453  2.3998 -0.8915 -2.0342
  202MPD1    N1 3080   4.354   0.741   9.254  0.1672 -0.7536 -0.9110
  202MPD1    H6 3081   4.445   0.744   9.210  0.4691 -2.2713 -0.4088
  202MPD1    H7 3082   4.384   0.785   9.341  0.1281  0.6427 -1.5990
  203MPD1     C 3083   1.929   1.835  12.216  0.1079  0.1676 -0.1416
  203MPD1    C1 3084   2.044   1.861  12.150 -0.2937  0.2743 -0.2054
  203MPD1    C2 3085   2.163   1.797  12.191  0.2408 -0.1058 -0.5113
  203MPD1    C3 3086   2.164   1.702  12.294 -0.4253  0.0358  0.1211
  203MPD1    C4 3087   2.042   1.673  12.352 -0.1288  0.7090 -1.1690
  203MPD1    C5 3088   1.927   1.733  12.314 -0.1214  0.0987 -0.2165
  203MPD1     H 3089   2.254   1.833  12.144 -0.6875  0.2618 -2.0352
  203MPD1    H1 3090   2.039   1.589  12.421 -0.5558  0.1382 -1.8819
  203MPD1    H2 3091   1.835   1.885  12.195 -1.7277 -2.8875  0.9334
  203MPD1    H3 3092   1.839   1.704  12.371  0.3592  0.0911  0.5198
  203MPD1     N 3093   2.280   1.636  12.322  0.4444 -0.1178 -0.8748
  203MPD1    H5 3094   2.354   1.628  12.253 -0.1337  0.7642 -1.5913
  203MPD1    N1 3095   2.040   1.969  12.056  0.1345 -0.0580  0.1950
  203MPD1    H6 3096   2.090   2.054  12.084 -0.6336  0.4188  0.1075
  203MPD1    H7 3097   1.947   2.006  12.035  1.0095  2.7285  1.1242
  204MPD1     C 3098   1.202   3.123   0.372 -0.0505 -0.3615  0.1095
  204MPD1    C1 3099   1.235   2.992   0.407  0.1632  0.4532  0.0335
  204MPD1    C2 3100   1.223   2.903   0.302  0.8458 -0.0209  0.2191
  204MPD1    C3 3101   1.199   2.938   0.167 -0.2722  0.5297 -0.3600
  204MPD1    C4 3102   1.182   3.072   0.138 -0.2910  0.1535 -0.1064
  204MPD1    C5 3103   1.187   3.161   0.242  0.5870 -0.6950  0.1385
  204MPD1     H 3104   1.219   2.796   0.318 -0.6313 -0.0494 -0.3094
  204MPD1    H1 3105   1.169   3.103   0.035  0.1621  2.8910  0.6592
  204MPD1    H2 3106   1.204   3.202   0.445  1.8873 -0.8849  0.6121
  204MPD1    H3 3107   1.171   3.268   0.233  1.3597 -0.6629 -0.8969
  204MPD1     N 3108   1.188   2.834   0.073  0.5699  0.5912  0.0033
  204MPD1    H5 3109   1.226   2.744   0.102 -1.8260 -0.3035  0.3951
  204MPD1    N1 3110   1.244   2.950   0.540 -0.2990 -0.4525 -0.1738
  204MPD1    H6 3111   1.302   2.867   0.543 -0.5052 -0.6371 -1.0891
  204MPD1    H7 3112   1.276   3.018   0.609 -2.5816  0.0253  0.4036
  205MPD1     C 3113   2.292   1.765   0.291  0.3921 -0.3130 -0.2962
  205MPD1    C1 3114   2.275   1.681   0.184  0.5315 -0.1074  0.7065
  205MPD1    C2 3115   2.152   1.684   0.121 -0.0687 -0.4005  0.8961
  205MPD1    C3 3116   2.059   1.779   0.152  0.6465  0.7612 -0.0814
  205MPD1    C4 3117   2.078   1.868   0.255  0.7455  0.1144 -0.8514
  205MPD1    C5 3118   2.200   1.857   0.322  0.6444  0.5708  0.1353
  205MPD1     H 3119   2.144   1.608   0.044 -0.3370  1.5578 -0.9693
  205MPD1    H1 3120   2.013   1.947   0.291  0.2582  0.4162 -2.3810
  205MPD1    H2 3121   2.383   1.768   0.350 -0.7036 -0.8298  1.4061
  205MPD1    H3 3122   2.215   1.929   0.401  0.3101  2.3393 -1.4056
  205MPD1     N 3123   1.930   1.773   0.093  0.0131  0.2968 -0.4370
  205MPD1    H5 3124   1.861   1.834   0.135  1.0046  0.8694  0.3720
  205MPD1    N1 3125   2.365   1.572   0.153 -0.5481 -0.2997 -0.1235
  205MPD1    H6 3126   2.457   1.604   0.181 -0.6553 -0.2655  0.1886
  205MPD1    H7 3127   2.363   1.555   0.053  0.2963 -1.7747  0.1077
  206MPD1     C 3128   1.791   4.010  16.729 -0.2948 -0.5143  0.1229
  206MPD1    C1 3129   1.828   4.134  16.681 -0.5184  0.8067 -0.3136
  206MPD1    C2 3130   1.817   4.146  16.541 -0.4437  0.6740 -0.1182
  206MPD1    C3 3131   1.774   4.046  16.464 -0.6041  0.0428 -0.0698
  206MPD1    C4 3132   1.742   3.922  16.519  0.7485  0.2424 -0.3788
  206MPD1    C5 3133   1.748   3.909  16.650  0.2461  0.8103  1.4030
  206MPD1     H 3134   1.852   4.236  16.492 -0.7624  1.8195  1.7444
  206MPD1    H1 3135   1.732   3.836  16.453 -0.3967 -0.2869  0.4950
  206MPD1    H2 3136   1.789   3.988  16.835  1.2918 -0.2058  0.2160
  206MPD1    H3 3137   1.722   3.818  16.702  1.8491  0.7749  2.1425
  206MPD1     N 3138   1.762   4.056  16.327  0.1371  0.4156  0.4686
  206MPD1    H5 3139   1.749   3.970  16.274 -1.4220  0.3106  1.0382
  206MPD1    N1 3140   1.843   4.247  16.761 -0.2453 -0.4702 -0.2635
  206MPD1    H6 3141   1.873   4.219  16.854 -1.5256  0.0775  0.2979
  206MPD1    H7 3142   1.885   4.332  16.724 -0.2332  0.1745  1.2369
  207MPD1     C 3143   4.520   2.299   9.540 -0.0586 -0.2187 -0.3219
  207MPD1    C1 3144   4.586   2.185   9.584 -0.5624 -0.3431  0.0353
  207MPD1    C2 3145   4.690   2.203   9.675 -0.2904  0.5593  0.5212
  207MPD1    C3 3146   0.008   2.325   9.716 -0.2482  0.1033  0.5965
  207MPD1    C4 3147   4.677   2.434   9.656 -0.1223 -0.3461 -0.1136
  207MPD1    C5 3148   4.576   2.420   9.570  0.6755  0.8520  0.1635
  207MPD1     H 3149   0.013   2.118   9.723  1.8616  1.4195 -0.0048
  207MPD1    H1 3150   0.001   2.531   9.669  1.3442 -1.3302  1.7904
  207MPD1    H2 3151   4.440   2.282   9.469  1.3625 -2.2916 -1.4235
  207MPD1    H3 3152   4.539   2.508   9.518 -2.4259 -1.6791 -1.9493
  207MPD1     N 3153   0.117   2.350   9.805 -0.3076 -0.1673 -0.6748
  207MPD1    H5 3154   0.148   2.445   9.821 -0.5640  0.3611 -3.3056
  207MPD1    N1 3155   4.553   2.061   9.538  0.7458  0.0780  0.1332
  207MPD1    H6 3156   4.572   1.994   9.613 -1.6156 -0.5012  0.2157
  207MPD1    H7 3157   4.457   2.044   9.511  0.1849  2.2601  0.7670
  208MPD1     C 3158   2.372   0.490   0.232  0.6570  0.7052 -0.8521
  208MPD1    C1 3159   2.326   0.614   0.182 -0.0012  0.7198 -0.0096
  208MPD1    C2 3160   2.295   0.707   0.277  0.2724 -0.3035 -0.4385
  208MPD1    C3 3161   2.281   0.683   0.412 -0.0258  0.1104  0.0293
  208MPD1    C4 3162   2.311   0.555   0.457  0.5563  0.2473 -0.0981
  208MPD1    C5 3163   2.360   0.460   0.363  0.2525 -0.0517  0.3121
  208MPD1     H 3164   2.258   0.804   0.244  0.4545  0.3782  1.3878
  208MPD1    H1 3165   2.318   0.541   0.564 -1.4112  1.9196  0.2414
  208MPD1    H2 3166   2.424   0.415   0.174  2.3858  1.5444 -0.3875
  208MPD1    H3 3167   2.386   0.360   0.396 -3.3172 -0.6097  1.5083
  208MPD1     N 3168   2.224   0.789   0.493 -0.2366 -0.2353  0.2701
  208MPD1    H5 3169   2.191   0.877   0.454 -2.6945 -1.8052 -1.2419
  208MPD1    N1 3170   2.348   0.646   0.051  0.0501 -0.4470  0.1580
  208MPD1    H6 3171   2.334   0.568  17.682  0.2763 -0.0929 -0.3190
  208MPD1    H7 3172   2.299   0.727   0.015  1.1696 -0.3183 -1.0925
  209MPD1     C 3173   4.707   1.705  11.503  0.2789  0.0232 -0.4930
  209MPD1    C1 3174   4.675   1.835  11.463  0.0387 -0.3957  0.2419
  209MPD1    C2 3175   0.048   1.881  11.373  0.1233 -0.1440  0.0659
  209MPD1    C3 3176   0.155   1.805  11.322 -0.1257 -0.1918  0.0315
  209MPD1    C4 3177   0.166   1.670  11.350  0.2404  0.1738 -0.5467
  209MPD1    C5 3178   0.078   1.626  11.446  0.5538  0.1394  0.3984
  209MPD1     H 3179   0.036   1.984  11.341  0.3693  0.3529  1.5559
  209MPD1    H1 3180   0.245   1.607  11.311  1.0475  0.9052 -0.1133
  209MPD1    H2 3181   4.644   1.652  11.574 -2.5676  0.4142 -2.7304
  209MPD1    H3 3182   0.095   1.531  11.497  2.1012  0.8363  1.1662
  209MPD1     N 3183   0.240   1.873  11.234 -0.2441  0.8683  0.0554
  209MPD1    H5 3184   0.235   1.973  11.223  0.5744  0.9212  0.1582
  209MPD1    N1 3185   4.573   1.912  11.524  0.1454 -0.7531 -0.2714
  209MPD1    H6 3186   4.540   1.988  11.464 -0.5412 -0.8523 -0.0210
  209MPD1    H7 3187   4.497   1.846  11.535 -0.7086  0.1639 -0.6515
  210MPD1     C 3188   0.834   2.355  11.653 -0.8984 -0.0351 -0.5633
  210MPD1    C1 3189   0.888   2.353  11.526  0.1457  0.8313  0.4005
  210MPD1    C2 3190   0.809   2.319  11.423 -0.3696  0.2547 -0.9543
  210MPD1    C3 3191   0.691   2.254  11.445 -0.3750 -0.6221 -0.6037
  210MPD1    C4 3192   0.637   2.254  11.572  0.3250  0.5776  0.2520
  210MPD1    C5 3193   0.709   2.302  11.682 -1.2649 -0.5869  0.3072
  210MPD1     H 3194   0.853   2.320  11.324  1.6414  0.5143 -0.0657
  210MPD1    H1 3195   0.536   2.219  11.584  0.4771  0.8249  2.2872
  210MPD1    H2 3196   0.883   2.396  11.741  1.3011 -1.6625 -1.0451
  210MPD1    H3 3197   0.668   2.302  11.783  1.4020  1.1338  1.3827
  210MPD1     N 3198   0.615   2.193  11.345  0.8474  0.4526 -0.0674
  210MPD1    H5 3199   0.523   2.159  11.371  0.9295  0.6537  0.4875
  210MPD1    N1 3200   1.017   2.410  11.491  0.2549  0.3641 -0.0882
  210MPD1    H6 3201   1.087   2.408  11.565  1.8658 -2.8011 -1.7050
  210MPD1    H7 3202   1.054   2.366  11.407  1.0145  0.7383  0.0503
  211MPD1     C 3203   2.618   2.138  16.491 -0.0065 -0.2437 -0.2055
  211MPD1    C1 3204   2.534   2.243  16.457 -0.4502 -0.1489  0.6887
  211MPD1    C2 3205   2.417   2.210  16.403 -0.7363  0.4436 -0.0063
  211MPD1    C3 3206   2.363   2.082  16.416 -0.0630  0.1097 -0.5042
  211MPD1    C4 3207   2.444   1.981  16.460  1.1969  0.1670  0.0702
  211MPD1    C5 3208   2.574   2.008  16.492 -0.2096 -0.0395  0.0930
  211MPD1     H 3209   2.361   2.296  16.368  0.0929  0.3798 -1.4644
  211MPD1    H1 3210   2.409   1.879  16.468 -0.5170  0.7875  0.4387
  211MPD1    H2 3211   2.719   2.145  16.530  0.4087  0.8686 -1.4841
  211MPD1    H3 3212   2.641   1.934  16.535  0.0869  0.1000 -0.1341
  211MPD1     N 3213   2.225   2.069  16.385  0.3660  0.3688  0.3649
  211MPD1    H5 3214   2.178   2.144  16.336  1.0657  0.1229 -0.6891
  211MPD1    N1 3215   2.592   2.369  16.427 -0.1779  0.2062  0.3413
  211MPD1    H6 3216   2.519   2.440  16.426 -0.0411  0.4003  2.2986
  211MPD1    H7 3217   2.677   2.391  16.479 -1.0280  1.4940  1.2185
  212MPD1     C 3218   1.182   0.131  16.229  0.1910  0.2195  0.5642
  212MPD1    C1 3219   1.094   0.188  16.319  0.5911  0.2112 -0.0829
  212MPD1    C2 3220   1.022   0.100  16.398 -0.2981  0.1261  0.1788
  212MPD1    C3 3221   1.049   4.687  16.401 -0.0052 -0.6933  0.1474
  212MPD1    C4 3222   1.141   4.633  16.310  0.0397 -0.5817  0.1056
  212MPD1    C5 3223   1.213   4.722  16.236 -0.0488  0.0113  0.5346
  212MPD1     H 3224   0.943   0.145  16.457  0.6299  1.1507  0.6424
  212MPD1    H1 3225   1.166   4.527  16.309 -0.1384 -0.6360  1.3129
  212MPD1    H2 3226   1.228   0.190  16.150 -0.3482  1.2571  1.0148
  212MPD1    H3 3227   1.287   4.687  16.165  1.4907  3.1716  0.6067
  212MPD1     N 3228   0.995   4.596  16.489 -0.4050  1.0516 -0.0263
  212MPD1    H5 3229   1.024   4.498  16.492 -1.7645  0.6825  1.3165
  212MPD1    N1 3230   1.073   0.324  16.314  0.8176 -0.5636 -0.3001
  212MPD1    H6 3231   1.033   0.365  16.399 -0.0500  0.5831 -1.2609
  212MPD1    H7 3232   1.158   0.371  16.285  1.2630 -0.3532  1.3245
  213MPD1     C 3233   4.070   0.602  15.992  0.5789  0.5596 -0.2343
  213MPD1    C1 3234   4.152   0.541  15.896 -0.5796 -0.2258  0.0450
  213MPD1    C2 3235   4.143   0.601  15.770 -0.0580 -0.4173  0.0378
  213MPD1    C3 3236   4.035   0.685  15.730  0.6162 -0.0189  0.1814
  213MPD1    C4 3237   3.955   0.735  15.827  0.6476  0.1758  0.3036
  213MPD1    C5 3238   3.977   0.699  15.958  0.0428  0.2724 -0.7871
  213MPD1     H 3239   4.203   0.551  15.695  1.1140 -1.8706  1.9436
  213MPD1    H1 3240   3.889   0.816  15.800 -1.2453 -1.3347  0.4514
  213MPD1    H2 3241   4.073   0.569  16.095  1.4866 -1.8921 -1.0356
  213MPD1    H3 3242   3.926   0.753  16.036 -1.3261 -1.8038 -0.2682
  213MPD1     N 3243   4.009   0.719  15.595  0.4136 -0.4511  0.2049
  213MPD1    H5 3244   4.072   0.681  15.525  0.7181  1.2228 -0.4332
  213MPD1    N1 3245   4.278   0.496  15.936 -0.7611 -0.2659  0.3239
  213MPD1    H6 3246   4.327   0.445  15.863 -2.0292 -2.2033  0.8057
  213MPD1    H7 3247   4.279   0.446  16.025  2.2939 -1.5658 -0.4573
  214MPD1     C 3248   3.154   0.915  15.150  0.1126 -0.4400 -0.6461
  214MPD1    C1 3249   3.247   1.013  15.112 -0.2377  0.3692 -0.7592
  214MPD1    C2 3250   3.378   0.979  15.145  0.1974  0.1966 -0.6171
  214MPD1    C3 3251   3.423   0.851  15.184 -0.7606 -0.2669  0.3579
  214MPD1    C4 3252   3.326   0.757  15.209 -0.7955 -0.0625  0.6588
  214MPD1    C5 3253   3.193   0.794  15.206 -0.1252  0.2551  0.5086
  214MPD1     H 3254   3.453   1.054  15.124  1.2029 -0.2979  1.1534
  214MPD1    H1 3255   3.357   0.655  15.230 -0.9082 -0.1563  0.3669
  214MPD1    H2 3256   3.048   0.939  15.158 -0.3228 -1.9070 -1.8995
  214MPD1    H3 3257   3.117   0.717  15.210 -1.2832  1.5042  2.7728
  214MPD1     N 3258   3.561   0.818  15.201  0.0531 -0.1651 -0.7449
  214MPD1    H5 3259   3.571   0.721  15.232 -2.9860 -1.2588 -3.2301
  214MPD1    N1 3260   3.200   1.149  15.106  0.8425  0.3792  0.4333
  214MPD1    H6 3261   3.266   1.202  15.050  0.2909  0.2175 -0.3756
  214MPD1    H7 3262   3.106   1.165  15.070  1.6130  0.5512 -1.5237
  215MPD1     C 3263   0.078   1.136  10.218 -0.0525 -0.8500  0.3144
  215MPD1    C1 3264   0.058   1.270  10.196  0.4610 -0.2753  0.1191
  215MPD1    C2 3265   0.069   1.360  10.300  0.1832  0.1124  0.9988
  215MPD1    C3 3266   0.101   1.319  10.428  0.3293  0.4071  0.2096
  215MPD1    C4 3267   0.116   1.183  10.445 -0.0491  0.7360 -0.2720
  215MPD1    C5 3268   0.116   1.093  10.343  0.5908  0.4456 -0.3243
  215MPD1     H 3269   0.061   1.467  10.292 -0.3614 -0.1793 -2.3262
  215MPD1    H1 3270   0.135   1.134  10.540 -2.7917  0.9370  0.3892
  215MPD1    H2 3271   0.082   1.058  10.143  0.8654 -0.5906  0.0950
  215MPD1    H3 3272   0.141   0.989  10.364 -1.2622 -0.2169 -1.4197
  215MPD1     N 3273   0.114   1.417  10.535  0.3042 -0.5031 -0.2071
  215MPD1    H5 3274   0.083   1.512  10.516 -0.2158 -0.9908 -1.8067
  215MPD1    N1 3275   0.010   1.307  10.074  0.1637 -0.3575  0.0693
  215MPD1    H6 3276   0.076   1.277  10.002  0.4649  2.5318 -0.8646
  215MPD1    H7 3277   0.025   1.408  10.069 -0.4164 -0.2361  0.8077
  216MPD1     C 3278   1.134   4.432  16.904 -0.0615 -0.1105 -0.2842
  216MPD1    C1 3279   1.153   4.344  16.804  0.1172 -0.2469  0.1509
  216MPD1    C2 3280   1.128   4.215  16.823 -1.0477 -0.2201 -0.3412
  216MPD1    C3 3281   1.104   4.164  16.953  0.2029  0.4490  0.0067
  216MPD1    C4 3282   1.109   4.247  17.057 -0.7837  0.3611  0.4737
  216MPD1    C5 3283   1.113   4.378  17.030 -0.2052  0.0268 -0.0375
  216MPD1     H 3284   1.136   4.147  16.739  0.9053  0.5141 -0.7410
  216MPD1    H1 3285   1.099   4.207  17.157  0.0047 -0.2512  0.3055
  216MPD1    H2 3286   1.132   4.539  16.886 -0.4878 -0.4105 -1.9393
  216MPD1    H3 3287   1.094   4.446  17.113  0.4335  1.6527 -1.2303
  216MPD1     N 3288   1.084   4.028  16.973 -0.3339  0.0885  0.4219
  216MPD1    H5 3289   1.085   3.967  16.891  2.0140 -1.9294  1.9576
  216MPD1    N1 3290   1.163   4.393  16.672 -0.3304  0.2886 -0.3460
  216MPD1    H6 3291   1.196   4.327  16.602 -0.3688 -1.9793  1.7912
  216MPD1    H7 3292   1.205   4.485  16.661  0.1272  0.1395  0.1497
  217MPD1     C 3293   3.754   1.306   8.547 -0.4659 -0.1965 -0.5641
  217MPD1    C1 3294   3.615   1.309   8.547 -0.1276  0.2751  0.6194
  217MPD1    C2 3295   3.546   1.238   8.648 -0.2729  0.1628  0.7386
  217MPD1    C3 3296   3.615   1.165   8.741  0.2045 -0.5985 -0.2616
  217MPD1    C4 3297   3.753   1.157   8.733  0.1741 -0.3571  0.6236
  217MPD1    C5 3298   3.821   1.227   8.639  0.2394  0.1059  0.2371
  217MPD1     H 3299   3.439   1.247   8.661 -0.2756  0.1141  0.7482
  217MPD1    H1 3300   3.813   1.104   8.806  1.7597  0.8020  0.1615
  217MPD1    H2 3301   3.809   1.369   8.478  2.9473 -1.3152  1.1141
  217MPD1    H3 3302   3.929   1.234   8.646  0.0634  2.9652 -0.1722
  217MPD1     N 3303   3.550   1.090   8.844 -1.2082  0.0754  0.0408
  217MPD1    H5 3304   3.613   1.032   8.899  0.5340  0.4365 -1.5450
  217MPD1    N1 3305   3.550   1.413   8.470 -0.6246  0.2721  0.1231
  217MPD1    H6 3306   3.454   1.390   8.443  0.4646 -3.9395 -0.1717
  217MPD1    H7 3307   3.605   1.437   8.388  2.3501 -0.4662  1.9002
  218MPD1     C 3308   3.853   2.278  13.098 -0.1467  0.1628  0.1089
  218MPD1    C1 3309   3.865   2.322  12.970 -0.1021 -0.2862  0.2203
  218MPD1    C2 3310   3.923   2.245  12.870  0.5623 -0.2783 -0.7272
  218MPD1    C3 3311   3.994   2.132  12.905 -0.5985  0.1531  0.4467
  218MPD1    C4 3312   3.994   2.094  13.037 -0.4154  0.3559 -0.0302
  218MPD1    C5 3313   3.923   2.162  13.130 -0.3641 -0.4715  0.2155
  218MPD1     H 3314   3.928   2.282  12.769  0.0190 -0.6280 -0.8779
  218MPD1    H1 3315   4.045   2.002  13.063 -0.0216  0.6267  0.1553
  218MPD1    H2 3316   3.791   2.328  13.171 -1.7579 -0.9192 -0.5088
  218MPD1    H3 3317   3.919   2.131  13.234 -1.4073  1.3821  0.7285
  218MPD1     N 3318   4.050   2.039  12.810 -0.2717 -0.0364 -0.3052
  218MPD1    H5 3319   4.084   1.952  12.851 -0.4211 -0.5185 -1.2058
  218MPD1    N1 3320   3.822   2.454  12.943 -0.5081  0.4758  0.2739
  218MPD1    H6 3321   3.860   2.522  13.008 -0.4197  0.7785 -0.0974
  218MPD1    H7 3322   3.837   2.489  12.849  1.7319  1.1590  0.8952
  219MPD1     C 3323   4.272   1.777  11.747  0.7331 -0.1010  0.5915
  219MPD1    C1 3324   4.317   1.876  11.829  0.1568  0.3435  0.3913
  219MPD1    C2 3325   4.270   1.886  11.957 -0.3181  0.4580 -0.3455
  219MPD1    C3 3326   4.199   1.779  12.016 -0.1657  0.9589  0.2995
  219MPD1    C4 3327   4.160   1.673  11.932  0.0162  0.4368 -0.2156
  219MPD1    C5 3328   4.192   1.672  11.794  0.0143  0.2793  0.1575
  219MPD1     H 3329   4.306   1.970  12.016  2.0517 -0.8505  0.0568
  219MPD1    H1 3330   4.087   1.601  11.967  0.3889 -0.4666 -1.2929
  219MPD1    H2 3331   4.304   1.785  11.643  0.8952  0.7790  0.7083
  219MPD1    H3 3332   4.163   1.588  11.733 -0.5390  1.1995 -0.8474
  219MPD1     N 3333   4.151   1.784  12.147 -0.1770 -0.0847 -0.1827
  219MPD1    H5 3334   4.080   1.719  12.179 -0.1780  0.6307  1.3057
  219MPD1    N1 3335   4.394   1.981  11.771 -0.2973  0.5930 -0.1228
  219MPD1    H6 3336   4.447   2.021  11.848 -0.2502  1.5499 -0.6528
  219MPD1    H7 3337   4.458   1.947  11.700 -2.2165 -1.3126 -0.9693
  220MPD1     C 3338   4.267   3.004   9.871  0.0137  0.0029 -1.4164
  220MPD1    C1 3339   4.320   2.971   9.992 -1.2031 -0.4477 -1.3186
  220MPD1    C2 3340   4.342   2.834  10.025  0.4208 -0.2720 -0.7700
  220MPD1    C3 3341   4.313   2.740   9.931 -0.1684  0.1414  0.1521
  220MPD1    C4 3342   4.270   2.780   9.804 -0.4054 -0.6179  0.2721
  220MPD1    C5 3343   4.249   2.916   9.773 -0.8032 -0.7430 -0.0185
  220MPD1     H 3344   4.382   2.809  10.123  2.3235  2.1050 -0.9213
  220MPD1    H1 3345   4.255   2.712   9.721  2.7410  1.5686 -2.1006
  220MPD1    H2 3346   4.251   3.109   9.849  0.8118  0.3178 -0.5048
  220MPD1    H3 3347   4.210   2.950   9.678 -0.3009 -0.6265 -0.1840
  220MPD1     N 3348   4.347   2.608   9.959 -0.8238  0.3020  0.1770
  220MPD1    H5 3349   4.389   2.590  10.050 -0.3331  0.6488  0.0223
  220MPD1    N1 3350   4.319   3.064  10.093  0.0375  0.2486  0.0491
  220MPD1    H6 3351   4.380   3.034  10.169  0.5247 -0.9094 -0.8054
  220MPD1    H7 3352   4.350   3.155  10.060 -4.9231  2.8595  2.4618
  221MPD1     C 3353   2.479   0.297  17.246  0.2460 -0.0105  0.6472
  221MPD1    C1 3354   2.508   0.425  17.211 -0.3545  0.3759  0.0977
  221MPD1    C2 3355   2.520   0.457  17.079 -0.0044  0.7590  0.2434
  221MPD1    C3 3356   2.490   0.371  16.980 -0.8281  0.0008  0.3003
  221MPD1    C4 3357   2.439   0.244  17.016  0.3817  0.5145  0.3747
  221MPD1    C5 3358   2.441   0.208  17.149  0.2669  0.1871  0.4833
  221MPD1     H 3359   2.560   0.555  17.060  0.8664  0.4585  0.5256
  221MPD1    H1 3360   2.399   0.181  16.939 -0.3691  1.7227 -0.2204
  221MPD1    H2 3361   2.492   0.262  17.347  0.6104  1.3522  1.0801
  221MPD1    H3 3362   2.424   0.104  17.177  0.0206  0.5961  1.8520
  221MPD1     N 3363   2.485   0.403  16.843 -0.0171 -0.5138  0.1194
  221MPD1    H5 3364   2.465   0.329  16.776  1.1074  1.5680 -2.5272
  221MPD1    N1 3365   2.570   0.512  17.301  0.1782 -0.1567 -0.0484
  221MPD1    H6 3366   2.541   0.495  17.397 -1.1162 -0.9597 -0.5832
  221MPD1    H7 3367   2.567   0.608  17.268 -3.3602 -0.4601 -0.6454
  222MPD1     C 3368   2.401   4.171   0.458 -0.6475 -0.0318 -0.0208
  222MPD1    C1 3369   2.397   4.252   0.346  0.4951  0.1518  0.2190
  222MPD1    C2 3370   2.281   4.240   0.266 -0.1058 -0.3039  0.1822
  222MPD1    C3 3371   2.181   4.152   0.298  0.0093 -0.3914  0.6230
  222MPD1    C4 3372   2.197   4.062   0.395 -0.2727  0.5968  0.3151
  222MPD1    C5 3373   2.307   4.072   0.479 -0.1326  0.4963 -0.0820
  222MPD1     H 3374   2.284   4.301   0.176 -1.0794 -0.0018  0.3548
  222MPD1    H1 3375   2.129   3.980   0.411  2.6846 -2.1000 -0.9089
  222MPD1    H2 3376   2.486   4.185   0.523 -0.9300  1.2780  0.0600
  222MPD1    H3 3377   2.323   4.013   0.569 -1.5256 -0.1994 -0.2892
  222MPD1     N 3378   2.057   4.141   0.238 -0.2375 -0.2808  0.7668
  222MPD1    H5 3379   1.995   4.067   0.269  0.1070 -0.5146  0.8951
  222MPD1    N1 3380   2.507   4.329   0.303  0.5186 -0.0177  0.0633
  222MPD1    H6 3381   2.469   4.404   0.246  0.0169 -0.6901 -0.4932
  222MPD1    H7 3382   2.546   4.377   0.384  0.2490  1.0045 -0.4104
  223MPD1     C 3383   1.525   3.464   0.193 -0.2301 -0.0766  0.1789
  223MPD1    C1 3384   1.447   3.553   0.131  0.1345 -0.7315 -0.0851
  223MPD1    C2 3385   1.489   3.690   0.124  0.3490  0.3273 -0.6808
  223MPD1    C3 3386   1.620   3.723   0.159 -0.4329 -0.2949  0.3463
  223MPD1    C4 3387   1.699   3.629   0.215  0.2407  0.4797  0.1177
  223MPD1    C5 3388   1.654   3.504   0.224  0.1277 -0.4766  0.0835
  223MPD1     H 3389   1.416   3.749   0.069 -0.7876 -0.1136  0.3561
  223MPD1    H1 3390   1.803   3.652   0.237  0.0293  2.0781 -0.5134
  223MPD1    H2 3391   1.495   3.360   0.206  1.7938 -0.5033  1.4079
  223MPD1    H3 3392   1.716   3.433   0.277  0.9784 -0.4983 -0.9372
  223MPD1     N 3393   1.673   3.850   0.143 -0.0021 -0.3779 -0.2654
  223MPD1    H5 3394   1.769   3.859   0.175  0.5702 -0.6650 -1.8967
  223MPD1    N1 3395   1.317   3.513   0.090  0.5616 -0.2477  0.0497
  223MPD1    H6 3396   1.281   3.582   0.024 -0.8272 -1.8156 -0.8370
  223MPD1    H7 3397   1.298   3.421   0.050 -1.8018 -0.1535  0.9848
  224MPD1     C 3398   3.555   1.401   9.263 -0.2601 -0.3364  0.5255
  224MPD1    C1 3399   3.471   1.497   9.307  0.1295 -0.1412  0.8018
  224MPD1    C2 3400   3.371   1.466   9.399 -0.1896 -0.2077 -0.6571
  224MPD1    C3 3401   3.365   1.339   9.449 -0.3262 -0.1851 -0.0726
  224MPD1    C4 3402   3.442   1.242   9.394  0.0775  0.4086  0.5836
  224MPD1    C5 3403   3.537   1.272   9.299  0.6333 -0.3667  0.0795
  224MPD1     H 3404   3.310   1.552   9.423 -0.0470 -0.7639  1.6675
  224MPD1    H1 3405   3.436   1.138   9.424 -0.3233  0.0092 -0.8559
  224MPD1    H2 3406   3.620   1.427   9.181 -2.4473 -2.4625 -1.8950
  224MPD1    H3 3407   3.600   1.188   9.271 -0.9511 -1.6395  0.3128
  224MPD1     N 3408   3.271   1.291   9.544 -0.3779 -0.5153  0.3226
  224MPD1    H5 3409   3.272   1.193   9.570 -1.4497 -1.1272 -1.9532
  224MPD1    N1 3410   3.485   1.627   9.258 -0.2458  0.4436  0.0675
  224MPD1    H6 3411   3.555   1.634   9.184  0.7333 -2.4429  0.7402
  224MPD1    H7 3412   3.399   1.682   9.258  1.4062  3.0604 -0.8535
  225MPD1     C 3413   3.606   2.781  13.111 -0.0965  0.2203  0.2425
  225MPD1    C1 3414   3.491   2.721  13.060  0.8807 -0.3405 -0.0261
  225MPD1    C2 3415   3.503   2.691  12.926 -0.0071 -0.4948  0.6434
  225MPD1    C3 3416   3.621   2.701  12.852  0.5812  0.0298  0.2759
  225MPD1    C4 3417   3.723   2.762  12.912 -0.5764 -0.3980  0.1591
  225MPD1    C5 3418   3.721   2.805  13.039 -1.2981  1.2465  0.1537
  225MPD1     H 3419   3.421   2.644  12.873 -0.8384  1.8756 -0.1801
  225MPD1    H1 3420   3.813   2.772  12.852 -0.7079  2.7440  0.4761
  225MPD1    H2 3421   3.614   2.798  13.217  0.3924 -1.2135  0.4364
  225MPD1    H3 3422   3.818   2.832  13.080 -0.4859 -2.0511  0.4648
  225MPD1     N 3423   3.625   2.675  12.717  0.2883  0.1595 -0.3099
  225MPD1    H5 3424   3.711   2.702  12.670 -0.3451 -0.0249 -1.5703
  225MPD1    N1 3425   3.376   2.692  13.135 -0.5632 -0.3465 -0.1307
  225MPD1    H6 3426   3.356   2.754  13.213  2.2693 -0.1405  0.4105
  225MPD1    H7 3427   3.291   2.679  13.079 -0.3994 -1.6476 -0.0727
  226MPD1     C 3428   2.855   2.986   8.961 -0.3878  1.2099  0.1297
  226MPD1    C1 3429   2.799   2.862   8.974  0.7452  0.3527 -0.0757
  226MPD1    C2 3430   2.855   2.774   9.074 -0.2349 -0.1876 -0.0435
  226MPD1    C3 3431   2.955   2.814   9.159 -0.2384  0.7477 -0.8171
  226MPD1    C4 3432   3.001   2.952   9.144  0.5310 -0.3574  0.2336
  226MPD1    C5 3433   2.948   3.028   9.050  0.1083 -0.6861  0.6971
  226MPD1     H 3434   2.800   2.681   9.081  1.2659 -1.0822  0.0320
  226MPD1    H1 3435   3.077   3.002   9.202  1.0047  0.0061 -0.7103
  226MPD1    H2 3436   2.816   3.065   8.899  0.9688  1.2550 -0.6582
  226MPD1    H3 3437   2.978   3.132   9.050  0.0024 -0.6499 -1.1701
  226MPD1     N 3438   2.994   2.728   9.263  1.0212 -0.2778 -0.2123
  226MPD1    H5 3439   2.939   2.644   9.274  2.1769 -0.9325  0.5072
  226MPD1    N1 3440   2.703   2.816   8.876 -0.4658 -0.3394  0.3972
  226MPD1    H6 3441   2.641   2.883   8.831  1.6724  0.1701 -1.8421
  226MPD1    H7 3442   2.643   2.747   8.919 -1.1682 -1.3164 -2.1567
  227MPD1     C 3443   3.921   2.557   9.776 -0.0106  0.2635 -0.3723
  227MPD1    C1 3444   3.867   2.432   9.743 -0.3862  0.5020  0.2381
  227MPD1    C2 3445   3.732   2.424   9.712  0.4866  0.2615 -0.8311
  227MPD1    C3 3446   3.650   2.538   9.722 -0.4787  0.5884  0.2932
  227MPD1    C4 3447   3.700   2.660   9.767 -0.4383 -0.0908 -0.3952
  227MPD1    C5 3448   3.832   2.660   9.784  0.1450  0.0507  0.5527
  227MPD1     H 3449   3.685   2.330   9.686 -0.6982  0.9639 -1.2585
  227MPD1    H1 3450   3.646   2.753   9.783 -2.1388 -1.1555  0.0588
  227MPD1    H2 3451   4.021   2.596   9.794  0.0597 -0.0178 -0.1562
  227MPD1    H3 3452   3.883   2.748   9.823  1.0281 -0.0430 -0.3876
  227MPD1     N 3453   3.516   2.523   9.675  0.2329  0.4365 -0.0196
  227MPD1    H5 3454   3.485   2.429   9.654  2.6376 -0.3591 -0.0695
  227MPD1    N1 3455   3.957   2.334   9.702 -0.1937 -0.2616  0.2693
  227MPD1    H6 3456   3.911   2.245   9.720 -1.7296  0.7108  1.1589
  227MPD1    H7 3457   4.044   2.347   9.752 -0.6118 -0.6110  1.0843
  228MPD1     C 3458   0.496   0.322  13.420  0.5367 -0.8021 -0.6239
  228MPD1    C1 3459   0.462   0.382  13.302 -0.2739  0.3357  0.6286
  228MPD1    C2 3460   0.392   0.305  13.207 -0.4007 -0.5446 -0.3400
  228MPD1    C3 3461   0.357   0.172  13.236  0.0314  0.4356  0.2300
  228MPD1    C4 3462   0.407   0.113  13.350 -0.6248 -0.2913 -0.1834
  228MPD1    C5 3463   0.471   0.188  13.439  0.2245  0.4727 -0.4959
  228MPD1     H 3464   0.368   0.352  13.112 -0.4639  0.5464  0.2136
  228MPD1    H1 3465   0.383   0.015  13.388 -0.2933  0.2799  1.4904
  228MPD1    H2 3466   0.546   0.373  13.501 -0.7042 -0.3201 -0.1555
  228MPD1    H3 3467   0.493   0.137  13.532 -0.2562  1.8569  0.3846
  228MPD1     N 3468   0.273   0.105  13.143  0.5799  0.1988  0.1033
  228MPD1    H5 3469   0.245   0.156  13.060  1.5476  0.2417 -0.2055
  228MPD1    N1 3470   0.511   0.518  13.275 -0.1222  0.5362  0.1107
  228MPD1    H6 3471   0.532   0.564  13.363 -1.4175 -0.0876  0.7423
  228MPD1    H7 3472   0.447   0.572  13.216 -0.3186  0.2976  0.1049
  229MPD1     C 3473   4.286   3.550  14.641 -0.4583  0.0907  0.4484
  229MPD1    C1 3474   4.298   3.617  14.761 -0.8173  0.0799  0.0132
  229MPD1    C2 3475   4.378   3.561  14.853  0.7150 -0.4091 -0.0713
  229MPD1    C3 3476   4.429   3.432  14.834  0.0025  0.1357  0.0929
  229MPD1    C4 3477   4.412   3.369  14.718  0.4046 -0.0102 -0.2501
  229MPD1    C5 3478   4.332   3.427  14.621 -0.2498  0.2593 -0.0919
  229MPD1     H 3479   4.394   3.619  14.944 -3.7802  0.5817  0.0544
  229MPD1    H1 3480   4.461   3.273  14.704 -0.4657 -0.5342  0.2953
  229MPD1    H2 3481   4.238   3.594  14.554 -0.9225  0.9425  1.1404
  229MPD1    H3 3482   4.303   3.384  14.526 -0.7617  0.9151 -0.2351
  229MPD1     N 3483   4.517   3.365  14.926  0.5071 -0.4188 -0.3070
  229MPD1    H5 3484   4.578   3.293  14.890  1.4202 -0.6779  1.7594
  229MPD1    N1 3485   4.264   3.754  14.776  0.4540  0.1307 -0.0779
  229MPD1    H6 3486   4.189   3.786  14.715  0.6018  0.0252 -0.3179
  229MPD1    H7 3487   4.232   3.775  14.870  1.7942 -2.0713  0.8719
  230MPD1     C 3488   0.492   3.472  15.754 -0.5203 -0.4703 -0.4354
  230MPD1    C1 3489   0.523   3.352  15.698  0.4402  0.3910 -0.0554
  230MPD1    C2 3490   0.430   3.307  15.599  0.2680 -0.1062  0.0549
  230MPD1    C3 3491   0.324   3.380  15.558 -0.7580  0.2666 -0.4172
  230MPD1    C4 3492   0.303   3.506  15.614  0.0739  0.0480  0.2816
  230MPD1    C5 3493   0.390   3.548  15.711  0.4210 -0.0848  0.6185
  230MPD1     H 3494   0.442   3.208  15.558 -3.9452  0.1164 -1.6252
  230MPD1    H1 3495   0.219   3.568  15.586  0.7835  0.8019 -0.1890
  230MPD1    H2 3496   0.547   3.506  15.841 -1.8156 -1.2508  0.6886
  230MPD1    H3 3497   0.365   3.640  15.763 -0.1397 -0.3928  0.8982
  230MPD1     N 3498   0.251   3.336  15.449 -0.1728  0.0281 -0.2486
  230MPD1    H5 3499   0.295   3.256  15.405 -0.4726 -0.8883  1.0943
  230MPD1    N1 3500   0.635   3.288  15.737 -0.4711 -0.0782  0.7603
  230MPD1    H6 3501   0.663   3.212  15.675  1.3157  1.0258  0.1913
  230MPD1    H7 3502   0.716   3.350  15.743  0.5650 -1.5569  1.9102
  231MPD1     C 3503   3.630   1.256  15.555  0.0022  0.5940  0.2390
  231MPD1    C1 3504   3.582   1.183  15.446  0.0868  0.3280  0.7691
  231MPD1    C2 3505   3.649   1.197  15.324  0.4172  0.2876  0.2069
  231MPD1    C3 3506   3.743   1.293  15.307  0.4638  0.0860  0.0454
  231MPD1    C4 3507   3.789   1.369  15.412  0.5757  0.0026  0.0595
  231MPD1    C5 3508   3.735   1.339  15.534 -0.4313 -0.1132 -0.0244
  231MPD1     H 3509   3.619   1.136  15.239 -0.1033 -1.5799  1.7286
  231MPD1    H1 3510   3.871   1.440  15.404  2.2103 -1.6173  2.3804
  231MPD1    H2 3511   3.579   1.252  15.650 -0.6569 -4.3692 -0.3104
  231MPD1    H3 3512   3.779   1.387  15.621  0.5543 -0.4063 -0.3559
  231MPD1     N 3513   3.790   1.305  15.175  0.5087  0.2153 -0.2528
  231MPD1    H5 3514   3.755   1.236  15.110  0.1458 -0.2137  0.3962
  231MPD1    N1 3515   3.490   1.080  15.469 -0.1185  0.5738  0.2687
  231MPD1    H6 3516   3.418   1.054  15.401 -0.8978  0.6362  1.0621
  231MPD1    H7 3517   3.429   1.100  15.548  0.2681 -0.8015  0.9167
  232MPD1     C 3518   0.812   4.403  17.590 -0.3911  0.6846  0.6577
  232MPD1    C1 3519   0.842   4.440   0.022  0.0323  0.6476 -0.3241
  232MPD1    C2 3520   0.772   4.389   0.124  0.3919  0.3858 -0.2621
  232MPD1    C3 3521   0.661   4.302   0.106  0.4338 -0.3627  0.5100
  232MPD1    C4 3522   0.630   4.267  17.674  0.2405 -0.4751  0.2910
  232MPD1    C5 3523   0.703   4.315  17.566  0.2186 -0.5177  0.6242
  232MPD1     H 3524   0.812   4.411   0.222 -1.1818 -4.0635  1.3718
  232MPD1    H1 3525   0.559   4.192  17.640  1.1500 -1.1945 -0.0375
  232MPD1    H2 3526   0.874   4.446  17.513 -0.2553 -0.4875  0.1045
  232MPD1    H3 3527   0.662   4.293  17.468  0.4689  0.3126  0.3331
  232MPD1     N 3528   0.582   4.250   0.207  0.3976 -0.1055  0.1684
  232MPD1    H5 3529   0.495   4.205   0.183  1.0486 -2.1363  1.6037
  232MPD1    N1 3530   0.935   4.546   0.037 -0.1947  0.1156  0.1908
  232MPD1    H6 3531   0.980   4.543   0.128 -1.5873  0.4827  0.8933
  232MPD1    H7 3532   1.012   4.541  17.666  0.8231 -0.9435  1.4885
  233MPD1     C 3533   0.707   1.929   2.018 -0.5434 -0.1662  0.3327
  233MPD1    C1 3534   0.709   1.793   2.004 -0.3357  0.3032 -0.0336
  233MPD1    C2 3535   0.805   1.731   1.918  0.0727 -0.7435 -0.2771
  233MPD1    C3 3536   0.889   1.808   1.847  0.1692  0.0894  0.0458
  233MPD1    C4 3537   0.880   1.946   1.846 -0.1035 -0.3743  0.2087
  233MPD1    C5 3538   0.790   1.999   1.934  0.3311 -0.0176 -0.2265
  233MPD1     H 3539   0.820   1.624   1.921 -0.7244 -0.8048  1.5266
  233MPD1    H1 3540   0.943   2.011   1.788 -0.7271  0.7863  0.8393
  233MPD1    H2 3541   0.634   1.989   2.071 -1.1795  0.4938 -1.2660
  233MPD1    H3 3542   0.781   2.107   1.943 -0.1301 -0.1024  0.3038
  233MPD1     N 3543   0.986   1.750   1.760 -0.4172  0.6075 -1.0161
  233MPD1    H5 3544   1.046   1.815   1.711 -0.0520  1.6606  0.8342
  233MPD1    N1 3545   0.618   1.725   2.086  0.6280 -0.7492 -0.5632
  233MPD1    H6 3546   0.595   1.637   2.041  2.8484 -0.3825 -2.4448
  233MPD1    H7 3547   0.532   1.778   2.096 -0.2259 -2.2939  0.2643
  234MPD1     C 3548   3.649   4.286  10.116  0.2740 -0.1035  0.6749
  234MPD1    C1 3549   3.599   4.380  10.196 -0.3449 -0.4025  0.4135
  234MPD1    C2 3550   3.580   4.507  10.143  0.2354 -0.3447  0.0246
  234MPD1    C3 3551   3.599   4.540  10.010  0.8027  0.0357  0.6084
  234MPD1    C4 3552   3.635   4.433   9.929 -0.0574  0.3360  0.0913
  234MPD1    C5 3553   3.656   4.313   9.979 -0.3332  0.2300  0.2715
  234MPD1     H 3554   3.554   4.588  10.209 -0.4698  0.0621 -0.7488
  234MPD1    H1 3555   3.645   4.441   9.822  1.0787 -0.2837  0.1538
  234MPD1    H2 3556   3.692   4.193  10.151  0.7697  0.5664  1.8393
  234MPD1    H3 3557   3.692   4.235   9.914 -2.1968  0.9189 -1.5963
  234MPD1     N 3558   3.560   4.664   9.972 -0.6584 -0.1204  0.1474
  234MPD1    H5 3559   3.490   4.706  10.032  0.2906 -0.6181  1.6106
  234MPD1    N1 3560   3.590   4.359  10.333 -0.6926  0.8930  0.4960
  234MPD1    H6 3561   3.579   4.259  10.353 -0.5767  0.5569 -1.1148
  234MPD1    H7 3562   3.506   4.404  10.370 -0.2053 -0.2323  2.9410
  235MPD1     C 3563   0.241   2.601  10.381  0.5815  0.0773 -0.7875
  235MPD1    C1 3564   0.209   2.655  10.262  1.0781  0.2677  0.5108
  235MPD1    C2 3565   0.303   2.732  10.208 -0.2534  0.1186  0.5467
  235MPD1    C3 3566   0.430   2.756  10.262  0.9828 -0.2469  0.5146
  235MPD1    C4 3567   0.465   2.689  10.374  0.0553  0.2696 -0.0658
  235MPD1    C5 3568   0.367   2.608  10.434  0.2239 -0.7189 -0.2648
  235MPD1     H 3569   0.278   2.785  10.117  1.5991 -1.2130 -0.7318
  235MPD1    H1 3570   0.567   2.701  10.411 -0.7952  1.4688  1.8828
  235MPD1    H2 3571   0.160   2.556  10.437  1.5572  0.4699  0.9592
  235MPD1    H3 3572   0.385   2.575  10.535 -0.1121  0.9257  0.3353
  235MPD1     N 3573   0.516   2.839  10.189 -0.6698  0.3774 -0.0832
  235MPD1    H5 3574   0.489   2.864  10.095 -0.6203  2.7795  0.5222
  235MPD1    N1 3575   0.084   2.643  10.211  0.1394  0.1138 -0.2402
  235MPD1    H6 3576   0.091   2.640  10.109 -2.4719  0.4947 -0.4269
  235MPD1    H7 3577   0.040   2.554  10.237 -1.5295  1.0571  0.1423
  236MPD1     C 3578   0.006   3.448  10.311  0.0539 -0.2541  0.0006
  236MPD1    C1 3579   4.689   3.319  10.343  0.3003 -0.1563 -0.2701
  236MPD1    C2 3580   0.009   3.262  10.462 -0.0197  0.5437 -0.2577
  236MPD1    C3 3581   0.085   3.333  10.554  0.2198 -0.9271  0.9182
  236MPD1    C4 3582   0.139   3.455  10.516 -0.4201  0.0121  0.2900
  236MPD1    C5 3583   0.094   3.510  10.399 -0.4494  0.5787 -0.6709
  236MPD1     H 3584   0.005   3.154  10.469 -0.4151  0.4422 -2.1769
  236MPD1    H1 3585   0.207   3.513  10.577 -0.0701  2.1439 -2.1449
  236MPD1    H2 3586   4.713   3.493  10.214 -1.7701 -3.4993 -1.2199
  236MPD1    H3 3587   0.108   3.615  10.377 -0.2557  0.7139  0.1061
  236MPD1     N 3588   0.131   3.273  10.671 -0.5864  0.3650  0.2038
  236MPD1    H5 3589   0.191   3.334  10.726  0.9152  1.7737 -2.9381
  236MPD1    N1 3590   4.634   3.240  10.244  0.3868  0.1462  0.3355
  236MPD1    H6 3591   4.568   3.174  10.283 -0.6307  0.8699 -0.1649
  236MPD1    H7 3592   4.588   3.300  10.176 -0.8997  0.8426  1.8250
  237MPD1     C 3593   3.408   3.090  15.354 -0.2176  0.0864  0.1851
  237MPD1    C1 3594   3.497   2.983  15.367 -0.4258 -0.8911 -0.0808
  237MPD1    C2 3595   3.447   2.852  15.348 -0.5913  0.7768  0.5733
  237MPD1    C3 3596   3.314   2.841  15.319  0.3795 -0.4841  0.6001
  237MPD1    C4 3597   3.232   2.942  15.285  0.3074 -0.5083 -0.1130
  237MPD1    C5 3598   3.277   3.072  15.308  0.1141  0.3153  0.9512
  237MPD1     H 3599   3.516   2.772  15.369 -1.2257 -0.4776 -2.1345
  237MPD1    H1 3600   3.131   2.933  15.245 -0.7283 -1.1074  2.6230
  237MPD1    H2 3601   3.434   3.195  15.368  2.4940 -0.6972  0.9936
  237MPD1    H3 3602   3.211   3.153  15.280 -0.2394  0.6051  2.6178
  237MPD1     N 3603   3.253   2.709  15.308  0.5795 -0.1516 -0.2000
  237MPD1    H5 3604   3.161   2.699  15.265 -0.7329 -0.1232  2.5765
  237MPD1    N1 3605   3.626   3.011  15.419 -0.7178 -0.4485  0.1657
  237MPD1    H6 3606   3.645   3.106  15.390  0.5238 -0.1875  1.7994
  237MPD1    H7 3607   3.699   2.942  15.400 -0.3653  0.1801 -0.7850
  238MPD1     C 3608   0.476   0.494  15.325 -0.3157 -0.5576  0.0267
  238MPD1    C1 3609   0.497   0.483  15.187 -0.0038 -0.2237  0.2197
  238MPD1    C2 3610   0.395   0.520  15.096  0.0384  0.3881 -0.3640
  238MPD1    C3 3611   0.265   0.539  15.156  0.0586  0.1837  0.0438
  238MPD1    C4 3612   0.251   0.534  15.290  0.0697 -0.1405  0.4420
  238MPD1    C5 3613   0.352   0.513  15.379 -0.3029 -0.3126  0.1005
  238MPD1     H 3614   0.411   0.505  14.990  1.3159  1.2495 -0.2898
  238MPD1    H1 3615   0.159   0.565  15.338 -0.1212  2.1967 -1.4324
  238MPD1    H2 3616   0.557   0.485  15.395 -0.6423  0.8077  0.5746
  238MPD1    H3 3617   0.329   0.514  15.485  1.4472  1.1721  0.4546
  238MPD1     N 3618   0.148   0.555  15.086 -0.6514 -0.5620  0.1912
  238MPD1    H5 3619   0.066   0.540  15.143 -0.7578  2.0735  0.7623
  238MPD1    N1 3620   0.625   0.463  15.142 -0.2164 -0.6934  0.0693
  238MPD1    H6 3621   0.669   0.396  15.205 -1.3916 -0.9031  0.6751
  238MPD1    H7 3622   0.629   0.429  15.046 -0.2620  0.1527 -0.2364
  239MPD1     C 3623   0.938   1.798  15.130 -1.0204 -0.0694  0.0324
  239MPD1    C1 3624   1.043   1.790  15.051  0.3393 -0.6843  0.0156
  239MPD1    C2 3625   1.013   1.773  14.913  0.4919  0.3486 -0.2442
  239MPD1    C3 3626   0.885   1.773  14.861 -0.2487 -0.3087  0.2153
  239MPD1    C4 3627   0.780   1.798  14.952 -0.3960 -0.5760 -0.0346
  239MPD1    C5 3628   0.811   1.808  15.082 -0.7599 -0.3802  0.0803
  239MPD1     H 3629   1.100   1.763  14.849  1.3328 -0.2831  1.0033
  239MPD1    H1 3630   0.675   1.802  14.927 -1.0661 -1.6738  2.7432
  239MPD1    H2 3631   0.960   1.836  15.229 -1.2718 -0.2652  0.1625
  239MPD1    H3 3632   0.733   1.818  15.157 -0.4556 -3.1458  0.7506
  239MPD1     N 3633   0.849   1.760  14.725 -0.1098  0.5117  0.3321
  239MPD1    H5 3634   0.753   1.781  14.700  0.6616  1.4822 -1.7360
  239MPD1    N1 3635   1.166   1.755  15.104 -0.3927 -0.1047 -0.6032
  239MPD1    H6 3636   1.183   1.810  15.188 -0.9026  1.2322 -1.3589
  239MPD1    H7 3637   1.241   1.753  15.034  0.6717  0.7276  0.5127
  240MPD1     C 3638   4.561   1.880  13.781  0.2246 -0.6692  1.1638
  240MPD1    C1 3639   4.539   1.802  13.895 -0.8172 -0.3997 -0.5782
  240MPD1    C2 3640   4.506   1.674  13.876  0.3087  0.1207 -0.0883
  240MPD1    C3 3641   4.509   1.609  13.753  1.1005 -0.0431  0.0082
  240MPD1    C4 3642   4.517   1.692  13.636 -0.0468  0.5280 -0.4680
  240MPD1    C5 3643   4.547   1.827  13.660 -0.5063  0.0621  0.1914
  240MPD1     H 3644   4.495   1.612  13.964  1.2330 -1.7541 -1.2946
  240MPD1    H1 3645   4.523   1.653  13.535 -0.6149  0.7801 -0.5956
  240MPD1    H2 3646   4.607   1.978  13.793 -0.3758 -0.5780  2.7778
  240MPD1    H3 3647   4.577   1.882  13.571  0.6998 -3.1042 -1.3566
  240MPD1     N 3648   4.499   1.467  13.759  0.6802 -0.0956  0.4377
  240MPD1    H5 3649   4.485   1.419  13.848  1.3047 -0.2086  0.4744
  240MPD1    N1 3650   4.534   1.857  14.024 -0.0880 -0.1740  0.4745
  240MPD1    H6 3651   4.559   1.788  14.095 -1.4250 -0.0586  1.0427
  240MPD1    H7 3652   4.600   1.933  14.041 -2.5575  1.8899  0.7863
  241MPD1     C 3653   0.071   0.564  13.301 -0.5485 -0.3071  0.4731
  241MPD1    C1 3654   0.126   0.605  13.425 -0.0135 -0.1851 -0.0212
  241MPD1    C2 3655   0.068   0.704  13.490 -1.2105  0.7214  0.0094
  241MPD1    C3 3656   4.690   0.783  13.438 -0.4682  0.2581  0.6146
  241MPD1    C4 3657   4.640   0.751  13.312  0.6884  0.9577  0.1003
  241MPD1    C5 3658   4.699   0.642  13.246 -0.0696  0.6455 -0.6852
  241MPD1     H 3659   0.103   0.719  13.592 -0.6530 -0.5868  0.0111
  241MPD1    H1 3660   4.553   0.803  13.273 -1.8950 -2.5009  1.2394
  241MPD1    H2 3661   0.111   0.478  13.248 -0.1541 -0.2129  0.6252
  241MPD1    H3 3662   4.662   0.608  13.150  0.4308 -0.4060 -0.5119
  241MPD1     N 3663   4.608   0.886  13.503 -0.3723 -0.0246 -0.2938
  241MPD1    H5 3664   4.530   0.927  13.453 -0.5118 -1.9778 -1.6503
  241MPD1    N1 3665   0.237   0.537  13.483 -0.6736 -0.0588 -0.2187
  241MPD1    H6 3666   0.304   0.515  13.410  1.1477  0.0986  1.4014
  241MPD1    H7 3667   0.275   0.584  13.565 -2.0965  0.3167  0.2258
  242MPD1     C 3668   3.947   4.064  16.160  0.5110 -0.2690 -0.1837
  242MPD1    C1 3669   3.916   4.184  16.096 -0.0592  0.3596  0.5072
  242MPD1    C2 3670   3.943   4.192  15.962  0.2201  1.1568  0.7807
  242MPD1    C3 3671   3.993   4.087  15.887  0.0818 -0.4486  0.9166
  242MPD1    C4 3672   4.036   3.970  15.955  0.2492 -0.0606 -0.7260
  242MPD1    C5 3673   4.011   3.962  16.089 -0.1068 -0.4105  0.4707
  242MPD1     H 3674   3.939   4.284  15.906  1.4925  0.9087  0.2861
  242MPD1    H1 3675   4.078   3.888  15.897  2.3395 -1.6402  3.0208
  242MPD1    H2 3676   3.922   4.063  16.265  2.0068  1.5864  0.1863
  242MPD1    H3 3677   4.026   3.872  16.147 -1.5538 -1.9069 -1.4929
  242MPD1     N 3678   4.027   4.097  15.745 -0.3968  0.0111  0.1358
  242MPD1    H5 3679   4.080   4.021  15.704  0.8171  1.4032 -0.8052
  242MPD1    N1 3680   3.838   4.284  16.154 -0.0612  0.0102  0.4295
  242MPD1    H6 3681   3.838   4.374  16.106  1.8648 -0.7938 -1.0785
  242MPD1    H7 3682   3.875   4.303  16.247 -0.2401 -0.8172  0.6635
  243MPD1     C 3683   0.287   3.176   0.330 -0.2092  0.5010 -0.1915
  243MPD1    C1 3684   0.426   3.163   0.356 -0.3657 -0.1285 -0.1205
  243MPD1    C2 3685   0.491   3.070   0.278  0.1112  0.2277  0.3509
  243MPD1    C3 3686   0.417   2.981   0.201  0.5731 -0.8788  0.3275
  243MPD1    C4 3687   0.282   2.990   0.181 -0.3462 -0.5527 -0.2494
  243MPD1    C5 3688   0.220   3.093   0.253 -0.8468 -0.3133 -0.8719
  243MPD1     H 3689   0.599   3.061   0.275  0.0778 -0.5902  1.5417
  243MPD1    H1 3690   0.221   2.928   0.117  0.2610  0.4244 -1.7840
  243MPD1    H2 3691   0.218   3.239   0.385 -2.6501  0.8869 -3.7224
  243MPD1    H3 3692   0.112   3.090   0.247 -0.8818  1.7529 -1.2007
  243MPD1     N 3693   0.496   2.886   0.132  0.6560 -0.0801  0.3914
  243MPD1    H5 3694   0.595   2.868   0.147  0.2409 -2.9903 -0.4826
  243MPD1    N1 3695   0.495   3.253   0.438 -0.0326 -0.4031  0.0120
  243MPD1    H6 3696   0.588   3.224   0.467  0.4643 -0.1378 -1.3247
  243MPD1    H7 3697   0.438   3.301   0.509  0.8631  1.1568 -0.3116
  244MPD1     C 3698   1.107   2.451   0.483  0.0354 -0.5954 -0.1663
  244MPD1    C1 3699   1.031   2.569   0.502  0.4833  0.3109 -0.0890
  244MPD1    C2 3700   0.937   2.598   0.405  0.1593 -0.0228 -0.0815
  244MPD1    C3 3701   0.923   2.529   0.286  0.6111 -0.3968 -0.1698
  244MPD1    C4 3702   1.012   2.424   0.260  0.0291 -0.2515  0.2609
  244MPD1    C5 3703   1.088   2.382   0.369  0.1163 -0.5435 -0.3313
  244MPD1     H 3704   0.864   2.674   0.433 -0.6048 -0.7338 -0.1672
  244MPD1    H1 3705   1.023   2.375   0.164  1.4264 -0.5696  0.5812
  244MPD1    H2 3706   1.166   2.398   0.557  1.3148  0.0924 -0.6913
  244MPD1    H3 3707   1.151   2.293   0.372  1.2465  0.2400 -0.7272
  244MPD1     N 3708   0.835   2.582   0.192  0.7221 -0.0854  0.4382
  244MPD1    H5 3709   0.774   2.661   0.212 -0.2669 -0.6866 -0.2206
  244MPD1    N1 3710   1.027   2.645   0.621  0.1886 -0.2432  0.5828
  244MPD1    H6 3711   1.114   2.652   0.674  0.3039  0.8453  0.2627
  244MPD1    H7 3712   0.990   2.740   0.611 -1.5491 -1.1483 -1.5371
  245MPD1     C 3713   3.693   3.575  13.003 -0.6096 -0.5153  0.2858
  245MPD1    C1 3714   3.787   3.672  13.037  0.5223 -0.3316  0.4573
  245MPD1    C2 3715   3.764   3.748  13.146  0.4776  0.0175 -0.0767
  245MPD1    C3 3716   3.672   3.707  13.238 -0.2298 -0.9690 -0.2692
  245MPD1    C4 3717   3.587   3.601  13.218 -0.3958  0.7410 -0.6991
  245MPD1    C5 3718   3.597   3.541  13.093  0.1825 -0.0833 -0.2745
  245MPD1     H 3719   3.834   3.827  13.169 -1.6017  0.9733  2.9344
  245MPD1    H1 3720   3.508   3.574  13.287  0.3243 -0.1451 -0.2158
  245MPD1    H2 3721   3.699   3.512  12.915 -0.8080  0.4029 -0.3829
  245MPD1    H3 3722   3.531   3.455  13.085 -0.0698  0.2696 -2.1518
  245MPD1     N 3723   3.675   3.786  13.353  0.0523  0.2058 -0.5117
  245MPD1    H5 3724   3.748   3.856  13.358 -0.9717  1.0886  1.9797
  245MPD1    N1 3725   3.885   3.704  12.938  0.0516  0.3577  0.2469
  245MPD1    H6 3726   3.920   3.617  12.897  0.7801  0.2124  1.1511
  245MPD1    H7 3727   3.978   3.730  12.972 -0.8478 -1.2540  3.9868
  246MPD1     C 3728   3.863   0.608  10.185  0.4315 -0.3412 -0.1901
  246MPD1    C1 3729   3.865   0.710  10.096 -0.3208  1.0227 -0.3181
  246MPD1    C2 3730   3.960   0.698   9.989  0.1585  0.5766  0.6369
  246MPD1    C3 3731   4.040   0.586   9.973  0.2921 -0.1820  0.0352
  246MPD1    C4 3732   4.030   0.484  10.061 -0.0195  0.2634  0.3101
  246MPD1    C5 3733   3.935   0.497  10.158  0.5586  0.1812 -0.3285
  246MPD1     H 3734   3.968   0.784   9.924  0.6501  0.6413  0.7772
  246MPD1    H1 3735   4.087   0.392  10.060  1.9017  1.4549  1.3910
  246MPD1    H2 3736   3.795   0.599  10.270  2.0154  0.4431  1.1635
  246MPD1    H3 3737   3.913   0.406  10.213 -1.0222  2.1761  2.3720
  246MPD1     N 3738   4.134   0.589   9.870 -0.1636  0.1348 -0.1217
  246MPD1    H5 3739   4.145   0.675   9.816  1.7099  0.7641  1.2779
  246MPD1    N1 3740   3.797   0.828  10.111  0.0016 -0.6451  0.0259
  246MPD1    H6 3741   3.783   0.873  10.020  0.9831 -0.1202  0.1287
  246MPD1    H7 3742   3.707   0.816  10.156  0.4968 -2.3261  0.5582
  247MPD1     C 3743   2.140   3.954  16.706 -0.1597  0.3442  0.8351
  247MPD1    C1 3744   2.167   3.830  16.753  0.0035  0.1657 -0.5430
  247MPD1    C2 3745   2.215   3.737  16.667 -0.2344 -0.4032 -0.3560
  247MPD1    C3 3746   2.263   3.779  16.545  0.0286 -1.0142 -0.2503
  247MPD1    C4 3747   2.249   3.909  16.505  0.4248 -0.1015 -0.1413
  247MPD1    C5 3748   2.182   3.991  16.588  0.5838 -1.3158  0.3956
  247MPD1     H 3749   2.219   3.634  16.700 -3.0159  0.3343  2.3854
  247MPD1    H1 3750   2.280   3.932  16.403  0.6655  1.2832  0.2441
  247MPD1    H2 3751   2.079   4.020  16.767  0.5005  1.0820  0.7061
  247MPD1    H3 3752   2.155   4.085  16.542  0.9317 -1.3314  0.1598
  247MPD1     N 3753   2.317   3.697  16.443 -0.2644 -0.4127  0.1107
  247MPD1    H5 3754   2.331   3.734  16.350 -1.5088 -0.8603 -0.2498
  247MPD1    N1 3755   2.119   3.790  16.878 -0.8518  0.2133  0.6175
  247MPD1    H6 3756   2.181   3.728  16.929 -2.7323 -1.9417  0.3118
  247MPD1    H7 3757   2.093   3.866  16.941 -1.7384  0.0877  0.4109
  248MPD1     C 3758   3.714   3.203  17.566 -0.3397 -0.2062 -0.1161
  248MPD1    C1 3759   3.740   3.138  17.683  0.3084  0.8224  0.1725
  248MPD1    C2 3760   3.633   3.141   0.078 -0.6894  0.3243  0.0433
  248MPD1    C3 3761   3.522   3.222   0.063  0.7828 -0.5641 -0.1129
  248MPD1    C4 3762   3.511   3.299  17.643  0.0812 -0.0794  0.4570
  248MPD1    C5 3763   3.601   3.280  17.546  0.3964 -0.1783 -0.1012
  248MPD1     H 3764   3.640   3.088   0.172  1.9494  3.0548  1.3650
  248MPD1    H1 3765   3.442   3.380  17.622  1.9263  0.8859 -1.8699
  248MPD1    H2 3766   3.792   3.208  17.490  1.0764  2.7457  1.5278
  248MPD1    H3 3767   3.596   3.341  17.457 -0.0465 -0.4105 -0.2333
  248MPD1     N 3768   3.424   3.226   0.163 -0.3771  0.3109  0.0983
  248MPD1    H5 3769   3.425   3.151   0.231 -1.2492 -0.0102 -0.2325
  248MPD1    N1 3770   3.843   3.044   0.008 -0.5536  0.1070  0.2016
  248MPD1    H6 3771   3.928   3.090  17.671  0.0181 -1.3426 -0.3210
  248MPD1    H7 3772   3.850   3.023   0.108  0.5613  2.5213  0.6415
  249MPD1     C 3773   0.736   1.732  10.417  0.3013  0.0203 -0.2611
  249MPD1    C1 3774   0.808   1.838  10.457 -0.4664 -0.2884  0.0164
  249MPD1    C2 3775   0.826   1.938  10.363  0.2464 -0.3252 -0.2758
  249MPD1    C3 3776   0.783   1.925  10.232 -0.0839  0.6932  0.0969
  249MPD1    C4 3777   0.724   1.805  10.191 -0.0855 -0.0455  0.2226
  249MPD1    C5 3778   0.700   1.713  10.285  0.1944 -0.1413 -0.2791
  249MPD1     H 3779   0.881   2.030  10.375  1.8556 -1.2688 -0.4041
  249MPD1    H1 3780   0.699   1.776  10.090  1.3989  1.5527 -0.6055
  249MPD1    H2 3781   0.688   1.660  10.483 -0.7772 -0.3543 -1.4587
  249MPD1    H3 3782   0.660   1.617  10.255  0.8382 -0.2949 -0.6493
  249MPD1     N 3783   0.802   2.039  10.150 -0.0797 -0.2469  0.4833
  249MPD1    H5 3784   0.838   2.127  10.185 -0.9110 -0.1879  1.1555
  249MPD1    N1 3785   0.829   1.866  10.590  0.4061 -1.1030 -0.3010
  249MPD1    H6 3786   0.890   1.946  10.601 -1.3762  0.3450 -0.9866
  249MPD1    H7 3787   0.745   1.895  10.639  0.1107 -1.2745 -0.7106
  250MPD2     C 3788   2.081   2.181  12.433  0.0982  0.6245 -0.3759
  250MPD2    C1 3789   2.012   2.234  12.543 -0.0735 -0.3642 -0.4523
  250MPD2    C2 3790   1.949   2.146  12.628  0.2299  0.4757 -0.1226
  250MPD2    C3 3791   1.975   2.011  12.614 -0.3621 -0.0463  0.3060
  250MPD2    C4 3792   2.058   1.962  12.521 -0.2916 -0.1078 -0.2014
  250MPD2    C5 3793   2.107   2.048  12.420  0.9615  0.0333  0.3545
  250MPD2     H 3794   1.890   2.181  12.712  1.7092 -0.0753  1.1552
  250MPD2    H1 3795   2.080   1.857  12.505 -0.4679 -0.0129 -1.0573
  250MPD2    H2 3796   2.106   2.248  12.351  0.9342  0.8952  0.0950
  250MPD2    H3 3797   2.165   2.009  12.337 -0.4765  0.0035 -0.6355
  250MPD2     N 3798   1.916   1.918  12.701  0.1488 -0.0990 -0.3144
  250MPD2    H5 3799   1.934   1.825  12.663 -0.2984 -0.3114 -0.0095
  250MPD2    N1 3800   2.007   2.372  12.547  0.3428 -0.3990 -0.0609
  250MPD2    H7 3801   2.066   2.419  12.480  1.3037  1.6259  2.1745
  251TMC3    C1 3802   1.978   2.581  12.652 -0.5781 -0.6800  0.3631
  251TMC3    C2 3803   1.894   2.668  12.717  0.5650  0.1993  0.5425
  251TMC3    C3 3804   1.951   2.782  12.761  0.0427 -0.2391  0.1722
  251TMC3    C4 3805   2.115   2.592  12.673 -0.2910  0.0416 -0.0746
  251TMC3    C5 3806   2.168   2.706  12.728 -0.2040  0.2005 -0.1599
  251TMC3    C6 3807   2.085   2.811  12.771 -0.4792 -0.5831  0.0750
  251TMC3     C 3808   1.930   2.441  12.645  0.1492  0.1092  0.1411
  251TMC3     O 3809   1.832   2.401  12.711  0.0753 -0.0091 -0.5497
  251TMC3     H 3810   1.789   2.646  12.733  0.3467  0.7625 -0.1250
  251TMC3    H1 3811   2.187   2.523  12.631 -0.5084 -0.5845  0.5896
  251TMC3    H2 3812   2.128   2.884  12.838  0.4804 -0.7343 -0.3723
  251TMC3    C7 3813   2.289   2.689  12.796 -0.3500  0.2756 -0.6686
  251TMC3    C8 3814   1.856   2.874  12.823  0.4285 -0.0351 -0.4471
  251TMC3    O1 3815   2.307   2.573  12.833 -0.0144  0.1398  0.0899
  251TMC3    O2 3816   1.753   2.824  12.870 -0.8273  0.2092 -0.6968
  252TMC3    C1 3817   2.610   3.161   9.206  0.0226  0.2344  0.1190
  252TMC3    C2 3818   2.647   3.288   9.244 -0.7323 -0.2908 -0.0232
  252TMC3    C3 3819   2.739   3.301   9.350  0.5381 -0.1333  0.7484
  252TMC3    C4 3820   2.639   3.054   9.281 -0.2882 -0.5127 -0.1342
  252TMC3    C5 3821   2.733   3.070   9.380 -0.0529  0.1174 -0.3867
  252TMC3    C6 3822   2.782   3.192   9.418  0.0743 -0.1396 -0.0299
  252TMC3     C 3823   2.529   3.137   9.081  0.4827 -0.3428  0.5320
  252TMC3     O 3824   2.457   3.037   9.073  0.6163  0.6725 -0.9376
  252TMC3     H 3825   2.599   3.374   9.198 -1.3385 -0.7758 -0.3010
  252TMC3    H1 3826   2.610   2.954   9.252  2.3486 -1.6076  0.9338
  252TMC3    H2 3827   2.866   3.201   9.486 -0.5147  3.0881  0.2823
  252TMC3    C7 3828   2.774   2.962   9.464 -0.3542  0.5794  0.4763
  252TMC3    C8 3829   2.770   3.437   9.393  0.6067  0.8685  0.5760
  252TMC3    O1 3830   2.887   2.967   9.515  0.3984  0.7744  0.0741
  252TMC3    O2 3831   2.755   3.527   9.315 -0.2552 -0.5930  0.2141
  253MPD2     C 3832   2.796   2.446  15.658 -0.5791  0.4612 -0.0237
  253MPD2    C1 3833   2.692   2.388  15.583  0.3420  0.0731  0.2638
  253MPD2    C2 3834   2.598   2.310  15.638  0.5704  0.4781 -0.0176
  253MPD2    C3 3835   2.613   2.276  15.777  0.1587  0.4626 -0.3386
  253MPD2    C4 3836   2.723   2.330  15.849 -0.5488 -0.1391 -1.3388
  253MPD2    C5 3837   2.811   2.420  15.792  0.7568 -0.1005 -0.0563
  253MPD2     H 3838   2.518   2.273  15.575  0.2243  1.9735 -0.4548
  253MPD2    H1 3839   2.738   2.302  15.953 -0.8961 -1.5786 -1.6772
  253MPD2    H2 3840   2.863   2.517  15.611  0.4531 -0.1825  0.4548
  253MPD2    H3 3841   2.894   2.456  15.850  0.4242  0.7346 -0.1016
  253MPD2     N 3842   2.519   2.199  15.854 -0.4016 -0.1364  0.2010
  253MPD2    H5 3843   2.541   2.162  15.946 -3.2622 -0.2429  0.8372
  253MPD2    N1 3844   2.669   2.414  15.444  0.1068 -0.3514 -0.4190
  253MPD2    H7 3845   2.590   2.369  15.399 -1.4598  0.4336  1.5159
  254TMC3    C1 3846   2.308   2.095  15.887 -0.2455  1.2128  0.5098
  254TMC3    C2 3847   2.179   2.127  15.900 -0.5459  0.0936 -0.2456
  254TMC3    C3 3848   2.096   2.049  15.978  0.5196  0.1235 -0.3165
  254TMC3    C4 3849   2.363   1.989  15.968  0.4639 -0.1142 -0.3465
  254TMC3    C5 3850   2.276   1.918  16.043  0.5686  0.0623  1.1465
  254TMC3    C6 3851   2.144   1.942  16.050  0.2870 -0.1233  0.6108
  254TMC3     C 3852   2.390   2.184  15.811 -0.4533 -0.6310 -0.4009
  254TMC3     O 3853   2.334   2.249  15.723 -0.0712  0.4583  0.4009
  254TMC3     H 3854   2.133   2.212  15.853 -1.8999  1.4382  3.5337
  254TMC3    H1 3855   2.469   1.966  15.971  0.5282  0.2451  0.1111
  254TMC3    H2 3856   2.081   1.895  16.124 -1.5718  1.8157  0.2755
  254TMC3    C7 3857   2.326   1.801  16.117 -0.1129 -0.0612 -0.1735
  254TMC3    C8 3858   1.958   2.099  16.009 -0.2990  0.0125 -0.3876
  254TMC3    O1 3859   2.448   1.791  16.124  0.5824  0.1263 -0.4217
  254TMC3    O2 3860   1.925   2.214  15.978 -0.3276  0.4296 -1.1831
  255MPD2     C 3861   1.698   4.541  10.314 -1.0168 -0.0158  0.1439
  255MPD2    C1 3862   1.830   4.522  10.290 -0.0202 -0.4280  0.0680
  255MPD2    C2 3863   1.908   4.473  10.397 -0.7142  0.3203  0.0459
  255MPD2    C3 3864   1.852   4.457  10.529  0.8682 -0.2530 -0.0024
  255MPD2    C4 3865   1.719   4.491  10.542 -0.2279 -0.8916 -0.3126
  255MPD2    C5 3866   1.643   4.529  10.434 -0.1317 -0.5562  0.0495
  255MPD2     H 3867   2.015   4.468  10.380 -0.3799 -1.4881  2.6798
  255MPD2    H1 3868   1.671   4.476  10.639 -0.1129 -0.7173 -0.2275
  255MPD2    H2 3869   1.632   4.572  10.233  1.8437  0.4939 -2.0012
  255MPD2    H3 3870   1.541   4.552  10.462  0.0341  0.2064  0.0300
  255MPD2     N 3871   1.931   4.390  10.626 -0.0521 -1.0241  0.3030
  255MPD2    H5 3872   2.026   4.364  10.601 -0.0637 -1.1099  0.3503
  255MPD2    N1 3873   1.891   4.540  10.160 -0.1049  0.2055  0.5558
  255MPD2    H7 3874   1.989   4.525  10.143 -0.0196  1.4717 -0.1049
  256TMC3    C1 3875   1.906   4.580   9.934  0.4614  0.5344 -0.3461
  256TMC3    C2 3876   2.033   4.631   9.945  0.4282 -0.3871 -0.5229
  256TMC3    C3 3877   2.090   4.683   9.827 -0.3248  0.9578  0.0301
  256TMC3    C4 3878   1.838   4.589   9.815  1.1265  0.3058  0.3299
  256TMC3    C5 3879   1.902   4.625   9.697  0.1279  0.0210  0.4526
  256TMC3    C6 3880   2.024   4.673   9.705  0.0122 -0.1537 -0.0229
  256TMC3     C 3881   1.813   4.558  10.046  0.0684 -0.8178  0.5387
  256TMC3     O 3882   1.694   4.538  10.026  0.0453 -0.0576 -0.1021
  256TMC3     H 3883   2.084   4.647  10.039  0.3569 -1.9330 -0.2189
  256TMC3    H1 3884   1.739   4.547   9.802  1.3427 -1.3756  4.0010
  256TMC3    H2 3885   2.070   4.697   9.610  0.8142  1.5835  0.7977
  256TMC3    C7 3886   1.836   4.592   9.571  0.4574 -0.5689  0.7837
  256TMC3    C8 3887   2.218   0.037   9.837 -0.7079 -0.0294 -0.2438
  256TMC3    O1 3888   1.717   4.576   9.563 -0.5107 -0.7397 -0.8620
  256TMC3    O2 3889   2.310   4.713   9.901  0.2537  0.2207 -0.6807
  257MPD2     C 3890   0.556   2.391  13.271 -1.2765 -0.4805 -0.2955
  257MPD2    C1 3891   0.539   2.290  13.188  0.0170 -0.2221 -0.0342
  257MPD2    C2 3892   0.543   2.159  13.233  0.3747  0.2984 -0.1995
  257MPD2    C3 3893   0.540   2.137  13.376 -0.3274 -0.2549  0.6329
  257MPD2    C4 3894   0.541   2.251  13.463 -0.0433 -0.4752 -0.6241
  257MPD2    C5 3895   0.555   2.373  13.408 -0.5370 -0.4231  0.1064
  257MPD2     H 3896   0.527   2.073  13.169  0.9415  0.9290 -1.2077
  257MPD2    H1 3897   0.519   2.237  13.568 -1.3591 -0.2726 -0.8670
  257MPD2    H2 3898   0.556   2.494  13.236  1.1618 -0.1692  0.6654
  257MPD2    H3 3899   0.531   2.459  13.471  1.7194  1.3529 -1.4747
  257MPD2     N 3900   0.542   2.000  13.416  0.3764 -0.1012 -0.5368
  257MPD2    H5 3901   0.520   1.927  13.350 -0.4632  1.8763 -2.4498
  257MPD2    N1 3902   0.528   2.320  13.052  0.1667  0.8474 -0.3196
  257MPD2    H7 3903   0.527   2.415  13.016 -1.5773  1.4038  1.1907
  258TMC3    C1 3904   0.568   1.821  13.570 -0.2397  0.4158  0.3475
  258TMC3    C2 3905   0.569   1.733  13.468 -0.1241 -0.5449  0.4419
  258TMC3    C3 3906   0.575   1.600  13.496  0.0878 -0.2073  0.1007
  258TMC3    C4 3907   0.577   1.777  13.702 -0.0766 -0.5334 -0.9608
  258TMC3    C5 3908   0.575   1.644  13.723 -0.1210  0.6772 -0.5542
  258TMC3    C6 3909   0.579   1.547  13.625 -0.1488 -0.2054  0.2227
  258TMC3     C 3910   0.580   1.960  13.544  0.3068  0.1244 -0.2996
  258TMC3     O 3911   0.631   2.028  13.630 -0.1132  0.1989  0.2027
  258TMC3     H 3912   0.584   1.774  13.369 -1.8527  0.6444  0.6670
  258TMC3    H1 3913   0.571   1.843  13.787  0.2481 -0.7015 -0.8057
  258TMC3    H2 3914   0.579   1.441  13.648 -0.3819 -0.1031  0.7017
  258TMC3    C7 3915   0.627   1.597  13.849  0.6998  0.1723  0.1629
  258TMC3    C8 3916   0.563   1.502  13.389  0.1078 -0.6848 -0.1103
  258TMC3    O1 3917   0.584   1.650  13.949  0.0612  0.0168  0.1027
  258TMC3    O2 3918   0.508   1.395  13.414 -0.1308  1.0228  0.1298
  259MPD2     C 3919   3.579   3.595   0.801  0.4399 -0.6500 -0.3871
  259MPD2    C1 3920   3.701   3.537   0.825  0.5089  0.2101  0.3522
  259MPD2    C2 3921   3.805   3.556   0.728 -0.5345  0.2748 -0.7105
  259MPD2    C3 3922   3.787   3.625   0.606  0.3372 -0.1787 -0.3151
  259MPD2    C4 3923   3.663   3.686   0.585 -0.3159  0.6592  0.2540
  259MPD2    C5 3924   3.569   3.667   0.684 -0.8174  0.0719  0.2799
  259MPD2     H 3925   3.903   3.518   0.757 -0.7181 -1.0129 -1.7472
  259MPD2    H1 3926   3.639   3.760   0.509  0.0541 -0.4682 -0.9728
  259MPD2    H2 3927   3.497   3.576   0.869 -1.6131  1.4615 -2.2683
  259MPD2    H3 3928   3.469   3.708   0.679 -0.9103 -0.1348  0.4505
  259MPD2     N 3929   3.902   3.658   0.532  0.0938  0.5066 -0.0972
  259MPD2    H5 3930   3.992   3.617   0.555 -0.3264 -0.2606  0.1582
  259MPD2    N1 3931   3.720   3.481   0.955  0.0690  0.5470 -0.8217
  259MPD2    H7 3932   3.643   3.494   1.021 -0.7631  0.1176 -1.6943
  260TMC3    C1 3933   4.038   3.754   0.371 -0.6342  0.2747 -0.6437
  260TMC3    C2 3934   4.091   3.873   0.337  0.6703 -0.5597  0.1950
  260TMC3    C3 3935   4.210   3.883   0.268 -0.3086  0.6682  0.1565
  260TMC3    C4 3936   4.110   3.636   0.360  0.0266 -0.2766 -0.2036
  260TMC3    C5 3937   4.213   3.644   0.275  0.0864  0.3708  0.5932
  260TMC3    C6 3938   4.272   3.765   0.240 -0.4527  0.5278 -0.0601
  260TMC3     C 3939   3.905   3.762   0.437 -0.5643  0.0600 -0.3507
  260TMC3     O 3940   3.830   3.854   0.409  0.2070 -0.0819  0.2221
  260TMC3     H 3941   4.037   3.964   0.359  0.1613 -0.4457 -1.5065
  260TMC3    H1 3942   4.066   3.539   0.381  0.2916 -0.5262 -0.8226
  260TMC3    H2 3943   4.355   3.763   0.170 -0.9870  0.3161 -0.6901
  260TMC3    C7 3944   4.257   3.512   0.225 -0.0244 -0.0629  0.6086
  260TMC3    C8 3945   4.278   4.005   0.256  0.1871  0.3225  0.4538
  260TMC3    O1 3946   4.221   3.414   0.290  0.8283  0.0355 -0.0149
  260TMC3    O2 3947   4.223   4.099   0.214  0.0647  0.1894 -0.4406
  261MPD2     C 3948   1.318   2.183  12.767  0.1219  0.5453 -0.1560
  261MPD2    C1 3949   1.334   2.056  12.699 -0.2143 -0.3642  0.0246
  261MPD2    C2 3950   1.322   2.054  12.562 -0.3685  0.0733 -0.4290
  261MPD2    C3 3951   1.297   2.172  12.492 -0.0786  0.3770 -0.4296
  261MPD2    C4 3952   1.298   2.296  12.559 -0.1306  0.1486  0.1275
  261MPD2    C5 3953   1.303   2.295  12.693  0.0549 -0.1981  0.0346
  261MPD2     H 3954   1.337   1.960  12.509  1.9011  0.9484 -1.3486
  261MPD2    H1 3955   1.270   2.393  12.520 -0.0175 -0.2924 -1.0657
  261MPD2    H2 3956   1.334   2.191  12.874  0.9827 -2.6046 -0.0373
  261MPD2    H3 3957   1.290   2.389  12.744  0.8965 -0.3757  0.5759
  261MPD2     N 3958   1.275   2.163  12.351  0.1789  0.8418  0.4146
  261MPD2    H5 3959   1.252   2.073  12.308  0.7810  0.2110  1.4185
  261MPD2    N1 3960   1.366   1.933  12.758 -0.3379  0.1588 -0.0047
  261MPD2    H7 3961   1.383   1.855  12.696  2.9175 -1.4387  2.9303
  262TMC3    C1 3962   1.232   2.246  12.126 -0.3716  0.0419  0.7269
  262TMC3    C2 3963   1.174   2.348  12.058 -0.8946 -0.5270 -0.7182
  262TMC3    C3 3964   1.172   2.339  11.919 -0.1294 -0.2270 -0.8057
  262TMC3    C4 3965   1.291   2.138  12.067  0.0294  0.6711  0.3783
  262TMC3    C5 3966   1.284   2.134  11.929 -0.4048  0.1171  0.9005
  262TMC3    C6 3967   1.243   2.242  11.865 -0.1610  0.3710  0.3161
  262TMC3     C 3968   1.253   2.276  12.269  0.3242  0.3687  0.6605
  262TMC3     O 3969   1.248   2.398  12.287  0.0425 -0.3521  0.0676
  262TMC3     H 3970   1.133   2.438  12.103  0.2530  0.2326 -1.1776
  262TMC3    H1 3971   1.341   2.060  12.123 -0.4152 -0.8959 -1.4238
  262TMC3    H2 3972   1.226   2.235  11.758 -0.1117 -1.6310  0.4447
  262TMC3    C7 3973   1.347   2.024  11.859 -0.0037  0.1866  0.1658
  262TMC3    C8 3974   1.186   2.473  11.862  0.7280  0.3303  0.0159
  262TMC3    O1 3975   1.374   1.925  11.928 -0.0796  0.4231  0.1075
  262TMC3    O2 3976   1.280   2.490  11.784 -0.4491 -0.3310  0.1956
  263MPD2     C 3977   2.486   1.186  11.129 -0.0486  1.2335 -0.1854
  263MPD2    C1 3978   2.564   1.298  11.145 -0.7941  0.6155  0.1761
  263MPD2    C2 3979   2.572   1.392  11.042  0.8634  0.0641  0.0491
  263MPD2    C3 3980   2.515   1.364  10.918  0.4719 -0.5062  0.2133
  263MPD2    C4 3981   2.449   1.246  10.902 -0.3901 -1.0091 -0.5835
  263MPD2    C5 3982   2.433   1.161  11.008 -0.5091 -0.2786  0.2044
  263MPD2     H 3983   2.635   1.480  11.051  2.3446 -0.7099 -2.5724
  263MPD2    H1 3984   2.387   1.223  10.817 -0.9287  1.6827 -0.9103
  263MPD2    H2 3985   2.480   1.115  11.210  1.7264  1.0971 -0.1726
  263MPD2    H3 3986   2.362   1.083  10.986  1.6745 -1.5792 -2.1913
  263MPD2     N 3987   2.545   1.453  10.807 -0.3457  0.2023  0.5824
  263MPD2    H5 3988   2.599   1.533  10.838 -1.0567  0.4408  1.1922
  263MPD2    N1 3989   2.636   1.311  11.262  0.1362  0.1136 -1.0267
  263MPD2    H7 3990   2.637   1.235  11.329 -0.4490  1.1656  0.1641
  264TMC3    C1 3991   2.584   1.505  10.575  0.1240 -0.2508  0.5574
  264TMC3    C2 3992   2.535   1.628  10.598 -0.0232  0.1092 -0.3481
  264TMC3    C3 3993   2.578   1.733  10.525  0.1882 -0.3585 -0.9441
  264TMC3    C4 3994   2.686   1.481  10.489  0.1289 -0.9282  0.2399
  264TMC3    C5 3995   2.716   1.588  10.403  1.0937 -0.4888 -0.6535
  264TMC3    C6 3996   2.662   1.709  10.425  0.1272  0.2121  0.2864
  264TMC3     C 3997   2.554   1.406  10.675  0.0810 -0.2825 -0.3841
  264TMC3     O 3998   2.542   1.293  10.633 -0.3230 -0.5037  0.2354
  264TMC3     H 3999   2.474   1.654  10.683 -2.3381  1.3841 -2.3892
  264TMC3    H1 4000   2.732   1.383  10.482  2.3526  0.0567  0.7712
  264TMC3    H2 4001   2.710   1.792  10.375 -0.2518 -0.2709 -0.8701
  264TMC3    C7 4002   2.837   1.579  10.323 -0.1198 -0.1596 -0.0466
  264TMC3    C8 4003   2.613   1.858  10.589 -0.0535 -0.2432 -0.5751
  264TMC3    O1 4004   2.934   1.526  10.374  0.1574 -0.2443 -0.0622
  264TMC3    O2 4005   2.731   1.886  10.574  0.2677  0.3222  1.0442
  265MPD2     C 4006   4.128   1.693  15.501  0.0164  0.2490 -0.6824
  265MPD2    C1 4007   4.167   1.806  15.427  0.3683  0.5627 -0.9213
  265MPD2    C2 4008   4.241   1.784  15.309 -0.3818  0.0710 -0.2654
  265MPD2    C3 4009   4.275   1.650  15.280 -0.0584 -0.2709 -0.1197
  265MPD2    C4 4010   4.229   1.544  15.352 -0.7541 -0.7947 -0.6549
  265MPD2    C5 4011   4.163   1.566  15.466  0.7038 -0.4166  0.3693
  265MPD2     H 4012   4.284   1.864  15.251  1.6102  0.0580  1.1942
  265MPD2    H1 4013   4.273   1.447  15.334 -1.0734 -1.1539  0.4560
  265MPD2    H2 4014   4.076   1.697  15.596  1.3419  0.2191  0.0511
  265MPD2    H3 4015   4.128   1.478  15.518 -2.1730 -1.1168 -2.7009
  265MPD2     N 4016   4.368   1.616  15.182 -0.1605  0.2570  0.8361
  265MPD2    H5 4017   4.378   1.515  15.174  2.1141  0.5036  0.5253
  265MPD2    N1 4018   4.135   1.938  15.468  0.0248  0.1451  0.1572
  265MPD2    H7 4019   4.166   2.010  15.403 -2.7996  0.2376 -1.1003
  266TMC3    C1 4020   4.078   2.119  15.626  0.3510  0.0200 -0.8597
  266TMC3    C2 4021   4.094   2.146  15.757  0.1111 -0.1057  0.0526
  266TMC3    C3 4022   4.096   2.277  15.799 -0.1360  0.7541 -0.2381
  266TMC3    C4 4023   4.055   2.217  15.536 -0.4130 -0.6322 -0.2174
  266TMC3    C5 4024   4.055   2.346  15.584  1.2268 -0.5154 -0.8425
  266TMC3    C6 4025   4.064   2.386  15.716  0.1613 -0.5187 -0.3886
  266TMC3     C 4026   4.102   1.975  15.598  0.1312 -0.2510  0.8988
  266TMC3     O 4027   4.121   1.905  15.699 -0.0257  0.0257  0.4221
  266TMC3     H 4028   4.109   2.071  15.834  2.6124  2.5557  2.1521
  266TMC3    H1 4029   4.057   2.201  15.429  2.1422 -1.0754 -0.1022
  266TMC3    H2 4030   4.079   2.485  15.758  0.1630  0.0123 -1.6436
  266TMC3    C7 4031   3.987   2.446  15.508 -0.5474 -0.0051 -0.1157
  266TMC3    C8 4032   4.113   2.300  15.943  0.1551 -0.2287 -0.1271
  266TMC3    O1 4033   3.910   2.406  15.422  0.2749 -0.4559  0.1818
  266TMC3    O2 4034   4.161   2.202  16.000  0.5585 -1.2300 -0.1440
  267MPD2     C 4035   1.480   3.080  17.318 -0.4972  0.5967  0.3352
  267MPD2    C1 4036   1.497   3.205  17.365 -0.0326 -0.5759  0.4582
  267MPD2    C2 4037   1.408   3.303  17.317  0.0604  0.5387  0.4211
  267MPD2    C3 4038   1.311   3.274  17.225  0.7256  0.4188  0.8843
  267MPD2    C4 4039   1.290   3.142  17.190  0.1026 -0.2383  0.7335
  267MPD2    C5 4040   1.378   3.044  17.234 -0.0895 -0.0877  0.1671
  267MPD2     H 4041   1.439   3.403  17.343  1.1003 -0.1682  1.8800
  267MPD2    H1 4042   1.206   3.123  17.125  0.8824 -1.3545  0.0559
  267MPD2    H2 4043   1.539   2.993  17.346 -0.1730  0.2116 -1.5524
  267MPD2    H3 4044   1.371   2.941  17.200  1.5634 -0.0735 -0.1976
  267MPD2     N 4045   1.234   3.372  17.161  1.0052 -0.1639 -0.0344
  267MPD2    H5 4046   1.174   3.341  17.086  0.2844 -1.4223  1.0569
  267MPD2    N1 4047   1.608   3.229  17.451 -0.1601  0.0449 -0.7130
  267MPD2    H7 4048   1.657   3.148  17.489 -2.8139 -2.0760 -1.7756
  268TMC3    C1 4049   1.771   3.354  17.582  0.4813 -0.4021 -0.2187
  268TMC3    C2 4050   1.827   3.479  17.598  0.7646 -0.5104  0.0766
  268TMC3    C3 4051   1.947   3.493  17.667 -0.3219 -0.1693 -1.0434
  268TMC3    C4 4052   1.840   3.247  17.633 -0.0360  0.2173 -0.0327
  268TMC3    C5 4053   1.958   3.263   0.004 -0.1741  0.2025  0.1424
  268TMC3    C6 4054   2.018   3.386   0.018 -1.0125 -0.4101  0.3211
  268TMC3     C 4055   1.650   3.348  17.497  0.0886 -0.4058 -0.4232
  268TMC3     O 4056   1.620   3.459  17.457 -0.0289 -0.5202  0.2915
  268TMC3     H 4057   1.760   3.558  17.567 -0.3219 -0.9048  1.4135
  268TMC3    H1 4058   1.789   3.152  17.633  1.1748 -0.4284 -0.9906
  268TMC3    H2 4059   2.101   3.393   0.087 -0.4938  0.5793 -0.4040
  268TMC3    C7 4060   2.006   3.158   0.100 -0.5491  0.6888 -0.1145
  268TMC3    C8 4061   2.002   3.626  17.682  0.1543 -0.1289 -0.3423
  268TMC3    O1 4062   1.932   3.063   0.124 -0.5651  0.4501  0.0740
  268TMC3    O2 4063   2.113   3.630   0.035 -0.4732  0.2423  0.3198
  269MPD2     C 4064   1.982   2.420  15.488  0.3720  0.5895 -0.0323
  269MPD2    C1 4065   1.853   2.436  15.528 -0.7061  1.1199 -0.8730
  269MPD2    C2 4066   1.789   2.558  15.513  0.0127  0.1293 -0.1277
  269MPD2    C3 4067   1.853   2.662  15.448 -0.3377 -0.0863 -0.1247
  269MPD2    C4 4068   1.987   2.644  15.410 -0.5165 -0.2607  0.3169
  269MPD2    C5 4069   2.048   2.515  15.419 -0.4126 -1.0697 -0.4223
  269MPD2     H 4070   1.691   2.569  15.557  0.5287 -1.5753  1.4356
  269MPD2    H1 4071   2.046   2.727  15.373 -1.5298  0.1475 -0.3927
  269MPD2    H2 4072   2.038   2.327  15.494 -0.1313  0.2267 -0.9251
  269MPD2    H3 4073   2.145   2.509  15.372 -0.1892 -1.7864  0.1459
  269MPD2     N 4074   1.795   2.791  15.446 -0.1817 -0.2202 -0.2234
  269MPD2    H5 4075   1.699   2.799  15.478 -0.7518  0.1229 -2.0087
  269MPD2    N1 4076   1.783   2.325  15.588  0.3344  0.0303  0.2905
  269MPD2    H7 4077   1.839   2.240  15.590  0.8941  0.3803 -0.2989
  270TMC3    C1 4078   1.603   2.176  15.633 -0.0341 -0.6409 -0.4689
  270TMC3    C2 4079   1.512   2.115  15.553  0.4843 -0.4939 -0.0982
  270TMC3    C3 4080   1.473   1.990  15.579  0.1455  0.5687  0.1601
  270TMC3    C4 4081   1.673   2.099  15.717 -0.0629  0.0509  0.7490
  270TMC3    C5 4082   1.643   1.968  15.727 -0.1876  0.6729  0.2354
  270TMC3    C6 4083   1.533   1.912  15.670 -0.0884  0.2289 -0.3765
  270TMC3     C 4084   1.645   2.316  15.600  0.6949 -0.2749  0.0406
  270TMC3     O 4085   1.556   2.401  15.592 -0.2320 -0.3800  0.0724
  270TMC3     H 4086   1.454   2.167  15.478  1.8530 -0.0086 -0.8173
  270TMC3    H1 4087   1.745   2.150  15.781  0.0720 -0.5673  1.0900
  270TMC3    H2 4088   1.504   1.807  15.674 -0.5743  0.4072  0.7784
  270TMC3    C7 4089   1.745   1.874  15.757  0.5232  0.9526 -0.0109
  270TMC3    C8 4090   1.436   1.909  15.458  0.5602 -0.1034  0.2623
  270TMC3    O1 4091   1.859   1.920  15.758  0.6336  0.2812  0.1681
  270TMC3    O2 4092   1.367   1.816  15.492  0.1683  0.5544  0.4245
  271MPD2     C 4093   1.382   2.192  13.876 -0.0409 -0.6580 -0.0719
  271MPD2    C1 4094   1.303   2.141  13.980 -0.0763 -0.2690 -0.1838
  271MPD2    C2 4095   1.167   2.162  13.983 -0.3023 -0.1405  0.4727
  271MPD2    C3 4096   1.100   2.236  13.886  0.8656 -0.5643  0.5402
  271MPD2    C4 4097   1.181   2.282  13.785  0.5796  0.6155  0.2894
  271MPD2    C5 4098   1.317   2.257  13.780 -0.0655  0.1453  0.1145
  271MPD2     H 4099   1.110   2.124  14.067 -2.7439 -0.1774 -1.1731
  271MPD2    H1 4100   1.146   2.341  13.701  3.1449  1.3791 -0.2646
  271MPD2    H2 4101   1.489   2.182  13.861 -0.2776 -2.5205 -0.5500
  271MPD2    H3 4102   1.372   2.293  13.694 -0.4379 -2.1381 -1.0891
  271MPD2     N 4103   0.960   2.240  13.880  0.0031  0.2088 -0.0398
  271MPD2    H5 4104   0.920   2.279  13.796  1.3071  0.6434 -0.4507
  271MPD2    N1 4105   1.363   2.069  14.085  0.4085  0.5381  0.2156
  271MPD2    H7 4106   1.300   2.048  14.161  1.2664  1.8424  1.2985
  272TMC3    C1 4107   1.518   1.940  14.206  0.5680 -0.2707  1.1561
  272TMC3    C2 4108   1.611   1.840  14.205  0.1903 -0.2007 -0.2103
  272TMC3    C3 4109   1.632   1.764  14.320  0.0693  0.0037 -0.5729
  272TMC3    C4 4110   1.437   1.963  14.314 -0.2675 -0.4490 -0.2568
  272TMC3    C5 4111   1.449   1.876  14.422 -0.0648  0.0508  0.1376
  272TMC3    C6 4112   1.546   1.781  14.425  0.7038  0.4675  0.0028
  272TMC3     C 4113   1.488   2.013  14.083 -0.0167 -0.9503  0.1606
  272TMC3     O 4114   1.581   2.016  14.000 -0.1922 -0.0022 -0.1272
  272TMC3     H 4115   1.682   1.845  14.124  0.4491 -0.9061 -0.0317
  272TMC3    H1 4116   1.378   2.054  14.322  1.5922  0.7173 -0.0133
  272TMC3    H2 4117   1.569   1.725  14.514  1.4947  0.0028 -0.4875
  272TMC3    C7 4118   1.397   1.912  14.555  0.0375 -0.9177  0.5004
  272TMC3    C8 4119   1.748   1.677  14.315 -0.3098 -0.0248  0.2363
  272TMC3    O1 4120   1.473   1.889  14.649 -0.1330 -0.3542 -0.4849
  272TMC3    O2 4121   1.773   1.642  14.199  0.1862  0.0392  0.1700
  273MPD2     C 4122   3.220   0.134  11.459 -0.0639  0.2664 -0.3626
  273MPD2    C1 4123   3.191   0.269  11.472 -0.0978 -0.0136  0.6707
  273MPD2    C2 4124   3.187   0.353  11.361  0.2933  0.1761  0.2446
  273MPD2    C3 4125   3.230   0.303  11.240  0.0741  0.5080 -0.2763
  273MPD2    C4 4126   3.265   0.174  11.227 -0.1867 -0.0503  0.1482
  273MPD2    C5 4127   3.254   0.092  11.334 -0.5346 -0.2229 -0.0203
  273MPD2     H 4128   3.168   0.459  11.371  0.6555  0.2277  0.4029
  273MPD2    H1 4129   3.290   0.144  11.125 -3.2185 -0.0552 -0.5778
  273MPD2    H2 4130   3.222   0.066  11.543  1.8245 -0.8371 -1.2691
  273MPD2    H3 4131   3.274   4.709  11.325 -1.2171 -0.5664  2.7291
  273MPD2     N 4132   3.246   0.382  11.126  0.1366  0.0794  0.5297
  273MPD2    H5 4133   3.273   0.340  11.038 -0.4653  0.1069  0.3301
  273MPD2    N1 4134   3.163   0.325  11.602  0.0351 -0.5983  0.4236
  273MPD2    H7 4135   3.187   0.263  11.679  2.6981 -1.7304 -1.3280
  274TMC3    C1 4136   3.218   0.571  10.991  0.3467 -0.6919 -0.0285
  274TMC3    C2 4137   3.142   0.512  10.894  0.1254 -0.2958 -0.4767
  274TMC3    C3 4138   3.114   0.599  10.791  0.0535  0.3917  0.1222
  274TMC3    C4 4139   3.269   0.699  10.978  0.0582  0.1403 -0.9273
  274TMC3    C5 4140   3.264   0.769  10.856  0.1032 -0.5689  0.4252
  274TMC3    C6 4141   3.174   0.719  10.763  0.6594  0.1574  0.4313
  274TMC3     C 4142   3.230   0.519  11.123  0.5985 -0.0948 -0.1079
  274TMC3     O 4143   3.234   0.601  11.212  0.1143 -0.3023 -0.1342
  274TMC3     H 4144   3.103   0.412  10.881 -2.4838  0.7805 -0.9090
  274TMC3    H1 4145   3.332   0.733  11.060 -0.3389 -0.2480 -0.4585
  274TMC3    H2 4146   3.142   0.788  10.685 -0.5447  0.2252  0.9744
  274TMC3    C7 4147   3.284   0.911  10.849  0.6425 -0.7122 -0.5451
  274TMC3    C8 4148   2.979   0.574  10.738 -0.2675  0.2725 -0.5527
  274TMC3    O1 4149   3.319   0.960  10.743  0.3266 -0.4998 -0.2685
  274TMC3    O2 4150   2.912   0.492  10.793 -0.0159  0.4821  0.2008
  275MPD2     C 4151   2.318   3.483  14.560  0.2292  0.6520 -0.3603
  275MPD2    C1 4152   2.372   3.359  14.591 -0.5035 -0.6919  0.8409
  275MPD2    C2 4153   2.298   3.246  14.564  0.5357  0.0773 -0.1732
  275MPD2    C3 4154   2.167   3.252  14.534 -0.6068 -0.1058 -1.0159
  275MPD2    C4 4155   2.105   3.378  14.536  0.9093  0.8748  0.3131
  275MPD2    C5 4156   2.183   3.492  14.529 -0.3281  0.1956 -0.9155
  275MPD2     H 4157   2.350   3.152  14.578 -1.0232 -0.6141  0.9881
  275MPD2    H1 4158   1.998   3.389  14.528  0.9658  1.6857  0.5990
  275MPD2    H2 4159   2.378   3.572  14.547  2.1640 -0.5113  0.6273
  275MPD2    H3 4160   2.152   3.594  14.508 -1.5267  0.3100  1.4534
  275MPD2     N 4161   2.088   3.139  14.537  0.4342  0.5930  0.3837
  275MPD2    H5 4162   1.991   3.145  14.510  0.3495 -0.8328  0.3926
  275MPD2    N1 4163   2.512   3.346  14.617 -0.2588 -0.1918  0.2269
  275MPD2    H7 4164   2.556   3.255  14.620  0.1953  0.0997  2.7469
  276TMC3    C1 4165   2.726   3.402  14.674  0.6851 -1.1736  0.0245
  276TMC3    C2 4166   2.771   3.287  14.612 -0.3469  0.6141  0.4409
  276TMC3    C3 4167   2.903   3.246  14.634 -0.3872 -0.0643  0.5903
  276TMC3    C4 4168   2.807   3.474  14.757  0.2370  0.8837  0.0756
  276TMC3    C5 4169   2.927   3.419  14.782 -0.5015 -0.1702 -0.2548
  276TMC3    C6 4170   2.980   3.309  14.721  0.2343  0.2925  0.7331
  276TMC3     C 4171   2.589   3.442  14.670  0.7654  0.0098 -1.1861
  276TMC3     O 4172   2.559   3.547  14.715 -0.5379  0.4419  0.0746
  276TMC3     H 4173   2.714   3.225  14.543  0.6769 -0.2565  0.3781
  276TMC3    H1 4174   2.764   3.554  14.818  0.2287  0.8183  0.1556
  276TMC3    H2 4175   3.071   3.264  14.756 -1.1793 -2.7307  0.4874
  276TMC3    C7 4176   2.997   3.482  14.893  0.1094 -0.2748 -0.0883
  276TMC3    C8 4177   2.907   3.102  14.644 -0.2155 -0.1945 -0.3619
  276TMC3    O1 4178   2.932   3.563  14.953  0.0024 -0.5011 -0.3421
  276TMC3    O2 4179   2.936   3.070  14.758 -0.0151  0.0023 -0.3457
  277MPD2     C 4180   4.201   1.941  13.792 -0.3123 -0.8320 -0.4566
  277MPD2    C1 4181   4.091   1.965  13.723  0.1331 -0.3851  0.2521
  277MPD2    C2 4182   3.975   1.892  13.741 -0.3923  0.1455 -0.0585
  277MPD2    C3 4183   3.970   1.804  13.846 -0.1949 -0.2741 -0.4985
  277MPD2    C4 4184   4.081   1.784  13.920  0.0669 -0.6757  0.2956
  277MPD2    C5 4185   4.197   1.855  13.893 -0.3666 -0.2478  0.2020
  277MPD2     H 4186   3.887   1.908  13.679 -0.0543  2.1580 -0.0211
  277MPD2    H1 4187   4.088   1.704  13.993  1.0170 -1.2067 -0.3685
  277MPD2    H2 4188   4.295   1.989  13.769  0.0993 -2.0562 -1.3163
  277MPD2    H3 4189   4.289   1.836  13.947 -0.9035 -1.7659  0.5863
  277MPD2     N 4190   3.849   1.728  13.860 -0.1763  0.2186 -0.2605
  277MPD2    H5 4191   3.777   1.747  13.791  1.1962 -0.3418 -1.8391
  277MPD2    N1 4192   4.097   2.074  13.633  0.3195  0.4005  0.1372
  277MPD2    H7 4193   4.190   2.108  13.614  1.7917 -3.0200  1.3313
  278TMC3    C1 4194   3.704   1.546  13.920  0.4193  0.2177  0.2865
  278TMC3    C2 4195   3.723   1.411  13.920  0.2722 -0.4957 -0.2640
  278TMC3    C3 4196   3.619   1.334  13.868  0.2183  0.0202  0.0584
  278TMC3    C4 4197   3.589   1.603  13.878 -0.0064 -0.0413 -0.3715
  278TMC3    C5 4198   3.491   1.525  13.829 -0.2481 -0.0987  1.1002
  278TMC3    C6 4199   3.503   1.388  13.812  0.6536  0.2716 -0.6413
  278TMC3     C 4200   3.823   1.631  13.950  0.0513  0.1625 -1.0597
  278TMC3     O 4201   3.901   1.574  14.025 -0.2416  0.8550 -0.0747
  278TMC3     H 4202   3.812   1.356  13.950  0.3018 -1.3488 -1.9350
  278TMC3    H1 4203   3.582   1.711  13.891 -1.8461 -0.0386 -1.4561
  278TMC3    H2 4204   3.436   1.336  13.743  1.8339  1.0776 -2.4088
  278TMC3    C7 4205   3.384   1.598  13.773 -0.1335 -0.4466 -0.1918
  278TMC3    C8 4206   3.672   1.215  13.819 -0.1719  0.1825  0.3261
  278TMC3    O1 4207   3.405   1.718  13.755 -0.2496 -0.2446  0.3691
  278TMC3    O2 4208   3.703   1.130  13.905  0.3578  0.2579  0.2237
  279MPD2     C 4209   3.266   1.712   0.235 -0.5131 -0.4409  0.0967
  279MPD2    C1 4210   3.240   1.846   0.257 -0.3559 -0.2502  0.8738
  279MPD2    C2 4211   3.256   1.944   0.156  0.3642 -0.1555  0.8945
  279MPD2    C3 4212   3.259   1.895   0.022 -0.5660  1.1657  0.6598
  279MPD2    C4 4213   3.278   1.763  17.693  0.2366  0.3710  0.4247
  279MPD2    C5 4214   3.272   1.673   0.103  0.2706 -0.5385 -0.1087
  279MPD2     H 4215   3.250   2.051   0.171  0.5886  0.1081 -0.9456
  279MPD2    H1 4216   3.289   1.726  17.592 -2.7240 -1.3191  0.6912
  279MPD2    H2 4217   3.271   1.637   0.313 -1.6707  0.4604  1.0294
  279MPD2    H3 4218   3.282   1.565   0.092  0.8935 -0.4392 -0.5367
  279MPD2     N 4219   3.256   1.988  17.610  0.3752  0.0533  0.4092
  279MPD2    H5 4220   3.249   1.953  17.515  3.1428 -1.3647  0.7240
  279MPD2    N1 4221   3.230   1.895   0.389 -0.7260  0.4190 -0.1215
  279MPD2    H7 4222   3.276   1.836   0.457  0.6347  2.4440  0.7147
  280TMC3    C1 4223   3.058   2.069   0.360 -0.9530 -0.8618 -0.0779
  280TMC3    C2 4224   2.992   1.999   0.264  0.5069  0.4225 -0.2331
  280TMC3    C3 4225   2.914   2.072   0.177  0.1479 -0.0140 -0.0633
  280TMC3    C4 4226   3.047   2.201   0.378 -0.4178  0.0642 -0.1483
  280TMC3    C5 4227   2.962   2.274   0.302 -0.6910  0.8471  0.4350
  280TMC3    C6 4228   2.892   2.210   0.199 -0.1873 -0.0668  0.1926
  280TMC3     C 4229   3.171   2.015   0.433  0.4719 -1.0557 -0.7759
  280TMC3     O 4230   3.190   2.072   0.541 -0.1361  0.6294  0.0696
  280TMC3     H 4231   2.994   1.891   0.261 -0.0850  0.4118 -0.4992
  280TMC3    H1 4232   3.105   2.256   0.451 -0.1042  0.0024 -0.3489
  280TMC3    H2 4233   2.820   2.266   0.140 -0.0933 -1.7263 -1.4719
  280TMC3    C7 4234   2.941   2.420   0.313 -0.4658  0.3245  0.3469
  280TMC3    C8 4235   2.903   2.027   0.037  0.3982 -0.9353  0.0911
  280TMC3    O1 4236   3.020   2.474   0.388  0.6485  0.3537  0.5533
  280TMC3    O2 4237   2.837   2.106  17.665 -0.6651  0.2357  0.0435
  281TMC3    C1 4238   2.706   2.361  13.338 -0.4791 -0.2183  0.0685
  281TMC3    C2 4239   2.780   2.470  13.305 -0.1941 -0.4629  0.1195
  281TMC3    C3 4240   2.848   2.473  13.186 -0.2443  0.1388  0.0192
  281TMC3    C4 4241   2.695   2.252  13.261 -0.5313 -0.7549 -0.0598
  281TMC3    C5 4242   2.749   2.264  13.138  0.1846  0.4671  0.1492
  281TMC3    C6 4243   2.836   2.367  13.106 -0.1077 -0.5882  0.5586
  281TMC3     C 4244   2.582   2.396  13.398  0.1758  0.2414  0.2958
  281TMC3     O 4245   2.510   2.311  13.442 -0.3634 -0.5904  0.0517
  281TMC3     H 4246   2.801   2.546  13.380  1.2861 -0.5440 -0.2110
  281TMC3    H1 4247   2.622   2.175  13.281  1.0892 -2.5074 -0.8527
  281TMC3    H2 4248   2.887   2.365  13.010  0.4285 -2.7851  0.8889
  281TMC3    C7 4249   2.664   2.254  13.022  0.2781 -0.3471 -0.5927
  281TMC3    C8 4250   2.849   2.595  13.113  0.1257  0.1802  0.2540
  281TMC3    O1 4251   2.676   2.341  12.937  0.7694  0.4928 -0.0435
  281TMC3    O2 4252   2.880   2.692  13.176 -0.5936  0.2807  0.3525
  282MPD2     C 4253   3.958   3.807  15.363 -0.7024  0.4399 -0.0900
  282MPD2    C1 4254   3.836   3.869  15.382  0.6808  0.1804 -0.5342
  282MPD2    C2 4255   3.765   3.908  15.269  0.2917  0.1397 -0.1013
  282MPD2    C3 4256   3.812   3.878  15.139  0.2705  0.0325  0.1916
  282MPD2    C4 4257   3.929   3.807  15.124  0.1727  0.3576  0.8993
  282MPD2    C5 4258   3.997   3.772  15.233  0.9362 -0.3134  0.3570
  282MPD2     H 4259   3.672   3.960  15.285 -0.2772 -1.0190  0.3080
  282MPD2    H1 4260   3.968   3.780  15.027  0.0688 -1.7509  1.4319
  282MPD2    H2 4261   4.027   3.773  15.439  0.3116 -0.3014 -1.3496
  282MPD2    H3 4262   4.095   3.728  15.217  1.0007 -0.7858  2.0944
  282MPD2     N 4263   3.741   3.920  15.024  0.2860 -0.6280  0.1481
  282MPD2    H5 4264   3.668   3.985  15.052  1.0213  1.6398 -3.3150
  282MPD2    N1 4265   3.781   3.883  15.506  0.6778  0.7797  0.1429
  282MPD2    H7 4266   3.692   3.931  15.504  1.1975  1.7402  0.2768
  283TMC3    C1 4267   3.740   3.835  15.730 -0.2260  0.3558  0.1763
  283TMC3    C2 4268   3.691   3.953  15.773 -0.0564  0.0738 -0.1534
  283TMC3    C3 4269   3.610   3.952  15.880 -0.0196  0.5801  0.1068
  283TMC3    C4 4270   3.710   3.714  15.788  0.1924  0.4830  0.0519
  283TMC3    C5 4271   3.627   3.709  15.891 -0.3685  0.4092  0.7409
  283TMC3    C6 4272   3.579   3.829  15.943  0.1327 -0.5686 -0.2948
  283TMC3     C 4273   3.836   3.833  15.622 -0.1239  0.5312  0.2135
  283TMC3     O 4274   3.947   3.790  15.646 -0.6512  0.3526 -0.0594
  283TMC3     H 4275   3.717   4.045  15.722  0.8257  0.5628  1.1651
  283TMC3    H1 4276   3.753   3.635  15.728 -1.3745 -0.9838  0.8822
  283TMC3    H2 4277   3.517   3.829  16.032  0.0081 -0.0855 -0.3794
  283TMC3    C7 4278   3.530   3.604  15.908  0.6612 -0.1787 -0.6046
  283TMC3    C8 4279   3.566   4.074  15.943 -0.2830 -0.1562  1.0469
  283TMC3    O1 4280   3.471   3.586  16.009  0.5038 -0.2129 -0.2007
  283TMC3    O2 4281   3.504   4.062  16.046  0.3611 -0.1145 -0.1914
  284MPD2     C 4282   2.592   2.875  12.030 -0.3523  0.5139  0.2026
  284MPD2    C1 4283   2.643   2.798  11.926 -0.3574  0.4847 -0.0757
  284MPD2    C2 4284   2.579   2.677  11.905  0.5169 -0.3282  0.0149
  284MPD2    C3 4285   2.465   2.629  11.970  0.9066 -0.4311 -0.0592
  284MPD2    C4 4286   2.423   2.716  12.074  0.2638 -0.2367 -0.2550
  284MPD2    C5 4287   2.488   2.831  12.104  0.4701  0.8018  0.2367
  284MPD2     H 4288   2.631   2.609  11.838 -0.2963 -1.6138  0.6890
  284MPD2    H1 4289   2.336   2.704  12.138  1.7267  0.1095  1.7984
  284MPD2    H2 4290   2.634   2.972  12.054  0.6779 -0.3813  1.9908
  284MPD2    H3 4291   2.455   2.885  12.192 -0.8014  3.9388 -2.1311
  284MPD2     N 4292   2.406   2.505  11.934 -0.4382  0.8596  0.1386
  284MPD2    H5 4293   2.453   2.459  11.856  1.2791  1.3838  0.8547
  284MPD2    N1 4294   2.761   2.837  11.851 -0.1737  0.2762  0.1198
  284MPD2    H7 4295   2.783   2.783  11.768 -0.2027 -1.6279  1.3435
  285TMC3    C1 4296   2.927   2.976  11.777  0.1597  0.9045  0.1120
  285TMC3    C2 4297   2.961   2.884  11.684  0.4046  0.1722 -0.4677
  285TMC3    C3 4298   3.062   2.914  11.595  0.8332  0.4623  0.8230
  285TMC3    C4 4299   3.004   3.088  11.792  0.1589  0.0872 -0.2667
  285TMC3    C5 4300   3.114   3.107  11.710  0.6521 -0.9113  0.5144
  285TMC3    C6 4301   3.136   3.022  11.606 -0.1788 -0.1113  0.1840
  285TMC3     C 4302   2.844   2.940  11.884 -0.4725  0.0234 -0.1037
  285TMC3     O 4303   2.841   3.014  11.983 -0.2130  0.6216  0.1907
  285TMC3     H 4304   2.902   2.796  11.660  1.3497 -1.0523  1.6511
  285TMC3    H1 4305   2.997   3.160  11.873  0.8734 -0.4451  0.2658
  285TMC3    H2 4306   3.222   3.038  11.543 -0.7917 -0.0394 -0.6447
  285TMC3    C7 4307   3.184   3.227  11.716 -0.2761  0.1924  0.2106
  285TMC3    C8 4308   3.094   2.829  11.481 -0.0535 -0.3299 -0.3940
  285TMC3    O1 4309   3.122   3.314  11.772 -0.1435  0.1041  0.0961
  285TMC3    O2 4310   3.004   2.782  11.414  0.0042 -0.0303 -0.0653
  286MPD2     C 4311   2.237   1.909   1.633 -0.0657 -0.2865 -0.1704
  286MPD2    C1 4312   2.216   1.918   1.497  0.3881  0.6152 -0.0403
  286MPD2    C2 4313   2.304   1.845   1.417 -0.8323  0.3269  0.0789
  286MPD2    C3 4314   2.409   1.774   1.470 -0.7218  0.2083  0.1722
  286MPD2    C4 4315   2.438   1.777   1.606 -0.9746 -0.7695  0.5632
  286MPD2    C5 4316   2.348   1.846   1.687 -0.0844  0.4309 -0.6373
  286MPD2     H 4317   2.286   1.841   1.310 -0.1077 -1.4924  0.0366
  286MPD2    H1 4318   2.531   1.737   1.644 -0.6612  0.3289  0.9321
  286MPD2    H2 4319   2.170   1.965   1.697  0.8637  0.7688 -0.1179
  286MPD2    H3 4320   2.366   1.854   1.794  0.9022 -0.4660 -0.7326
  286MPD2     N 4321   2.498   1.697   1.390 -0.3357 -0.2312 -0.1901
  286MPD2    H5 4322   2.576   1.656   1.440  0.5151 -0.3139 -1.5823
  286MPD2    N1 4323   2.104   1.975   1.436 -0.6727  0.0938  0.5424
  286MPD2    H7 4324   2.109   1.967   1.335  1.0828 -4.1594  0.9722
  287TMC3    C1 4325   2.596   1.590   1.203 -0.1410  0.0379 -0.1116
  287TMC3    C2 4326   2.572   1.495   1.111 -0.1560  0.1999  0.0678
  287TMC3    C3 4327   2.669   1.402   1.086 -0.0990 -0.3196  0.4769
  287TMC3    C4 4328   2.711   1.603   1.271  0.5482 -0.1027  0.0053
  287TMC3    C5 4329   2.804   1.510   1.239 -0.2624  0.4377  0.1112
  287TMC3    C6 4330   2.789   1.402   1.151 -0.3036  0.2998  0.6918
  287TMC3     C 4331   2.476   1.652   1.261  0.4387 -0.5500  0.3490
  287TMC3     O 4332   2.368   1.645   1.206  0.4732 -0.3088  0.1310
  287TMC3     H 4333   2.468   1.470   1.092  0.9955 -4.5768  0.1551
  287TMC3    H1 4334   2.726   1.680   1.346 -2.1232 -0.1478  0.5685
  287TMC3    H2 4335   2.869   1.330   1.136  0.1466  0.9529 -0.0281
  287TMC3    C7 4336   2.923   1.545   1.303 -0.7632 -0.7520  0.0539
  287TMC3    C8 4337   2.645   1.298   0.990 -0.1723  0.0724 -0.8545
  287TMC3    O1 4338   2.936   1.655   1.360 -0.0129  0.5249  0.1812
  287TMC3    O2 4339   2.729   1.209   0.992 -0.2255 -0.3616  0.3141
  288TMC3    C1 4340   0.071   1.239  14.087  0.7736  0.2357 -0.2692
  288TMC3    C2 4341   0.024   1.322  14.187 -0.1294  0.2526  0.0028
  288TMC3    C3 4342   4.722   1.453  14.154 -0.0897 -0.4213 -0.4021
  288TMC3    C4 4343   0.119   1.289  13.968 -0.2574 -0.3235 -0.4988
  288TMC3    C5 4344   0.098   1.422  13.949 -0.2619  0.2791  0.0236
  288TMC3    C6 4345   0.049   1.507  14.034 -0.0749 -0.0046 -0.6180
  288TMC3     C 4346   0.080   1.102  14.112  0.4915 -0.1592  0.0589
  288TMC3     O 4347   0.096   1.031  14.011  0.3865 -0.1735 -0.1915
  288TMC3     H 4348   4.715   1.294  14.286  1.9291 -2.2069 -0.0241
  288TMC3    H1 4349   0.154   1.220  13.893 -1.3614 -1.4140 -0.0021
  288TMC3    H2 4350   0.019   1.608  14.008 -0.0123  0.4935  1.1844
  288TMC3    C7 4351   0.135   1.481  13.822  0.3039 -0.8641 -0.8006
  288TMC3    C8 4352   4.677   1.547  14.249  0.1726 -0.5426 -0.2430
  288TMC3    O1 4353   0.163   1.402  13.733 -0.0148 -0.2678 -0.5789
  288TMC3    O2 4354   4.705   1.663  14.220 -0.4955 -0.3766  0.0855
  289MPD2     C 4355   4.485   0.819  14.247  0.2076 -0.4284 -0.9056
  289MPD2    C1 4356   4.397   0.906  14.185 -0.3483  0.0190 -0.6989
  289MPD2    C2 4357   4.265   0.909  14.233 -0.6473  0.2637  0.1845
  289MPD2    C3 4358   4.220   0.829  14.335 -0.6399  0.4260  0.0951
  289MPD2    C4 4359   4.314   0.749  14.404  0.3218 -0.0081 -0.2384
  289MPD2    C5 4360   4.442   0.747  14.356  0.6440 -0.2052 -0.2508
  289MPD2     H 4361   4.194   0.962  14.171 -0.1230 -2.0362 -2.3323
  289MPD2    H1 4362   4.290   0.681  14.485 -2.0721 -0.3527 -1.2466
  289MPD2    H2 4363   4.582   0.810  14.199  2.3432  0.7989  3.1163
  289MPD2    H3 4364   4.508   0.671  14.396  2.4955  1.3253 -0.4014
  289MPD2     N 4365   4.086   0.829  14.373 -0.2684  0.3499  0.4418
  289MPD2    H5 4366   4.062   0.741  14.417 -0.2452 -0.9639 -2.1260
  289MPD2    N1 4367   4.444   0.987  14.078  0.3433  0.2137  0.3738
  289MPD2    H7 4368   4.537   0.958  14.049 -0.6331 -1.3658 -1.1464
  290TMC3    C1 4369   3.855   0.890  14.324  0.2131  0.3545 -0.4224
  290TMC3    C2 4370   3.780   0.995  14.278  0.7680  0.2796  0.2635
  290TMC3    C3 4371   3.644   0.978  14.261 -0.3677  0.2517 -0.1884
  290TMC3    C4 4372   3.809   0.761  14.334  0.4784 -0.0337 -0.9176
  290TMC3    C5 4373   3.675   0.744  14.303  0.2228 -0.3993 -0.6453
  290TMC3    C6 4374   3.596   0.852  14.269 -0.2653 -0.2782  0.6661
  290TMC3     C 4375   3.998   0.927  14.334 -0.8376  0.8367  0.1008
  290TMC3     O 4376   4.023   1.043  14.309  0.7269  0.2045  0.3631
  290TMC3     H 4377   3.823   1.092  14.256  3.1562 -1.0083 -0.7580
  290TMC3    H1 4378   3.874   0.681  14.367 -2.2197 -1.9444 -0.2110
  290TMC3    H2 4379   3.488   0.849  14.258 -0.3521 -2.0491  2.0934
  290TMC3    C7 4380   3.601   0.627  14.355  1.5025  0.2341 -0.4992
  290TMC3    C8 4381   3.560   1.083  14.219 -0.3243 -0.4168  0.8257
  290TMC3    O1 4382   3.491   0.656  14.401  0.4309 -0.2512 -0.3722
  290TMC3    O2 4383   3.462   1.044  14.156  0.3438  0.9041 -0.3259
  291MPD2     C 4384   3.424   0.016   0.370 -0.0106 -0.5714  0.2840
  291MPD2    C1 4385   3.420   0.082   0.249  0.1013  0.3511  0.4398
  291MPD2    C2 4386   3.553   0.106   0.196  0.4091  0.0050 -0.0604
  291MPD2    C3 4387   3.666   0.085   0.270  0.3251  0.0116 -0.6960
  291MPD2    C4 4388   3.660   0.035   0.401 -0.0060  0.7135  0.5704
  291MPD2    C5 4389   3.537   4.716   0.446 -0.2376  0.5408  0.1409
  291MPD2     H 4390   3.560   0.138   0.092  0.3025  0.3744  0.0454
  291MPD2    H1 4391   3.755   0.013   0.449  2.0348  2.1566 -2.8395
  291MPD2    H2 4392   3.335   4.703   0.420 -0.8471  1.8402  0.5673
  291MPD2    H3 4393   3.533   4.668   0.543 -0.0111  3.0159  1.3686
  291MPD2     N 4394   3.800   0.109   0.221  0.2139  0.5599  0.4926
  291MPD2    H5 4395   3.874   0.116   0.289  0.0755 -2.2624  0.9342
  291MPD2    N1 4396   3.307   0.104   0.176 -0.2460 -0.6229 -0.1410
  291MPD2    H7 4397   3.324   0.149   0.086  0.7091 -1.3545 -0.3187
  292TMC3    C1 4398   3.080   0.122   0.118 -0.0158 -0.0410 -0.7004
  292TMC3    C2 4399   2.952   0.146   0.170 -0.3667 -1.1447  0.0784
  292TMC3    C3 4400   2.851   0.174   0.081 -0.2404 -0.2782  0.4331
  292TMC3    C4 4401   3.102   0.130  17.680  0.4797 -0.4162  0.1215
  292TMC3    C5 4402   3.000   0.170  17.600  0.5824 -0.1466  0.4163
  292TMC3    C6 4403   2.871   0.190  17.639 -0.1765 -0.1267  0.3062
  292TMC3     C 4404   3.176   0.086   0.219  0.3699 -0.3043  0.4674
  292TMC3     O 4405   3.134   0.047   0.324 -0.4798  0.2689 -0.4342
  292TMC3     H 4406   2.934   0.140   0.277 -1.7726 -1.2180 -0.1654
  292TMC3    H1 4407   3.198   0.099  17.639  0.6809 -0.0995  0.3576
  292TMC3    H2 4408   2.784   0.191  17.575 -1.4667  3.6089  2.1284
  292TMC3    C7 4409   3.000   0.106  17.475 -0.1191 -0.8005 -0.2679
  292TMC3    C8 4410   2.714   0.184   0.125 -0.2665  0.5542 -0.5449
  292TMC3    O1 4411   3.089   0.019  17.466 -0.9217  0.1679 -0.0268
  292TMC3    O2 4412   2.643   0.259   0.059  0.5125 -0.9737  0.6869
  293MPD2     C 4413   0.877   2.244  12.569 -0.3096  0.4461  0.0456
  293MPD2    C1 4414   0.813   2.145  12.632 -0.5856  0.5095  0.5640
  293MPD2    C2 4415   0.827   2.129  12.770  1.2673  0.1203  0.1865
  293MPD2    C3 4416   0.914   2.215  12.837  0.2000  0.0561  0.0728
  293MPD2    C4 4417   0.993   2.296  12.768  0.0898 -0.2166 -0.1334
  293MPD2    C5 4418   0.981   2.311  12.634  0.1167 -0.5289  0.4953
  293MPD2     H 4419   0.769   2.056  12.824  0.3740 -0.6290 -1.7892
  293MPD2    H1 4420   1.074   2.355  12.809  0.5545 -0.8367 -0.1619
  293MPD2    H2 4421   0.874   2.257  12.461  2.4994 -0.5574 -0.1656
  293MPD2    H3 4422   1.053   2.374  12.583 -1.0773 -1.3812 -2.2407
  293MPD2     N 4423   0.923   2.202  12.980  0.2204 -0.0694  0.0972
  293MPD2    H5 4424   0.862   2.134  13.024  1.1384  0.2673  1.8921
  293MPD2    N1 4425   0.729   2.067  12.558  0.4614 -0.3803  0.0559
  293MPD2    H7 4426   0.702   2.102  12.467 -0.7777 -0.6121  0.3290
  294TMC3    C1 4427   0.579   1.894  12.497  0.1165 -0.3873  0.4071
  294TMC3    C2 4428   0.464   1.832  12.530 -0.5073  0.3551 -0.8196
  294TMC3    C3 4429   0.369   1.804  12.436  0.7047  0.0724 -0.4414
  294TMC3    C4 4430   0.591   1.939  12.362  0.6389  0.4230 -0.3069
  294TMC3    C5 4431   0.494   1.909  12.267 -0.2480 -0.1313  0.6920
  294TMC3    C6 4432   0.379   1.837  12.301  0.7101 -0.1508  0.3361
  294TMC3     C 4433   0.639   1.967  12.605 -0.3418  0.5291 -0.4172
  294TMC3     O 4434   0.611   1.924  12.716 -0.4005  0.4825 -0.1780
  294TMC3     H 4435   0.444   1.801  12.632 -0.0857 -2.3999 -1.5910
  294TMC3    H1 4436   0.680   1.986  12.322  1.6756  0.2036  1.7391
  294TMC3    H2 4437   0.306   1.811  12.225  0.8905 -0.7303  0.3642
  294TMC3    C7 4438   0.542   1.936  12.131  0.5874 -0.2333  0.2124
  294TMC3    C8 4439   0.249   1.721  12.478 -0.5227 -0.4046  0.4135
  294TMC3    O1 4440   0.658   1.969  12.100  0.0862  0.4278 -0.1908
  294TMC3    O2 4441   0.230   1.734  12.599 -0.9927 -0.0099 -0.3503
  295MPD2     C 4442   0.659   0.371   0.021 -0.7846  0.1741 -0.0952
  295MPD2    C1 4443   0.746   0.463   0.078 -0.3401 -0.1645  0.3547
  295MPD2    C2 4444   0.695   0.556   0.168 -0.1731  0.0134 -0.2787
  295MPD2    C3 4445   0.562   0.566   0.201  0.0814 -0.3799  0.2177
  295MPD2    C4 4446   0.475   0.477   0.139 -0.5083  1.2550 -0.0341
  295MPD2    C5 4447   0.522   0.388   0.046 -0.3604  0.1777  0.5254
  295MPD2     H 4448   0.764   0.624   0.217  1.2060 -0.4175 -1.6206
  295MPD2    H1 4449   0.373   0.483   0.175 -0.1175  0.9467  1.1443
  295MPD2    H2 4450   0.701   0.295  17.650 -0.7495 -0.3515  0.5293
  295MPD2    H3 4451   0.450   0.312   0.016  1.4064 -0.1011 -3.0675
  295MPD2     N 4452   0.515   0.652   0.300 -0.6626  0.4588  0.0319
  295MPD2    H5 4453   0.420   0.633   0.330 -0.2756  0.0884  1.0218
  295MPD2    N1 4454   0.881   0.460   0.044 -0.8002  0.3822  0.1638
  295MPD2    H7 4455   0.937   0.539   0.076 -0.3275  0.3394 -0.5644
  296TMC3    C1 4456   0.530   0.816   0.480  0.9611  0.3619 -0.4575
  296TMC3    C2 4457   0.598   0.917   0.541 -0.5311 -0.0233 -0.1734
  296TMC3    C3 4458   0.591   0.916   0.680  0.0571 -0.4640 -0.3515
  296TMC3    C4 4459   0.448   0.738   0.564  0.2339  0.4321  0.1673
  296TMC3    C5 4460   0.434   0.756   0.703 -0.4057 -0.3360  0.4887
  296TMC3    C6 4461   0.506   0.850   0.763  0.2034  0.7755  0.2104
  296TMC3     C 4462   0.588   0.752   0.362  0.1039 -0.4828  0.0165
  296TMC3     O 4463   0.701   0.791   0.344 -0.0466 -0.6043  0.8665
  296TMC3     H 4464   0.671   0.976   0.487  0.9441  0.2498  2.1285
  296TMC3    H1 4465   0.369   0.678   0.521  0.6007 -1.1577  1.7414
  296TMC3    H2 4466   0.503   0.870   0.870 -2.3485 -1.1201  0.4836
  296TMC3    C7 4467   0.294   0.744   0.755 -0.5142  0.4666 -0.4340
  296TMC3    C8 4468   0.669   1.019   0.740 -0.3722  0.2079  0.2936
  296TMC3    O1 4469   0.211   0.692   0.680  0.5899 -0.5395  0.3357
  296TMC3    O2 4470   0.702   1.113   0.672  0.1531  0.1875 -0.2243
  297MPD2     C 4471   2.767   2.734  16.401  0.8100 -0.4542 -0.9409
  297MPD2    C1 4472   2.710   2.814  16.307 -0.3192 -0.4783  0.1718
  297MPD2    C2 4473   2.792   2.902  16.232 -0.2532 -0.0704  0.4644
  297MPD2    C3 4474   2.928   2.895  16.245  0.5888 -0.1022  0.5127
  297MPD2    C4 4475   2.986   2.813  16.338 -0.1261 -0.1919 -0.7571
  297MPD2    C5 4476   2.902   2.737  16.420  0.2663 -0.0093  0.0811
  297MPD2     H 4477   2.745   2.965  16.158 -0.9740 -0.3979  0.6400
  297MPD2    H1 4478   3.093   2.812  16.356  0.1844  1.3780 -2.5771
  297MPD2    H2 4479   2.704   2.680  16.470  1.7029  0.2757  0.4429
  297MPD2    H3 4480   2.939   2.675  16.500 -0.2150 -1.2649 -0.6715
  297MPD2     N 4481   3.012   2.984  16.183 -0.1609  0.2119  0.2395
  297MPD2    H5 4482   2.979   3.061  16.126  0.4216 -0.3683 -0.8896
  297MPD2    N1 4483   2.566   2.822  16.282  0.2528 -0.5988 -0.3962
  297MPD2    H7 4484   2.532   2.881  16.207  0.3686  0.9794  0.7907
  298TMC3    C1 4485   2.343   2.782  16.280  0.1540 -0.6570  0.0974
  298TMC3    C2 4486   2.338   2.783  16.143 -0.2804  0.2438  0.3393
  298TMC3    C3 4487   2.213   2.768  16.080  0.0062  0.7622  0.0853
  298TMC3    C4 4488   2.222   2.784  16.353 -0.5214 -0.2182 -0.1352
  298TMC3    C5 4489   2.104   2.786  16.281 -0.5203  0.0361  0.9116
  298TMC3    C6 4490   2.096   2.778  16.144 -0.2523  0.0672 -0.5276
  298TMC3     C 4491   2.467   2.756  16.346 -0.1951 -0.3990  0.0822
  298TMC3     O 4492   2.467   2.681  16.444  0.1710 -0.0149 -0.2316
  298TMC3     H 4493   2.434   2.757  16.099 -1.3479 -0.8368 -1.3639
  298TMC3    H1 4494   2.219   2.779  16.461  1.9381 -1.0618 -0.1076
  298TMC3    H2 4495   2.007   2.790  16.084 -1.3848 -2.4648  0.6756
  298TMC3    C7 4496   1.984   2.820  16.357  0.6489 -0.3796 -0.1515
  298TMC3    C8 4497   2.208   2.814  15.940  0.0197 -0.2984 -0.3967
  298TMC3    O1 4498   1.994   2.877  16.462  0.2119  0.2198 -0.0179
  298TMC3    O2 4499   2.126   2.778  15.863  0.0975 -0.2520 -0.2589
  299MPD2     C 4500   4.418   2.018  10.445 -0.0235 -0.9566  0.3147
  299MPD2    C1 4501   4.424   2.155  10.449 -0.0308 -0.5116  0.6037
  299MPD2    C2 4502   4.341   2.225  10.375 -0.2971 -0.0839 -0.2300
  299MPD2    C3 4503   4.251   2.160  10.294 -0.3290 -0.3723 -0.2324
  299MPD2    C4 4504   4.244   2.025  10.280  0.1890 -0.3502 -0.5865
  299MPD2    C5 4505   4.331   1.953  10.353  0.2841 -0.3667 -0.0797
  299MPD2     H 4506   4.334   2.333  10.383 -2.4717 -0.1968 -0.6921
  299MPD2    H1 4507   4.170   1.977  10.218  0.9701 -0.5795 -1.3393
  299MPD2    H2 4508   4.474   1.954  10.513 -3.5760 -2.2190  2.0649
  299MPD2    H3 4509   4.334   1.844  10.357  1.0319 -0.3622 -0.6121
  299MPD2     N 4510   4.151   2.228  10.232  0.6284  0.6002 -0.0629
  299MPD2    H5 4511   4.078   2.168  10.194  0.9273  1.3533 -1.8213
  299MPD2    N1 4512   4.507   2.210  10.556  0.6421  0.1728  0.1299
  299MPD2    H7 4513   4.543   2.143  10.622  2.8495 -0.9464 -2.2328
  300TMC3    C1 4514   4.025   2.408  10.136 -0.2827  0.2305 -0.5499
  300TMC3    C2 4515   3.988   2.537  10.152 -0.2198  0.7046  0.9655
  300TMC3    C3 4516   3.866   2.577  10.120  0.3902 -0.4778 -0.5074
  300TMC3    C4 4517   3.941   2.320  10.072 -0.3699  0.0069 -0.3831
  300TMC3    C5 4518   3.816   2.360  10.040  0.3675 -0.3851  0.1146
  300TMC3    C6 4519   3.773   2.489  10.069  0.5688  0.1879  0.3048
  300TMC3     C 4520   4.141   2.366  10.212  0.4332 -0.0998 -0.2029
  300TMC3     O 4521   4.221   2.453  10.238  0.5876  0.6731 -0.6232
  300TMC3     H 4522   4.052   2.614  10.194 -0.2630  1.0401  0.4212
  300TMC3    H1 4523   3.986   2.226  10.043  0.7440  1.0618 -2.0957
  300TMC3    H2 4524   3.679   2.526  10.031  1.6897  1.2036 -1.5107
  300TMC3    C7 4525   3.730   2.247  10.086  0.2484 -0.7465 -0.4935
  300TMC3    C8 4526   3.813   2.685  10.188 -0.9112  0.4067 -0.8962
  300TMC3    O1 4527   3.735   2.139  10.028 -0.3885 -0.6151  0.1557
  300TMC3    O2 4528   3.734   2.763  10.132 -0.0123  0.1898 -0.1932
  301MPD2     C 4529   0.526   4.172   2.063  0.3759 -0.1934  0.1529
  301MPD2    C1 4530   0.517   4.243   1.934  0.1705  0.0852 -0.0669
  301MPD2    C2 4531   0.598   4.200   1.834 -0.6184 -0.3306  0.1283
  301MPD2    C3 4532   0.688   4.099   1.846 -0.0869 -0.5305  0.3361
  301MPD2    C4 4533   0.697   4.042   1.971 -0.3362  0.0187 -0.0451
  301MPD2    C5 4534   0.625   4.078   2.083  0.6900  0.2137  0.2396
  301MPD2     H 4535   0.584   4.241   1.735  1.8945 -0.6789 -0.3601
  301MPD2    H1 4536   0.767   3.962   1.989 -2.9428 -2.1188  0.5745
  301MPD2    H2 4537   0.460   4.212   2.139  2.3994  2.7637  0.3483
  301MPD2    H3 4538   0.640   4.040   2.184  4.1285  1.9209  0.3896
  301MPD2     N 4539   0.766   4.045   1.742  0.0977  0.4462 -0.0224
  301MPD2    H5 4540   0.819   3.965   1.774  0.7341 -0.0457 -2.3163
  301MPD2    N1 4541   0.421   4.338   1.903  0.0185 -0.4490 -0.6511
  301MPD2    H7 4542   0.433   4.383   1.812  0.1926 -0.9528 -0.8769
  302TMC3    C1 4543   0.822   4.007   1.515  0.0548 -0.4297 -0.6284
  302TMC3    C2 4544   0.809   3.875   1.543 -0.0403  0.5180  0.0841
  302TMC3    C3 4545   0.775   3.795   1.442 -0.4454 -0.4657  0.3389
  302TMC3    C4 4546   0.809   4.054   1.385  0.0063  0.2115  0.2415
  302TMC3    C5 4547   0.783   3.967   1.283  1.2298  0.5572 -0.2391
  302TMC3    C6 4548   0.758   3.840   1.308  0.1497  0.0903  0.9903
  302TMC3     C 4549   0.786   4.103   1.618  0.8474 -0.2675 -0.4809
  302TMC3     O 4550   0.746   4.209   1.581  0.3781  0.4407 -0.1955
  302TMC3     H 4551   0.835   3.841   1.643 -0.8973 -0.2635  0.0346
  302TMC3    H1 4552   0.811   4.158   1.356  0.2784 -0.5397 -2.4167
  302TMC3    H2 4553   0.739   3.776   1.223  3.0598 -1.1054  1.2516
  302TMC3    C7 4554   0.698   4.017   1.171 -0.1383 -0.5138  0.5454
  302TMC3    C8 4555   0.783   3.648   1.464 -0.1678 -0.1062  0.6370
  302TMC3    O1 4556   0.699   4.138   1.154 -0.3226 -0.2762 -0.0292
  302TMC3    O2 4557   0.804   3.576   1.369 -0.3584  0.5630  0.3933
  303MPD2     C 4558   1.894   1.878  10.602  0.1594 -0.4254  0.1277
  303MPD2    C1 4559   1.814   1.767  10.611 -0.0125 -0.1702 -1.0183
  303MPD2    C2 4560   1.730   1.733  10.504  0.0900  0.2237 -0.7733
  303MPD2    C3 4561   1.719   1.821  10.394  0.2350  0.2492 -0.7417
  303MPD2    C4 4562   1.791   1.944  10.396  0.0631 -0.1133 -0.1877
  303MPD2    C5 4563   1.884   1.963  10.498 -0.0003 -0.1058 -0.3386
  303MPD2     H 4564   1.681   1.636  10.503  2.1798 -0.8779  2.1304
  303MPD2    H1 4565   1.777   2.027  10.329  2.7436  1.1006  0.7421
  303MPD2    H2 4566   1.961   1.900  10.684 -1.6074  2.0295  0.9190
  303MPD2    H3 4567   1.952   2.047  10.503  0.7242 -0.7499  0.5861
  303MPD2     N 4568   1.611   1.820  10.307  0.5061  0.7510  0.0477
  303MPD2    H5 4569   1.591   1.899  10.247 -0.1646  0.0581 -0.6278
  303MPD2    N1 4570   1.838   1.681  10.722 -0.6449 -0.6970  0.4200
  303MPD2    H7 4571   1.903   1.718  10.790 -1.0162  0.0826  0.3549
  304TMC3    C1 4572   1.816   1.511  10.882 -0.4579 -0.0802 -0.2707
  304TMC3    C2 4573   1.832   1.603  10.979 -0.0469  1.3561  0.3233
  304TMC3    C3 4574   1.788   1.581  11.110  0.1814  0.5174 -0.7100
  304TMC3    C4 4575   1.770   1.389  10.918  0.4978  0.6079 -0.1305
  304TMC3    C5 4576   1.754   1.362  11.047  0.9189 -0.3929 -0.2696
  304TMC3    C6 4577   1.756   1.454  11.143  0.5774 -0.3506  0.4564
  304TMC3     C 4578   1.796   1.547  10.745 -0.5019 -0.4051 -0.0681
  304TMC3     O 4579   1.723   1.475  10.683  0.2617  0.1151 -0.0692
  304TMC3     H 4580   1.852   1.705  10.947 -1.2154  0.7574 -2.3427
  304TMC3    H1 4581   1.769   1.316  10.837  0.8134  1.2953 -0.7505
  304TMC3    H2 4582   1.720   1.431  11.243  1.7881 -0.4761  0.8627
  304TMC3    C7 4583   1.655   1.264  11.075 -0.3821  0.1553 -0.1430
  304TMC3    C8 4584   1.678   1.675  11.130  0.1577  0.4762  0.2202
  304TMC3    O1 4585   1.576   1.283  11.168 -0.4530 -0.5840 -0.4001
  304TMC3    O2 4586   1.691   1.790  11.091  0.0185 -0.0968  0.1015
  305MPD2     C 4587   3.707   3.631  13.894  0.2629  0.8625 -0.1105
  305MPD2    C1 4588   3.840   3.663  13.887  0.8005 -0.0259  0.3192
  305MPD2    C2 4589   3.913   3.625  13.775  0.2662 -0.6379  0.3620
  305MPD2    C3 4590   3.848   3.567  13.668 -0.5651 -0.1271  0.0484
  305MPD2    C4 4591   3.719   3.525  13.684  0.1952  0.8457  0.1771
  305MPD2    C5 4592   3.641   3.557  13.793  0.1206 -0.1154 -0.3957
  305MPD2     H 4593   4.017   3.654  13.767  0.3409 -0.7783  0.8347
  305MPD2    H1 4594   3.668   3.490  13.595  0.3155 -0.3121  0.5655
  305MPD2    H2 4595   3.644   3.654  13.979 -0.0435 -2.4638  0.5398
  305MPD2    H3 4596   3.538   3.529  13.812  0.2657 -0.8081 -0.6214
  305MPD2     N 4597   3.899   3.533  13.542 -0.2099 -0.4531 -0.0872
  305MPD2    H5 4598   3.834   3.479  13.486 -1.5238  0.8884  0.1348
  305MPD2    N1 4599   3.911   3.717  13.994 -0.3551 -0.3632  0.3576
  305MPD2    H7 4600   4.006   3.750  13.978  0.1734 -2.6602 -1.3295
  306TMC3    C1 4601   3.939   3.830  14.203 -0.1888  0.0648  0.1470
  306TMC3    C2 4602   4.062   3.778  14.221 -0.7051  0.0779  0.0799
  306TMC3    C3 4603   4.140   3.826  14.329 -0.6366 -0.2023 -0.1908
  306TMC3    C4 4604   3.893   3.916  14.303  0.0332  0.4071  0.2453
  306TMC3    C5 4605   3.968   3.961  14.402 -0.4727  0.4384  0.0981
  306TMC3    C6 4606   4.094   3.912  14.422 -0.0360 -0.3513  0.0919
  306TMC3     C 4607   3.850   3.785  14.102  0.0858  0.1808 -0.1314
  306TMC3     O 4608   3.728   3.793  14.123  0.6554  0.4703 -0.3637
  306TMC3     H 4609   4.099   3.699  14.156  0.8634 -2.3062  3.9139
  306TMC3    H1 4610   3.787   3.938  14.307  0.0082  0.2159  0.6988
  306TMC3    H2 4611   4.143   3.954  14.510 -0.8097  1.3661 -0.3039
  306TMC3    C7 4612   3.919   4.075  14.469  0.0576 -0.0690  0.2438
  306TMC3    C8 4613   4.269   3.761  14.347  0.1149 -0.5241  0.0955
  306TMC3    O1 4614   3.820   4.131  14.416 -0.7659  0.6171  0.3345
  306TMC3    O2 4615   4.283   3.661  14.279 -0.5009 -0.2994 -0.3619
  307MPD2     C 4616   1.674   1.687   0.377  0.1630  0.0655 -0.4973
  307MPD2    C1 4617   1.612   1.790   0.450 -0.1949 -0.1308 -0.0239
  307MPD2    C2 4618   1.517   1.769   0.550  0.2090 -0.0538 -0.2421
  307MPD2    C3 4619   1.481   1.635   0.572 -0.1695 -0.5538  0.1471
  307MPD2    C4 4620   1.547   1.531   0.505 -0.3984  0.6276  0.7571
  307MPD2    C5 4621   1.640   1.556   0.407  0.5361 -0.0289  0.2390
  307MPD2     H 4622   1.469   1.851   0.602 -2.6460 -0.6833 -1.8876
  307MPD2    H1 4623   1.517   1.428   0.519 -0.3060  0.3581 -0.9920
  307MPD2    H2 4624   1.753   1.720   0.310  0.2461  0.9724  0.0361
  307MPD2    H3 4625   1.679   1.474   0.347 -1.5676 -0.1938 -0.8911
  307MPD2     N 4626   1.380   1.610   0.666  0.3733 -0.0631  0.3566
  307MPD2    H5 4627   1.345   1.688   0.721  1.7649 -0.0041  1.1557
  307MPD2    N1 4628   1.633   1.926   0.434  0.3638  0.1483  0.1387
  307MPD2    H7 4629   1.587   1.988   0.500 -3.8665  0.5729 -3.2066
  308TMC3    C1 4630   0.984   1.549   0.787 -0.5660  0.0603 -0.0881
  308TMC3    C2 4631   1.005   1.648   0.878 -0.0929  0.5129  0.3113
  308TMC3    C3 4632   1.132   1.668   0.926 -0.3359  0.2418  0.0610
  308TMC3    C4 4633   1.086   1.472   0.737  0.6735 -0.1765  0.6764
  308TMC3    C5 4634   1.217   1.499   0.779 -0.6977  0.2616  0.8161
  308TMC3    C6 4635   1.240   1.594   0.871  0.3200  1.0704 -0.3493
  308TMC3     C 4636   0.862   1.546   0.703  0.4032 -0.3634 -0.1671
  308TMC3     O 4637   0.850   1.454   0.623  0.0806 -0.2534  0.6753
  308TMC3     H 4638   0.921   1.703   0.918 -0.4554 -0.1443  0.4548
  308TMC3    H1 4639   1.079   1.417   0.644 -0.8296  1.2499 -0.0585
  308TMC3    H2 4640   1.338   1.602   0.917  0.7858  2.1335 -1.5411
  308TMC3    C7 4641   1.319   1.485   0.680 -0.4874  0.0621 -0.2221
  308TMC3    C8 4642   1.157   1.748   1.043  0.6125 -0.6203 -0.0239
  308TMC3    O1 4643   1.297   1.396   0.598  0.6893 -0.6934 -0.6126
  308TMC3    O2 4644   1.247   1.711   1.115  0.0365  0.2381  0.4825
  309MPD2     C 4645   0.709   2.362  17.402 -0.5861 -1.1704  0.6668
  309MPD2    C1 4646   0.652   2.422  17.292 -0.0719  0.2191  0.2199
  309MPD2    C2 4647   0.524   2.481  17.289 -0.0938 -0.2119 -0.2236
  309MPD2    C3 4648   0.452   2.464  17.408 -0.0620 -0.5169 -0.3037
  309MPD2    C4 4649   0.502   2.400  17.518 -0.1161  0.8150  0.4438
  309MPD2    C5 4650   0.628   2.346  17.516 -0.4430 -0.1735 -0.0608
  309MPD2     H 4651   0.485   2.526  17.199 -1.5834  1.2570  1.1575
  309MPD2    H1 4652   0.447   2.389  17.611 -1.1069  2.1127  0.0034
  309MPD2    H2 4653   0.813   2.333  17.417  0.2078  0.6444 -1.3424
  309MPD2    H3 4654   0.674   2.297  17.601 -2.0454  2.0289  2.0566
  309MPD2     N 4655   0.322   2.526  17.429  0.1701  0.0591  0.1717
  309MPD2    H5 4656   0.283   2.518  17.522  0.1699 -1.5898  0.0368
  309MPD2    N1 4657   0.737   2.441  17.177  0.2960 -0.0143 -0.4963
  309MPD2    H7 4658   0.695   2.489  17.098  0.2039  0.5878 -0.0784
  310TMC3    C1 4659   0.920   2.453  17.028  0.3354  1.0500 -0.2165
  310TMC3    C2 4660   0.829   2.490  16.923 -0.4597  0.1329 -0.1618
  310TMC3    C3 4661   0.872   2.474  16.790  0.4409 -0.2885 -0.3649
  310TMC3    C4 4662   1.048   2.425  16.997  1.2503  0.2312  0.4316
  310TMC3    C5 4663   1.082   2.406  16.866  0.0750 -0.1451 -0.0539
  310TMC3    C6 4664   0.996   2.438  16.761 -0.1641  0.3882 -0.2826
  310TMC3     C 4665   0.866   2.399  17.157 -0.5568 -0.0242 -0.4650
  310TMC3     O 4666   0.939   2.319  17.215 -0.5040  0.6259  0.3729
  310TMC3     H 4667   0.728   2.526  16.939 -1.2462 -1.6029 -1.2144
  310TMC3    H1 4668   1.115   2.409  17.080  0.6701 -2.5529  0.3437
  310TMC3    H2 4669   1.033   2.448  16.659 -0.5557  1.2147 -0.3472
  310TMC3    C7 4670   1.219   2.382  16.824  0.1542  0.2594 -0.1475
  310TMC3    C8 4671   0.797   2.539  16.683 -0.3811  0.6561  0.0881
  310TMC3    O1 4672   1.226   2.336  16.713 -0.1866 -0.0489  0.0908
  310TMC3    O2 4673   0.859   2.557  16.581 -0.3774  0.1454 -0.2873
  311MPD2     C 4674   3.435   3.393  12.744  0.0892  0.1529  0.8872
  311MPD2    C1 4675   3.439   3.516  12.674  0.1182  0.6680 -0.8561
  311MPD2    C2 4676   3.328   3.594  12.671 -0.0108  0.0971  0.6524
  311MPD2    C3 4677   3.204   3.552  12.730 -0.5942  0.1340  0.3305
  311MPD2    C4 4678   3.204   3.427  12.785 -0.1123  0.5488  0.2592
  311MPD2    C5 4679   3.320   3.359  12.808 -0.0004  0.5741 -0.0121
  311MPD2     H 4680   3.331   3.693  12.625  1.4900 -0.9161 -1.4091
  311MPD2    H1 4681   3.120   3.390  12.842  0.6116 -0.7783  0.4647
  311MPD2    H2 4682   3.518   3.325  12.762 -0.2167 -0.6794 -0.8169
  311MPD2    H3 4683   3.321   3.265  12.862 -2.5017  0.9791  0.7133
  311MPD2     N 4684   3.088   3.637  12.735  0.5469  0.0311  0.4337
  311MPD2    H5 4685   3.119   3.733  12.727  0.7501 -0.1889 -1.2219
  311MPD2    N1 4686   3.558   3.567  12.621 -0.1759  0.5674  0.7853
  311MPD2    H7 4687   3.563   3.660  12.580  0.3647 -1.1614 -3.0432
  312TMC3    C1 4688   2.883   3.724  12.795  0.0701  0.1472  0.4465
  312TMC3    C2 4689   2.747   3.711  12.799 -0.3168  0.4409 -0.9935
  312TMC3    C3 4690   2.675   3.797  12.870 -0.0888  0.2313 -0.0010
  312TMC3    C4 4691   2.936   3.817  12.875  0.2703 -0.0254 -0.2881
  312TMC3    C5 4692   2.861   3.890  12.963  0.1793  0.0370 -0.5607
  312TMC3    C6 4693   2.726   3.888  12.952 -0.0200  0.2529  0.2412
  312TMC3     C 4694   2.961   3.603  12.771 -0.1044 -0.6612  0.1849
  312TMC3     O 4695   2.909   3.492  12.776  0.2690  0.0079  0.3792
  312TMC3     H 4696   2.700   3.633  12.739  0.9341 -2.5996  2.0093
  312TMC3    H1 4697   3.044   3.820  12.880  0.2957 -1.0551 -0.2248
  312TMC3    H2 4698   2.665   3.950  13.016 -2.7910 -0.4084 -1.7581
  312TMC3    C7 4699   2.942   3.989  13.031  0.4937  0.0080  0.1432
  312TMC3    C8 4700   2.531   3.799  12.847  0.0524 -0.5745 -0.0328
  312TMC3    O1 4701   3.048   4.024  12.985  0.7357  0.4660  0.5287
  312TMC3    O2 4702   2.488   3.684  12.826  0.1507 -0.3341 -1.2539
  313MPD2     C 4703   3.384   3.033  10.575  0.5995 -0.1911 -0.1706
  313MPD2    C1 4704   3.304   2.929  10.594  0.5303  0.6244 -0.5817
  313MPD2    C2 4705   3.287   2.839  10.498  0.8058 -0.2414  0.5798
  313MPD2    C3 4706   3.340   2.855  10.371 -0.3301 -0.1590  0.7145
  313MPD2    C4 4707   3.413   2.973  10.349 -0.3965  0.4463 -0.3674
  313MPD2    C5 4708   3.431   3.058  10.450 -0.2714 -0.0296 -0.3852
  313MPD2     H 4709   3.226   2.750  10.506  1.7922 -1.0322 -0.6214
  313MPD2    H1 4710   3.468   2.997  10.259 -1.7183  1.5491 -0.8701
  313MPD2    H2 4711   3.405   3.099  10.658  1.0357 -0.6548  0.0919
  313MPD2    H3 4712   3.486   3.150  10.432 -1.2320  0.3832 -1.2630
  313MPD2     N 4713   3.318   2.758  10.269  0.1005 -0.1925 -0.5133
  313MPD2    H5 4714   3.267   2.674  10.296  0.4224 -0.5478 -1.0066
  313MPD2    N1 4715   3.251   2.907  10.723  0.0264 -0.0342  0.0304
  313MPD2    H7 4716   3.265   2.979  10.793 -0.8625  0.9540 -0.8092
  314TMC3    C1 4717   3.084   2.858  10.886 -0.2644 -0.6956  0.4574
  314TMC3    C2 4718   3.161   2.902  10.993 -0.2006  0.2390  0.4640
  314TMC3    C3 4719   3.098   2.969  11.096  0.2720 -0.3369 -0.5375
  314TMC3    C4 4720   2.950   2.882  10.880  0.2332  0.2414  0.4862
  314TMC3    C5 4721   2.891   2.957  10.978  0.1215 -0.0148 -0.1037
  314TMC3    C6 4722   2.963   2.994  11.086 -0.0096  0.4134  0.4731
  314TMC3     C 4723   3.143   2.829  10.754  0.5600  0.5317 -0.0448
  314TMC3     O 4724   3.068   2.766  10.679  0.4336  0.2382  0.5490
  314TMC3     H 4725   3.270   2.893  10.992 -0.2372 -0.0655 -0.5040
  314TMC3    H1 4726   2.891   2.838  10.801  0.0743 -0.6905  1.1280
  314TMC3    H2 4727   2.911   3.065  11.150  3.0417  2.2283  0.9368
  314TMC3    C7 4728   2.790   3.052  10.929  0.7641 -0.2139  0.0332
  314TMC3    C8 4729   3.178   3.031  11.200 -0.2236  0.5875  1.0771
  314TMC3    O1 4730   2.688   3.075  10.993 -0.4127  0.2075 -0.4061
  314TMC3    O2 4731   3.114   3.091  11.286 -0.0049  0.3455 -0.2753
  315MPD2     C 4732   2.082   2.193  17.306 -0.2410 -0.0635 -0.4386
  315MPD2    C1 4733   2.160   2.204  17.423 -0.3019  0.3415  0.3485
  315MPD2    C2 4734   2.199   2.326  17.461  0.4489  0.0129 -0.3345
  315MPD2    C3 4735   2.153   2.437  17.401  0.2225  0.2995  0.0940
  315MPD2    C4 4736   2.075   2.420  17.292 -0.3372 -0.3491  0.6156
  315MPD2    C5 4737   2.039   2.301  17.246 -0.6000  0.0206  0.2600
  315MPD2     H 4738   2.270   2.339  17.542  0.1835 -1.8779  0.2042
  315MPD2    H1 4739   2.049   2.508  17.235  1.2682 -0.7058 -0.6578
  315MPD2    H2 4740   2.050   2.095  17.275  0.3274  0.2355 -1.9842
  315MPD2    H3 4741   1.964   2.292  17.169  0.9417 -1.3561 -1.0721
  315MPD2     N 4742   2.205   2.565  17.442  0.2723 -0.0479  0.0062
  315MPD2    H5 4743   2.277   2.569  17.514 -0.6373 -1.5933  1.0028
  315MPD2    N1 4744   2.213   2.096  17.497 -0.4074 -0.7549 -0.1269
  315MPD2    H7 4745   2.267   2.115  17.581  0.6209 -0.3115 -0.9036
  316TMC3    C1 4746   2.221   2.795  17.475  0.1696 -0.0539 -0.3188
  316TMC3    C2 4747   2.349   2.786  17.525 -0.1219 -0.3653 -0.1102
  316TMC3    C3 4748   2.409   2.902  17.565  0.0820  1.0989 -0.7528
  316TMC3    C4 4749   2.151   2.916  17.464  0.2427  0.2467 -0.1134
  316TMC3    C5 4750   2.217   3.030  17.500 -0.1346  0.1623 -0.7378
  316TMC3    C6 4751   2.343   3.023  17.554 -0.5518 -0.5646  0.4218
  316TMC3     C 4752   2.150   2.691  17.404  0.5028 -0.0897 -0.0010
  316TMC3     O 4753   2.042   2.709  17.346 -0.2984  0.0491  0.6557
  316TMC3     H 4754   2.399   2.690  17.534  2.7548  0.8586 -3.2688
  316TMC3    H1 4755   2.048   2.907  17.433  0.6545  0.5939 -1.5898
  316TMC3    H2 4756   2.399   3.112  17.579  1.8862 -2.2225  0.8464
  316TMC3    C7 4757   2.179   3.161  17.452  0.2547  0.2035  0.1323
  316TMC3    C8 4758   2.537   2.905  17.641 -0.7459 -0.0154 -0.5783
  316TMC3    O1 4759   2.240   3.256  17.488 -0.3286 -0.2403  0.0208
  316TMC3    O2 4760   2.587   3.016  17.648  0.7002 -1.4065 -0.2726
  317MPD2     C 4761   4.056   0.766  13.037  0.0038  0.2573  0.2059
  317MPD2    C1 4762   4.127   0.658  12.985  0.0555 -0.4183 -0.4156
  317MPD2    C2 4763   4.218   0.590  13.067  0.3796 -0.1945 -0.1413
  317MPD2    C3 4764   4.237   0.627  13.199  1.2778  0.4537  0.1857
  317MPD2    C4 4765   4.146   0.721  13.256 -0.4339  0.0670 -0.3810
  317MPD2    C5 4766   4.062   0.789  13.174 -0.0088 -0.1254  0.0517
  317MPD2     H 4767   4.280   0.508  13.031 -0.7806 -2.2883  2.6093
  317MPD2    H1 4768   4.152   0.755  13.358  1.1131 -1.8736  0.1783
  317MPD2    H2 4769   3.970   0.811  12.988  0.1623 -0.4388 -0.7047
  317MPD2    H3 4770   4.008   0.869  13.222 -0.3109  0.8637 -1.9438
  317MPD2     N 4771   4.328   0.547  13.273  0.3997 -0.0378 -1.2664
  317MPD2    H5 4772   4.391   0.487  13.221  1.1945 -1.4933  1.4321
  317MPD2    N1 4773   4.130   0.628  12.846  0.6770  0.4140  0.5412
  317MPD2    H7 4774   4.191   0.552  12.817  0.4448  1.2250 -2.0691
  318TMC3    C1 4775   4.439   0.449  13.454 -0.0329 -0.3078  0.2658
  318TMC3    C2 4776   4.420   0.329  13.393  0.5136 -0.0554 -0.0736
  318TMC3    C3 4777   4.493   0.222  13.448  0.3827 -1.0402 -0.3624
  318TMC3    C4 4778   4.493   0.459  13.576  0.8290  0.0764  0.5142
  318TMC3    C5 4779   4.549   0.351  13.629  0.3653  0.1107  0.7557
  318TMC3    C6 4780   4.561   0.234  13.561  0.4668 -0.8084  0.0482
  318TMC3     C 4781   4.355   0.565  13.407 -0.6881  0.5018 -0.6518
  318TMC3     O 4782   4.292   0.622  13.497 -0.6662 -0.2511 -0.1421
  318TMC3     H 4783   4.347   0.326  13.313  2.1527  0.3329 -1.5801
  318TMC3    H1 4784   4.494   0.553  13.629  3.6728  1.7809 -2.5798
  318TMC3    H2 4785   4.604   0.147  13.609 -2.3977 -1.2246  1.8487
  318TMC3    C7 4786   4.653   0.381  13.727  0.6773  0.6635 -0.1399
  318TMC3    C8 4787   4.480   0.088  13.391 -0.0486 -0.3091  0.3188
  318TMC3    O1 4788   4.612   0.460  13.812  0.3778 -0.0166  0.6605
  318TMC3    O2 4789   4.531   4.714  13.444  0.5479  0.4512 -0.3150
  319MPD2     C 4790   0.681   2.243  16.495 -0.0364  0.2431  0.1359
  319MPD2    C1 4791   0.614   2.128  16.534 -0.5682 -0.2607 -0.1052
  319MPD2    C2 4792   0.518   2.069  16.450  0.3368 -0.2444  0.4392
  319MPD2    C3 4793   0.508   2.113  16.318 -0.3897 -0.5576  0.6549
  319MPD2    C4 4794   0.583   2.222  16.279 -0.0682 -0.3924  0.1231
  319MPD2    C5 4795   0.667   2.292  16.369  0.6726 -0.1264  0.4698
  319MPD2     H 4796   0.446   2.005  16.500  0.0127 -0.8292 -0.7486
  319MPD2    H1 4797   0.585   2.252  16.175  0.6155 -3.3374 -0.7104
  319MPD2    H2 4798   0.762   2.283  16.554  1.0150 -1.3370 -0.2350
  319MPD2    H3 4799   0.725   2.376  16.332 -0.2471 -0.8018 -2.5119
  319MPD2     N 4800   0.422   2.053  16.222 -0.2508  0.0786 -0.5308
  319MPD2    H5 4801   0.424   2.109  16.137 -0.7258 -1.3150 -1.4616
  319MPD2    N1 4802   0.624   2.070  16.661 -0.5928  0.1604  0.0243
  319MPD2    H7 4803   0.567   1.990  16.686  1.4350 -0.7371  1.7797
  320TMC3    C1 4804   0.269   1.910  16.124 -0.0533  0.4522 -0.2367
  320TMC3    C2 4805   0.215   2.016  16.054 -0.1212 -0.0433 -0.5136
  320TMC3    C3 4806   0.103   1.987  15.980 -0.0027  0.4735 -0.1656
  320TMC3    C4 4807   0.210   1.790  16.125  0.0986 -0.1335 -0.1097
  320TMC3    C5 4808   0.091   1.770  16.068 -0.1181  0.5180 -0.1064
  320TMC3    C6 4809   0.041   1.866  15.982 -0.1167 -0.0564  0.0904
  320TMC3     C 4810   0.351   1.938  16.238 -0.4760  0.2866 -0.1036
  320TMC3     O 4811   0.342   1.867  16.339  0.0125 -0.2764 -0.3174
  320TMC3     H 4812   0.260   2.115  16.058 -0.4501  0.1535 -1.7164
  320TMC3    H1 4813   0.256   1.709  16.181 -0.4771  1.6823  3.0092
  320TMC3    H2 4814   4.672   1.841  15.931 -0.1428  1.6485 -0.7128
  320TMC3    C7 4815   0.026   1.647  16.087  0.2362  0.5596  0.6047
  320TMC3    C8 4816   0.029   2.101  15.925 -0.3153 -0.3916  0.3753
  320TMC3    O1 4817   4.685   1.599  15.993 -0.0808  0.0624  0.4520
  320TMC3    O2 4818   0.073   2.213  15.943  0.6875 -0.2247  0.0681
  321TMC3    C1 4819   0.705   2.012  16.870  0.0274  0.4912 -0.3525
  321TMC3    C2 4820   0.647   1.890  16.845  0.1259  0.0306 -0.2394
  321TMC3    C3 4821   0.637   1.808  16.955 -0.5253  0.2487 -0.7144
  321TMC3    C4 4822   0.775   2.044  16.983  0.6178 -0.0549  0.0622
  321TMC3    C5 4823   0.760   1.960  17.089 -0.2514 -0.1142  0.1272
  321TMC3    C6 4824   0.678   1.852  17.079 -0.1109  0.0427  0.2412
  321TMC3     C 4825   0.709   2.109  16.761 -0.7809 -0.1018  0.7473
  321TMC3     O 4826   0.797   2.191  16.767 -0.8585  0.5536  0.6028
  321TMC3     H 4827   0.621   1.850  16.748  0.7004 -2.5294  0.6722
  321TMC3    H1 4828   0.804   2.147  17.000 -2.0128  0.8038 -0.5767
  321TMC3    H2 4829   0.672   1.792  17.169 -3.2971  2.1749  1.4615
  321TMC3    C7 4830   0.887   1.919  17.151  0.1353  0.6896  0.8886
  321TMC3    C8 4831   0.650   1.668  16.925  0.3012  0.0373  0.2528
  321TMC3    O1 4832   0.894   1.803  17.189 -0.0199  0.0043 -0.0444
  321TMC3    O2 4833   0.605   1.616  16.825  0.1632 -0.0488 -0.6509
  322MPD2     C 4834   4.347   2.801  13.412  0.4294  0.1403  0.7514
  322MPD2    C1 4835   4.268   2.859  13.514  0.1313 -0.2530 -0.2081
  322MPD2    C2 4836   4.230   2.779  13.623 -0.3595  0.3800 -0.2485
  322MPD2    C3 4837   4.262   2.642  13.621 -0.4480 -0.2150  0.2036
  322MPD2    C4 4838   4.323   2.585  13.513  0.5998 -0.0550  0.4581
  322MPD2    C5 4839   4.373   2.664  13.418 -0.7282  0.4010  0.2427
  322MPD2     H 4840   4.185   2.823  13.711 -0.9803  1.4938 -1.1264
  322MPD2    H1 4841   4.345   2.479  13.506  1.6594  0.0616  2.0231
  322MPD2    H2 4842   4.367   2.857  13.321 -1.2960 -0.8359 -0.2387
  322MPD2    H3 4843   4.425   2.613  13.338 -0.9209 -2.0416  1.6742
  322MPD2     N 4844   4.235   2.571  13.739  0.7169  0.0576 -0.0336
  322MPD2    H5 4845   4.209   2.627  13.819  0.3576 -0.3627  0.1411
  322MPD2    N1 4846   4.249   2.998  13.508 -0.2454  0.6824 -0.3886
  322MPD2    H7 4847   4.282   3.048  13.426 -0.3116 -0.7090 -1.2582
  323TMC3    C1 4848   4.222   3.217  13.602  0.6530 -0.0411 -0.6687
  323TMC3    C2 4849   4.337   3.262  13.538 -0.6004 -0.7978  0.1783
  323TMC3    C3 4850   4.392   3.376  13.578  0.1999 -0.1208  0.0372
  323TMC3    C4 4851   4.153   3.292  13.689  0.0434  0.2324  0.1207
  323TMC3    C5 4852   4.219   3.398  13.742  0.6609  0.3110  0.9111
  323TMC3    C6 4853   4.343   3.431  13.690  0.8243  0.4795 -0.2698
  323TMC3     C 4854   4.208   3.075  13.617 -0.0028  0.4364  0.1728
  323TMC3     O 4855   4.163   3.041  13.728  0.7671  0.3228 -0.7467
  323TMC3     H 4856   4.404   3.185  13.499 -0.3923 -0.4750 -0.1021
  323TMC3    H1 4857   4.070   3.248  13.742 -0.6302  3.1437  1.4846
  323TMC3    H2 4858   4.383   3.529  13.715  2.7594 -0.0426 -1.3244
  323TMC3    C7 4859   4.209   3.399  13.888  0.5524 -0.5451 -0.1498
  323TMC3    C8 4860   4.534   3.398  13.556 -0.1173 -0.0471  0.6809
  323TMC3    O1 4861   4.105   3.353  13.932  0.1026  0.6321 -0.2811
  323TMC3    O2 4862   4.612   3.405  13.653  0.0162 -0.0832 -0.0818
  324MPD2     C 4863   0.626   4.062  13.907 -0.7999  0.3361 -0.5683
  324MPD2    C1 4864   0.619   4.090  14.037  0.6538  0.3531 -0.1148
  324MPD2    C2 4865   0.508   4.043  14.108 -0.7958  0.4044  0.7662
  324MPD2    C3 4866   0.409   3.968  14.048  0.3128 -0.1510 -0.2566
  324MPD2    C4 4867   0.422   3.934  13.915 -0.2222  0.0391  0.3567
  324MPD2    C5 4868   0.529   3.980  13.846 -0.0963  0.2859  0.4397
  324MPD2     H 4869   0.505   4.077  14.211  1.5086  1.0983  0.6194
  324MPD2    H1 4870   0.339   3.885  13.865  0.1125 -0.5198  0.3462
  324MPD2    H2 4871   0.703   4.111  13.849  0.7521  0.7000  1.8043
  324MPD2    H3 4872   0.540   3.952  13.742 -0.0932  1.5731  0.0907
  324MPD2     N 4873   0.293   3.923  14.109  0.2066 -0.2150  0.0245
  324MPD2    H5 4874   0.226   3.864  14.060 -0.5598  0.2690  0.4847
  324MPD2    N1 4875   0.707   4.187  14.102  0.3090 -0.8138 -0.2859
  324MPD2    H7 4876   0.674   4.240  14.182 -0.6677 -1.7764 -0.0549
  325TMC3    C1 4877   0.111   3.926  14.241  0.4858  0.0148 -0.2097
  325TMC3    C2 4878   0.069   3.820  14.166  0.7100  0.4307 -0.6103
  325TMC3    C3 4879   4.656   3.805  14.136  0.0521 -0.9638 -0.0434
  325TMC3    C4 4880   0.029   4.026  14.279  0.7348  0.1294 -0.1706
  325TMC3    C5 4881   4.631   4.025  14.210  0.5396 -0.5283  0.1652
  325TMC3    C6 4882   4.577   3.916  14.146  0.8922 -0.3045 -0.5741
  325TMC3     C 4883   0.250   3.961  14.233  0.3463 -0.0362 -0.0322
  325TMC3     O 4884   0.293   4.064  14.288  0.8954  0.5317 -0.9036
  325TMC3     H 4885   0.139   3.739  14.150 -2.3716 -2.1271 -1.3582
  325TMC3    H1 4886   0.061   4.120  14.324 -0.4746  1.1798 -1.5059
  325TMC3    H2 4887   4.488   3.925  14.086  0.5731  2.0646  0.2534
  325TMC3    C7 4888   4.599   4.141  14.135 -0.1685  0.0753  0.2104
  325TMC3    C8 4889   4.627   3.709  14.024 -0.2388  0.5339  0.0216
  325TMC3    O1 4890   4.583   4.108  14.017 -0.2712 -0.5158  0.6093
  325TMC3    O2 4891   4.714   3.657  13.956  0.0323  0.1950  0.0535
  326MPD2     C 4892   2.375   0.664  11.065  0.0773 -0.6357  0.2746
  326MPD2    C1 4893   2.371   0.683  10.930  0.2101  0.2117 -0.1137
  326MPD2    C2 4894   2.470   0.761  10.873 -0.0490  0.0490 -0.1633
  326MPD2    C3 4895   2.564   0.825  10.950 -0.5524  0.0171  0.4321
  326MPD2    C4 4896   2.564   0.806  11.091 -0.0953  0.2947  0.5085
  326MPD2    C5 4897   2.470   0.720  11.141  0.0077  0.4708  0.0551
  326MPD2     H 4898   2.487   0.762  10.766 -3.4504  0.4900 -0.6948
  326MPD2    H1 4899   2.644   0.847  11.151  1.4030 -1.4150 -0.3096
  326MPD2    H2 4900   2.306   0.592  11.107  0.2777  0.1301  1.9197
  326MPD2    H3 4901   2.464   0.697  11.247  0.9432  1.0573  0.2346
  326MPD2     N 4902   2.664   0.907  10.890  0.0688  0.1414 -0.1610
  326MPD2    H5 4903   2.736   0.947  10.949 -0.1148  0.9934 -0.5046
  326MPD2    N1 4904   2.286   0.607  10.847  0.4518 -0.2618  0.8053
  326MPD2    H7 4905   2.308   0.628  10.750 -0.3476  0.1264  0.7093
  327TMC3    C1 4906   2.160   0.437  10.768  0.1320  0.9153 -0.5924
  327TMC3    C2 4907   2.047   0.475  10.694  0.1045 -0.2356 -0.4492
  327TMC3    C3 4908   2.048   0.462  10.560  0.3141  0.1252 -0.0550
  327TMC3    C4 4909   2.273   0.395  10.700  0.4032  0.7081 -0.0493
  327TMC3    C5 4910   2.267   0.382  10.563 -0.1328  0.5453  0.0358
  327TMC3    C6 4911   2.155   0.402  10.495  0.1054 -0.0020  0.1804
  327TMC3     C 4912   2.189   0.522  10.883 -0.6075  0.4958  0.2227
  327TMC3     O 4913   2.121   0.505  10.987 -0.1494 -0.0873  0.1399
  327TMC3     H 4914   1.961   0.513  10.747  0.3263  0.8977 -0.8919
  327TMC3    H1 4915   2.362   0.354  10.748 -0.4509 -2.9544 -1.5505
  327TMC3    H2 4916   2.142   0.405  10.387 -2.8844  0.2833  0.5682
  327TMC3    C7 4917   2.387   0.409  10.481  0.4586  0.0621  0.3490
  327TMC3    C8 4918   1.968   0.562  10.479 -0.0270  0.9057  0.2587
  327TMC3    O1 4919   2.362   0.414  10.360  0.6230  0.5390  0.4650
  327TMC3    O2 4920   2.021   0.592  10.373  0.3199 -0.3017  0.4184
  328MPD2     C 4921   0.322   1.164  17.234  0.0383 -0.0347 -0.6771
  328MPD2    C1 4922   0.249   1.087  17.144 -0.2564  0.2187  0.6627
  328MPD2    C2 4923   0.178   1.152  17.046 -0.0641  0.0609  0.0151
  328MPD2    C3 4924   0.168   1.285  17.036  0.2744  0.3724 -0.4574
  328MPD2    C4 4925   0.249   1.357  17.116 -0.5574  0.7430  0.4299
  328MPD2    C5 4926   0.326   1.298  17.214  0.2973 -0.2970 -0.3511
  328MPD2     H 4927   0.111   1.093  16.984 -0.6174 -0.0838  0.7477
  328MPD2    H1 4928   0.247   1.466  17.115  1.9168  0.7727 -2.4094
  328MPD2    H2 4929   0.375   1.131  17.323  0.7968 -0.8967 -1.4518
  328MPD2    H3 4930   0.380   1.368  17.277  0.7442 -2.0933  1.2321
  328MPD2     N 4931   0.080   1.356  16.947 -0.0111 -0.2232 -0.5609
  328MPD2    H5 4932   0.062   1.455  16.964  0.3173 -0.4284  0.9525
  328MPD2    N1 4933   0.246   0.951  17.163  0.1119  0.1026  0.4847
  328MPD2    H7 4934   0.284   0.930  17.255 -1.4541  1.0651  1.3391
  329TMC3    C1 4935   0.204   0.724  17.143  0.4784 -0.2823  0.4312
  329TMC3    C2 4936   0.096   0.643  17.142 -0.1947  0.3045 -0.0169
  329TMC3    C3 4937   0.087   0.540  17.236 -0.1382 -0.1253  1.2047
  329TMC3    C4 4938   0.304   0.712  17.235 -0.1681  0.6719 -0.5398
  329TMC3    C5 4939   0.292   0.608  17.319 -0.3036 -0.5660  0.1248
  329TMC3    C6 4940   0.183   0.523  17.329 -0.9218 -0.3004 -0.1765
  329TMC3     C 4941   0.181   0.858  17.083 -0.2271  0.3435  0.2191
  329TMC3     O 4942   0.105   0.871  16.987  0.5186 -0.0870 -0.0031
  329TMC3     H 4943   0.021   0.649  17.064  1.1303  0.4515 -1.2751
  329TMC3    H1 4944   0.395   0.770  17.224 -0.1786  0.7930  0.0202
  329TMC3    H2 4945   0.177   0.440  17.398 -0.9321 -1.6892 -1.8637
  329TMC3    C7 4946   0.421   0.534  17.337  0.5826  0.8588 -0.6286
  329TMC3    C8 4947   4.710   0.439  17.205  0.2950  0.4634  0.5295
  329TMC3    O1 4948   0.419   0.411  17.337 -0.2163  0.0163  0.3352
  329TMC3    O2 4949   4.654   0.436  17.095 -0.7941  0.0398 -0.3675
  330TMC3    C1 4950   3.284   4.341   9.890  0.1481  0.5391  0.0800
  330TMC3    C2 4951   3.307   4.250   9.790  0.1149 -0.6976 -0.4307
  330TMC3    C3 4952   3.337   4.123   9.830 -0.2960  0.2768 -0.5900
  330TMC3    C4 4953   3.291   4.306  10.027  0.1118 -0.4855  0.8650
  330TMC3    C5 4954   3.328   4.179  10.057 -0.7113  0.2880 -0.2576
  330TMC3    C6 4955   3.345   4.085   9.962  0.8444 -0.9213  0.0084
  330TMC3     C 4956   3.241   4.476   9.860 -0.3326  0.6667  0.2345
  330TMC3     O 4957   3.172   4.537   9.938  0.0254  0.9912  0.4627
  330TMC3     H 4958   3.320   4.278   9.686 -0.1286  1.0507  0.0141
  330TMC3    H1 4959   3.266   4.368  10.113 -2.6647 -1.0924  0.4890
  330TMC3    H2 4960   3.355   3.980   9.987  0.7167 -1.4227 -2.0550
  330TMC3    C7 4961   3.329   4.133  10.198  0.6532  0.4825 -0.1330
  330TMC3    C8 4962   3.394   4.026   9.736 -0.9124  0.2953 -0.3457
  330TMC3    O1 4963   3.259   4.202  10.271 -0.1005  0.4837  0.0844
  330TMC3    O2 4964   3.498   3.972   9.768  0.1421  0.3740 -0.2688
  331MPD2     C 4965   0.300   3.536  12.654  0.6804  0.4274  0.0045
  331MPD2    C1 4966   0.434   3.560  12.645  0.1686  0.3101  0.2697
  331MPD2    C2 4967   0.523   3.457  12.622  1.5107 -0.3313  0.0086
  331MPD2    C3 4968   0.479   3.325  12.612 -0.6549  0.5586  0.1189
  331MPD2    C4 4969   0.347   3.303  12.631  0.3817  0.6117  0.0674
  331MPD2    C5 4970   0.257   3.411  12.648 -0.2441  0.1053  0.3257
  331MPD2     H 4971   0.629   3.478  12.623  1.5002 -0.2574 -0.2825
  331MPD2    H1 4972   0.302   3.205  12.626 -0.0612  0.8484 -0.7694
  331MPD2    H2 4973   0.222   3.611  12.655 -1.1175 -1.4547  0.6854
  331MPD2    H3 4974   0.150   3.398  12.662 -0.5405  0.9682 -1.1397
  331MPD2     N 4975   0.578   3.218  12.596 -0.1560  0.5247 -0.0942
  331MPD2    H5 4976   0.670   3.251  12.570 -0.6150  2.0990  0.2522
  331MPD2    N1 4977   0.483   3.695  12.651 -0.2227 -0.5375 -1.2089
  331MPD2    H7 4978   0.583   3.709  12.638 -0.2478  0.4269 -0.3275
  332TMC3    C1 4979   0.674   3.031  12.508  0.7025  0.1198 -0.2693
  332TMC3    C2 4980   0.699   3.076  12.384  0.1146 -0.4715 -1.0168
  332TMC3    C3 4981   0.829   3.122  12.357 -0.8112 -0.2431  0.2190
  332TMC3    C4 4982   0.770   3.030  12.604 -0.2257 -0.3236 -0.0394
  332TMC3    C5 4983   0.897   3.054  12.563  0.2771  0.3969 -0.4277
  332TMC3    C6 4984   0.932   3.093  12.436  0.7975 -0.2721  0.0038
  332TMC3     C 4985   0.554   3.085  12.562  0.9085  0.2108  0.4866
  332TMC3     O 4986   0.458   3.009  12.542  0.1543  0.4074  0.0651
  332TMC3     H 4987   0.620   3.088  12.310 -0.2885  0.2770 -0.4612
  332TMC3    H1 4988   0.747   2.994  12.704 -0.3998  1.8464  0.6984
  332TMC3    H2 4989   1.036   3.112  12.413 -0.0705  2.4043 -1.6357
  332TMC3    C7 4990   0.994   3.031  12.660  0.2145  1.0841  0.3442
  332TMC3    C8 4991   0.857   3.181  12.230 -0.4734  0.8084 -0.0911
  332TMC3    O1 4992   0.976   2.986  12.771 -0.3310  0.3560 -0.2154
  332TMC3    O2 4993   0.782   3.143  12.143  0.2247  0.0975 -0.3401
  333MPD2     C 4994   1.454   3.582  11.136  0.0732 -0.0111  0.1569
  333MPD2    C1 4995   1.402   3.543  11.015  0.2559  0.1146  0.8214
  333MPD2    C2 4996   1.326   3.431  11.013  0.3936  0.2722  0.3166
  333MPD2    C3 4997   1.304   3.358  11.129  0.6497  0.3604 -0.1400
  333MPD2    C4 4998   1.368   3.394  11.246  0.7222 -0.0507  0.6074
  333MPD2    C5 4999   1.429   3.509  11.253  0.6215  0.1617 -0.7157
  333MPD2     H 5000   1.275   3.413  10.919 -0.0036  2.7829  0.0629
  333MPD2    H1 5001   1.357   3.336  11.337  2.3805  0.9462  1.4345
  333MPD2    H2 5002   1.516   3.670  11.144 -0.1034  0.4086 -2.9049
  333MPD2    H3 5003   1.479   3.544  11.343 -0.2146 -0.3034 -0.0738
  333MPD2     N 5004   1.201   3.258  11.115 -0.1728  0.2020 -0.1842
  333MPD2    H5 5005   1.147   3.263  11.029  1.0692 -0.6418 -1.0085
  333MPD2    N1 5006   1.444   3.609  10.901  0.0005 -0.3354  0.2290
  333MPD2    H7 5007   1.509   3.686  10.914 -2.1182  1.0085  2.9280
  334TMC3    C1 5008   1.478   3.646  10.672 -0.4935 -0.4000 -0.1275
  334TMC3    C2 5009   1.545   3.585  10.569  0.3091  0.1951  0.0300
  334TMC3    C3 5010   1.569   3.670  10.466  0.2663  0.0826  0.4614
  334TMC3    C4 5011   1.439   3.773  10.665 -0.6567  0.7322  0.0212
  334TMC3    C5 5012   1.476   3.854  10.560 -0.5352  0.4531 -0.8020
  334TMC3    C6 5013   1.540   3.806  10.458 -0.7495  0.7927 -0.2903
  334TMC3     C 5014   1.427   3.559  10.773 -0.0593  0.0736  0.3377
  334TMC3     O 5015   1.396   3.449  10.733 -0.2267 -0.4513 -0.2044
  334TMC3     H 5016   1.592   3.489  10.554 -1.7163 -0.9935  1.3406
  334TMC3    H1 5017   1.392   3.818  10.752  1.5278  2.0791  0.5023
  334TMC3    H2 5018   1.594   3.867  10.387  1.4679  0.6422  1.2491
  334TMC3    C7 5019   1.439   3.992  10.573 -0.7618  0.0975 -0.3350
  334TMC3    C8 5020   1.673   3.635  10.374 -0.2264 -0.3832 -0.1001
  334TMC3    O1 5021   1.390   4.023  10.678  0.1397 -0.3121  0.2481
  334TMC3    O2 5022   1.658   3.540  10.296  0.3141 -0.1826 -0.4694
  335TMC3    C1 5023   0.862   0.997  17.197  0.6265 -0.0025 -0.2583
  335TMC3    C2 5024   0.743   0.937  17.179 -0.2966  0.7357 -0.0757
  335TMC3    C3 5025   0.741   0.811  17.121 -0.2753  0.3299  0.5011
  335TMC3    C4 5026   0.977   0.940  17.165  0.2634 -0.2967 -0.0518
  335TMC3    C5 5027   0.978   0.815  17.109  0.6592  0.6784  0.1633
  335TMC3    C6 5028   0.858   0.751  17.078 -0.4302 -0.2004 -0.7198
  335TMC3     C 5029   0.875   1.107  17.296 -0.7127  0.0291 -0.0634
  335TMC3     O 5030   0.976   1.111  17.368 -0.1260  0.2789 -0.4319
  335TMC3     H 5031   0.649   0.987  17.197 -0.8595 -0.0543 -0.8233
  335TMC3    H1 5032   1.068   0.995  17.184  0.0971 -0.9877  2.7306
  335TMC3    H2 5033   0.844   0.653  17.035  0.4097 -1.2121  1.3153
  335TMC3    C7 5034   1.102   0.735  17.096 -0.2618 -0.4624  0.0240
  335TMC3    C8 5035   0.621   0.772  17.051  0.1413 -0.5288 -0.0159
  335TMC3    O1 5036   1.085   0.629  17.034 -0.1830  0.1544  0.9208
  335TMC3    O2 5037   0.555   0.863  16.999  0.1601  0.3132  0.7413
  336MPD2     C 5038   4.648   3.162  16.467 -0.0849 -0.5971  0.1219
  336MPD2    C1 5039   4.650   3.124  16.333 -0.9052  0.3298  0.6809
  336MPD2    C2 5040   4.705   2.999  16.297 -0.1638  0.7089 -0.3619
  336MPD2    C3 5041   0.018   2.909  16.392  0.1224  0.3330  0.1196
  336MPD2    C4 5042   0.016   2.947  16.526 -0.4435  0.1273  0.0771
  336MPD2    C5 5043   4.696   3.072  16.563 -0.1291  0.1013 -0.0595
  336MPD2     H 5044   4.693   2.962  16.196 -0.9652  3.6240 -1.3299
  336MPD2    H1 5045   0.037   2.877  16.606 -0.3193  1.1615  0.9639
  336MPD2    H2 5046   4.604   3.254  16.505  0.8442 -0.8498  1.8216
  336MPD2    H3 5047   4.685   3.100  16.667  0.3359 -2.2923  0.6145
  336MPD2     N 5048   0.069   2.782  16.361 -0.6855  0.2257  0.1224
  336MPD2    H5 5049   0.083   2.716  16.437  1.8584  1.2063  0.4927
  336MPD2    N1 5050   4.594   3.201  16.235 -0.4304 -0.3277  0.0806
  336MPD2    H7 5051   4.599   3.165  16.140  2.1679  0.0023  0.1101
  337TMC3    C1 5052   4.515   3.383  16.113 -0.4859 -0.0772  0.6521
  337TMC3    C2 5053   4.498   3.297  16.003  0.8184 -0.0907 -0.5739
  337TMC3    C3 5054   4.478   3.358  15.881 -0.6246  0.1075  0.0061
  337TMC3    C4 5055   4.507   3.516  16.098  1.0580  0.1738  0.2584
  337TMC3    C5 5056   4.491   3.574  15.976 -0.3657  0.1153  0.6504
  337TMC3    C6 5057   4.472   3.493  15.862  0.6683 -0.3531  0.0603
  337TMC3     C 5058   4.564   3.335  16.238 -0.3698 -0.2183  0.1588
  337TMC3     O 5059   4.570   3.416  16.329 -0.0403 -0.0683 -0.4567
  337TMC3     H 5060   4.475   3.192  16.014 -1.6704  0.3626 -1.2570
  337TMC3    H1 5061   4.529   3.575  16.186  1.1530 -2.8006  2.2224
  337TMC3    H2 5062   4.485   3.537  15.763  0.5959 -1.3908 -0.4133
  337TMC3    C7 5063   4.507   3.718  15.949  0.0838  0.5192  0.1426
  337TMC3    C8 5064   4.390   3.287  15.796 -1.2104 -0.2994 -0.2524
  337TMC3    O1 5065   4.501   3.749  15.830  0.1473  0.6779 -0.3947
  337TMC3    O2 5066   4.337   3.195  15.862 -0.0850 -0.0784  0.0211
  338MPD2     C 5067   0.430   2.559   1.079 -0.5348 -0.5093  0.0562
  338MPD2    C1 5068   0.373   2.626   0.969 -0.1341  0.1460 -0.6204
  338MPD2    C2 5069   0.323   2.754   0.978  0.1756  0.0794  0.7141
  338MPD2    C3 5070   0.317   2.813   1.107  0.0347  0.4468 -0.7565
  338MPD2    C4 5071   0.358   2.742   1.216 -0.5582  0.1276  0.0395
  338MPD2    C5 5072   0.414   2.614   1.202  0.3251  0.0735  0.5098
  338MPD2     H 5073   0.297   2.804   0.885 -2.2746 -1.2166  0.7125
  338MPD2    H1 5074   0.362   2.779   1.317  0.0555  0.5481 -0.1402
  338MPD2    H2 5075   0.464   2.456   1.083 -1.0483 -0.7502 -1.7837
  338MPD2    H3 5076   0.469   2.577   1.288  3.4390 -0.1060 -1.5480
  338MPD2     N 5077   0.269   2.951   1.116 -0.0590  0.5580 -0.1376
  338MPD2    H5 5078   0.258   3.005   1.031 -0.2924 -1.4807 -1.3960
  338MPD2    N1 5079   0.356   2.555   0.846 -0.9535 -0.0576  0.2894
  338MPD2    H7 5080   0.321   2.612   0.769 -1.4019  0.1272  0.6256
  339TMC3    C1 5081   0.201   3.153   1.223 -1.0544 -0.5900  0.4477
  339TMC3    C2 5082   0.120   3.195   1.324  0.7731  0.1984 -0.5511
  339TMC3    C3 5083   0.078   3.330   1.332  0.9064 -0.1349 -0.2037
  339TMC3    C4 5084   0.270   3.240   1.144 -0.0301 -0.0607  0.0475
  339TMC3    C5 5085   0.238   3.371   1.161  0.1474  0.8436 -0.1812
  339TMC3    C6 5086   0.141   3.415   1.249 -0.3886  0.0849 -0.1454
  339TMC3     C 5087   0.252   3.020   1.239 -0.0859  0.4045  0.5634
  339TMC3     O 5088   0.233   2.978   1.352 -0.3144 -0.0397  0.1579
  339TMC3     H 5089   0.064   3.122   1.382 -0.7990  2.9402  1.4332
  339TMC3    H1 5090   0.345   3.204   1.075  0.3225  1.7665 -0.5066
  339TMC3    H2 5091   0.116   3.521   1.252 -1.8015 -0.2706  0.5814
  339TMC3    C7 5092   0.283   3.461   1.054 -0.0264  0.2555  0.7668
  339TMC3    C8 5093   4.696   3.369   1.419 -0.5402  0.4064 -0.0060
  339TMC3    O1 5094   0.207   3.545   1.015  0.3353 -0.8174 -0.7408
  339TMC3    O2 5095   4.679   3.487   1.418  0.5781  0.1858 -0.1047
  340MPD2     C 5096   1.886   4.370   9.109 -0.6436  0.2228  0.0211
  340MPD2    C1 5097   1.780   4.375   9.192 -0.1442  0.1716  0.1580
  340MPD2    C2 5098   1.790   4.446   9.312 -0.5844  0.8145 -0.3763
  340MPD2    C3 5099   1.906   4.508   9.352  0.1541 -0.4348  0.8293
  340MPD2    C4 5100   2.008   4.505   9.269  1.4161  0.0269  0.0993
  340MPD2    C5 5101   1.994   4.439   9.143  0.5562 -0.0094  0.4618
  340MPD2     H 5102   1.719   4.438   9.394  1.5374  0.6118  1.4549
  340MPD2    H1 5103   2.095   4.566   9.289  0.6672  0.9451  0.5510
  340MPD2    H2 5104   1.876   4.330   9.009 -1.2870  2.5125 -0.8382
  340MPD2    H3 5105   2.076   4.443   9.073  0.0328 -1.2559 -0.2219
  340MPD2     N 5106   1.930   4.568   9.477  0.5394 -0.0054  0.4415
  340MPD2    H5 5107   2.025   4.591   9.504  0.2793  0.2899  1.1170
  340MPD2    N1 5108   1.670   4.301   9.155 -0.0799  0.0013 -0.0938
  340MPD2    H7 5109   1.676   4.241   9.073  2.8587 -1.8523  1.4720
  341TMC3    C1 5110   1.471   4.193   9.189 -0.2473 -0.2177  0.0599
  341TMC3    C2 5111   1.344   4.216   9.234 -0.0911 -0.9404  0.2050
  341TMC3    C3 5112   1.275   4.120   9.297  0.0837 -0.2726 -0.5887
  341TMC3    C4 5113   1.528   4.069   9.222 -0.3197  0.3717  0.3243
  341TMC3    C5 5114   1.457   3.981   9.294  0.2185  0.3443  0.2059
  341TMC3    C6 5115   1.322   4.000   9.328 -0.7127 -0.4546 -0.7702
  341TMC3     C 5116   1.546   4.308   9.217 -0.1122 -0.0805  0.4202
  341TMC3     O 5117   1.500   4.399   9.285  0.7143  0.3035  0.4254
  341TMC3     H 5118   1.303   4.311   9.202  1.0980  0.5540  3.0793
  341TMC3    H1 5119   1.630   4.063   9.187 -0.1548  0.0881  0.8550
  341TMC3    H2 5120   1.262   3.922   9.374  1.0195  1.0341  3.9698
  341TMC3    C7 5121   1.548   3.906   9.378  0.3842  0.0941  0.1138
  341TMC3    C8 5122   1.145   4.151   9.360  0.2266  0.3040 -0.5280
  341TMC3    O1 5123   1.668   3.925   9.368  0.2967  0.2852 -0.5748
  341TMC3    O2 5124   1.120   4.074   9.454 -0.1132 -0.5016 -0.1280
  342MPD2     C 5125   2.826   3.621  17.211 -0.7150 -0.0865  0.3865
  342MPD2    C1 5126   2.945   3.612  17.146  0.0708 -0.0896  0.6228
  342MPD2    C2 5127   3.003   3.725  17.080  0.0172  0.4224  0.0662
  342MPD2    C3 5128   2.928   3.841  17.067 -0.3946 -0.0389  0.0525
  342MPD2    C4 5129   2.802   3.842  17.116 -0.0756 -0.5715 -0.2173
  342MPD2    C5 5130   2.757   3.738  17.196 -0.2454  0.2092  0.4186
  342MPD2     H 5131   3.100   3.730  17.030  0.2546  0.0680  0.4924
  342MPD2    H1 5132   2.730   3.921  17.097  0.1812 -0.5536 -1.1119
  342MPD2    H2 5133   2.783   3.545  17.276  2.3833 -1.0196  1.3579
  342MPD2    H3 5134   2.659   3.752  17.240 -0.0838 -1.3283  1.2428
  342MPD2     N 5135   2.980   3.942  16.992  0.4327 -0.3909  0.6099
  342MPD2    H5 5136   3.075   3.935  16.958  0.3546 -2.5258  0.8525
  342MPD2    N1 5137   3.023   3.500  17.143  0.3632  0.3044  0.4074
  342MPD2    H7 5138   3.118   3.508  17.111  0.5082  2.6818  1.3670
  343TMC3    C1 5139   3.069   3.274  17.186 -0.0279 -0.5659  0.1184
  343TMC3    C2 5140   3.204   3.301  17.204  0.5424 -0.1572  0.1208
  343TMC3    C3 5141   3.285   3.191  17.218 -0.0642 -0.2387 -0.5767
  343TMC3    C4 5142   3.020   3.152  17.229 -0.3807 -0.4857 -0.0642
  343TMC3    C5 5143   3.107   3.045  17.246 -0.3880 -0.3594 -0.1446
  343TMC3    C6 5144   3.242   3.057  17.234 -0.1421 -0.0181  0.2593
  343TMC3     C 5145   2.972   3.380  17.174 -0.7737 -0.4461 -0.2962
  343TMC3     O 5146   2.854   3.347  17.175  0.3806  0.0658  0.2253
  343TMC3     H 5147   3.247   3.401  17.209 -0.3512  0.1176  2.3868
  343TMC3    H1 5148   2.914   3.134  17.221 -0.1512 -2.6075  1.4865
  343TMC3    H2 5149   3.314   2.983  17.267  0.7708  0.9471  0.4385
  343TMC3    C7 5150   3.044   2.920  17.267 -1.0136 -0.3198 -0.3040
  343TMC3    C8 5151   3.431   3.220  17.219  0.2517  0.3762 -0.7098
  343TMC3    O1 5152   2.934   2.913  17.218 -0.2854  0.3370  0.3187
  343TMC3    O2 5153   3.469   3.332  17.252  0.1662  0.8656 -0.3346
  344MPD2     C 5154   0.359   2.704  10.872 -0.6265 -0.8354 -0.6793
  344MPD2    C1 5155   0.258   2.735  10.785 -0.0118  0.3166 -0.6059
  344MPD2    C2 5156   0.276   2.834  10.694  0.2035 -0.2838  0.1998
  344MPD2    C3 5157   0.397   2.904  10.688  0.2738  0.3682  0.2331
  344MPD2    C4 5158   0.503   2.865  10.769 -0.3712 -0.3273  0.5768
  344MPD2    C5 5159   0.484   2.766  10.859  0.7104  0.6518 -0.0257
  344MPD2     H 5160   0.190   2.860  10.632  0.1801 -2.2972 -0.6003
  344MPD2    H1 5161   0.597   2.917  10.782 -1.3175  1.0833  1.8494
  344MPD2    H2 5162   0.359   2.618  10.938  0.3730 -1.0820 -1.0061
  344MPD2    H3 5163   0.562   2.737  10.928 -0.0597 -0.4059  0.4082
  344MPD2     N 5164   0.433   3.006  10.598  0.0430 -0.2147 -0.1794
  344MPD2    H5 5165   0.526   3.045  10.608  0.2479 -0.7005 -0.1824
  344MPD2    N1 5166   0.135   2.662  10.793 -0.1846 -0.0713 -0.1877
  344MPD2    H7 5167   0.067   2.685  10.722 -1.0937 -0.8034  0.4400
  345TMC3    C1 5168   0.401   3.172  10.435 -1.1175 -0.0862  0.3586
  345TMC3    C2 5169   0.499   3.245  10.499 -0.2622 -0.1376 -0.0697
  345TMC3    C3 5170   0.548   3.342  10.421 -0.0364 -0.1317 -0.0155
  345TMC3    C4 5171   0.347   3.195  10.308  0.8244 -0.5088  0.4986
  345TMC3    C5 5172   0.415   3.291  10.234 -0.2004 -0.1559  0.8339
  345TMC3    C6 5173   0.514   3.363  10.289 -0.0991  0.5054  0.4484
  345TMC3     C 5174   0.349   3.048  10.498  0.0962  0.3676  0.0423
  345TMC3     O 5175   0.255   2.988  10.450 -0.1733  0.2220  0.7360
  345TMC3     H 5176   0.508   3.241  10.607  0.4241  1.1984 -0.0840
  345TMC3    H1 5177   0.275   3.133  10.255  0.5837  0.0514  0.1654
  345TMC3    H2 5178   0.567   3.438  10.231  0.0586  0.3418  0.3778
  345TMC3    C7 5179   0.337   3.369  10.139 -0.3798  0.4522 -0.4606
  345TMC3    C8 5180   0.589   3.460  10.497 -0.1136 -0.4668 -0.2549
  345TMC3    O1 5181   0.360   3.490  10.136  0.2742 -0.1295 -0.3712
  345TMC3    O2 5182   0.593   3.460  10.619  0.7603  0.0637  0.3386
  346MPD2     C 5183   3.860   4.666  13.977 -0.3067  0.3163 -0.1466
  346MPD2    C1 5184   3.983   4.599  13.977  0.5986 -0.0711  0.7467
  346MPD2    C2 5185   4.082   4.646  14.062 -0.0192 -0.1658  0.7944
  346MPD2    C3 5186   4.057   0.015  14.158 -0.2849  0.1712 -0.4560
  346MPD2    C4 5187   3.935   0.081  14.156 -0.9373 -0.4451 -0.2864
  346MPD2    C5 5188   3.838   0.046  14.067  0.6219 -0.2835  0.2035
  346MPD2     H 5189   4.178   4.594  14.066  0.6295  0.9668  0.0900
  346MPD2    H1 5190   3.915   0.159  14.228 -0.9163 -1.5813  0.9622
  346MPD2    H2 5191   3.775   4.627  13.922  0.0695 -0.5123 -0.1367
  346MPD2    H3 5192   3.735   0.074  14.085  1.3627  2.0082  0.9259
  346MPD2     N 5193   4.167   0.045  14.246  0.3412 -0.2342 -0.4276
  346MPD2    H5 5194   4.261   0.022  14.214  0.6831 -0.3004  0.6328
  346MPD2    N1 5195   4.012   4.498  13.871 -0.1870 -0.1799  0.2779
  346MPD2    H7 5196   4.109   4.466  13.878 -0.1349  0.1670  1.1221
  347TMC3    C1 5197   4.268   0.141  14.439 -0.8078  0.1024 -0.4879
  347TMC3    C2 5198   4.391   0.113  14.381 -0.0856  0.1781  0.0340
  347TMC3    C3 5199   4.489   0.083  14.467 -0.0138 -0.4931 -0.0657
  347TMC3    C4 5200   4.242   0.149  14.578 -0.0664  0.5371  0.3357
  347TMC3    C5 5201   4.350   0.126  14.657 -0.2919 -0.2455 -0.5637
  347TMC3    C6 5202   4.477   0.098  14.603 -0.0459 -0.6323  0.3017
  347TMC3     C 5203   4.146   0.111  14.367  0.4590 -0.2821 -0.3411
  347TMC3     O 5204   4.038   0.142  14.418  0.1746  0.1756  0.3828
  347TMC3     H 5205   4.400   0.090  14.275  0.4562  1.7813 -0.2610
  347TMC3    H1 5206   4.142   0.153  14.619  0.6833  0.4436  2.1904
  347TMC3    H2 5207   4.558   0.090  14.675 -2.3187  1.1103  3.0532
  347TMC3    C7 5208   4.331   0.148  14.798 -0.1097 -0.0763 -0.7527
  347TMC3    C8 5209   4.594   4.717  14.415  0.6144 -0.1176  0.3503
  347TMC3    O1 5210   4.238   0.217  14.839  0.3216 -0.3536  0.2161
  347TMC3    O2 5211   4.646   4.636  14.497 -0.3485  0.2258 -0.7388
  348MPD2     C 5212   3.631   4.500  12.240  0.7826  0.1054 -0.1383
  348MPD2    C1 5213   3.605   4.396  12.156 -0.2882 -0.2623  0.1804
  348MPD2    C2 5214   3.557   4.427  12.034 -0.1116 -0.3978  0.9960
  348MPD2    C3 5215   3.527   4.562  11.999 -0.0830 -0.7279  0.1186
  348MPD2    C4 5216   3.553   4.658  12.088  0.0092  0.4361  0.1025
  348MPD2    C5 5217   3.603   4.622  12.208  0.4105  0.4740  0.1721
  348MPD2     H 5218   3.540   4.348  11.962  2.0704 -0.2122  0.2914
  348MPD2    H1 5219   3.535   0.041  12.076 -0.0002  0.5929  1.4313
  348MPD2    H2 5220   3.671   4.483  12.339 -0.4028  0.5297  0.4013
  348MPD2    H3 5221   3.623   4.703  12.277  1.2554  0.1339  0.3286
  348MPD2     N 5222   3.471   4.583  11.870  0.5216 -0.1465  0.2756
  348MPD2    H5 5223   3.456   4.500  11.814  3.0861 -1.7585  2.0084
  348MPD2    N1 5224   3.638   4.262  12.188 -0.3323 -0.1837 -0.5584
  348MPD2    H7 5225   3.684   4.242  12.276 -0.0626 -2.3311 -1.2007
  349TMC3    C1 5226   3.660   4.030  12.166  0.4123 -1.1437  0.7718
  349TMC3    C2 5227   3.612   3.913  12.130  0.3833 -0.9847 -0.2390
  349TMC3    C3 5228   3.705   3.816  12.097 -0.1322  0.0263  0.4342
  349TMC3    C4 5229   3.799   4.053  12.189 -0.3233  0.6186  0.1557
  349TMC3    C5 5230   3.883   3.958  12.149 -0.0372 -0.2746  0.0493
  349TMC3    C6 5231   3.845   3.833  12.105  0.9198  0.3880  0.2914
  349TMC3     C 5232   3.599   4.154  12.114  0.3005 -0.9458  0.1006
  349TMC3     O 5233   3.492   4.154  12.053  0.1832  0.2353  0.1039
  349TMC3     H 5234   3.505   3.896  12.138  0.4734 -0.9168  1.0234
  349TMC3    H1 5235   3.839   4.154  12.191 -0.6118  0.7423 -0.3344
  349TMC3    H2 5236   3.928   3.771  12.074 -0.4249 -1.7313  0.9901
  349TMC3    C7 5237   4.024   3.990  12.107  0.0555 -0.2578 -0.0578
  349TMC3    C8 5238   3.645   3.684  12.114 -0.2493 -0.7705  0.0065
  349TMC3    O1 5239   4.113   3.919  12.153 -0.2889 -0.5126  0.0589
  349TMC3    O2 5240   3.555   3.685  12.197  0.3061  0.2837  0.3082
  350MPD2     C 5241   2.527   2.487  10.007  0.9862  0.0194 -0.2139
  350MPD2    C1 5242   2.590   2.367  10.025  0.4939 -0.1317 -0.5916
  350MPD2    C2 5243   2.726   2.372  10.024 -0.3484 -0.5606  0.1483
  350MPD2    C3 5244   2.795   2.489   9.987 -0.0536  0.4064 -0.2106
  350MPD2    C4 5245   2.725   2.605   9.951  0.0821 -1.1076  0.8612
  350MPD2    C5 5246   2.587   2.600   9.966 -0.8360 -0.0384  0.1845
  350MPD2     H 5247   2.781   2.283  10.054 -0.6755 -1.0816 -0.7959
  350MPD2    H1 5248   2.763   2.693   9.900  0.3180 -1.1106  1.0298
  350MPD2    H2 5249   2.421   2.497  10.030  0.9448 -1.1321  0.0903
  350MPD2    H3 5250   2.527   2.686   9.937  1.0001  1.5774  1.1824
  350MPD2     N 5251   2.936   2.475   9.980 -0.0230 -0.2110  0.0174
  350MPD2    H5 5252   2.975   2.387  10.011 -0.8360 -0.5998 -0.0711
  350MPD2    N1 5253   2.525   2.244  10.042  0.0970 -0.0991 -0.6136
  350MPD2    H7 5254   2.592   2.168  10.054  0.5279  0.2814 -0.5958
  351TMC3    C1 5255   2.342   2.087  10.070 -0.4254  0.2279 -0.4634
  351TMC3    C2 5256   2.422   1.978  10.102 -0.2997 -0.3117  0.3851
  351TMC3    C3 5257   2.369   1.850  10.099 -0.0596 -0.2794 -0.1390
  351TMC3    C4 5258   2.206   2.071  10.045  0.2441 -0.0634 -0.3255
  351TMC3    C5 5259   2.160   1.935  10.050  0.9110  0.2810 -0.3763
  351TMC3    C6 5260   2.239   1.827  10.065 -0.0554  0.4674 -0.1591
  351TMC3     C 5261   2.394   2.226  10.042 -0.2643  0.2145  0.8348
  351TMC3     O 5262   2.303   2.307  10.030  0.1375  0.3849 -0.4269
  351TMC3     H 5263   2.523   2.002  10.132 -0.6975 -0.6212  2.0299
  351TMC3    H1 5264   2.149   2.158  10.019 -1.5067 -0.8362  0.9240
  351TMC3    H2 5265   2.201   1.726  10.055 -0.8213  0.7896 -0.4786
  351TMC3    C7 5266   2.018   1.903  10.015 -0.1243  0.2396 -0.7022
  351TMC3    C8 5267   2.465   1.746  10.126  0.5664  0.3271  0.4312
  351TMC3    O1 5268   1.950   1.996   9.978 -0.1683 -0.1108  0.1871
  351TMC3    O2 5269   2.583   1.775  10.135  0.0978 -0.8165  0.2158
  352MPD2     C 5270   0.491   0.287   1.418 -0.6526 -0.0145  0.5698
  352MPD2    C1 5271   0.362   0.254   1.386 -0.1042 -0.0035  0.1435
  352MPD2    C2 5272   0.292   0.169   1.466  0.0713  0.1489 -0.0081
  352MPD2    C3 5273   0.352   0.111   1.575  0.4375  0.0180  0.1061
  352MPD2    C4 5274   0.478   0.148   1.614 -0.2401  0.4556  0.0934
  352MPD2    C5 5275   0.551   0.225   1.527 -0.1179 -0.0319 -0.0696
  352MPD2     H 5276   0.192   0.135   1.443 -0.9220  2.7161  0.6154
  352MPD2    H1 5277   0.536   0.109   1.696  1.3558  1.1174 -0.7242
  352MPD2    H2 5278   0.540   0.363   1.358 -0.8714  0.2107  0.6781
  352MPD2    H3 5279   0.654   0.249   1.550 -0.7142  0.5175  2.0636
  352MPD2     N 5280   0.292   0.011   1.655 -0.0393  0.1522 -0.3461
  352MPD2    H5 5281   0.337   4.699   1.739  0.0492 -2.1657 -1.3747
  352MPD2    N1 5282   0.302   0.303   1.265 -0.5019  0.1798  0.8033
  352MPD2    H7 5283   0.356   0.370   1.211 -0.5678  0.6379  1.3143
  353TMC3    C1 5284   0.144   4.562   1.722 -0.2799 -0.3273 -0.3558
  353TMC3    C2 5285   0.232   4.524   1.814 -0.6490  0.8934  0.0171
  353TMC3    C3 5286   0.191   4.414   1.891  0.3967 -0.1172 -0.2848
  353TMC3    C4 5287   0.024   4.498   1.704  0.9607  0.1303 -0.3059
  353TMC3    C5 5288   4.720   4.386   1.775 -0.2858  0.4827 -0.1963
  353TMC3    C6 5289   0.075   4.347   1.877  0.0813 -0.4191 -0.0349
  353TMC3     C 5290   0.170   4.667   1.624 -0.2490  0.3169 -0.5913
  353TMC3     O 5291   0.111   4.662   1.516  0.2128  0.7756  0.1975
  353TMC3     H 5292   0.332   4.564   1.821  0.1798 -1.0665 -0.7545
  353TMC3    H1 5293   4.678   4.531   1.627  0.4221 -1.3758 -0.4757
  353TMC3    H2 5294   0.054   4.256   1.932 -1.2139  1.1179  2.0270
  353TMC3    C7 5295   4.647   4.287   1.695  0.4549  0.0884 -0.2947
  353TMC3    C8 5296   0.300   4.354   1.973 -0.7214 -0.2025 -0.1622
  353TMC3    O1 5297   4.634   4.315   1.576  0.5690  0.5312 -0.0137
  353TMC3    O2 5298   0.264   4.284   2.069  0.1371  0.0325  0.3768
  354TMC3    C1 5299   2.336   0.786  13.271  0.0605 -0.6524  0.6595
  354TMC3    C2 5300   2.478   0.786  13.291 -0.0747  0.2066  0.2253
  354TMC3    C3 5301   2.553   0.724  13.193  0.8466  0.5229  0.3543
  354TMC3    C4 5302   2.281   0.740  13.155  0.0674  0.2932 -0.2640
  354TMC3    C5 5303   2.349   0.694  13.049 -0.1966 -0.0917  0.4209
  354TMC3    C6 5304   2.488   0.687  13.074 -0.1085  0.6059  0.8814
  354TMC3     C 5305   2.248   0.789  13.380  0.0141 -0.4336  0.2693
  354TMC3     O 5306   2.149   0.717  13.380  0.1964 -0.2014  0.9327
  354TMC3     H 5307   2.526   0.819  13.383 -0.2224  0.3429  0.2536
  354TMC3    H1 5308   2.178   0.773  13.146 -0.4515 -0.7292  1.7589
  354TMC3    H2 5309   2.554   0.629  13.010  1.3958  2.8687  0.3846
  354TMC3    C7 5310   2.318   0.766  12.928  0.8317  0.3593 -0.0479
  354TMC3    C8 5311   2.665   0.819  13.160 -0.4326 -0.1474 -0.1063
  354TMC3    O1 5312   2.223   0.843  12.942 -0.4424 -0.9551 -0.1976
  354TMC3    O2 5313   2.749   0.827  13.250 -0.1675 -0.5831 -0.3132
  355MPD2     C 5314   2.507   1.524  11.679  0.2003 -0.4268 -0.1918
  355MPD2    C1 5315   2.568   1.578  11.566 -0.4365 -0.3638  0.1023
  355MPD2    C2 5316   2.703   1.615  11.573 -0.0173  0.6068 -0.2581
  355MPD2    C3 5317   2.767   1.598  11.693 -0.8441  1.0040 -0.1251
  355MPD2    C4 5318   2.706   1.540  11.802  0.1459 -0.6185  0.5423
  355MPD2    C5 5319   2.577   1.492  11.791  0.2282  0.5922  0.2437
  355MPD2     H 5320   2.754   1.648  11.484  0.2112 -0.6018 -0.5747
  355MPD2    H1 5321   2.765   1.533  11.893  1.3407  1.4969 -0.0741
  355MPD2    H2 5322   2.405   1.491  11.669  0.3269 -0.7107 -0.5494
  355MPD2    H3 5323   2.520   1.443  11.869  0.1473 -0.8255 -0.6873
  355MPD2     N 5324   2.905   1.639  11.702  0.7142  0.1282  0.3587
  355MPD2    H5 5325   2.950   1.617  11.791 -2.0742 -2.2198  1.1684
  355MPD2    N1 5326   2.478   1.613  11.455 -0.4440 -0.2433  0.9180
  355MPD2    H7 5327   2.394   1.556  11.455 -2.1085  2.2093 -0.0090
  356TMC3    C1 5328   3.103   1.753  11.659 -0.0423  0.4217 -0.3915
  356TMC3    C2 5329   3.173   1.823  11.573  0.4078 -0.2977  0.1755
  356TMC3    C3 5330   3.269   1.905  11.621 -0.5040  0.2473  0.4575
  356TMC3    C4 5331   3.129   1.757  11.796  0.0574 -0.2581  0.6292
  356TMC3    C5 5332   3.224   1.843  11.842  0.2262 -0.2999 -0.5731
  356TMC3    C6 5333   3.301   1.917  11.757  0.5909  0.3041 -0.2172
  356TMC3     C 5334   2.988   1.688  11.606 -0.6486  0.5030 -0.2430
  356TMC3     O 5335   2.967   1.688  11.488  0.9955  0.2684 -0.3681
  356TMC3     H 5336   3.150   1.828  11.467  0.5933  3.3643  0.3269
  356TMC3    H1 5337   3.070   1.687  11.855  1.5199  0.5006  2.9697
  356TMC3    H2 5338   3.383   1.981  11.788 -0.3477  2.4023 -2.0310
  356TMC3    C7 5339   3.241   1.851  11.985  0.7106  0.1648  0.5128
  356TMC3    C8 5340   3.346   1.977  11.519  0.2207 -0.2572 -0.2774
  356TMC3    O1 5341   3.167   1.775  12.046  0.0019  0.5654 -0.1865
  356TMC3    O2 5342   3.338   1.942  11.398 -0.4676 -0.0245  0.1629
  357MPD2     C 5343   1.824   1.755   1.211 -0.4970  0.2311  0.3361
  357MPD2    C1 5344   1.786   1.709   1.335  0.7982 -0.0641 -0.3756
  357MPD2    C2 5345   1.658   1.698   1.372 -0.1770 -0.3472 -0.2288
  357MPD2    C3 5346   1.564   1.733   1.288  0.5238  1.1631 -0.1808
  357MPD2    C4 5347   1.590   1.777   1.166 -0.5295  0.0888  0.0039
  357MPD2    C5 5348   1.723   1.782   1.118  0.1403  0.0229 -0.0237
  357MPD2     H 5349   1.627   1.661   1.469  0.4995  3.2256  1.3558
  357MPD2    H1 5350   1.507   1.790   1.098  0.1761  0.8647 -0.7131
  357MPD2    H2 5351   1.925   1.759   1.173 -0.1512  2.0483  1.4275
  357MPD2    H3 5352   1.758   1.789   1.016  0.1006  2.5168  0.1338
  357MPD2     N 5353   1.428   1.721   1.327 -0.4504  0.2816 -0.4178
  357MPD2    H5 5354   1.360   1.702   1.254 -0.3007 -2.4413  0.1595
  357MPD2    N1 5355   1.896   1.671   1.414  0.0084 -1.0788 -0.1125
  357MPD2    H7 5356   1.981   1.658   1.361 -0.8840 -2.0913 -1.3029
  358TMC3    C1 5357   2.018   1.593   1.603 -0.5206  0.2078 -0.4372
  358TMC3    C2 5358   2.115   1.526   1.533  0.2166 -0.2228 -0.2887
  358TMC3    C3 5359   2.230   1.499   1.597  0.0425  0.0064 -0.3146
  358TMC3    C4 5360   2.032   1.618   1.737  0.2974  0.0580  0.1242
  358TMC3    C5 5361   2.150   1.584   1.797  0.7319  0.0003  0.3064
  358TMC3    C6 5362   2.245   1.509   1.737 -1.0253 -0.2751  0.5470
  358TMC3     C 5363   1.893   1.640   1.549  0.5179  0.1016  0.1493
  358TMC3     O 5364   1.801   1.655   1.624  0.2061 -0.4992  0.1931
  358TMC3     H 5365   2.104   1.511   1.426  0.1860 -1.0792 -0.1610
  358TMC3    H1 5366   1.949   1.664   1.790  0.7268 -0.6648  1.4218
  358TMC3    H2 5367   2.342   1.508   1.785 -0.0010  0.8706 -1.5200
  358TMC3    C7 5368   2.183   1.623   1.932  0.1743 -0.5352 -0.3223
  358TMC3    C8 5369   2.335   1.418   1.543  0.0703  0.3970 -0.1869
  358TMC3    O1 5370   2.278   1.571   1.985  0.3098 -0.0906  0.3165
  358TMC3    O2 5371   2.448   1.439   1.575  0.4887 -0.4223 -0.2523
  359MPD2     C 5372   2.736   0.743  12.177  0.1154  0.1300  0.7215
  359MPD2    C1 5373   2.847   0.663  12.204  0.1121 -0.4711  0.0565
  359MPD2    C2 5374   2.837   0.580  12.310  0.4150 -0.5497  0.3809
  359MPD2    C3 5375   2.719   0.565  12.387  0.0998 -0.5057 -0.1111
  359MPD2    C4 5376   2.609   0.650  12.357  0.1159 -0.4885  0.2394
  359MPD2    C5 5377   2.618   0.733  12.246 -0.6427 -0.1752  0.0269
  359MPD2     H 5378   2.920   0.514  12.330  0.5758 -0.3393  0.4002
  359MPD2    H1 5379   2.512   0.650  12.406  0.8784  2.4365  1.7391
  359MPD2    H2 5380   2.739   0.810  12.092 -0.2668 -1.2529 -0.3855
  359MPD2    H3 5381   2.538   0.800  12.219 -0.9680  0.3888  2.3923
  359MPD2     N 5382   2.695   0.466  12.482 -0.2776  0.7548 -0.4615
  359MPD2    H5 5383   2.597   0.454  12.506 -0.2180  2.0523  0.4153
  359MPD2    N1 5384   2.970   0.650  12.124  0.9593  0.2815 -0.0839
  359MPD2    H7 5385   3.028   0.573  12.155 -1.0212 -0.3302  2.0327
  360TMC3    C1 5386   3.087   0.651  11.929  0.3696 -0.1946  0.5399
  360TMC3    C2 5387   3.195   0.605  11.999 -0.0523  0.6170  0.5931
  360TMC3    C3 5388   3.270   0.502  11.947 -0.2092  0.1830 -0.2045
  360TMC3    C4 5389   3.047   0.590  11.817 -0.0847  0.1426 -0.4175
  360TMC3    C5 5390   3.119   0.479  11.772 -0.5880 -0.4287 -0.6813
  360TMC3    C6 5391   3.234   0.441  11.831  0.6243  0.2751  0.1452
  360TMC3     C 5392   2.983   0.706  11.998  0.5151 -0.1673  0.0231
  360TMC3     O 5393   2.906   0.778  11.939 -0.1981 -0.3433  0.2165
  360TMC3     H 5394   3.220   0.665  12.086  2.5576 -0.2924  0.4742
  360TMC3    H1 5395   2.952   0.623  11.776  0.7040  1.0617 -1.4747
  360TMC3    H2 5396   3.298   0.360  11.797  0.9792  0.6522 -0.0837
  360TMC3    C7 5397   3.107   0.452  11.630  0.6351 -0.6819  0.1148
  360TMC3    C8 5398   3.403   0.488  11.994  0.6890 -0.0683 -0.1445
  360TMC3    O1 5399   3.053   0.539  11.561  0.3758 -0.3592 -0.3713
  360TMC3    O2 5400   3.415   0.519  12.113  0.3741 -0.1626 -0.3748
  361MPD2     C 5401   4.202   4.146  16.451 -0.0256 -0.5894 -0.2218
  361MPD2    C1 5402   4.191   4.197  16.578 -0.0096  0.2146  0.2194
  361MPD2    C2 5403   4.269   4.149  16.677  0.3222  0.1402  0.6121
  361MPD2    C3 5404   4.373   4.056  16.646 -0.4864  0.0438  0.3198
  361MPD2    C4 5405   4.373   4.009  16.519  0.6186  0.9463  0.3978
  361MPD2    C5 5406   4.290   4.050  16.419 -0.7633  0.0717 -0.3433
  361MPD2     H 5407   4.255   4.189  16.777  0.8321  1.2748  0.2326
  361MPD2    H1 5408   4.436   3.924  16.497 -0.7574  0.8893 -3.4555
  361MPD2    H2 5409   4.152   4.188  16.364  1.6431 -0.0539 -0.9300
  361MPD2    H3 5410   4.295   4.010  16.318  1.4950  1.3303 -0.7376
  361MPD2     N 5411   4.450   3.999  16.755 -0.2357 -0.3270  0.0915
  361MPD2    H5 5412   4.491   3.908  16.737  0.6518  0.1253 -0.1836
  361MPD2    N1 5413   4.102   4.304  16.607 -0.1986 -0.1999 -0.1159
  361MPD2    H7 5414   4.115   4.350  16.696  0.0501 -0.2223 -0.1401
  362TMC3    C1 5415   3.925   4.453  16.592 -0.4508 -0.5603  0.0645
  362TMC3    C2 5416   3.793   4.412  16.603  0.6002 -0.0788  0.3824
  362TMC3    C3 5417   3.721   4.456  16.714  0.5412  0.0749  0.0234
  362TMC3    C4 5418   3.989   4.524  16.693 -0.3617  0.9293  0.1110
  362TMC3    C5 5419   3.915   4.553  16.808  0.8639 -0.5843  0.0929
  362TMC3    C6 5420   3.778   4.522  16.821 -0.0413 -0.4231 -0.1162
  362TMC3     C 5421   3.996   4.350  16.527  0.1683  0.5868  0.4253
  362TMC3     O 5422   3.951   4.305  16.421 -0.0150 -0.3718 -0.5205
  362TMC3     H 5423   3.747   4.355  16.524 -0.5918 -0.7969  1.5922
  362TMC3    H1 5424   4.091   4.558  16.682  0.0360  0.5217  2.6433
  362TMC3    H2 5425   3.739   4.519  16.923  0.5537  0.8972  0.1414
  362TMC3    C7 5426   3.954   4.665  16.885  0.8519 -0.1312  0.2289
  362TMC3    C8 5427   3.587   4.497  16.683 -0.0951 -0.1668 -0.3833
  362TMC3    O1 5428   3.863   4.720  16.943  0.0389 -0.3404  0.0232
  362TMC3    O2 5429   3.525   4.464  16.584 -0.3985 -0.2607  0.2194
  363TMC3    C1 5430   3.706   1.511   9.658 -0.3779 -0.4812 -0.3579
  363TMC3    C2 5431   3.648   1.418   9.739 -0.2500  1.2712  0.3850
  363TMC3    C3 5432   3.521   1.437   9.773  0.8883 -0.4071  0.3824
  363TMC3    C4 5433   3.654   1.628   9.620 -0.0447  0.4051 -0.2626
  363TMC3    C5 5434   3.525   1.648   9.669 -0.1284  0.8623  0.5493
  363TMC3    C6 5435   3.455   1.556   9.750  0.3465  0.4691  0.2199
  363TMC3     C 5436   3.851   1.503   9.646 -0.5826 -0.2068 -0.2956
  363TMC3     O 5437   3.911   1.420   9.718  0.0422 -1.0258  0.4314
  363TMC3     H 5438   3.708   1.333   9.770 -0.3039  1.2175  0.3401
  363TMC3    H1 5439   3.705   1.713   9.574  2.1922 -1.8451 -1.9258
  363TMC3    H2 5440   3.355   1.568   9.790 -1.0159 -1.4950 -2.5828
  363TMC3    C7 5441   3.450   1.754   9.607  0.2563 -0.9969 -0.4917
  363TMC3    C8 5442   3.449   1.321   9.826 -0.5495  0.3510  0.0088
  363TMC3    O1 5443   3.523   1.846   9.563  0.3325 -0.0960  0.2549
  363TMC3    O2 5444   3.342   1.349   9.879 -0.5656 -0.0170 -0.0985
  364MPD2     C 5445   1.649   0.954  10.412  0.2140  0.7966  0.1285
  364MPD2    C1 5446   1.772   0.930  10.362 -0.0572 -0.5061 -0.1745
  364MPD2    C2 5447   1.835   0.809  10.395  0.0910 -0.4428  0.2060
  364MPD2    C3 5448   1.778   0.715  10.484 -0.0663 -0.3610 -0.0038
  364MPD2    C4 5449   1.649   0.738  10.533  0.0178  0.2386  0.0338
  364MPD2    C5 5450   1.595   0.856  10.499 -0.1051 -0.2274 -1.0715
  364MPD2     H 5451   1.937   0.794  10.362  0.2898  2.0439 -0.3057
  364MPD2    H1 5452   1.590   0.673  10.596  0.1523  0.0349 -0.0522
  364MPD2    H2 5453   1.600   1.047  10.387 -0.9393  0.3744  0.8243
  364MPD2    H3 5454   1.495   0.877  10.533 -0.0624  1.1429 -1.7960
  364MPD2     N 5455   1.847   0.595  10.523 -1.1362  0.2388 -0.3685
  364MPD2    H5 5456   1.804   0.540  10.597 -1.2062  0.8797  0.0694
  364MPD2    N1 5457   1.835   1.030  10.289 -0.6870  0.3188 -0.6296
  364MPD2    H7 5458   1.783   1.114  10.267 -0.9404 -0.2155 -2.0619
  365TMC3    C1 5459   2.005   1.142  10.171  0.3950 -0.1259 -0.2049
  365TMC3    C2 5460   2.099   1.128  10.070 -0.4116  0.3418  0.0018
  365TMC3    C3 5461   2.169   1.237  10.030 -0.9263 -0.0735 -0.3144
  365TMC3    C4 5462   2.001   1.256  10.248 -0.2119  0.1314 -0.3870
  365TMC3    C5 5463   2.067   1.366  10.197 -0.2615 -0.7351  0.2545
  365TMC3    C6 5464   2.149   1.363  10.085  0.3842  0.1560  0.3214
  365TMC3     C 5465   1.961   1.023  10.234  1.0198  0.1841  0.1166
  365TMC3     O 5466   2.018   0.924  10.198 -0.2304 -0.4478 -0.6455
  365TMC3     H 5467   2.103   1.036  10.013 -0.3236 -0.1871  0.8567
  365TMC3    H1 5468   1.932   1.265  10.331 -0.8615  0.8870 -1.0082
  365TMC3    H2 5469   2.217   1.444  10.060 -1.9571  1.9107 -0.4037
  365TMC3    C7 5470   2.082   1.485  10.279 -0.3604  0.3747 -0.1674
  365TMC3    C8 5471   2.303   1.208   9.989 -0.2503 -0.4219  0.1905
  365TMC3    O1 5472   2.113   1.585  10.215  0.0904  0.2045 -0.3001
  365TMC3    O2 5473   2.361   1.290   9.919 -0.2872 -0.4116  0.3918
  366MPD2     C 5474   0.016   2.144  15.121 -0.0157 -0.5386 -0.1338
  366MPD2    C1 5475   0.058   2.250  15.198 -0.3761 -0.0347 -0.9876
  366MPD2    C2 5476   0.193   2.289  15.190  0.3094 -0.6936  0.2099
  366MPD2    C3 5477   0.274   2.239  15.092 -0.2268 -0.4556  0.1880
  366MPD2    C4 5478   0.233   2.134  15.020  0.9494 -0.3480 -0.5482
  366MPD2    C5 5479   0.105   2.079  15.040  0.2139  0.0529  0.1840
  366MPD2     H 5480   0.224   2.368  15.257  0.1147 -0.6313  0.2259
  366MPD2    H1 5481   0.292   2.091  14.939  1.6443  0.8612 -0.6865
  366MPD2    H2 5482   4.640   2.103  15.130 -0.4627  0.7654  0.9371
  366MPD2    H3 5483   0.073   1.986  14.996 -0.9537  1.0570 -1.0736
  366MPD2     N 5484   0.408   2.283  15.059 -0.0337 -0.1734 -0.0740
  366MPD2    H5 5485   0.448   2.219  14.991  0.3402 -0.1267  0.1001
  366MPD2    N1 5486   4.688   2.336  15.269  0.0474  0.0643  0.1092
  366MPD2    H7 5487   0.011   2.404  15.328 -1.8506  1.9095 -0.5361
  367TMC3    C1 5488   4.493   2.451  15.316 -0.4048 -0.1545 -0.3467
  367TMC3    C2 5489   4.550   2.512  15.426 -0.3985  0.4519  0.4416
  367TMC3    C3 5490   4.514   2.641  15.457  0.5410 -0.1979  0.4011
  367TMC3    C4 5491   4.399   2.520  15.240  1.0317  0.5833 -0.6884
  367TMC3    C5 5492   4.374   2.653  15.273  0.2016 -0.4375 -0.2227
  367TMC3    C6 5493   4.437   2.717  15.377 -0.1310  0.2049 -0.1530
  367TMC3     C 5494   4.558   2.343  15.241  0.1910 -0.4571  1.0159
  367TMC3     O 5495   4.487   2.278  15.164 -0.1114  0.0684  0.6014
  367TMC3     H 5496   4.606   2.452  15.497 -0.1125 -1.7412 -1.6263
  367TMC3    H1 5497   4.382   2.490  15.138 -0.7894 -2.2136  0.4415
  367TMC3    H2 5498   4.412   2.819  15.402  1.8873  0.7966 -0.5485
  367TMC3    C7 5499   4.331   2.734  15.167 -0.4737 -0.4502 -0.3298
  367TMC3    C8 5500   4.597   2.709  15.549  0.7322  0.0477  0.0599
  367TMC3    O1 5501   4.378   2.846  15.156  1.0789 -0.2848 -0.6799
  367TMC3    O2 5502   4.666   2.639  15.618  0.4157  0.9388  0.4194
  368MPD2     C 5503   1.363   4.169  13.010  0.2101  0.6239 -0.5009
  368MPD2    C1 5504   1.345   4.301  12.988  0.1730  0.2391 -0.3455
  368MPD2    C2 5505   1.464   4.377  13.000 -0.7623  0.7415 -0.1259
  368MPD2    C3 5506   1.588   4.320  13.032  0.3842  0.4000 -0.3943
  368MPD2    C4 5507   1.591   4.185  13.067  0.5998  0.6986 -0.4282
  368MPD2    C5 5508   1.474   4.108  13.051  0.4723 -0.5058 -0.0166
  368MPD2     H 5509   1.450   4.484  12.983 -3.0214  0.4547 -0.0356
  368MPD2    H1 5510   1.684   4.133  13.084  0.2319  0.1606 -0.0798
  368MPD2    H2 5511   1.267   4.118  13.014  0.5528  0.1957  1.7417
  368MPD2    H3 5512   1.482   4.000  13.059 -1.4864 -0.7525 -1.3039
  368MPD2     N 5513   1.700   4.405  13.026  0.2276  0.3345 -0.2572
  368MPD2    H5 5514   1.687   4.504  13.004  0.5177  0.6172  0.8780
  368MPD2    N1 5515   1.218   4.357  12.957  0.3316 -0.6137  0.6327
  368MPD2    H7 5516   1.136   4.297  12.967  0.7804 -1.0358  1.7843
  369TMC3    C1 5517   1.049   4.507  12.911  0.4367 -0.4338 -0.2354
  369TMC3    C2 5518   1.011   4.616  12.825 -0.5569  0.6265  0.5361
  369TMC3    C3 5519   0.886   4.620  12.778  0.4006 -0.9777  0.1729
  369TMC3    C4 5520   0.957   4.405  12.936  0.1537 -0.2540 -0.9378
  369TMC3    C5 5521   0.828   4.423  12.895 -0.0373  0.6757  0.5253
  369TMC3    C6 5522   0.791   4.531  12.810 -0.2695 -0.0969  0.7171
  369TMC3     C 5523   1.193   4.490  12.932  0.4341 -0.3830  0.1935
  369TMC3     O 5524   1.268   4.580  12.892  0.1395  0.4223  0.2640
  369TMC3     H 5525   1.078   4.700  12.816  0.5552  0.1595  4.5134
  369TMC3    H1 5526   0.974   4.331  13.014 -2.6499 -0.0176 -0.1049
  369TMC3    H2 5527   0.687   4.558  12.795  0.1257  3.3144  4.1978
  369TMC3    C7 5528   0.718   4.329  12.927 -0.2509 -0.0407  0.5567
  369TMC3    C8 5529   0.848   4.710  12.673 -0.4473  0.5870 -0.9347
  369TMC3    O1 5530   0.721   4.245  13.013  0.1215  0.1046 -0.7826
  369TMC3    O2 5531   0.730   0.011  12.669 -0.4826  0.0573 -0.6527
  370TMC3    C1 5532   0.260   0.043  16.233 -0.3494 -0.6038 -0.3722
  370TMC3    C2 5533   0.171   0.029  16.330 -0.2673  0.2196 -0.3910
  370TMC3    C3 5534   0.142   4.623  16.370 -0.1488 -0.2744  0.5362
  370TMC3    C4 5535   0.324   4.664  16.159  0.2275  0.0446  0.1342
  370TMC3    C5 5536   0.263   4.547  16.182  0.6549  0.5379  0.3266
  370TMC3    C6 5537   0.168   4.529  16.279 -0.2617 -0.2395 -0.2196
  370TMC3     C 5538   0.357   0.146  16.271 -0.6718  0.3433  0.5052
  370TMC3     O 5539   0.353   0.170  16.394 -0.1131 -0.7299  0.9879
  370TMC3     H 5540   0.132   0.108  16.393 -2.0709  0.3868 -1.7040
  370TMC3    H1 5541   0.384   4.691  16.073 -0.8948  1.7280 -0.1236
  370TMC3    H2 5542   0.130   4.428  16.290 -1.0001  0.0241 -0.3689
  370TMC3    C7 5543   0.265   4.460  16.065  0.1507  0.8963 -0.0984
  370TMC3    C8 5544   0.196   4.590  16.504  0.5781  0.1002  0.4957
  370TMC3    O1 5545   0.156   4.422  16.023  0.1483 -0.3581  0.4474
  370TMC3    O2 5546   0.207   4.467  16.514  0.1153 -0.4565 -0.2662
  371TMC3    C1 5547   1.772   3.032  15.424 -0.6545  0.7372 -0.1105
  371TMC3    C2 5548   1.667   3.044  15.520 -0.7014  0.0508 -0.0021
  371TMC3    C3 5549   1.598   3.163  15.516 -0.5345  0.1129  0.2709
  371TMC3    C4 5550   1.799   3.135  15.341  0.5180 -0.0267 -0.7090
  371TMC3    C5 5551   1.731   3.255  15.344  0.1792 -0.4349 -0.1178
  371TMC3    C6 5552   1.635   3.270  15.437  0.2886  0.1717  0.3278
  371TMC3     C 5553   1.853   2.909  15.408  0.2501  0.0838  0.0613
  371TMC3     O 5554   1.961   2.931  15.353 -0.1072  0.2722  0.1937
  371TMC3     H 5555   1.651   2.965  15.592 -1.2354 -0.8696 -1.1399
  371TMC3    H1 5556   1.856   3.112  15.251  0.4685 -1.5348 -0.3640
  371TMC3    H2 5557   1.572   3.358  15.424  1.3390  1.0552  1.2296
  371TMC3    C7 5558   1.752   3.354  15.233  0.0883  0.2411  0.2137
  371TMC3    C8 5559   1.462   3.146  15.553 -0.2830 -0.1092 -0.0867
  371TMC3    O1 5560   1.669   3.437  15.217 -0.4751 -0.4833  0.1434
  371TMC3    O2 5561   1.416   3.031  15.560 -0.0981  0.5419  0.0349
  372MPD2     C 5562   1.567   4.454  13.368  0.0196  0.0781 -0.9833
  372MPD2    C1 5563   1.649   4.353  13.422  0.6524 -0.4199  0.2415
  372MPD2    C2 5564   1.594   4.224  13.427  0.4947  0.4590  0.4399
  372MPD2    C3 5565   1.457   4.199  13.415 -0.4305 -0.4048  0.4640
  372MPD2    C4 5566   1.380   4.296  13.372 -0.0231  0.0800 -0.0190
  372MPD2    C5 5567   1.436   4.421  13.344 -0.7996 -0.6316  0.2859
  372MPD2     H 5568   1.645   4.137  13.466  1.4510 -0.5155 -2.9798
  372MPD2    H1 5569   1.273   4.283  13.358 -0.2790  0.2914  1.6880
  372MPD2    H2 5570   1.597   4.552  13.333 -0.4574  0.4573 -0.3323
  372MPD2    H3 5571   1.375   4.495  13.292 -0.1974 -1.3322 -1.4092
  372MPD2     N 5572   1.418   4.065  13.429  0.4482 -0.4492 -0.0295
  372MPD2    H5 5573   1.494   4.008  13.465  1.6067 -0.4250 -2.4267
  372MPD2    N1 5574   1.793   4.371  13.443 -0.5365 -0.0354  0.1415
  372MPD2    H7 5575   1.845   4.286  13.462 -3.6088 -2.4865 -2.4640
  373TMC3    C1 5576   1.299   3.883  13.443 -0.0514 -0.6188 -0.3069
  373TMC3    C2 5577   1.210   3.817  13.522  0.4955  0.0361  0.4873
  373TMC3    C3 5578   1.203   3.683  13.527 -0.1695  0.1928 -0.2460
  373TMC3    C4 5579   1.402   3.824  13.382  0.1178 -0.3739  0.2802
  373TMC3    C5 5580   1.393   3.688  13.382  0.2288  0.6944 -0.0558
  373TMC3    C6 5581   1.292   3.618  13.445 -0.2720  0.1420  0.1678
  373TMC3     C 5582   1.288   4.024  13.426  0.3209 -0.5289 -0.5068
  373TMC3     O 5583   1.179   4.078  13.436  0.0040 -0.1957  0.7024
  373TMC3     H 5584   1.140   3.868  13.587  2.0609  2.0231  0.6072
  373TMC3    H1 5585   1.472   3.866  13.311  0.6798 -1.8235 -0.0379
  373TMC3    H2 5586   1.285   3.511  13.430  0.5622  0.0797  0.2088
  373TMC3    C7 5587   1.520   3.619  13.389  0.5268 -0.1039 -0.0889
  373TMC3    C8 5588   1.214   3.629  13.660 -0.6272  0.5847  0.2066
  373TMC3    O1 5589   1.620   3.653  13.329  0.1954 -0.3830  0.2675
  373TMC3    O2 5590   1.316   3.571  13.681  0.2658 -0.0763 -0.6595
  374TMC3    C1 5591   2.523   3.405  10.203 -0.3342  0.0302  0.6714
  374TMC3    C2 5592   2.577   3.533  10.198 -0.1792  0.3698 -0.7837
  374TMC3    C3 5593   2.518   3.626  10.115  0.2111  0.3854 -0.0937
  374TMC3    C4 5594   2.424   3.369  10.125 -0.0468 -0.2491 -0.1636
  374TMC3    C5 5595   2.370   3.456  10.036  0.6970 -0.1092  0.5564
  374TMC3    C6 5596   2.417   3.587  10.031 -0.0250  0.2621  0.5694
  374TMC3     C 5597   2.612   3.306  10.255 -0.1843  0.0649 -0.2608
  374TMC3     O 5598   2.735   3.326  10.233  0.0602 -0.5401  0.2114
  374TMC3     H 5599   2.657   3.562  10.266 -1.5153 -0.2660  1.0445
  374TMC3    H1 5600   2.396   3.264  10.121  2.2292 -0.8424 -0.7920
  374TMC3    H2 5601   2.393   3.657   9.951  0.0626 -0.8311 -0.4067
  374TMC3    C7 5602   2.256   3.411   9.954  0.0199  0.2505 -0.1925
  374TMC3    C8 5603   2.595   3.746  10.080  0.0235 -0.4714 -0.2838
  374TMC3    O1 5604   2.212   3.298   9.981  0.1923 -0.0105 -0.3195
  374TMC3    O2 5605   2.563   3.808   9.978  0.1255 -0.7006 -0.4339
  375MPD2     C 5606   2.023   4.463  16.900 -0.0928 -0.8880  0.4126
  375MPD2    C1 5607   1.997   4.545  16.788  0.7244  0.1266  0.5320
  375MPD2    C2 5608   2.073   4.529  16.677  0.1817 -0.2391  0.4872
  375MPD2    C3 5609   2.175   4.441  16.677 -0.6320  0.0931 -0.3203
  375MPD2    C4 5610   2.210   4.361  16.784 -0.2999 -0.4001 -0.6936
  375MPD2    C5 5611   2.136   4.384  16.901 -0.2834  0.2713  0.1756
  375MPD2     H 5612   2.056   4.602  16.599 -0.5333 -0.9409 -0.0206
  375MPD2    H1 5613   2.283   4.280  16.783 -0.2413 -0.3702  0.4875
  375MPD2    H2 5614   1.966   4.478  16.991  0.7331 -1.6229  1.0471
  375MPD2    H3 5615   2.149   4.327  16.993 -0.1755 -1.7723 -1.1142
  375MPD2     N 5616   2.261   4.428  16.564 -0.1240  0.5908 -0.5627
  375MPD2    H5 5617   2.343   4.371  16.581 -0.8928 -0.0788  0.9340
  375MPD2    N1 5618   1.900   4.644  16.787  0.8185 -0.8395  0.0053
  375MPD2    H7 5619   1.877   4.690  16.699  0.3688 -0.5009  0.2989
  376TMC3    C1 5620   2.357   4.511  16.354 -0.6658  0.1105 -0.7726
  376TMC3    C2 5621   2.473   4.548  16.419 -1.1447  0.3756 -0.7737
  376TMC3    C3 5622   2.567   4.619  16.348  0.4379  0.4543  0.5982
  376TMC3    C4 5623   2.337   4.535  16.222  0.1776 -0.2910 -0.0878
  376TMC3    C5 5624   2.439   4.600  16.151  0.0925  0.3122 -0.0617
  376TMC3    C6 5625   2.553   4.651  16.214  0.3771 -0.2250 -0.0054
  376TMC3     C 5626   2.237   4.467  16.437 -0.1389 -0.3767  0.2853
  376TMC3     O 5627   2.126   4.452  16.391 -0.5953  0.0989 -0.2976
  376TMC3     H 5628   2.477   4.541  16.527 -1.5756  0.3508 -0.7592
  376TMC3    H1 5629   2.248   4.496  16.174 -0.2305 -0.2124  0.6087
  376TMC3    H2 5630   2.630   4.702  16.157 -0.3734  0.3611 -0.4730
  376TMC3    C7 5631   2.402   4.652  16.016 -0.6817  0.1454 -0.8032
  376TMC3    C8 5632   2.668   4.678  16.431 -0.0571 -0.3179 -0.2023
  376TMC3    O1 5633   2.483   0.005  15.964 -0.0664 -0.3076 -0.3050
  376TMC3    O2 5634   2.701   4.621  16.531  0.1450  0.5362  0.3276
  377MPD2     C 5635   0.010   4.563  12.101 -0.2350  0.2619 -0.6409
  377MPD2    C1 5636   0.087   4.506  12.204  0.4523 -0.3677  0.6116
  377MPD2    C2 5637   0.016   4.428  12.300 -0.2199 -0.2873 -0.0072
  377MPD2    C3 5638   4.600   4.420  12.296  0.3862  0.1273  0.6336
  377MPD2    C4 5639   4.532   4.479  12.191  0.4662 -1.0782 -0.4645
  377MPD2    C5 5640   4.601   4.544  12.091  0.2074  0.3274  0.3017
  377MPD2     H 5641   0.071   4.376  12.376 -1.1690 -1.3645 -0.0598
  377MPD2    H1 5642   4.424   4.477  12.186  0.4565 -0.5398 -0.4729
  377MPD2    H2 5643   0.055   4.626  12.025  1.3553  1.1648  1.0487
  377MPD2    H3 5644   4.555   4.592  12.006 -1.2461  1.7481  1.9123
  377MPD2     N 5645   4.524   4.351  12.390  0.2823 -0.2448  0.8210
  377MPD2    H5 5646   4.424   4.345  12.375  0.1050  2.5478  0.8409
  377MPD2    N1 5647   0.232   4.525  12.205  0.5054 -0.5614  0.3664
  377MPD2    H7 5648   0.273   4.571  12.124  1.4428 -2.5164 -0.2658
  378TMC3    C1 5649   0.638   4.524  12.139  1.0703 -0.1286  0.5656
  378TMC3    C2 5650   0.503   4.532  12.162  0.6624 -0.5295  0.5093
  378TMC3    C3 5651   0.458   4.514  12.289  0.7212  0.0032  0.3861
  378TMC3    C4 5652   0.724   4.495  12.241 -0.3347  0.2876  0.6441
  378TMC3    C5 5653   0.675   4.480  12.369  0.1690 -0.5354  0.0717
  378TMC3    C6 5654   0.545   4.485  12.394 -0.3285  0.0851  0.2598
  378TMC3     C 5655   0.685   4.576  12.012 -0.2111  0.2560  0.5349
  378TMC3     O 5656   0.598   4.600  11.925  0.4382  0.4094 -0.1055
  378TMC3     H 5657   0.438   4.557  12.079  0.7066  1.3362  1.0499
  378TMC3    H1 5658   0.829   4.481  12.218  0.4090  1.1448  3.5246
  378TMC3    H2 5659   0.501   4.464  12.491  0.4753  0.8651  0.7971
  378TMC3    C7 5660   0.765   4.436  12.480  0.0214  0.5541  0.1421
  378TMC3    C8 5661   0.317   4.515  12.321  0.6234 -1.1098  0.6837
  378TMC3    O1 5662   0.717   4.391  12.582 -0.0838  0.3036 -0.0122
  378TMC3    O2 5663   0.280   4.516  12.437 -0.3720  0.9409 -0.4669
  379MPD2     C 5664   0.382   2.767  16.485 -0.0669 -0.3129  0.6696
  379MPD2    C1 5665   0.498   2.736  16.429 -0.1836 -0.2834 -0.2993
  379MPD2    C2 5666   0.599   2.668  16.497  0.3584  0.3255  0.3459
  379MPD2    C3 5667   0.578   2.624  16.629 -0.5701 -0.6314 -0.3360
  379MPD2    C4 5668   0.446   2.638  16.680  0.5605  0.8410  1.3876
  379MPD2    C5 5669   0.353   2.717  16.607 -0.1113 -0.2631 -0.6662
  379MPD2     H 5670   0.697   2.650  16.454 -0.0888 -0.2152 -0.4469
  379MPD2    H1 5671   0.410   2.608  16.778  1.5929 -0.6031  1.3182
  379MPD2    H2 5672   0.308   2.836  16.445  0.3904 -0.7817 -0.9811
  379MPD2    H3 5673   0.257   2.737  16.652 -0.6908  2.3759 -3.1280
  379MPD2     N 5674   0.662   2.556  16.712 -0.0360  0.1125 -0.1678
  379MPD2    H5 5675   0.630   2.509  16.797  0.5693 -0.0942 -0.0516
  379MPD2    N1 5676   0.518   2.787  16.302 -0.0949  0.6901 -0.6820
  379MPD2    H7 5677   0.445   2.842  16.258  0.0047  1.5714  0.2492
  380TMC3    C1 5678   0.594   2.800  16.078 -0.1088 -0.6079 -0.4275
  380TMC3    C2 5679   0.698   2.834  15.999  0.3155  0.0406  0.5604
  380TMC3    C3 5680   0.663   2.892  15.876 -0.0684  0.2941 -0.9814
  380TMC3    C4 5681   0.464   2.800  16.034  0.2863  0.8335 -0.2376
  380TMC3    C5 5682   0.443   2.839  15.905 -0.2325  0.0325 -0.2164
  380TMC3    C6 5683   0.537   2.895  15.828 -0.2645  0.3467  0.1103
  380TMC3     C 5684   0.629   2.770  16.216 -0.2046  0.0240 -0.3314
  380TMC3     O 5685   0.744   2.744  16.248  0.3339 -0.4036  0.0158
  380TMC3     H 5686   0.800   2.828  16.035 -0.3176 -4.5290  1.6009
  380TMC3    H1 5687   0.384   2.767  16.100 -0.3711  2.1213 -0.3879
  380TMC3    H2 5688   0.522   2.924  15.725 -3.0010 -0.5927  0.2559
  380TMC3    C7 5689   0.309   2.839  15.856 -0.0221 -0.1203  0.2615
  380TMC3    C8 5690   0.773   2.901  15.780  0.1717  0.4922 -0.2804
  380TMC3    O1 5691   0.233   2.746  15.888 -0.4639 -0.4109 -0.1078
  380TMC3    O2 5692   0.761   2.984  15.690 -0.2955  0.0917  0.0158
  381TMC3    C1 5693   0.249   3.827  16.388 -0.0495 -0.1162  0.6471
  381TMC3    C2 5694   0.328   3.923  16.332  0.4436 -0.1355 -0.4717
  381TMC3    C3 5695   0.349   4.044  16.400  0.4143 -0.0573  1.0079
  381TMC3    C4 5696   0.173   3.851  16.504 -0.3257  0.1057 -0.5697
  381TMC3    C5 5697   0.190   3.971  16.562 -0.9598 -0.0423  0.0043
  381TMC3    C6 5698   0.274   4.065  16.514  0.5746 -0.6826  0.4449
  381TMC3     C 5699   0.220   3.709  16.316 -0.2368 -0.0743  0.2362
  381TMC3     O 5700   0.194   3.605  16.376  0.2059 -0.2066  0.2464
  381TMC3     H 5701   0.392   3.889  16.251 -0.2527 -1.7156 -0.3539
  381TMC3    H1 5702   0.086   3.792  16.530  0.9706  0.0455  3.6024
  381TMC3    H2 5703   0.285   4.154  16.574  1.2353 -2.0470  2.3618
  381TMC3    C7 5704   0.127   3.969  16.698 -0.8953  0.4189  0.1896
  381TMC3    C8 5705   0.455   4.127  16.352 -0.5891 -0.1501  0.3015
  381TMC3    O1 5706   0.100   3.858  16.741 -0.1779  0.4410  0.5535
  381TMC3    O2 5707   0.515   4.100  16.250  0.0464 -0.0219  0.1919
  382MPD2     C 5708   0.390   1.601  17.487  0.0230 -0.1100 -0.1480
  382MPD2    C1 5709   0.285   1.656  17.415 -0.1254 -0.0879 -0.7890
  382MPD2    C2 5710   0.174   1.586  17.411 -0.1719 -0.4742  0.2062
  382MPD2    C3 5711   0.165   1.456  17.459 -0.0079  0.0942  0.1524
  382MPD2    C4 5712   0.269   1.404  17.534  0.1362  0.1168 -0.4428
  382MPD2    C5 5713   0.377   1.484  17.553  0.4405 -0.3124  0.2110
  382MPD2     H 5714   0.084   1.623  17.363 -1.4954 -3.8437  0.0800
  382MPD2    H1 5715   0.275   1.302  17.572 -0.3232 -0.0103 -0.7187
  382MPD2    H2 5716   0.483   1.656  17.496  0.1358 -0.5373  1.3243
  382MPD2    H3 5717   0.452   1.450  17.623  0.6918  2.3222  1.2080
  382MPD2     N 5718   0.063   1.364  17.430  0.2696 -0.1168 -0.6494
  382MPD2    H5 5719   0.064   1.283  17.491 -0.9649  1.2592  1.2204
  382MPD2    N1 5720   0.286   1.786  17.348 -0.7340  0.6314  0.0377
  382MPD2    H7 5721   0.204   1.816  17.297  0.8392 -0.3685 -3.1091
  383TMC3    C1 5722   4.600   1.260  17.315 -0.4255  0.7636 -0.1320
  383TMC3    C2 5723   4.480   1.271  17.251  0.1650  0.3575 -0.4467
  383TMC3    C3 5724   4.415   1.163  17.198 -0.6146  0.4571  0.0429
  383TMC3    C4 5725   4.664   1.139  17.320  0.0366 -0.5334 -0.9050
  383TMC3    C5 5726   4.600   1.028  17.271 -0.0716  0.5541  0.7026
  383TMC3    C6 5727   4.474   1.040  17.207 -0.4738  0.1649  0.0584
  383TMC3     C 5728   4.681   1.381  17.337 -0.7459 -0.2383  0.0168
  383TMC3     O 5729   4.659   1.474  17.264  0.5813 -0.1539  0.2754
  383TMC3     H 5730   4.430   1.367  17.248  0.2862  0.5063  2.2099
  383TMC3    H1 5731   0.040   1.124  17.361 -0.8881 -1.4812  1.0008
  383TMC3    H2 5732   4.426   0.949  17.172 -0.9444  0.5195 -0.2148
  383TMC3    C7 5733   4.621   0.897  17.333 -0.7595  0.0978  0.2537
  383TMC3    C8 5734   4.268   1.178  17.221 -0.0965 -0.0007 -0.4334
  383TMC3    O1 5735   4.569   0.804  17.276  0.0632  0.3628  0.5302
  383TMC3    O2 5736   4.219   1.294  17.226  0.3302 -0.6736 -0.0741
  384MPD2     C 5737   1.616   3.002  12.014 -0.8224  0.1009  0.3382
  384MPD2    C1 5738   1.599   2.884  12.078  0.3447  0.0518  0.5478
  384MPD2    C2 5739   1.627   2.767  12.006  0.4327  0.1980  0.8780
  384MPD2    C3 5740   1.654   2.769  11.869  1.5094  0.0794 -0.2292
  384MPD2    C4 5741   1.677   2.891  11.808 -0.1087  0.0270  0.4065
  384MPD2    C5 5742   1.658   3.002  11.885 -0.3961 -0.5667 -0.0472
  384MPD2     H 5743   1.612   2.682  12.072  0.8567 -0.0365  0.6676
  384MPD2    H1 5744   1.711   2.898  11.705 -1.9959  0.0947 -0.2064
  384MPD2    H2 5745   1.610   3.102  12.056 -0.2145  0.4405 -0.3964
  384MPD2    H3 5746   1.684   3.099  11.843 -1.6842 -0.3500 -0.3371
  384MPD2     N 5747   1.662   2.643  11.804  0.8680 -0.6234  0.0058
  384MPD2    H5 5748   1.695   2.647  11.708  1.8257 -3.7893  0.1724
  384MPD2    N1 5749   1.558   2.872  12.213 -0.8101  0.2470 -0.4009
  384MPD2    H7 5750   1.569   2.779  12.252 -1.2673  1.2574  2.1580
  385TMC3    C1 5751   1.645   2.407  11.770  0.1703 -0.0349 -0.5797
  385TMC3    C2 5752   1.767   2.392  11.710  0.0833 -0.2663 -0.0090
  385TMC3    C3 5753   1.841   2.275  11.722 -0.1834  0.4183  0.1063
  385TMC3    C4 5754   1.605   2.301  11.846 -0.0666  0.9419 -0.4125
  385TMC3    C5 5755   1.685   2.193  11.866  0.4054  0.1482  0.6736
  385TMC3    C6 5756   1.797   2.180  11.806 -0.2527 -0.4180 -0.6050
  385TMC3     C 5757   1.606   2.524  11.843  0.3212 -0.3602 -0.1466
  385TMC3     O 5758   1.568   2.491  11.954 -0.1459 -0.6873 -0.3555
  385TMC3     H 5759   1.810   2.480  11.664 -1.1507  0.3502  0.0253
  385TMC3    H1 5760   1.501   2.299  11.877 -0.7657 -2.7213 -2.9307
  385TMC3    H2 5761   1.861   2.097  11.835 -1.3613 -1.1240 -0.1605
  385TMC3    C7 5762   1.683   2.145  12.002 -0.1229 -0.0128 -0.6796
  385TMC3    C8 5763   1.968   2.251  11.657  0.3923 -0.0210  0.0172
  385TMC3    O1 5764   1.739   2.037  12.029  0.4386 -1.0495 -0.0817
  385TMC3    O2 5765   2.050   2.344  11.657 -0.1632  0.1630  0.2120
  386TMC3    C1 5766   1.501   0.161  11.941  0.2168  0.6823  0.3081
  386TMC3    C2 5767   1.560   0.108  11.837  0.1144  0.2874 -0.1730
  386TMC3    C3 5768   1.509   0.133  11.711  0.7257 -0.0127  0.2725
  386TMC3    C4 5769   1.384   0.235  11.925 -0.3914  0.1941 -0.6615
  386TMC3    C5 5770   1.327   0.252  11.801  0.0582  0.1477  0.3486
  386TMC3    C6 5771   1.402   0.215  11.691  0.2693 -0.3205  0.0976
  386TMC3     C 5772   1.542   0.122  12.079 -0.2454 -0.4748 -0.0805
  386TMC3     O 5773   1.457   0.130  12.166 -0.2576  0.6585 -0.1819
  386TMC3     H 5774   1.644   0.041  11.847 -2.5444 -3.0443 -0.1974
  386TMC3    H1 5775   1.338   0.279  12.013 -1.9381  1.1478 -1.9537
  386TMC3    H2 5776   1.376   0.242  11.589  2.5398 -0.8518 -0.6115
  386TMC3    C7 5777   1.199   0.309  11.777 -0.3821 -0.3772  0.0596
  386TMC3    C8 5778   1.576   0.088  11.588 -0.1478  0.0018 -0.6204
  386TMC3    O1 5779   1.153   0.370  11.871  0.1447  0.3393  0.1341
  386TMC3    O2 5780   1.510   0.087  11.486  0.3332  0.2533 -0.2946
  387MPD2     C 5781   0.347   4.587   9.367 -0.2474  0.5649 -0.5235
  387MPD2    C1 5782   0.243   4.618   9.454  0.8506 -0.6691  0.5165
  387MPD2    C2 5783   0.163   4.512   9.499 -0.1413 -0.4920  0.0704
  387MPD2    C3 5784   0.189   4.379   9.461  0.3249  0.3513  0.4064
  387MPD2    C4 5785   0.287   4.354   9.373 -0.3855  0.4609  0.1347
  387MPD2    C5 5786   0.365   4.456   9.326 -0.1106  0.1149 -0.3703
  387MPD2     H 5787   0.088   4.536   9.574  0.1454  2.1573 -0.4940
  387MPD2    H1 5788   0.320   4.260   9.331  0.4624 -0.1707  2.1862
  387MPD2    H2 5789   0.419   4.662   9.336  1.2951 -1.1429 -1.0990
  387MPD2    H3 5790   0.457   4.437   9.271  0.3383 -0.0826  0.4421
  387MPD2     N 5791   0.098   4.280   9.509  0.4935 -0.0799  0.8382
  387MPD2    H5 5792   0.026   4.310   9.574  0.0083  3.5687 -1.3584
  387MPD2    N1 5793   0.204   0.022   9.494  0.3541 -0.4360  0.1798
  387MPD2    H7 5794   0.122   0.023   9.553 -1.8537  1.1169 -2.9092
  388TMC3    C1 5795   0.252   0.224   9.596  0.3011  0.6889 -0.6798
  388TMC3    C2 5796   0.220   0.347   9.572 -0.0097 -0.2641  0.1528
  388TMC3    C3 5797   0.147   0.419   9.659 -0.8949  0.7257  0.3112
  388TMC3    C4 5798   0.211   0.160   9.706 -0.2513  0.1729  0.7902
  388TMC3    C5 5799   0.151   0.232   9.802  0.2074  0.0690 -0.1152
  388TMC3    C6 5800   0.116   0.364   9.782  0.4829 -0.5334 -0.0877
  388TMC3     C 5801   0.280   0.140   9.476  0.1678  0.1167 -0.3181
  388TMC3     O 5802   0.375   0.161   9.401  0.1021 -0.1864  0.0700
  388TMC3     H 5803   0.261   0.382   9.478  0.3092  0.5310  0.5931
  388TMC3    H1 5804   0.245   0.057   9.719  0.7429  0.7184  2.4436
  388TMC3    H2 5805   0.068   0.427   9.857 -0.4728  0.9417 -1.9541
  388TMC3    C7 5806   0.086   0.161   9.909  0.3711  0.4833  1.1112
  388TMC3    C8 5807   0.170   0.560   9.653  0.1862 -0.3150 -0.0232
  388TMC3    O1 5808   4.717   0.220   9.972  0.4303 -0.1365  0.1664
  388TMC3    O2 5809   0.266   0.597   9.592 -0.5960 -0.2482 -0.0272
  389MPD2     C 5810   3.848   2.993  11.597  0.3784  0.0382  0.8101
  389MPD2    C1 5811   3.812   2.865  11.554 -0.2048 -0.4134 -0.1259
  389MPD2    C2 5812   3.733   2.774  11.631  0.5608  0.8567  0.3601
  389MPD2    C3 5813   3.686   2.823  11.759 -0.1867 -0.7706  0.3079
  389MPD2    C4 5814   3.728   2.948  11.808 -0.0135 -0.2934  0.4037
  389MPD2    C5 5815   3.814   3.020  11.733 -0.3574  0.7376 -0.5299
  389MPD2     H 5816   3.688   2.684  11.592 -0.5463  1.4744  0.2164
  389MPD2    H1 5817   3.710   2.969  11.912 -2.6867 -0.6188  0.0075
  389MPD2    H2 5818   3.908   3.058  11.535  0.2139  0.0350  0.6450
  389MPD2    H3 5819   3.856   3.110  11.774 -0.0034 -0.1589  1.0706
  389MPD2     N 5820   3.604   2.747  11.843  0.4342 -0.3538  0.1841
  389MPD2    H5 5821   3.604   2.772  11.941 -1.1639 -0.1882  0.1426
  389MPD2    N1 5822   3.869   2.829  11.430  0.1647  0.4665  0.5927
  389MPD2    H7 5823   3.920   2.903  11.383 -0.5439  2.0817  2.3754
  390TMC3    C1 5824   3.459   2.575  11.916  0.2573  0.2766  0.1700
  390TMC3    C2 5825   3.428   2.441  11.909  0.2893  0.3528  0.3825
  390TMC3    C3 5826   3.314   2.403  11.978 -0.5022  0.5295  0.2388
  390TMC3    C4 5827   3.366   2.664  11.962 -0.1202  0.4054  0.9232
  390TMC3    C5 5828   3.249   2.620  12.013 -0.4502  0.1045 -0.4822
  390TMC3    C6 5829   3.232   2.493  12.041 -0.8033  0.0299  0.1132
  390TMC3     C 5830   3.548   2.623  11.812 -0.0070  0.1433 -0.1499
  390TMC3     O 5831   3.535   2.566  11.705 -0.3199  0.0412 -0.2619
  390TMC3     H 5832   3.493   2.368  11.862 -0.1744  0.9670 -1.2223
  390TMC3    H1 5833   3.380   2.771  11.965  2.8061  0.0658 -0.3650
  390TMC3    H2 5834   3.146   2.464  12.101  0.6694 -2.1113  1.1945
  390TMC3    C7 5835   3.160   2.658  11.910 -0.7303 -0.1797 -0.5863
  390TMC3    C8 5836   3.264   2.285  11.920 -0.1611 -0.4558  0.0379
  390TMC3    O1 5837   3.192   2.746  11.827  0.4140 -0.6995 -0.0143
  390TMC3    O2 5838   3.294   2.255  11.806  0.2700 -0.0190 -0.0648
  391MPD2     C 5839   3.247   4.154  11.445  0.3853  0.0908  0.0908
  391MPD2    C1 5840   3.308   4.257  11.375  0.7687 -0.1095 -0.3042
  391MPD2    C2 5841   3.282   4.273  11.238  0.3361  0.5714 -0.4589
  391MPD2    C3 5842   3.206   4.178  11.178  0.0675 -0.7852 -0.1300
  391MPD2    C4 5843   3.134   4.082  11.255  0.4624 -0.5232 -0.2201
  391MPD2    C5 5844   3.154   4.061  11.391  1.3914  0.1378  0.5652
  391MPD2     H 5845   3.329   4.348  11.175  0.0082  0.3580 -0.9563
  391MPD2    H1 5846   3.071   4.013  11.199  0.0439  0.0056 -0.4082
  391MPD2    H2 5847   3.277   4.130  11.547 -0.1518 -0.6762  0.0677
  391MPD2    H3 5848   3.115   3.973  11.442 -0.1471  1.2179  1.2518
  391MPD2     N 5849   3.191   4.195  11.040 -0.1359  0.4594  0.0296
  391MPD2    H5 5850   3.246   4.268  10.995  2.2084 -0.4062  1.5112
  391MPD2    N1 5851   3.379   4.353  11.454 -0.2578 -0.3210  0.1415
  391MPD2    H7 5852   3.387   4.337  11.554 -0.2554  0.9834  0.3447
  392TMC3    C1 5853   3.119   4.172  10.812  0.4292  0.1886  0.6200
  392TMC3    C2 5854   3.037   4.115  10.722 -0.2187 -0.7580 -0.3745
  392TMC3    C3 5855   3.059   4.147  10.587  0.7019 -0.3210  0.0456
  392TMC3    C4 5856   3.216   4.262  10.776 -0.6785  1.2594 -0.2718
  392TMC3    C5 5857   3.221   4.302  10.642 -0.4924 -0.3794  0.7655
  392TMC3    C6 5858   3.132   4.251  10.549  0.6818  0.4132 -0.6723
  392TMC3     C 5859   3.108   4.127  10.950  0.2742 -0.0614  0.2850
  392TMC3     O 5860   3.025   4.043  10.975 -0.4801  0.0463 -0.5975
  392TMC3     H 5861   2.984   4.025  10.752 -1.5701  0.3582  0.5682
  392TMC3    H1 5862   3.276   4.320  10.846 -1.5498  1.4305  0.3356
  392TMC3    H2 5863   3.125   4.271  10.442 -1.1305 -0.4288 -0.7047
  392TMC3    C7 5864   3.288   4.419  10.609  0.3106 -0.0142  0.3979
  392TMC3    C8 5865   2.961   4.078  10.501 -0.6643  0.4341 -0.1458
  392TMC3    O1 5866   3.357   4.468  10.701 -0.4662 -0.2825 -0.1887
  392TMC3    O2 5867   2.863   4.025  10.549 -0.6145 -0.8013  0.4413
  393TMC3    C1 5868   2.391   2.646  10.334  0.3580  0.8905  0.3361
  393TMC3    C2 5869   2.259   2.599  10.341  0.5330  0.4894  0.2088
  393TMC3    C3 5870   2.238   2.480  10.408  0.3096 -0.7636  0.2867
  393TMC3    C4 5871   2.499   2.574  10.374  0.2218 -0.2498  0.3165
  393TMC3    C5 5872   2.467   2.448  10.420 -0.1152  0.8293  0.4308
  393TMC3    C6 5873   2.343   2.402  10.447  0.0831 -0.6406 -0.6074
  393TMC3     C 5874   2.408   2.760  10.244 -0.0029  0.0253 -0.0708
  393TMC3     O 5875   2.300   2.797  10.192  0.6847  0.3339 -0.1492
  393TMC3     H 5876   2.175   2.662  10.314  0.4518  0.2823 -0.0271
  393TMC3    H1 5877   2.602   2.593  10.346  0.1321  0.1887  0.2884
  393TMC3    H2 5878   2.322   2.304  10.489 -0.7234 -1.1705 -2.2626
  393TMC3    C7 5879   2.556   2.336  10.380  0.4466 -0.5005 -0.1243
  393TMC3    C8 5880   2.106   2.421  10.419  0.4831 -0.3874  0.3080
  393TMC3    O1 5881   2.498   2.229  10.354 -0.1511 -0.1886 -0.7042
  393TMC3    O2 5882   2.095   2.352  10.520 -1.0887 -0.1572 -0.5904
  394TMC3    C1 5883   3.934   2.707  11.231 -0.2954 -0.3832 -0.2714
  394TMC3    C2 5884   3.864   2.769  11.133  0.4307  0.1288  0.6568
  394TMC3    C3 5885   3.914   2.775  11.006 -0.4894  0.0375  0.0159
  394TMC3    C4 5886   4.057   2.663  11.208  0.1855 -0.5886  0.3018
  394TMC3    C5 5887   4.114   2.676  11.084 -0.8140  0.4225  0.3493
  394TMC3    C6 5888   4.051   2.734  10.979  0.7159 -0.1004 -0.1693
  394TMC3     C 5889   3.874   2.705  11.374  0.4821 -0.3874  0.0946
  394TMC3     O 5890   3.849   2.591  11.420 -0.3456 -0.1614 -0.1117
  394TMC3     H 5891   3.778   2.824  11.169  1.4293  1.0974  1.5510
  394TMC3    H1 5892   4.117   2.626  11.290 -1.7508  2.0213  2.8755
  394TMC3    H2 5893   4.087   2.721  10.877 -1.9808 -1.3608 -0.9606
  394TMC3    C7 5894   4.260   2.684  11.076  0.5962 -0.5058  0.4541
  394TMC3    C8 5895   3.828   2.843  10.906 -0.8954  0.7535 -0.4289
  394TMC3    O1 5896   4.307   2.728  10.973 -0.3521  0.0833  0.8845
  394TMC3    O2 5897   3.774   2.950  10.926  0.1418 -0.2061 -0.1589
  395TMC3    C1 5898   3.161   0.468  14.719  0.2177 -0.9967  0.2181
  395TMC3    C2 5899   3.045   0.541  14.727 -0.4450 -0.1273 -0.2535
  395TMC3    C3 5900   3.042   0.661  14.787  0.1936  0.5655 -0.4346
  395TMC3    C4 5901   3.282   0.536  14.742  0.0899 -0.3121 -0.7717
  395TMC3    C5 5902   3.281   0.660  14.792  0.3416 -0.8976 -0.0040
  395TMC3    C6 5903   3.162   0.724  14.813 -0.4985  0.0472 -0.7363
  395TMC3     C 5904   3.152   0.330  14.757  0.4414 -0.4882 -0.2190
  395TMC3     O 5905   3.237   0.291  14.839  0.3578  0.2801 -0.0049
  395TMC3     H 5906   2.953   0.486  14.710 -1.3527  2.1410 -2.6788
  395TMC3    H1 5907   3.375   0.486  14.720  0.5464 -0.2978  1.1170
  395TMC3    H2 5908   3.168   0.824  14.854  1.2692 -1.1665  2.0252
  395TMC3    C7 5909   3.403   0.738  14.801  0.5677 -0.5044  0.0327
  395TMC3    C8 5910   2.944   0.660  14.894  0.0259 -0.6538  0.1312
  395TMC3    O1 5911   3.380   0.859  14.801 -0.0862 -0.4100 -0.2867
  395TMC3    O2 5912   2.905   0.771  14.926  0.1724 -0.1126 -0.3292
  396MPD2     C 5913   2.584   1.048  17.375  0.4538 -0.2689  0.0201
  396MPD2    C1 5914   2.693   1.129  17.377  0.2735 -1.2065 -0.1998
  396MPD2    C2 5915   2.700   1.230  17.285  0.1394 -0.7047  0.3708
  396MPD2    C3 5916   2.600   1.251  17.192 -0.2354  0.0078 -0.6954
  396MPD2    C4 5917   2.493   1.173  17.195 -0.6132 -0.1714 -0.5210
  396MPD2    C5 5918   2.486   1.076  17.285 -0.4256  0.5676  0.3241
  396MPD2     H 5919   2.790   1.291  17.286 -1.1768  1.2505  0.2788
  396MPD2    H1 5920   2.421   1.174  17.114 -0.9336  1.2244 -0.2132
  396MPD2    H2 5921   2.575   0.966  17.445 -0.6192  0.1874  0.4212
  396MPD2    H3 5922   2.407   1.002  17.279  0.0288 -0.0653  1.8983
  396MPD2     N 5923   2.623   1.350  17.100  0.1060 -0.1078  0.5339
  396MPD2    H5 5924   2.705   1.409  17.113 -0.2622  1.3382 -3.6326
  396MPD2    N1 5925   2.790   1.109  17.477 -0.7226 -0.0256 -0.2722
  396MPD2    H7 5926   2.779   1.023  17.528  1.8062  0.0064  0.3295
  397TMC3    C1 5927   2.989   1.125  17.591  0.3185  0.0845 -0.7393
  397TMC3    C2 5928   3.086   1.218  17.621 -1.0136 -0.8318 -0.2131
  397TMC3    C3 5929   3.214   1.183  17.625 -0.5901 -0.1166 -0.4390
  397TMC3    C4 5930   3.029   1.005  17.547 -0.1700 -0.2631  0.1124
  397TMC3    C5 5931   3.161   0.965  17.549  0.7123 -0.6897  0.8478
  397TMC3    C6 5932   3.254   1.058  17.590  0.2616  0.4248  0.2504
  397TMC3     C 5933   2.900   1.188  17.501  0.2693  0.0838  0.6253
  397TMC3     O 5934   2.954   1.284  17.445 -0.5823 -0.0370  0.2216
  397TMC3     H 5935   3.057   1.316  17.655  2.1775  0.7145 -1.9490
  397TMC3    H1 5936   2.956   0.944  17.496  2.4564 -2.4752 -0.9882
  397TMC3    H2 5937   3.361   1.043  17.591  0.0333 -1.1270  0.9727
  397TMC3    C7 5938   3.191   0.823  17.589 -0.1140  0.1211  0.1138
  397TMC3    C8 5939   3.300   1.298  17.580  0.2096 -0.3099 -0.2882
  397TMC3    O1 5940   3.305   0.799  17.617  0.4329 -0.1584  0.7100
  397TMC3    O2 5941   3.420   1.302  17.614 -0.3184 -0.2785 -0.4801
  398MPD2     C 5942   0.503   2.566   0.389 -0.0046 -0.1210 -0.4082
  398MPD2    C1 5943   0.592   2.469   0.437  0.2840 -0.0124  0.6937
  398MPD2    C2 5944   0.657   2.483   0.556  0.3873 -0.5858 -0.0775
  398MPD2    C3 5945   0.626   2.584   0.646 -0.4854  0.7009 -0.7171
  398MPD2    C4 5946   0.547   2.687   0.594 -0.2560  0.7628 -0.8197
  398MPD2    C5 5947   0.494   2.679   0.465 -0.0376  0.1981  0.2786
  398MPD2     H 5948   0.739   2.418   0.582 -1.0664 -2.0732  0.7728
  398MPD2    H1 5949   0.528   2.774   0.655  0.9889  1.8794 -2.0081
  398MPD2    H2 5950   0.448   2.574   0.296  1.5601 -0.2097 -1.3434
  398MPD2    H3 5951   0.434   2.765   0.437 -0.4124 -0.7651 -1.9170
  398MPD2     N 5952   0.700   2.591   0.762  0.6592 -0.4354  0.0399
  398MPD2    H5 5953   0.759   2.510   0.778  3.3260  1.0979 -2.0639
  398MPD2    N1 5954   0.614   2.349   0.362 -0.2431 -0.5072 -0.0861
  398MPD2    H7 5955   0.665   2.276   0.411  0.5912 -0.9899 -1.6727
  399TMC3    C1 5956   0.600   2.194   0.193  0.0944  1.0462  1.0939
  399TMC3    C2 5957   0.724   2.157   0.219 -0.6406 -0.2395  0.7946
  399TMC3    C3 5958   0.757   2.030   0.188 -0.0587  0.2018  0.5410
  399TMC3    C4 5959   0.514   2.120   0.116 -0.3520 -1.2633 -0.5014
  399TMC3    C5 5960   0.554   1.992   0.085 -0.4223 -0.0265 -0.1007
  399TMC3    C6 5961   0.678   1.945   0.113  0.5314  0.1960  0.0685
  399TMC3     C 5962   0.553   2.321   0.245  0.0555  0.6266 -0.9291
  399TMC3     O 5963   0.471   2.385   0.179  0.3868 -0.1293 -0.3818
  399TMC3     H 5964   0.792   2.221   0.274 -2.3843  3.3345 -1.2951
  399TMC3    H1 5965   0.411   2.151   0.105 -0.3114 -1.8192 -2.6298
  399TMC3    H2 5966   0.700   1.844   0.082  3.0027  0.6085  0.5075
  399TMC3    C7 5967   0.454   1.891   0.066  0.1899  0.4028 -0.5624
  399TMC3    C8 5968   0.894   1.985   0.226  0.0132  0.1605 -0.1978
  399TMC3    O1 5969   0.499   1.784   0.100  0.2247 -0.4159 -0.5135
  399TMC3    O2 5970   0.966   2.060   0.287  0.3281  0.5962 -0.1265
  400TMC3    C1 5971   4.655   1.402  16.774  0.4721  0.4171  0.0372
  400TMC3    C2 5972   4.530   1.381  16.737  0.7170 -0.3367  0.3492
  400TMC3    C3 5973   4.457   1.475  16.677 -0.2212  0.1855  0.1985
  400TMC3    C4 5974   4.720   1.520  16.747 -0.0512  0.3272 -0.3501
  400TMC3    C5 5975   4.654   1.613  16.668  0.1028 -0.8788 -0.1845
  400TMC3    C6 5976   4.520   1.592  16.635  0.8326  0.7608  0.1291
  400TMC3     C 5977   0.001   1.304  16.849  0.6222  0.5278 -0.7805
  400TMC3     O 5978   4.709   1.188  16.815 -0.1754  0.0682 -0.1787
  400TMC3     H 5979   4.487   1.290  16.777  1.3469  0.0759  1.9582
  400TMC3    H1 5980   0.093   1.538  16.794  0.5735 -3.3041 -0.2176
  400TMC3    H2 5981   4.463   1.661  16.574 -0.9282 -2.8314 -2.2741
  400TMC3    C7 5982   4.690   1.746  16.717 -0.5898  0.8366  0.2168
  400TMC3    C8 5983   4.315   1.476  16.674  0.4075  0.3232 -0.8887
  400TMC3    O1 5984   0.089   1.767  16.716 -0.0728 -0.1820 -0.5111
  400TMC3    O2 5985   4.266   1.575  16.622 -0.0704 -0.2338 -0.6490
  401MPD2     C 5986   1.917   4.065   0.768  0.2751  0.4816 -0.6343
  401MPD2    C1 5987   2.052   4.028   0.756  0.2874  0.4909 -0.2779
  401MPD2    C2 5988   2.082   3.890   0.743  0.0688 -0.0547 -0.1480
  401MPD2    C3 5989   1.990   3.794   0.741 -0.4267 -0.7154  0.4236
  401MPD2    C4 5990   1.857   3.830   0.762 -0.7529  0.4119  0.0638
  401MPD2    C5 5991   1.827   3.963   0.772 -1.0474 -0.2689 -0.0137
  401MPD2     H 5992   2.184   3.857   0.731 -0.1799  0.0238 -2.5871
  401MPD2    H1 5993   1.778   3.758   0.778 -0.4927 -0.0011 -0.4983
  401MPD2    H2 5994   1.889   4.164   0.803 -1.5835  0.4513 -2.0628
  401MPD2    H3 5995   1.722   3.973   0.799 -0.8582  1.5879  0.0007
  401MPD2     N 5996   2.035   3.662   0.720 -0.2704  0.4437  0.7893
  401MPD2    H5 5997   2.133   3.643   0.700 -0.6294 -0.2789 -0.3330
  401MPD2    N1 5998   2.152   4.124   0.780 -0.0855  0.4353  0.3639
  401MPD2    H7 5999   2.244   4.084   0.795  0.3498  0.9622 -0.9359
  402TMC3    C1 6000   1.995   3.431   0.683 -0.5507 -0.7301  0.0525
  402TMC3    C2 6001   2.041   3.350   0.779 -0.2714  0.8684 -0.5610
  402TMC3    C3 6002   2.143   3.262   0.749  0.2679  0.9966 -0.3685
  402TMC3    C4 6003   2.049   3.434   0.557  0.1687 -0.1341 -0.0006
  402TMC3    C5 6004   2.163   3.364   0.534 -0.5896 -0.3775  0.4430
  402TMC3    C6 6005   2.210   3.269   0.626 -0.0518  0.1522  0.3771
  402TMC3     C 6006   1.948   3.559   0.731 -0.3813  0.2576  0.0066
  402TMC3     O 6007   1.845   3.545   0.799  0.2698  0.0747  0.2095
  402TMC3     H 6008   2.001   3.351   0.880 -0.7636  0.0465 -0.7425
  402TMC3    H1 6009   2.024   3.512   0.486 -0.2481  0.8051  1.1776
  402TMC3    H2 6010   2.294   3.205   0.602 -1.4637 -1.2576 -0.7539
  402TMC3    C7 6011   2.230   3.399   0.405  0.5670  0.1771 -0.5067
  402TMC3    C8 6012   2.221   3.204   0.852  0.7986 -0.3105 -0.3791
  402TMC3    O1 6013   2.164   3.467   0.324 -0.3143  0.0294 -0.1491
  402TMC3    O2 6014   2.334   3.168   0.821 -0.0582  0.1770 -0.1363
  403MPD2     C 6015   0.952   2.786  13.454 -0.0007  0.5455  0.5055
  403MPD2    C1 6016   0.955   2.659  13.516  0.1089  0.6329  0.2653
  403MPD2    C2 6017   1.034   2.643  13.629 -0.4871 -0.3837 -0.3663
  403MPD2    C3 6018   1.079   2.759  13.692 -0.2496  0.8541 -0.9645
  403MPD2    C4 6019   1.045   2.882  13.645  0.1513 -0.0524 -0.1113
  403MPD2    C5 6020   0.987   2.893  13.522  0.8036  0.0554  0.2324
  403MPD2     H 6021   1.051   2.556  13.692 -1.5714 -0.1224  0.2871
  403MPD2    H1 6022   1.072   2.976  13.691 -0.5225 -0.8586  1.9381
  403MPD2    H2 6023   0.911   2.808  13.356 -0.1430 -0.5183  0.3244
  403MPD2    H3 6024   0.979   2.993  13.482 -1.7345 -0.8101 -1.4432
  403MPD2     N 6025   1.177   2.745  13.799 -0.7603 -0.3897  0.2734
  403MPD2    H5 6026   1.214   2.651  13.812 -0.1330 -0.3503 -1.1986
  403MPD2    N1 6027   0.891   2.549  13.460  0.2900  0.6042  0.0669
  403MPD2    H7 6028   0.847   2.571  13.371 -2.2914  0.2038  1.2635
  404TMC3    C1 6029   0.872   2.327  13.399 -0.3451 -0.3148 -0.4847
  404TMC3    C2 6030   0.862   2.199  13.453 -0.6083  0.8639  0.1773
  404TMC3    C3 6031   0.908   2.102  13.372 -0.1841  0.3848  0.2553
  404TMC3    C4 6032   0.929   2.353  13.276 -0.1950 -0.0073  0.2785
  404TMC3    C5 6033   0.970   2.252  13.198  0.3941  0.6658 -0.1657
  404TMC3    C6 6034   0.958   2.120  13.248 -0.4982 -0.0281 -0.1693
  404TMC3     C 6035   0.881   2.420  13.506  0.6033  0.8867 -0.4377
  404TMC3     O 6036   0.902   2.374  13.617 -0.0394  0.2536 -0.0785
  404TMC3     H 6037   0.806   2.182  13.545 -2.1361  0.9178 -0.7417
  404TMC3    H1 6038   0.923   2.455  13.238 -2.9526  0.6778  2.5416
  404TMC3    H2 6039   1.002   2.039  13.191  0.4223 -0.2677  0.8906
  404TMC3    C7 6040   0.991   2.290  13.058 -0.6770  0.3499 -0.5798
  404TMC3    C8 6041   0.955   1.975  13.436  0.1886 -0.4608 -0.1962
  404TMC3    O1 6042   1.041   2.400  13.033 -0.0837  0.2090 -0.7447
  404TMC3    O2 6043   1.028   1.904  13.370 -0.2320  0.1691 -0.1725
  405MPD2     C 6044   1.202   2.536  14.883 -0.9816 -0.3572 -0.6874
  405MPD2    C1 6045   1.199   2.546  14.743  0.0163 -0.0416  0.0667
  405MPD2    C2 6046   1.231   2.666  14.679  0.0596 -1.3900 -0.4962
  405MPD2    C3 6047   1.261   2.778  14.760  0.2393  0.3492 -0.0747
  405MPD2    C4 6048   1.252   2.771  14.895  0.5346  0.1068  0.7789
  405MPD2    C5 6049   1.215   2.651  14.956 -1.0363  0.8438  0.0518
  405MPD2     H 6050   1.224   2.686  14.573 -0.5645  0.5431 -0.0862
  405MPD2    H1 6051   1.253   2.860  14.957 -0.0593 -0.9535  2.3111
  405MPD2    H2 6052   1.162   2.445  14.926 -0.1488 -1.1686 -1.6370
  405MPD2    H3 6053   1.195   2.645  15.062 -0.9037 -0.0573  0.0319
  405MPD2     N 6054   1.287   2.897  14.694 -0.3359 -0.0928  0.3127
  405MPD2    H5 6055   1.289   2.891  14.593 -1.6795  0.6648  0.2573
  405MPD2    N1 6056   1.143   2.433  14.669 -0.3197  0.0063  0.2714
  405MPD2    H7 6057   1.103   2.352  14.714 -0.2900  0.7414  1.6406
  406TMC3    C1 6058   1.316   3.323  14.549 -0.2792  0.3721  0.3818
  406TMC3    C2 6059   1.354   3.270  14.430  0.3608  0.1875  0.6398
  406TMC3    C3 6060   1.378   3.137  14.415 -0.1698  0.1503  0.5409
  406TMC3    C4 6061   1.297   3.245  14.659  0.1883  0.7000  0.3615
  406TMC3    C5 6062   1.342   3.113  14.648  0.9639 -0.0301  0.7572
  406TMC3    C6 6063   1.387   3.060  14.532 -0.2715  0.0990 -0.0593
  406TMC3     C 6064   1.239   3.439  14.516  0.0513 -0.6601 -0.2654
  406TMC3     O 6065   1.294   3.535  14.462 -0.0759  0.1729  0.7634
  406TMC3     H 6066   1.332   3.335  14.345 -1.6141 -0.3705  0.7217
  406TMC3    H1 6067   1.268   3.290  14.753 -0.5436 -1.0863  0.9913
  406TMC3    H2 6068   1.436   2.964  14.523 -1.9030 -0.7674  0.2162
  406TMC3    C7 6069   1.312   3.017  14.757  0.2261 -0.6431 -0.6342
  406TMC3    C8 6070   1.296   3.084  14.307  0.2164  0.6319  0.6154
  406TMC3    O1 6071   1.268   3.068  14.859  0.0620 -0.2236 -0.2611
  406TMC3    O2 6072   1.271   3.166  14.214  0.2822 -0.0545  0.1274
  407MPD2     C 6073   4.543   3.962   9.274 -0.5345 -0.1990 -0.1979
  407MPD2    C1 6074   4.527   4.094   9.315  0.3511  0.4979 -1.1357
  407MPD2    C2 6075   4.464   4.119   9.434 -0.0259 -0.0750 -0.3895
  407MPD2    C3 6076   4.408   4.022   9.518  0.3355  0.2911  0.6944
  407MPD2    C4 6077   4.418   3.892   9.469  0.3716  0.2532  0.0587
  407MPD2    C5 6078   4.488   3.867   9.353  0.2004  0.4483 -0.4587
  407MPD2     H 6079   4.459   4.221   9.470 -1.0749 -0.2224 -0.1293
  407MPD2    H1 6080   4.383   3.806   9.523  1.7705  0.0626  0.6678
  407MPD2    H2 6081   4.592   3.928   9.183 -0.1714  0.1975 -0.1497
  407MPD2    H3 6082   4.493   3.763   9.324  0.5108 -0.3828  2.5313
  407MPD2     N 6083   4.345   4.041   9.644  0.0265  0.1358  0.3031
  407MPD2    H5 6084   4.328   3.957   9.697  1.8159  0.2017  0.9795
  407MPD2    N1 6085   4.572   4.206   9.238 -0.1326 -0.2245 -0.3921
  407MPD2    H7 6086   4.560   4.295   9.284  2.8456  0.2465 -0.5588
  408TMC3    C1 6087   4.713   4.324   9.101  0.1998  0.3425  0.6612
  408TMC3    C2 6088   0.101   4.315   9.023  0.4864  0.9952 -0.4777
  408TMC3    C3 6089   0.186   4.427   9.020 -0.2024 -0.2647  0.6478
  408TMC3    C4 6090   4.666   4.435   9.171 -0.0121  0.2778 -0.2590
  408TMC3    C5 6091   0.028   4.547   9.143 -0.3543  0.0179 -0.0483
  408TMC3    C6 6092   0.150   4.543   9.082  0.5729 -0.0328  0.6099
  408TMC3     C 6093   4.655   4.198   9.131  0.3567  0.4361  0.0884
  408TMC3     O 6094   4.689   4.098   9.071 -0.1336 -0.5173  0.5168
  408TMC3     H 6095   0.137   4.219   8.989  0.6619  1.7631 -2.4417
  408TMC3    H1 6096   4.574   4.446   9.228 -0.0339 -1.0834 -0.0495
  408TMC3    H2 6097   0.218   4.627   9.090 -1.7875  1.9152 -0.2265
  408TMC3    C7 6098   4.712   4.673   9.198  0.3979  0.0928  0.4843
  408TMC3    C8 6099   0.326   4.385   8.984  0.2726  0.3172 -0.3619
  408TMC3    O1 6100   4.637   4.683   9.294  0.3542  0.1816 -0.7104
  408TMC3    O2 6101   0.350   4.270   8.961  0.6595  0.9622 -0.7893
  409MPD2     C 6102   2.949   0.820  17.181  0.3484  0.2243  0.8099
  409MPD2    C1 6103   3.079   0.799  17.213 -0.5840  0.3685 -0.1099
  409MPD2    C2 6104   3.171   0.906  17.201 -0.1631 -0.3685 -0.2815
  409MPD2    C3 6105   3.120   1.035  17.176  0.0041  0.0991 -0.1996
  409MPD2    C4 6106   2.983   1.052  17.160 -0.2556  0.0297 -0.1180
  409MPD2    C5 6107   2.904   0.946  17.160 -0.3997  0.0312 -0.0494
  409MPD2     H 6108   3.272   0.885  17.235 -0.3662 -3.4535 -1.6098
  409MPD2    H1 6109   2.938   1.147  17.135  0.1870 -0.7931 -4.1747
  409MPD2    H2 6110   2.880   0.737  17.171 -0.4915  1.2242 -1.7770
  409MPD2    H3 6111   2.800   0.960  17.134 -0.6582  0.0432  0.9770
  409MPD2     N 6112   3.203   1.145  17.167 -0.1777  0.6745 -0.5786
  409MPD2    H5 6113   3.155   1.232  17.145 -1.2539  0.3790  0.6359
  409MPD2    N1 6114   3.128   0.674  17.251 -0.0265 -0.1863  0.0630
  409MPD2    H7 6115   3.228   0.662  17.265  0.0078  1.1354  0.9245
  410TMC3    C1 6116   3.397   1.265  17.142 -0.1189  0.5384 -0.3126
  410TMC3    C2 6117   3.510   1.291  17.206 -0.0874  0.2956  0.0346
  410TMC3    C3 6118   3.608   1.353  17.134 -0.0802 -0.0436  0.4179
  410TMC3    C4 6119   3.365   1.299  17.013  0.9209 -0.5812  0.0752
  410TMC3    C5 6120   3.464   1.376  16.952 -0.9773 -0.4760 -0.4171
  410TMC3    C6 6121   3.587   1.396  17.010  0.5601 -0.4128  0.4905
  410TMC3     C 6122   3.339   1.146  17.204  0.1390  0.6008 -0.0565
  410TMC3     O 6123   3.418   1.070  17.260  0.0851  0.1665  0.0036
  410TMC3     H 6124   3.516   1.269  17.312 -1.2939  2.2604  0.5183
  410TMC3    H1 6125   3.275   1.272  16.960 -0.3759  1.4560  1.2395
  410TMC3    H2 6126   3.669   1.451  16.966 -1.3339  2.1600  0.1691
  410TMC3    C7 6127   3.468   1.381  16.810 -0.1526 -0.0045 -0.4433
  410TMC3    C8 6128   3.749   1.308  17.159 -0.5739  0.2164  0.1150
  410TMC3    O1 6129   3.394   1.300  16.753  0.1640  0.3595 -0.6438
  410TMC3    O2 6130   3.849   1.359  17.101 -0.0871 -0.3420 -0.0062
  411MPD2     C 6131   3.520   1.189  14.584  0.5665  0.6825 -0.4421
  411MPD2    C1 6132   3.383   1.214  14.567  0.7306  0.1220 -0.3401
  411MPD2    C2 6133   3.292   1.118  14.544  0.6375 -0.2789  0.3975
  411MPD2    C3 6134   3.346   0.987  14.519 -0.0614 -0.4356  0.2886
  411MPD2    C4 6135   3.482   0.957  14.540 -0.6099 -0.2797  0.0750
  411MPD2    C5 6136   3.564   1.063  14.579 -0.6547  0.0239 -0.0983
  411MPD2     H 6137   3.186   1.141  14.538  0.7230 -0.2248 -0.9970
  411MPD2    H1 6138   3.525   0.858  14.554 -0.1708 -0.1821 -0.5468
  411MPD2    H2 6139   3.595   1.265  14.602 -0.0452  1.2374 -0.2171
  411MPD2    H3 6140   3.669   1.046  14.601 -0.4804  1.1777  0.0082
  411MPD2     N 6141   3.268   0.877  14.472 -0.8575 -0.3364 -0.6258
  411MPD2    H5 6142   3.315   0.821  14.402  1.2963  0.3143  0.3112
  411MPD2    N1 6143   3.341   1.346  14.558 -0.0957 -0.0218 -0.2663
  411MPD2    H7 6144   3.242   1.365  14.547  0.4547  1.2534 -2.9658
  412TMC3    C1 6145   3.069   0.772  14.395 -0.1586  0.5564  0.4785
  412TMC3    C2 6146   2.952   0.813  14.331  0.3294 -0.3687  0.1707
  412TMC3    C3 6147   2.893   0.728  14.241  0.1714  1.2297  0.1752
  412TMC3    C4 6148   3.145   0.658  14.358 -0.5286 -0.2999  0.8063
  412TMC3    C5 6149   3.089   0.578  14.262  0.3827  0.6602 -0.3900
  412TMC3    C6 6150   2.965   0.617  14.210 -0.5823 -0.2196 -0.1567
  412TMC3     C 6151   3.128   0.871  14.480  0.1182 -0.3009 -0.1137
  412TMC3     O 6152   3.047   0.939  14.543  0.4202 -0.3968 -0.4193
  412TMC3     H 6153   2.903   0.905  14.360  1.0531 -0.2855  1.0947
  412TMC3    H1 6154   3.224   0.619  14.421 -0.0191  3.2639  2.3483
  412TMC3    H2 6155   2.932   0.547  14.134 -1.2287  0.0813 -0.1504
  412TMC3    C7 6156   3.182   0.591  14.163 -0.3501  0.3356 -0.2394
  412TMC3    C8 6157   2.838   0.796  14.122 -0.2959 -0.6994 -0.9027
  412TMC3    O1 6158   3.150   0.675  14.075  0.7358  0.2330  0.0146
  412TMC3    O2 6159   2.719   0.823  14.125 -0.1508 -0.2538  0.2427
  413MPD2     C 6160   4.626   4.223  15.497 -0.2034 -0.2385  0.2771
  413MPD2    C1 6161   4.560   4.134  15.425  0.1267  0.3737  0.2692
  413MPD2    C2 6162   4.630   4.046  15.351 -0.6657  0.2804 -0.3231
  413MPD2    C3 6163   0.045   4.057  15.358  0.0225 -0.3110  0.0918
  413MPD2    C4 6164   0.113   4.152  15.430 -0.8861  0.7200 -0.0367
  413MPD2    C5 6165   0.043   4.232  15.506 -1.1395 -0.1671 -0.5318
  413MPD2     H 6166   4.581   3.972  15.288  1.0690 -0.5329 -0.7024
  413MPD2    H1 6167   0.222   4.152  15.430 -0.8857 -0.5604  0.3690
  413MPD2    H2 6168   4.568   4.300  15.548 -0.5247 -1.6195  2.0046
  413MPD2    H3 6169   0.101   4.304  15.563  0.7823  0.1216 -2.8441
  413MPD2     N 6170   0.107   3.957  15.280  1.0015  0.2329 -0.2006
  413MPD2    H5 6171   0.046   3.898  15.224 -0.6735  0.9230  0.9126
  413MPD2    N1 6172   4.422   4.149  15.432  0.1842 -0.5898  0.1989
  413MPD2    H7 6173   4.388   4.216  15.500 -0.3152 -1.4692  0.8152
  414TMC3    C1 6174   0.263   3.792  15.224  0.4538 -0.0078 -0.0409
  414TMC3    C2 6175   0.334   3.693  15.282 -0.0360 -0.5762  0.4371
  414TMC3    C3 6176   0.345   3.573  15.215 -0.8587  0.1652  0.0779
  414TMC3    C4 6177   0.189   3.777  15.110  0.7053  0.0067 -0.5301
  414TMC3    C5 6178   0.194   3.653  15.050  0.3481  0.5731 -0.0164
  414TMC3    C6 6179   0.269   3.551  15.099 -0.5564 -0.2086  0.2749
  414TMC3     C 6180   0.234   3.910  15.303  0.8045  0.0590  0.0399
  414TMC3     O 6181   0.312   3.951  15.389  0.3960 -0.3306  1.1946
  414TMC3     H 6182   0.368   3.709  15.384 -0.2069 -1.2252  0.6009
  414TMC3    H1 6183   0.146   3.859  15.053 -0.0692  1.1904  1.7159
  414TMC3    H2 6184   0.283   3.460  15.041  0.8982 -0.0857  0.4216
  414TMC3    C7 6185   0.146   3.636  14.916  0.2262 -0.5589 -0.0376
  414TMC3    C8 6186   0.462   3.488  15.241 -0.5564 -0.2647 -0.4420
  414TMC3    O1 6187   0.039   3.692  14.897  0.1048 -0.1921 -0.6322
  414TMC3    O2 6188   0.462   3.374  15.191 -0.3618  0.0876 -0.6813
  415TMC3    C1 6189   1.405   1.757  10.211  0.6223 -0.3990  0.3227
  415TMC3    C2 6190   1.412   1.865  10.130 -0.2873  0.1924 -0.2212
  415TMC3    C3 6191   1.291   1.903  10.074  0.2178 -0.1173  0.3823
  415TMC3    C4 6192   1.291   1.685  10.235  0.4090  0.3333 -0.8841
  415TMC3    C5 6193   1.174   1.735  10.175 -0.1658  0.7057  0.5510
  415TMC3    C6 6194   1.171   1.843  10.093 -0.0375  0.3704  0.4684
  415TMC3     C 6195   1.507   1.729  10.303  0.5501  0.3182  0.2948
  415TMC3     O 6196   1.486   1.632  10.374 -0.1787 -0.6875  0.6349
  415TMC3     H 6197   1.511   1.907  10.113 -0.8277  1.1234 -1.0872
  415TMC3    H1 6198   1.292   1.589  10.286  0.4957  1.6473  1.6008
  415TMC3    H2 6199   1.080   1.887  10.055 -0.6249 -0.3594  1.0379
  415TMC3    C7 6200   1.061   1.645  10.179  0.1293 -0.0034 -0.4436
  415TMC3    C8 6201   1.283   2.009   9.976 -0.2609  0.6017  0.4542
  415TMC3    O1 6202   0.995   1.619  10.078  0.0330 -0.6211 -0.2772
  415TMC3    O2 6203   1.186   2.080   9.955 -0.2223  0.2326 -0.1094
  416MPD2     C 6204   3.318   1.375  11.063  0.2222  1.0232  0.1405
  416MPD2    C1 6205   3.270   1.285  11.158 -0.3111  0.3589  0.3234
  416MPD2    C2 6206   3.279   1.149  11.132  0.4565 -0.2289  0.2212
  416MPD2    C3 6207   3.305   1.105  11.003 -0.0365  0.2135  0.2127
  416MPD2    C4 6208   3.340   1.201  10.908  0.0307  0.0472  0.0638
  416MPD2    C5 6209   3.353   1.328  10.939  0.5144  0.2890  0.4095
  416MPD2     H 6210   3.246   1.075  11.204  4.0444  1.1530  3.2582
  416MPD2    H1 6211   3.344   1.189  10.800  1.8811  0.7543  0.0553
  416MPD2    H2 6212   3.322   1.482  11.080 -2.6593  1.3005 -0.9183
  416MPD2    H3 6213   3.397   1.390  10.863 -1.8939 -0.5148 -1.6486
  416MPD2     N 6214   3.282   0.966  10.972  0.5849 -0.2570 -0.1962
  416MPD2    H5 6215   3.256   0.912  11.053  0.5453 -0.4560 -0.3426
  416MPD2    N1 6216   3.203   1.343  11.275 -0.1869  0.1006  0.7640
  416MPD2    H7 6217   3.169   1.438  11.271 -1.4302 -0.4104 -0.9778
  417TMC3    C1 6218   3.061   1.334  11.456  0.6039 -0.0546  0.2709
  417TMC3    C2 6219   3.013   1.271  11.569 -0.0218  0.0461 -0.5211
  417TMC3    C3 6220   2.877   1.260  11.594  0.3492  0.6851  0.7141
  417TMC3    C4 6221   2.963   1.396  11.372 -0.0252 -0.6185  0.7859
  417TMC3    C5 6222   2.830   1.367  11.389  0.0167  0.9247  0.2182
  417TMC3    C6 6223   2.784   1.296  11.493 -0.1368  0.1883  0.2322
  417TMC3     C 6224   3.170   1.272  11.385  0.2497  0.2933 -0.5785
  417TMC3     O 6225   3.199   1.158  11.421  0.4580 -0.4451  0.2349
  417TMC3     H 6226   3.086   1.223  11.633 -1.8267 -1.9005  0.0768
  417TMC3    H1 6227   2.986   1.431  11.272  1.0218 -1.2760  0.7919
  417TMC3    H2 6228   2.675   1.290  11.495 -0.0804 -0.8479  0.1458
  417TMC3    C7 6229   2.744   1.400  11.277  0.3119 -0.8287 -0.1428
  417TMC3    C8 6230   2.823   1.238  11.722 -0.2385  0.2775  0.0274
  417TMC3    O1 6231   2.760   1.510  11.228  0.1279  0.2990  0.0438
  417TMC3    O2 6232   2.900   1.261  11.817  0.0205  0.4424  0.2813
  418TMC3    C1 6233   1.021   2.680   0.988 -0.5812  0.4749  0.4784
  418TMC3    C2 6234   0.905   2.738   0.953  0.7839 -0.1200  0.2976
  418TMC3    C3 6235   0.790   2.671   0.967 -0.3145  0.2774 -0.8715
  418TMC3    C4 6236   1.028   2.551   1.029 -0.0220 -0.0433 -0.2576
  418TMC3    C5 6237   0.915   2.482   1.027 -0.2995  0.6589  0.2419
  418TMC3    C6 6238   0.792   2.540   0.996  0.7582  0.0330 -0.2279
  418TMC3     C 6239   1.139   2.736   0.936 -0.0234 -0.6586 -0.2015
  418TMC3     O 6240   1.154   2.854   0.965  0.0064 -0.0343 -0.0628
  418TMC3     H 6241   0.906   2.846   0.940 -3.6482  0.1368  2.1908
  418TMC3    H1 6242   1.119   2.499   1.056 -0.5057 -1.5616 -1.5330
  418TMC3    H2 6243   0.706   2.473   0.993  0.1925  0.6989  0.9906
  418TMC3    C7 6244   0.914   2.346   1.076  0.6671 -0.1750 -0.3382
  418TMC3    C8 6245   0.704   2.705   0.850  0.5968  0.4620 -0.3081
  418TMC3    O1 6246   0.812   2.282   1.062  0.6094  0.4675  0.4963
  418TMC3    O2 6247   0.657   2.813   0.834  0.8135 -0.3859  0.2746
  419MPD2     C 6248   4.548   0.614  12.449  0.2951  0.4288 -0.1290
  419MPD2    C1 6249   4.513   0.739  12.423 -1.1797  0.7787  0.5413
  419MPD2    C2 6250   4.457   0.817  12.526 -0.4869  0.1166  1.0467
  419MPD2    C3 6251   4.458   0.777  12.656 -0.1387  0.3561 -0.4460
  419MPD2    C4 6252   4.497   0.652  12.676  0.4742  0.4064  0.7815
  419MPD2    C5 6253   4.541   0.565  12.576 -0.0618  0.6697 -0.3603
  419MPD2     H 6254   4.436   0.920  12.498 -0.2648  0.8040  3.3583
  419MPD2    H1 6255   4.492   0.608  12.775 -1.7179  1.1104  0.9853
  419MPD2    H2 6256   4.584   0.551  12.368 -0.3781 -1.5388  1.0988
  419MPD2    H3 6257   4.571   0.463  12.596  1.8129  1.3180  0.0819
  419MPD2     N 6258   4.398   0.860  12.747  0.4493  0.5585  0.1626
  419MPD2    H5 6259   4.365   0.946  12.705 -0.6434  0.5285  0.9638
  419MPD2    N1 6260   4.533   0.809  12.301 -0.1128  0.3822 -0.2630
  419MPD2    H7 6261   4.508   0.907  12.288 -1.0179  0.1902  0.0543
  420TMC3    C1 6262   4.339   0.942  12.951 -0.7488  0.3049 -0.0732
  420TMC3    C2 6263   4.232   1.008  12.892 -0.2451 -0.0027  0.3640
  420TMC3    C3 6264   4.150   1.092  12.962  0.2583 -0.1300 -0.4579
  420TMC3    C4 6265   4.368   0.972  13.081 -0.3738 -0.2015 -0.0823
  420TMC3    C5 6266   4.288   1.065  13.147 -1.2350  0.2345 -0.2125
  420TMC3    C6 6267   4.182   1.129  13.085 -0.1437 -0.1075  0.0302
  420TMC3     C 6268   4.415   0.844  12.882 -0.6949 -0.7031  0.4002
  420TMC3     O 6269   4.490   0.764  12.937 -0.1927 -0.6103  0.4777
  420TMC3     H 6270   4.209   0.979  12.790  0.1221  2.7683 -0.4969
  420TMC3    H1 6271   4.448   0.922  13.134  0.3822  0.6094 -0.4620
  420TMC3    H2 6272   4.116   1.198  13.137  0.2818 -2.1570  3.2972
  420TMC3    C7 6273   4.318   1.082  13.286 -0.3164 -0.4666 -0.4314
  420TMC3    C8 6274   4.039   1.158  12.897  0.0109  0.5672  0.3199
  420TMC3    O1 6275   4.412   1.017  13.333 -0.0224 -0.6962  0.1374
  420TMC3    O2 6276   3.999   1.267  12.936  0.0760 -0.3891 -0.1798
  421TMC3    C1 6277   1.343   2.803  13.954 -0.3567  0.0526  0.0698
  421TMC3    C2 6278   1.402   2.897  14.033 -0.0871 -0.3968 -0.1233
  421TMC3    C3 6279   1.487   2.853  14.137 -0.8598 -0.3752 -0.2034
  421TMC3    C4 6280   1.358   2.669  13.985  0.0402  0.3188  0.5573
  421TMC3    C5 6281   1.430   2.636  14.104 -0.6822 -0.6385 -0.7005
  421TMC3    C6 6282   1.498   2.725  14.174 -0.3351 -0.4651  0.4514
  421TMC3     C 6283   1.235   2.846  13.867 -0.0220  0.7348 -0.2850
  421TMC3     O 6284   1.206   2.963  13.866 -0.0285 -0.1517  0.3761
  421TMC3     H 6285   1.396   3.002  14.005  2.0488 -0.6649 -1.6452
  421TMC3    H1 6286   1.320   2.590  13.921 -2.4688  1.8201  0.1962
  421TMC3    H2 6287   1.566   2.695  14.252  1.1621 -0.1221 -0.7148
  421TMC3    C7 6288   1.454   2.503  14.136 -0.4705 -0.6805  1.0967
  421TMC3    C8 6289   1.575   2.944  14.209 -0.2584  0.7316 -0.0919
  421TMC3    O1 6290   1.475   2.423  14.049  0.0665 -0.8174  0.0384
  421TMC3    O2 6291   1.613   2.912  14.324  0.1817 -0.1356 -0.0439
  422TMC3    C1 6292   3.967   3.581  12.425 -0.3736  0.3555  0.3633
  422TMC3    C2 6293   3.976   3.714  12.432 -0.1117  0.6978 -0.1058
  422TMC3    C3 6294   3.874   3.772  12.491 -0.5849 -0.1251  0.4875
  422TMC3    C4 6295   3.869   3.508  12.481 -0.3980  0.5523  0.4731
  422TMC3    C5 6296   3.775   3.572  12.545 -0.3307 -0.0630  0.0204
  422TMC3    C6 6297   3.772   3.706  12.557  0.0678 -0.9054 -0.2020
  422TMC3     C 6298   4.068   3.515  12.341  0.0898  0.0435  0.2146
  422TMC3     O 6299   4.135   3.591  12.275 -0.5568 -0.3242  0.5379
  422TMC3     H 6300   4.058   3.766  12.385 -1.1897  1.0534 -1.5790
  422TMC3    H1 6301   3.849   3.407  12.447 -2.8523  0.6296  1.7183
  422TMC3    H2 6302   3.699   3.754  12.622 -0.5112  0.9010 -2.1554
  422TMC3    C7 6303   3.669   3.490  12.603 -0.1380 -0.2001  0.1353
  422TMC3    C8 6304   3.862   3.916  12.490 -0.3695  0.4046 -0.7937
  422TMC3    O1 6305   3.679   3.367  12.613 -0.4733  0.2876  0.1980
  422TMC3    O2 6306   3.964   3.981  12.491  0.0610  0.3399  0.6258
  423MPD2     C 6307   0.536   0.322   0.531 -0.0996 -0.2860  0.0133
  423MPD2    C1 6308   0.416   0.253   0.536 -0.3962  0.5850 -0.4930
  423MPD2    C2 6309   0.377   0.178   0.423 -1.0806  0.0793 -0.7613
  423MPD2    C3 6310   0.461   0.171   0.310  0.5510  0.5636  0.2479
  423MPD2    C4 6311   0.581   0.235   0.314 -0.3323  0.2008 -0.0941
  423MPD2    C5 6312   0.619   0.307   0.423  0.1056 -0.3271  0.0221
  423MPD2     H 6313   0.282   0.127   0.411 -0.0678 -1.5401 -1.7889
  423MPD2    H1 6314   0.647   0.236   0.228 -0.7144  0.2328 -0.3869
  423MPD2    H2 6315   0.566   0.390   0.610  0.5745 -0.7514  0.1653
  423MPD2    H3 6316   0.715   0.357   0.422  0.3290 -0.7573 -0.4950
  423MPD2     N 6317   0.441   0.082   0.201  1.0162 -0.4695  0.3899
  423MPD2    H5 6318   0.512   0.075   0.129 -0.1698  1.3853 -0.9576
  423MPD2    N1 6319   0.323   0.266   0.642  0.9047 -0.2203 -0.0151
  423MPD2    H7 6320   0.232   0.223   0.624 -0.1598  2.3892 -0.9366
  424TMC3    C1 6321   0.229   0.321   0.859 -1.1074 -0.7099 -0.2591
  424TMC3    C2 6322   0.259   0.320   0.993 -0.5612 -0.0437 -0.4778
  424TMC3    C3 6323   0.153   0.325   1.086  0.2173  0.2265 -0.7542
  424TMC3    C4 6324   0.101   0.333   0.818 -0.3749  0.7655  0.2803
  424TMC3    C5 6325   0.000   0.339   0.913 -0.5678  0.1045  0.1816
  424TMC3    C6 6326   0.019   0.325   1.051 -0.4832 -0.5546  0.1716
  424TMC3     C 6327   0.347   0.325   0.762 -0.2556 -0.8169  0.0841
  424TMC3     O 6328   0.453   0.366   0.810 -0.3424  0.0905 -0.0213
  424TMC3     H 6329   0.361   0.297   1.021 -0.0475 -0.6469 -2.8597
  424TMC3    H1 6330   0.077   0.340   0.712  0.1295  3.4139  0.3430
  424TMC3    H2 6331   4.661   0.327   1.123 -0.4747  1.1498  0.1232
  424TMC3    C7 6332   4.595   0.359   0.865 -0.2910 -0.3808 -0.2771
  424TMC3    C8 6333   0.181   0.272   1.211  0.1859  0.4234 -0.6342
  424TMC3    O1 6334   4.580   0.420   0.761 -0.7020  0.2461  0.1405
  424TMC3    O2 6335   0.096   0.190   1.241  0.6171  0.1349  0.0079
  425MPD2     C 6336   3.845   4.353  17.146 -0.5917  0.7465  0.7004
  425MPD2    C1 6337   3.792   4.257  17.057 -0.2381 -0.1556  0.8749
  425MPD2    C2 6338   3.660   4.256  17.027  0.9113  0.2541 -0.0242
  425MPD2    C3 6339   3.574   4.351  17.083  0.3951  0.2446  1.1238
  425MPD2    C4 6340   3.626   4.443  17.176  0.0952  1.0666 -1.0541
  425MPD2    C5 6341   3.757   4.446  17.196 -0.5648  0.4596 -0.3821
  425MPD2     H 6342   3.626   4.183  16.955 -1.3966  1.7689 -0.4494
  425MPD2    H1 6343   3.567   4.518  17.228  0.4504  0.4278  0.2836
  425MPD2    H2 6344   3.950   4.352  17.172 -0.6495 -1.0803  0.8279
  425MPD2    H3 6345   3.786   4.528  17.261 -1.0490  2.5971 -2.8787
  425MPD2     N 6346   3.436   4.350  17.058 -0.4205  0.4066  0.1615
  425MPD2    H5 6347   3.386   4.430  17.096 -0.0236  0.6490  0.1660
  425MPD2    N1 6348   3.883   4.169  17.001  0.1300 -0.4363  0.1150
  425MPD2    H7 6349   3.977   4.165  17.039 -0.8563 -1.2043  2.4713
  426TMC3    C1 6350   3.955   4.010  16.837 -0.0504  0.5833 -0.3887
  426TMC3    C2 6351   3.982   3.998  16.701 -0.0625  0.1746 -0.8995
  426TMC3    C3 6352   4.072   3.902  16.662 -0.6404  0.1293  0.0653
  426TMC3    C4 6353   4.013   3.935  16.934 -0.2486  0.3088 -0.3497
  426TMC3    C5 6354   4.098   3.837  16.891  0.1139  0.7620 -0.0801
  426TMC3    C6 6355   4.137   3.822  16.758 -0.3430  0.1568 -0.5037
  426TMC3     C 6356   3.857   4.106  16.880  0.4138  1.0787  0.2956
  426TMC3     O 6357   3.782   4.147  16.792 -0.1450 -0.1495 -0.2098
  426TMC3     H 6358   3.938   4.063  16.626  0.6879  1.1813 -0.4620
  426TMC3    H1 6359   3.982   3.931  17.037  2.1578 -2.7629  0.2589
  426TMC3    H2 6360   4.211   3.753  16.720  0.4209 -0.1902  1.6471
  426TMC3    C7 6361   4.110   3.708  16.954  0.4974 -0.3633  0.1539
  426TMC3    C8 6362   4.037   3.818  16.555 -0.1448 -0.3241 -0.2300
  426TMC3    O1 6363   4.136   3.612  16.878 -0.6180 -0.2915  0.0390
  426TMC3    O2 6364   4.112   3.728  16.517 -0.0986  0.2475  0.5698
  427MPD2     C 6365   2.606   0.827  15.023  0.9852  0.0223 -0.0933
  427MPD2    C1 6366   2.622   0.948  15.091 -0.0077 -0.2046 -0.2492
  427MPD2    C2 6367   2.527   1.043  15.081 -0.2689 -0.2887  0.1347
  427MPD2    C3 6368   2.411   1.033  15.004 -0.2254  0.3837 -0.6919
  427MPD2    C4 6369   2.409   0.926  14.919  0.1062 -0.4078 -0.4709
  427MPD2    C5 6370   2.507   0.833  14.924 -0.0957 -0.6683 -0.1736
  427MPD2     H 6371   2.532   1.114  15.163  1.9721  1.1784 -1.2725
  427MPD2    H1 6372   2.332   0.913  14.845  1.1089  0.9754 -1.7462
  427MPD2    H2 6373   2.670   0.744  15.049  0.6084  0.2268  1.4860
  427MPD2    H3 6374   2.499   0.748  14.856 -2.0580 -0.8250  0.2670
  427MPD2     N 6375   2.301   1.120  15.022  0.1908 -0.2102 -0.6739
  427MPD2    H5 6376   2.225   1.107  14.955  0.2099  1.4755 -1.0227
  427MPD2    N1 6377   2.726   0.957  15.184  0.5693  0.5294  0.3885
  427MPD2    H7 6378   2.785   0.877  15.204  2.6219  2.3102  1.5087
  428TMC3    C1 6379   2.879   1.056  15.339  0.3719  0.8726 -0.5614
  428TMC3    C2 6380   2.877   0.930  15.405 -0.3720 -0.3564  1.1097
  428TMC3    C3 6381   2.984   0.904  15.488 -0.6083 -0.5485 -0.1459
  428TMC3    C4 6382   2.979   1.146  15.345 -0.2149 -0.1956  0.0870
  428TMC3    C5 6383   3.075   1.117  15.441 -0.5645 -0.6630 -0.4227
  428TMC3    C6 6384   3.073   1.001  15.513 -0.0412 -0.5699 -1.1065
  428TMC3     C 6385   2.783   1.074  15.234 -0.2062  0.2432  0.1669
  428TMC3     O 6386   2.756   1.193  15.210 -0.2727 -0.3478 -0.0517
  428TMC3     H 6387   2.796   0.859  15.404 -1.5821  1.0816 -3.0613
  428TMC3    H1 6388   2.966   1.240  15.293 -0.0386 -0.0529  0.3015
  428TMC3    H2 6389   3.149   0.982  15.588 -0.8456  2.4067  0.4872
  428TMC3    C7 6390   3.176   1.211  15.473  0.5289 -0.3273  0.6050
  428TMC3    C8 6391   3.003   0.763  15.521  0.4599  0.5289  0.0433
  428TMC3    O1 6392   3.221   1.205  15.585  0.2738 -0.4894 -0.0111
  428TMC3    O2 6393   3.010   0.692  15.423 -0.4154  0.4036  1.0592
  429MPD2     C 6394   3.716   1.679  17.662 -0.0753  1.2459 -0.6342
  429MPD2    C1 6395   3.819   1.637  17.590 -0.1983  0.0452  0.2268
  429MPD2    C2 6396   3.895   1.732  17.519 -0.1381 -0.0674  0.5751
  429MPD2    C3 6397   3.863   1.863  17.520 -0.0769  0.2908  0.0997
  429MPD2    C4 6398   3.755   1.907  17.588 -0.2096 -0.1267  0.0983
  429MPD2    C5 6399   3.683   1.812  17.657  0.3245 -0.2225  0.1403
  429MPD2     H 6400   3.984   1.706  17.462 -1.8214  0.1800 -2.1792
  429MPD2    H1 6401   3.711   2.006  17.585 -1.7882 -0.7777  1.7871
  429MPD2    H2 6402   3.658   1.621   0.038 -1.1395  2.4854 -0.4904
  429MPD2    H3 6403   3.591   1.848   0.008 -0.3905 -1.8877  0.0214
  429MPD2     N 6404   3.937   1.955  17.438 -0.7261  0.0894 -0.6347
  429MPD2    H5 6405   3.991   1.913  17.363 -1.1265 -2.6729  0.5906
  429MPD2    N1 6406   3.870   1.500  17.596 -0.1322 -0.1225 -0.3468
  429MPD2    H7 6407   3.942   1.474  17.529 -1.3432  0.6333 -1.9353
  430TMC3    C1 6408   4.034   2.165  17.376 -1.2682 -0.1798 -0.3028
  430TMC3    C2 6409   3.990   2.280  17.321  0.4202  0.0217 -0.7278
  430TMC3    C3 6410   4.060   2.323  17.212  0.2889  0.2237  0.9925
  430TMC3    C4 6411   4.135   2.087  17.323  0.5420  0.2562 -0.5842
  430TMC3    C5 6412   4.202   2.139  17.214 -0.9649 -0.0725  0.4619
  430TMC3    C6 6413   4.167   2.260  17.162 -0.5907 -0.5697 -0.3151
  430TMC3     C 6414   3.932   2.094  17.453  0.2081 -0.3548  0.1688
  430TMC3     O 6415   3.861   2.164  17.526 -0.0600 -0.0767  0.1656
  430TMC3     H 6416   3.898   2.321  17.361  0.7931  1.0547 -0.9344
  430TMC3    H1 6417   4.165   1.992  17.364  1.4025  1.1601  0.8683
  430TMC3    H2 6418   4.214   2.286  17.068 -0.8934 -0.2777 -0.3851
  430TMC3    C7 6419   4.298   2.054  17.146 -0.2004 -0.0501 -0.2747
  430TMC3    C8 6420   3.986   2.388  17.109 -0.3499 -0.0536  0.2011
  430TMC3    O1 6421   4.268   1.933  17.131  0.8294 -0.2972  0.7585
  430TMC3    O2 6422   4.029   2.368  16.997  0.1219 -0.1727 -0.3973
  431MPD2     C 6423   0.037   1.505  12.523  0.8946 -0.9939  0.2460
  431MPD2    C1 6424   0.102   1.529  12.405  0.3611  0.9117  0.5777
  431MPD2    C2 6425   0.078   1.443  12.294  0.3255  1.2600 -0.3225
  431MPD2    C3 6426   0.011   1.325  12.319  0.5472 -0.6436 -0.3727
  431MPD2    C4 6427   4.665   1.309  12.434 -0.1246 -0.5135 -0.7159
  431MPD2    C5 6428   4.680   1.391  12.539  0.3845  0.1672 -0.2110
  431MPD2     H 6429   0.119   1.453  12.194 -0.4731  0.8437 -0.6941
  431MPD2    H1 6430   4.607   1.220  12.453 -1.1610  0.3530  0.1133
  431MPD2    H2 6431   0.042   1.578  12.603 -1.3489 -1.5521  0.8998
  431MPD2    H3 6432   4.628   1.368  12.631 -3.2876 -2.3345 -2.9145
  431MPD2     N 6433   4.723   1.221  12.225  0.1844 -0.0381 -0.1449
  431MPD2    H5 6434   4.642   1.160  12.235 -1.4338  2.3751  1.2475
  431MPD2    N1 6435   0.199   1.635  12.386  0.0489 -0.2520 -0.0500
  431MPD2    H7 6436   0.239   1.650  12.294 -1.4598  0.7562 -0.5407
  432TMC3    C1 6437   0.029   1.069  12.059  0.5191  0.1296 -0.4597
  432TMC3    C2 6438   0.066   1.029  11.935 -0.3944  0.4226  0.7091
  432TMC3    C3 6439   0.018   0.906  11.894  0.3973  0.4370  0.6332
  432TMC3    C4 6440   4.689   0.980  12.149 -0.7901  1.0284  0.3508
  432TMC3    C5 6441   4.649   0.861  12.104  0.0340  0.0663  0.0227
  432TMC3    C6 6442   4.670   0.823  11.980 -0.3936 -0.1408  0.9636
  432TMC3     C 6443   0.061   1.206  12.101 -1.2978  0.0219 -0.1612
  432TMC3     O 6444   0.119   1.288  12.033  0.5574  0.9392 -0.8814
  432TMC3     H 6445   0.102   1.099  11.861  0.3261 -1.8286 -1.0667
  432TMC3    H1 6446   4.690   0.992  12.256 -3.3065  2.4022  0.2066
  432TMC3    H2 6447   4.643   0.724  11.944 -0.6373 -0.1576  1.2021
  432TMC3    C7 6448   4.588   0.757  12.189  0.3597  0.0837 -0.2964
  432TMC3    C8 6449   0.039   0.862  11.758  0.1062 -0.7108 -0.0079
  432TMC3    O1 6450   4.589   0.636  12.158 -0.7691 -0.2499  0.5382
  432TMC3    O2 6451   4.680   0.776  11.722  0.5453  0.5755  0.2726
  433MPD2     C 6452   4.065   0.051  10.674 -0.5119 -0.2587  0.3163
  433MPD2    C1 6453   3.978   4.697  10.741  0.6237 -0.5862 -0.4862
  433MPD2    C2 6454   3.941   4.719  10.874  0.3231  0.9928 -0.3093
  433MPD2    C3 6455   3.995   0.106  10.931  0.7216 -0.0961 -0.1096
  433MPD2    C4 6456   4.076   0.186  10.859 -0.0081  0.7029  0.0163
  433MPD2    C5 6457   4.111   0.165  10.728 -0.5282 -0.1001  0.0314
  433MPD2     H 6458   3.877   4.649  10.928  1.4043 -1.5676 -2.3652
  433MPD2    H1 6459   4.130   0.267  10.906  1.6923  0.8299 -2.1587
  433MPD2    H2 6460   4.092   0.024  10.573 -3.7217  0.3801 -0.7003
  433MPD2    H3 6461   4.171   0.231  10.667  1.2310 -2.3118 -0.6754
  433MPD2     N 6462   3.975   0.121  11.070 -0.1743  0.0377 -0.7609
  433MPD2    H5 6463   3.927   0.044  11.115  0.8017 -0.7345 -1.0620
  433MPD2    N1 6464   3.934   4.570  10.682 -0.5479  0.3265  0.2867
  433MPD2    H7 6465   3.993   4.532  10.609 -1.1219 -1.4962  0.7596
  434TMC3    C1 6466   3.837   4.354  10.686 -0.0924 -0.4893 -0.6497
  434TMC3    C2 6467   3.865   4.269  10.791 -0.6173  0.0013 -0.3819
  434TMC3    C3 6468   3.931   4.155  10.751 -0.6234  0.2177 -0.8386
  434TMC3    C4 6469   3.873   4.334  10.557 -0.0175  0.0824  0.0564
  434TMC3    C5 6470   3.940   4.217  10.532  0.2785  0.4586 -0.4583
  434TMC3    C6 6471   3.968   4.125  10.626 -0.8855 -0.5930 -0.6784
  434TMC3     C 6472   3.825   4.488  10.728 -0.2493 -0.1421  0.5854
  434TMC3     O 6473   3.743   4.513  10.814  0.4901  0.1385 -0.2061
  434TMC3     H 6474   3.831   4.299  10.889 -2.2508 -0.9216 -0.6691
  434TMC3    H1 6475   3.834   4.402  10.483 -0.8146 -1.2383 -0.7375
  434TMC3    H2 6476   4.045   4.053  10.600  0.8557  1.1821 -0.4202
  434TMC3    C7 6477   3.942   4.177  10.398 -0.1876  0.4013 -0.4444
  434TMC3    C8 6478   4.005   4.086  10.856  0.5459 -0.0832  0.2811
  434TMC3    O1 6479   3.928   4.260  10.314  0.4969  0.3347 -0.3351
  434TMC3    O2 6480   4.046   4.160  10.943 -0.2795 -0.3008  0.7077
  435MPD2     C 6481   0.329   4.510  15.459 -0.6640 -0.2827 -0.7619
  435MPD2    C1 6482   0.358   4.616  15.547 -0.2151 -0.5491  0.5990
  435MPD2    C2 6483   0.481   4.624  15.608  0.0681  0.3249 -0.0880
  435MPD2    C3 6484   0.580   4.529  15.575  0.2536  0.3124 -0.4714
  435MPD2    C4 6485   0.552   4.426  15.482 -0.2266 -0.1882  1.1659
  435MPD2    C5 6486   0.429   4.423  15.429  0.2168 -0.2484 -0.1456
  435MPD2     H 6487   0.494   4.692  15.692  3.7173  1.3332 -1.4598
  435MPD2    H1 6488   0.629   4.354  15.455  1.0857  1.7462 -0.2241
  435MPD2    H2 6489   0.232   4.498  15.413 -0.9167 -0.2899 -0.2271
  435MPD2    H3 6490   0.410   4.337  15.365 -1.9293 -0.8649  1.3150
  435MPD2     N 6491   0.704   4.536  15.641 -0.3851 -0.2981  0.2742
  435MPD2    H5 6492   0.718   4.604  15.715 -1.1755 -0.1459  0.2765
  435MPD2    N1 6493   0.266   0.002  15.560 -0.5313 -0.0815 -0.2685
  435MPD2    H7 6494   0.295   0.079  15.619  1.0149  0.0528 -1.2197
  436TMC3    C1 6495   0.083   0.333  15.655  0.6072 -0.9272 -0.2320
  436TMC3    C2 6496   0.144   0.234  15.580  0.7325  0.4377 -0.5611
  436TMC3    C3 6497   0.070   0.122  15.561  0.3580  0.2384  0.2560
  436TMC3    C4 6498   4.674   0.339  15.678 -0.2066  0.5983  0.3665
  436TMC3    C5 6499   4.599   0.228  15.636 -0.3059  0.2266  0.6098
  436TMC3    C6 6500   4.660   0.114  15.587 -0.3226 -0.1527  1.2201
  436TMC3     C 6501   0.171   0.376  15.764  0.8729 -0.9266 -0.4773
  436TMC3     O 6502   0.281   0.331  15.747  0.4124 -0.3855  0.3510
  436TMC3     H 6503   0.248   0.236  15.549  1.4658  2.8815  2.0188
  436TMC3    H1 6504   4.626   0.431  15.708 -1.2217  0.5503 -1.1311
  436TMC3    H2 6505   4.611   0.019  15.568  0.9147 -0.1924 -1.7184
  436TMC3    C7 6506   4.458   0.223  15.685  0.0931  0.1668  0.3060
  436TMC3    C8 6507   0.131   0.000  15.527  0.4360 -0.1124  0.3740
  436TMC3    O1 6508   4.409   0.330  15.715  0.1916 -0.5247  0.2982
  436TMC3    O2 6509   0.061   4.629  15.489  0.3608  0.4909 -0.1266
  437TMC3    C1 6510   4.496   1.598  12.006  0.5078  0.3670 -0.4995
  437TMC3    C2 6511   4.436   1.576  12.132  0.6586 -0.2399  0.5763
  437TMC3    C3 6512   4.478   1.664  12.236  0.3806  0.5293 -0.4412
  437TMC3    C4 6513   4.582   1.702  11.984  0.2377  0.5140 -0.4480
  437TMC3    C5 6514   4.604   1.789  12.081  0.5601  0.3779 -0.2086
  437TMC3    C6 6515   4.561   1.773  12.214 -0.0898  0.2444 -0.3360
  437TMC3     C 6516   4.509   1.479  11.920 -0.6610  0.4227 -0.1067
  437TMC3     O 6517   4.603   1.484  11.849  0.3752  0.1013 -0.1277
  437TMC3     H 6518   4.372   1.491  12.154 -1.2038  0.8528 -0.6190
  437TMC3    H1 6519   4.619   1.709  11.882  1.9058  0.3055  0.1510
  437TMC3    H2 6520   4.580   1.840  12.297 -1.5537 -1.1586  1.1405
  437TMC3    C7 6521   4.691   1.900  12.046 -0.0118  0.2777 -0.3306
  437TMC3    C8 6522   4.425   1.633  12.363  0.0408  0.2233  0.6627
  437TMC3    O1 6523   4.688   1.929  11.930 -0.0599  0.2937  0.3968
  437TMC3    O2 6524   4.332   1.555  12.372 -0.1706  0.0708  0.8633
  438MPD2     C 6525   1.237   2.858  16.756  0.0562  0.3647  0.0700
  438MPD2    C1 6526   1.322   2.767  16.814  0.2558 -0.3525  0.4346
  438MPD2    C2 6527   1.314   2.742  16.948 -0.0309 -0.3022 -0.4392
  438MPD2    C3 6528   1.226   2.808  17.028  0.3032  0.3353 -0.4333
  438MPD2    C4 6529   1.147   2.907  16.975 -0.8604  1.1308  0.3038
  438MPD2    C5 6530   1.157   2.926  16.837 -0.1521 -0.3036 -0.1726
  438MPD2     H 6531   1.383   2.668  16.986 -2.1359 -4.2670 -4.3747
  438MPD2    H1 6532   1.066   2.957  17.027  0.2081  1.1528  1.9678
  438MPD2    H2 6533   1.231   2.886  16.651  0.5356  0.1018 -0.0266
  438MPD2    H3 6534   1.096   3.003  16.792  0.9272  1.1684  0.8734
  438MPD2     N 6535   1.189   2.761  17.158 -0.2986  1.0179 -0.6272
  438MPD2    H5 6536   1.124   2.816  17.213 -1.9096  1.1090 -2.5894
  438MPD2    N1 6537   1.421   2.697  16.736 -0.1370  0.1639 -0.0247
  438MPD2    H7 6538   1.492   2.645  16.786 -0.5462 -0.6118 -0.2475
  439TMC3    C1 6539   1.558   2.646  16.555  0.2233  0.9429  0.4236
  439TMC3    C2 6540   1.551   2.540  16.465 -0.2253 -0.4734  0.2272
  439TMC3    C3 6541   1.669   2.466  16.466  0.1183 -0.1773  0.0121
  439TMC3    C4 6542   1.661   2.688  16.628  0.5680 -0.0075 -0.5941
  439TMC3    C5 6543   1.782   2.624  16.603 -1.1425 -0.2167  0.0057
  439TMC3    C6 6544   1.775   2.505  16.533 -0.1748  0.2333  0.2215
  439TMC3     C 6545   1.428   2.697  16.597  0.0831  0.4233  0.0150
  439TMC3     O 6546   1.344   2.733  16.515 -0.3957 -0.2667  0.3996
  439TMC3     H 6547   1.452   2.511  16.430 -0.2003  0.7931 -0.9118
  439TMC3    H1 6548   1.654   2.761  16.708 -2.2342 -1.5093  0.5466
  439TMC3    H2 6549   1.861   2.439  16.522  0.5988  1.2867 -0.1065
  439TMC3    C7 6550   1.899   2.651  16.680 -0.4309 -0.4021  0.1554
  439TMC3    C8 6551   1.698   2.375  16.362  0.5096  0.7827  0.2321
  439TMC3    O1 6552   1.989   2.575  16.654  0.1213 -0.3171 -0.1846
  439TMC3    O2 6553   1.809   2.388  16.319 -0.1251 -0.0677  0.6378
  440MPD2     C 6554   0.341   2.853  14.916 -0.1138  0.2493 -0.2329
  440MPD2    C1 6555   0.386   2.955  14.994 -0.8443 -0.4863 -0.5617
  440MPD2    C2 6556   0.522   2.972  15.007 -0.2065 -0.5078 -0.5534
  440MPD2    C3 6557   0.611   2.885  14.947  0.5748  0.0082 -0.0097
  440MPD2    C4 6558   0.566   2.784  14.865 -0.1106 -0.0591 -0.1264
  440MPD2    C5 6559   0.426   2.766  14.859  0.1857  0.4683  0.1871
  440MPD2     H 6560   0.552   3.055  15.071  1.3623 -0.3718 -1.4618
  440MPD2    H1 6561   0.633   2.713  14.818 -0.1866  1.0590 -1.9137
  440MPD2    H2 6562   0.235   2.844  14.895  0.0773 -0.8387 -0.7573
  440MPD2    H3 6563   0.381   2.691  14.796 -0.0118  0.5278  0.2579
  440MPD2     N 6564   0.752   2.900  14.954  0.0250  0.1216 -0.4445
  440MPD2    H5 6565   0.811   2.839  14.898 -2.0649 -2.8919  0.5901
  440MPD2    N1 6566   0.299   3.054  15.056  0.8270  0.7097  0.1163
  440MPD2    H7 6567   0.343   3.121  15.118  0.8178  0.6753  0.1600
  441TMC3    C1 6568   0.956   2.993  15.001  0.3145 -0.2406 -0.6322
  441TMC3    C2 6569   1.009   3.121  15.005 -0.5174  0.1997  0.2821
  441TMC3    C3 6570   1.104   3.152  15.104 -0.3757 -0.3186  0.3482
  441TMC3    C4 6571   1.001   2.893  15.089  0.3283 -0.4614  0.4206
  441TMC3    C5 6572   1.097   2.925  15.180 -0.1422 -0.3104  0.2662
  441TMC3    C6 6573   1.156   3.048  15.177  0.1788 -0.7120 -0.1831
  441TMC3     C 6574   0.814   3.002  15.015  0.2002 -0.2063  0.3977
  441TMC3     O 6575   0.776   3.109  15.056 -0.2260  0.0855  0.5459
  441TMC3     H 6576   0.959   3.202  14.952  1.6800  0.9052 -0.7140
  441TMC3    H1 6577   0.933   2.813  15.116  1.3718 -1.7781 -0.8650
  441TMC3    H2 6578   1.218   3.078  15.261 -0.3018 -0.6068  0.1335
  441TMC3    C7 6579   1.052   2.899  15.312 -0.7705 -0.2882 -0.1184
  441TMC3    C8 6580   1.073   3.267  15.186 -0.9198 -0.5122 -0.1443
  441TMC3    O1 6581   0.937   2.926  15.341 -0.5100  0.3847 -0.1910
  441TMC3    O2 6582   1.164   3.322  15.248  0.0183 -0.2866  0.0207
  442MPD2     C 6583   3.192   3.914  16.402 -0.5138  0.4715  0.1186
  442MPD2    C1 6584   3.102   3.816  16.439  0.5619 -0.5798 -0.7343
  442MPD2    C2 6585   3.124   3.690  16.387  0.6073 -0.2581  0.1854
  442MPD2    C3 6586   3.226   3.662  16.301  0.0319 -0.1859 -0.1999
  442MPD2    C4 6587   3.309   3.762  16.264  0.5815  0.0950  0.4035
  442MPD2    C5 6588   3.291   3.889  16.308  0.4566  0.4269  0.0989
  442MPD2     H 6589   3.063   3.608  16.424  0.6916 -1.4577 -2.3544
  442MPD2    H1 6590   3.401   3.751  16.208 -0.3275  0.3439 -1.1548
  442MPD2    H2 6591   3.181   4.015  16.438  0.2326  0.9855 -1.0776
  442MPD2    H3 6592   3.355   3.969  16.274 -0.8138  1.0607 -0.7975
  442MPD2     N 6593   3.254   3.542  16.239 -0.4779  0.3285 -0.8626
  442MPD2    H5 6594   3.330   3.552  16.172 -0.1197 -0.4061 -0.5648
  442MPD2    N1 6595   2.986   3.841  16.516  0.1142 -0.2938  0.2813
  442MPD2    H7 6596   2.913   3.772  16.504  0.6083 -1.0602  1.6916
  443TMC3    C1 6597   2.832   3.980  16.625 -0.4171  0.3615 -0.1521
  443TMC3    C2 6598   2.784   4.099  16.571 -0.3034  0.9459 -0.3804
  443TMC3    C3 6599   2.647   4.118  16.588  0.3780 -0.3335  0.9188
  443TMC3    C4 6600   2.760   3.896  16.701  0.1922  0.4875 -0.3282
  443TMC3    C5 6601   2.624   3.929  16.726  0.3676  0.2550 -0.8226
  443TMC3    C6 6602   2.565   4.039  16.669  0.0490  0.0811 -0.1835
  443TMC3     C 6603   2.968   3.950  16.600  0.2645  0.1978 -0.5013
  443TMC3     O 6604   3.063   4.013  16.647 -0.1225  0.1992  0.2307
  443TMC3     H 6605   2.850   4.164  16.514 -1.3439  2.0626 -0.3200
  443TMC3    H1 6606   2.802   3.804  16.739  2.2815  1.2079 -0.8316
  443TMC3    H2 6607   2.458   4.054  16.671 -0.0234 -0.7054  1.9019
  443TMC3    C7 6608   2.545   3.862  16.824  0.5213 -0.0146  0.3467
  443TMC3    C8 6609   2.595   4.240  16.537 -0.4151 -0.1842 -0.2352
  443TMC3    O1 6610   2.567   3.741  16.846  0.0062 -0.2962  0.5659
  443TMC3    O2 6611   2.510   4.293  16.612 -0.2990 -0.2753 -0.6788
  444MPD2     C 6612   3.736   3.212  17.196  0.4639  0.3036  0.7484
  444MPD2    C1 6613   3.648   3.111  17.140 -0.0713  0.0163 -0.3709
  444MPD2    C2 6614   3.699   3.003  17.067 -0.2182  0.3940 -0.5941
  444MPD2    C3 6615   3.833   3.001  17.047 -0.2947  0.3142  0.0441
  444MPD2    C4 6616   3.918   3.092  17.097  0.3974  0.4327 -0.0061
  444MPD2    C5 6617   3.874   3.199  17.172  0.3267  0.1094  0.3369
  444MPD2     H 6618   3.634   2.924  17.032 -0.7566  0.7038 -0.3010
  444MPD2    H1 6619   4.021   3.093  17.063  1.3187 -0.8742  2.7242
  444MPD2    H2 6620   3.704   3.313  17.218 -0.2634  0.0340  0.9121
  444MPD2    H3 6621   3.947   3.277  17.190  1.1726 -0.5250 -0.3450
  444MPD2     N 6622   3.873   2.890  16.973 -0.7274  0.3724  0.1385
  444MPD2    H5 6623   3.806   2.851  16.907 -0.4691  1.2723 -0.6572
  444MPD2    N1 6624   3.507   3.119  17.159 -0.0741  0.4650  0.0753
  444MPD2    H7 6625   3.458   3.040  17.118 -0.8733 -0.1623  2.2362
  445TMC3    C1 6626   4.018   2.739  16.876  0.0716 -0.9242 -0.4296
  445TMC3    C2 6627   3.933   2.726  16.772  0.4313 -0.2577  0.2314
  445TMC3    C3 6628   3.941   2.627  16.684 -0.0459 -0.0479  0.2957
  445TMC3    C4 6629   4.112   2.642  16.889  1.3594  0.1912  0.3978
  445TMC3    C5 6630   4.130   2.550  16.788 -0.6786  0.3558 -0.2990
  445TMC3    C6 6631   4.037   2.531  16.686  0.5548 -0.2861  0.1430
  445TMC3     C 6632   4.005   2.842  16.974  0.0323 -0.1147 -0.1622
  445TMC3     O 6633   4.101   2.878  17.039 -0.0855 -0.1838 -1.1448
  445TMC3     H 6634   3.856   2.803  16.766  1.4910  0.8640  1.0575
  445TMC3    H1 6635   4.177   2.637  16.976  0.5877 -1.0483  0.8992
  445TMC3    H2 6636   4.067   2.470  16.602  2.2482  0.5402  0.1443
  445TMC3    C7 6637   4.261   2.498  16.777  0.4532  0.6960  0.0320
  445TMC3    C8 6638   3.838   2.630  16.581  0.6347  0.2328 -0.3669
  445TMC3    O1 6639   4.359   2.545  16.831 -0.5363 -0.0025  0.1755
  445TMC3    O2 6640   3.787   2.745  16.567  0.3660 -0.1169 -0.0277
  446MPD2     C 6641   3.873   4.046  11.495 -0.3062 -0.5382  0.5056
  446MPD2    C1 6642   3.850   4.042  11.363  0.6408  0.3204 -0.3545
  446MPD2    C2 6643   3.928   4.102  11.268  0.7350  0.7332 -1.3148
  446MPD2    C3 6644   4.055   4.155  11.300  0.8175 -0.4973  0.4731
  446MPD2    C4 6645   4.084   4.162  11.438 -0.2662 -0.4881  0.4153
  446MPD2    C5 6646   3.991   4.105  11.533  0.4094 -0.1822 -0.4287
  446MPD2     H 6647   3.895   4.104  11.165  2.7484  0.4399 -1.9726
  446MPD2    H1 6648   4.184   4.194  11.467  0.0654 -0.5936 -0.6093
  446MPD2    H2 6649   3.799   4.023  11.571 -0.2133  2.6801  1.5550
  446MPD2    H3 6650   4.025   4.111  11.636  0.7229  1.7137 -0.6466
  446MPD2     N 6651   4.141   4.204  11.200 -0.3887 -0.3724  0.9680
  446MPD2    H5 6652   4.106   4.211  11.105 -2.0758 -0.4039  1.5924
  446MPD2    N1 6653   3.745   3.961  11.308  0.0105 -0.8318 -0.4140
  446MPD2    H7 6654   3.723   3.990  11.213 -0.4836 -0.5024 -0.1987
  447TMC3    C1 6655   4.341   4.305  11.117 -0.3186 -0.3992  0.5304
  447TMC3    C2 6656   4.282   4.330  10.995  0.4760 -0.1384  0.3987
  447TMC3    C3 6657   4.353   4.386  10.895  0.1671 -0.2671  0.4907
  447TMC3    C4 6658   4.481   4.310  11.124 -0.6039 -0.2104  0.1827
  447TMC3    C5 6659   4.556   4.362  11.021 -0.2690  0.6026 -0.0051
  447TMC3    C6 6660   4.490   4.402  10.908 -0.2184  0.7822  0.0577
  447TMC3     C 6661   4.274   4.236  11.224  0.1358  0.1668 -1.2151
  447TMC3     O 6662   4.348   4.208  11.320  0.0168 -0.3236 -0.2111
  447TMC3     H 6663   4.174   4.323  10.981  0.3772 -0.6070  1.4154
  447TMC3    H1 6664   4.538   4.287  11.213 -1.5731  1.4966  1.2486
  447TMC3    H2 6665   4.553   4.431  10.826 -0.2043 -0.3013 -0.3145
  447TMC3    C7 6666   4.700   4.357  11.009  0.4813 -0.1412 -0.4802
  447TMC3    C8 6667   4.330   4.334  10.762 -0.3350  0.1973 -0.2379
  447TMC3    O1 6668   0.035   4.329  10.909  0.0043 -0.3013 -0.1311
  447TMC3    O2 6669   4.336   4.412  10.673 -0.1410 -0.0484  0.0591
  448TMC3    C1 6670   1.567   4.388  17.088  0.6303 -0.8302  0.3239
  448TMC3    C2 6671   1.510   4.278  17.024 -0.8280 -0.5280  0.0495
  448TMC3    C3 6672   1.530   4.154  17.073 -0.2698 -0.4673 -0.7089
  448TMC3    C4 6673   1.645   4.374  17.196 -0.4674  0.3873 -0.3208
  448TMC3    C5 6674   1.675   4.242  17.234 -1.2806  0.1518  0.0826
  448TMC3    C6 6675   1.621   4.131  17.173  0.6022 -0.4844 -0.2095
  448TMC3     C 6676   1.515   4.524  17.056 -0.3103 -0.3328 -0.0623
  448TMC3     O 6677   1.500   4.604  17.149 -0.2773 -0.6116 -0.8044
  448TMC3     H 6678   1.438   4.289  16.944  2.1085 -1.8885 -2.7406
  448TMC3    H1 6679   1.689   4.458  17.246  1.2188  0.4427 -1.8848
  448TMC3    H2 6680   1.660   4.037  17.210 -0.1192 -1.4774 -1.9483
  448TMC3    C7 6681   1.785   4.223  17.323  0.4172 -0.4548  0.3671
  448TMC3    C8 6682   1.476   4.041  17.008 -0.7764 -0.7052  0.2791
  448TMC3    O1 6683   1.864   4.320  17.330 -0.6450 -0.2987 -0.7299
  448TMC3    O2 6684   1.510   3.939  17.067  0.1406  0.0076 -0.5229
  449MPD2     C 6685   3.548   2.783  14.195  0.7028  0.7332 -0.4133
  449MPD2    C1 6686   3.496   2.822  14.075 -0.6482  0.3295 -0.3449
  449MPD2    C2 6687   3.382   2.756  14.025 -0.0111 -0.8778  0.1212
  449MPD2    C3 6688   3.336   2.643  14.086  0.4561 -0.1878 -0.2647
  449MPD2    C4 6689   3.406   2.588  14.189 -0.5038  0.1653  0.4339
  449MPD2    C5 6690   3.506   2.663  14.250 -0.0027 -0.8939 -0.3027
  449MPD2     H 6691   3.329   2.793  13.938  0.3266 -0.4413  0.0957
  449MPD2    H1 6692   3.374   2.504  14.249  0.6078 -0.8313 -0.3688
  449MPD2    H2 6693   3.622   2.846  14.245  0.0090  0.2228  1.2765
  449MPD2    H3 6694   3.543   2.645  14.350  0.0042 -1.4690 -0.4126
  449MPD2     N 6695   3.205   2.605  14.042  0.4037 -0.1275 -0.2432
  449MPD2    H5 6696   3.166   2.668  13.973  0.6139 -1.4375 -1.5610
  449MPD2    N1 6697   3.536   2.938  14.004  0.4114 -0.2349  0.3785
  449MPD2    H7 6698   3.475   2.974  13.932 -0.8141 -0.2586  1.4106
  450TMC3    C1 6699   3.639   3.128  13.933 -0.0829  0.5608  0.0501
  450TMC3    C2 6700   3.737   3.147  13.840 -0.1954  0.2629  0.2283
  450TMC3    C3 6701   3.698   3.203  13.719 -1.4370 -0.2615  0.0807
  450TMC3    C4 6702   3.509   3.170  13.911  0.0704 -0.3826  0.3089
  450TMC3    C5 6703   3.475   3.209  13.784 -0.3815  0.4858 -0.1094
  450TMC3    C6 6704   3.566   3.218  13.688 -0.2203 -0.2729 -0.4660
  450TMC3     C 6705   3.648   3.015  14.028 -0.6531 -0.0771 -0.1416
  450TMC3     O 6706   3.756   2.990  14.082 -0.7522  0.7738  0.0114
  450TMC3     H 6707   3.833   3.101  13.859 -0.3430  1.0581  2.8644
  450TMC3    H1 6708   3.436   3.169  13.991  1.5637  0.8036  1.6618
  450TMC3    H2 6709   3.535   3.248  13.589  0.3302 -1.1292 -0.8927
  450TMC3    C7 6710   3.356   3.140  13.752 -0.4173  0.1491 -0.1591
  450TMC3    C8 6711   3.779   3.186  13.602 -0.5564 -0.0370 -0.0156
  450TMC3    O1 6712   3.330   3.048  13.831 -0.4974  0.4494 -0.0913
  450TMC3    O2 6713   3.763   3.271  13.512  0.1933 -0.1115  1.0001
  451MPD2     C 6714   3.692   1.149   1.301  1.3233  0.2754  0.2645
  451MPD2    C1 6715   3.790   1.241   1.264 -0.7890  0.1503 -0.5697
  451MPD2    C2 6716   3.918   1.203   1.296 -0.1073 -0.4713 -0.2308
  451MPD2    C3 6717   3.946   1.082   1.359  0.1591 -0.9222 -0.1334
  451MPD2    C4 6718   3.849   0.994   1.399 -0.2826 -0.0910  0.2869
  451MPD2    C5 6719   3.716   1.030   1.371 -0.4167 -0.1319  0.4798
  451MPD2     H 6720   4.005   1.266   1.280  0.6945 -1.6665 -0.5188
  451MPD2    H1 6721   3.876   0.899   1.444 -0.0388 -1.0819 -1.9245
  451MPD2    H2 6722   3.589   1.181   1.295  1.3984  0.2173 -1.3517
  451MPD2    H3 6723   3.631   0.970   1.401 -2.2538  1.3777 -1.6815
  451MPD2     N 6724   4.078   1.028   1.363 -0.0859 -0.2230  0.1283
  451MPD2    H5 6725   4.091   0.941   1.413 -0.2651 -0.9632 -1.1269
  451MPD2    N1 6726   3.746   1.363   1.203  0.0707  0.0579  0.2087
  451MPD2    H7 6727   3.651   1.366   1.167 -0.9232  1.0250  2.9074
  452TMC3    C1 6728   4.297   0.986   1.262 -0.2076  0.3666 -0.1049
  452TMC3    C2 6729   4.331   0.920   1.377 -0.5073 -0.0176 -0.0241
  452TMC3    C3 6730   4.466   0.886   1.395 -0.3590 -0.7569  0.1739
  452TMC3    C4 6731   4.380   1.009   1.159 -1.0488 -0.1784  1.0716
  452TMC3    C5 6732   4.505   0.974   1.187 -0.8075  0.8211  0.8388
  452TMC3    C6 6733   4.552   0.911   1.295  0.4676 -0.8154 -0.2881
  452TMC3     C 6734   4.170   1.062   1.261 -0.0747  1.1430 -0.4297
  452TMC3     O 6735   4.144   1.128   1.162  0.6030 -0.0886  0.1824
  452TMC3     H 6736   4.263   0.912   1.461 -0.9444  0.6717 -0.3118
  452TMC3    H1 6737   4.341   1.066   1.076  0.3220  0.7468  1.0672
  452TMC3    H2 6738   4.658   0.889   1.309 -0.1619 -3.5617  0.2065
  452TMC3    C7 6739   4.597   1.008   1.080  0.3642  0.4416 -0.4874
  452TMC3    C8 6740   4.502   0.822   1.521 -0.2084  0.5840  1.3315
  452TMC3    O1 6741   4.548   1.021   0.971  1.0636  0.2257 -0.0008
  452TMC3    O2 6742   4.416   0.764   1.587  0.4097 -0.7117  0.3424
  453TMC3    C1 6743   1.513   3.265  11.654 -0.1762  0.0439  0.3414
  453TMC3    C2 6744   1.447   3.154  11.696  0.0837  0.1808  0.2906
  453TMC3    C3 6745   1.442   3.042  11.617 -0.3333 -0.0447 -0.8636
  453TMC3    C4 6746   1.578   3.258  11.528 -0.1063  0.4909  0.0528
  453TMC3    C5 6747   1.578   3.138  11.460 -0.1444 -1.4285  0.5359
  453TMC3    C6 6748   1.495   3.035  11.493  0.4335 -0.7015  0.1785
  453TMC3     C 6749   1.584   3.351  11.747 -0.2631  0.4474 -0.2625
  453TMC3     O 6750   1.677   3.423  11.704  0.4478  0.1394  1.0428
  453TMC3     H 6751   1.404   3.149  11.795 -0.3638 -0.4016  0.0684
  453TMC3    H1 6752   1.638   3.342  11.497 -2.4375  2.3635  0.5779
  453TMC3    H2 6753   1.488   2.939  11.443 -0.3085 -1.1177  1.0704
  453TMC3    C7 6754   1.639   3.135  11.331 -0.2854  0.3626 -0.3714
  453TMC3    C8 6755   1.367   2.932  11.664 -0.1608  0.5586  0.4397
  453TMC3    O1 6756   1.600   3.040  11.263  0.0080  0.2863  0.3397
  453TMC3    O2 6757   1.402   2.819  11.632 -0.1125 -0.4139  0.2590
  454MPD2     C 6758   4.443   2.767  16.470 -0.5178 -0.4725 -1.1742
  454MPD2    C1 6759   4.380   2.877  16.415 -0.3701 -0.2340  1.2364
  454MPD2    C2 6760   4.325   2.970  16.500 -0.5103 -0.3138 -0.4143
  454MPD2    C3 6761   4.304   2.938  16.628 -0.1521 -0.5208  0.7778
  454MPD2    C4 6762   4.369   2.840  16.685  0.8250  0.0363  0.0659
  454MPD2    C5 6763   4.437   2.756  16.607 -0.1602  0.5619 -0.1402
  454MPD2     H 6764   4.278   3.061  16.464 -1.3776 -0.4494  0.3607
  454MPD2    H1 6765   4.362   2.820  16.791  1.7920  0.6596  0.2443
  454MPD2    H2 6766   4.491   2.686  16.417  0.5283 -0.0592 -0.8618
  454MPD2    H3 6767   4.497   2.676  16.646 -0.7084 -0.5688 -1.6177
  454MPD2     N 6768   4.212   3.001  16.715  0.3465  0.0003  0.0086
  454MPD2    H5 6769   4.219   2.971  16.811 -0.3047 -0.5630 -0.1211
  454MPD2    N1 6770   4.384   2.900  16.274  0.0477 -0.0839  0.2828
  454MPD2    H7 6771   4.322   2.977  16.247  0.5088  0.8397  1.8338
  455TMC3    C1 6772   4.035   3.086  16.572 -0.1631 -0.1448  0.2405
  455TMC3    C2 6773   3.986   3.203  16.523  0.2759  0.2822 -0.3143
  455TMC3    C3 6774   3.919   3.204  16.406 -0.7043 -0.5179  0.2509
  455TMC3    C4 6775   4.009   2.967  16.512 -0.4263  0.0414  0.3988
  455TMC3    C5 6776   3.939   2.968  16.392 -0.6320 -0.6537  0.7228
  455TMC3    C6 6777   3.906   3.089  16.329 -0.3080 -0.1162 -0.1018
  455TMC3     C 6778   4.113   3.101  16.693 -0.3657 -0.2193  0.1324
  455TMC3     O 6779   4.070   3.173  16.784 -0.4116 -0.3061 -0.1235
  455TMC3     H 6780   4.013   3.293  16.577  0.8366  0.3915 -0.7868
  455TMC3    H1 6781   4.032   2.876  16.566 -1.5048 -0.0279  0.7374
  455TMC3    H2 6782   3.841   3.086  16.243  0.5567 -1.4179 -0.7157
  455TMC3    C7 6783   3.963   2.855  16.305 -0.4947  0.3687 -0.3814
  455TMC3    C8 6784   3.909   3.328  16.340  0.4691 -0.0894 -0.1149
  455TMC3    O1 6785   3.910   2.858  16.192  0.3054  0.4774  0.3710
  455TMC3    O2 6786   4.015   3.377  16.300 -0.3079 -0.5421  0.1806
  456MPD2     C 6787   1.645   2.830  16.212  0.7264 -0.6784 -0.6212
  456MPD2    C1 6788   1.743   2.849  16.309 -0.0322 -0.1296 -0.0717
  456MPD2    C2 6789   1.715   2.941  16.412  0.5490  0.0077 -0.1657
  456MPD2    C3 6790   1.592   2.989  16.437  0.4987 -0.2283  0.2691
  456MPD2    C4 6791   1.495   2.958  16.344 -0.2308 -0.6326  0.2401
  456MPD2    C5 6792   1.519   2.884  16.229  0.3019 -0.6685  0.3294
  456MPD2     H 6793   1.793   2.958  16.486  0.8912  0.4149 -0.6213
  456MPD2    H1 6794   1.393   2.993  16.356 -0.4657 -2.2098  2.7119
  456MPD2    H2 6795   1.656   2.772  16.121  2.2225 -0.3572 -0.6340
  456MPD2    H3 6796   1.437   2.864  16.160  0.8467 -0.0181 -0.5087
  456MPD2     N 6797   1.575   3.063  16.553 -0.1655  0.4020 -0.3055
  456MPD2    H5 6798   1.658   3.077  16.610  0.6447 -0.7281 -1.2006
  456MPD2    N1 6799   1.873   2.789  16.288 -0.4896  0.3496  0.1153
  456MPD2    H7 6800   1.875   2.731  16.205 -1.4845  2.1214 -1.1449
  457TMC3    C1 6801   1.483   3.210  16.716 -1.0436 -0.9276  0.1824
  457TMC3    C2 6802   1.400   3.311  16.745 -0.0715 -1.1933  0.0579
  457TMC3    C3 6803   1.410   3.376  16.864 -0.1592 -0.1031 -0.0687
  457TMC3    C4 6804   1.549   3.147  16.816  0.3157  0.5266  0.2463
  457TMC3    C5 6805   1.566   3.209  16.939 -0.4857  0.6906 -0.3430
  457TMC3    C6 6806   1.501   3.332  16.959 -0.2356 -0.0116 -0.2322
  457TMC3     C 6807   1.457   3.123  16.596  1.1322  0.5024 -0.2897
  457TMC3     O 6808   1.349   3.135  16.540  0.1550 -0.3042  0.2289
  457TMC3     H 6809   1.367   3.365  16.656 -2.0458 -2.9247 -0.2581
  457TMC3    H1 6810   1.600   3.052  16.806 -0.7221 -0.0967  0.8871
  457TMC3    H2 6811   1.514   3.388  17.051 -1.4101 -3.1374  1.8555
  457TMC3    C7 6812   1.690   3.192  17.008 -0.3298  0.0511  0.5926
  457TMC3    C8 6813   1.401   3.518  16.869 -0.1471  0.0307 -0.8979
  457TMC3    O1 6814   1.705   3.080  17.061  0.8071 -0.0274  0.7279
  457TMC3    O2 6815   1.463   3.575  16.962 -0.4052 -0.3491  0.1202
  458MPD2     C 6816   0.231   2.315  12.164  0.2733  0.5947 -0.6954
  458MPD2    C1 6817   0.237   2.237  12.274 -0.1303  0.1197 -0.3375
  458MPD2    C2 6818   0.172   2.111  12.265  1.1109 -0.1414  0.1312
  458MPD2    C3 6819   0.106   2.081  12.151 -0.3640  0.3818 -0.5127
  458MPD2    C4 6820   0.105   2.164  12.040  0.7721  0.2869 -0.3717
  458MPD2    C5 6821   0.166   2.286  12.050  0.4516  0.8771 -0.6126
  458MPD2     H 6822   0.172   2.046  12.352 -2.9349  1.4975  1.3373
  458MPD2    H1 6823   0.061   2.129  11.947 -1.0240 -2.3713  1.4694
  458MPD2    H2 6824   0.279   2.411  12.175  1.6852 -0.4149  1.9241
  458MPD2    H3 6825   0.176   2.351  11.964 -0.7475  1.2562 -0.4690
  458MPD2     N 6826   0.038   1.959  12.151 -0.0758 -0.6996  0.2192
  458MPD2    H5 6827   0.053   1.902  12.234  0.1673 -2.1178 -0.8043
  458MPD2    N1 6828   0.308   2.296  12.388  0.2731  0.1796 -0.2710
  458MPD2    H7 6829   0.345   2.390  12.387  3.7618 -1.1840 -0.0247
  459TMC3    C1 6830   0.407   2.294  12.612 -0.2748  0.7837  0.3174
  459TMC3    C2 6831   0.487   2.399  12.583 -0.1518 -0.6281 -0.1067
  459TMC3    C3 6832   0.573   2.444  12.674  0.3334  0.1265  0.3077
  459TMC3    C4 6833   0.396   2.243  12.738  0.5699 -0.3893 -0.0402
  459TMC3    C5 6834   0.496   2.279  12.825  0.9270  0.1454  0.2834
  459TMC3    C6 6835   0.575   2.390  12.800 -0.6099 -0.2626 -0.4467
  459TMC3     C 6836   0.319   2.233  12.511 -0.1991 -0.9753 -0.1056
  459TMC3     O 6837   0.263   2.128  12.542  0.4820  0.5526 -0.0659
  459TMC3     H 6838   0.502   2.418  12.478  0.5667 -0.4375  0.0297
  459TMC3    H1 6839   0.313   2.175  12.754 -0.3347  0.9112  0.8535
  459TMC3    H2 6840   0.666   2.412  12.855 -0.7566 -1.6603  0.3512
  459TMC3    C7 6841   0.479   2.235  12.957  0.1324  0.4522 -1.1518
  459TMC3    C8 6842   0.685   2.529  12.627 -0.2854  0.0172  0.1701
  459TMC3    O1 6843   0.432   2.124  12.961 -0.3499 -0.0275  0.2108
  459TMC3    O2 6844   0.770   2.559  12.708  0.0332 -0.1111 -0.1058
  460MPD2     C 6845   4.364   3.986  10.677 -0.2314  0.6869 -0.1054
  460MPD2    C1 6846   4.347   4.121  10.647 -0.0645 -0.6567  0.4134
  460MPD2    C2 6847   4.314   4.161  10.515 -0.3880 -0.5680 -0.2505
  460MPD2    C3 6848   4.337   4.075  10.409  0.0568  0.0761 -0.1746
  460MPD2    C4 6849   4.361   3.946  10.435 -0.0745 -0.1959  0.6057
  460MPD2    C5 6850   4.368   3.903  10.565  0.0356 -0.4185 -0.1853
  460MPD2     H 6851   4.290   4.266  10.503 -0.5245 -0.3460  1.8359
  460MPD2    H1 6852   4.357   3.879  10.350  1.1487  0.1307  0.2953
  460MPD2    H2 6853   4.369   3.945  10.777  2.1069  0.3282 -0.3491
  460MPD2    H3 6854   4.380   3.796  10.582 -2.1909 -0.2116  2.7181
  460MPD2     N 6855   4.307   4.133  10.277  0.6647 -0.0555 -0.7820
  460MPD2    H5 6856   4.282   4.231  10.266 -0.7534 -0.4839 -1.3769
  460MPD2    N1 6857   4.343   4.198  10.764  0.5248  0.3541 -0.3008
  460MPD2    H7 6858   4.360   4.148  10.851  1.1412  1.9717  0.5113
  461TMC3    C1 6859   4.285   4.144  10.049 -0.4125 -0.3297  0.3926
  461TMC3    C2 6860   4.331   4.105   9.926  0.3219  0.0375  0.6436
  461TMC3    C3 6861   4.259   4.155   9.821 -0.1816  0.1591 -0.2452
  461TMC3    C4 6862   4.175   4.230  10.065 -0.6937 -0.4416  0.4510
  461TMC3    C5 6863   4.125   4.287   9.956  0.8686 -0.7192  0.6713
  461TMC3    C6 6864   4.155   4.244   9.830 -0.5062 -0.3887  0.6263
  461TMC3     C 6865   4.314   4.063  10.162 -0.5712 -0.6793  0.3364
  461TMC3     O 6866   4.355   3.951  10.135  0.2229  0.8856  0.1009
  461TMC3     H 6867   4.418   4.042   9.911 -1.1774 -1.9398  0.3374
  461TMC3    H1 6868   4.155   4.270  10.163 -1.5838 -1.1692  0.5578
  461TMC3    H2 6869   4.099   4.276   9.743 -0.6177  1.2427  1.2972
  461TMC3    C7 6870   4.052   4.420   9.956  0.8602 -0.0964 -0.5516
  461TMC3    C8 6871   4.327   4.169   9.697 -0.1561 -0.5039 -0.1934
  461TMC3    O1 6872   4.040   4.478   9.849 -0.9997  0.1528  0.0879
  461TMC3    O2 6873   4.302   4.276   9.641  0.4465 -0.4843  0.2277
  462TMC3    C1 6874   4.188   0.150   0.153 -0.0928 -0.1053  0.2962
  462TMC3    C2 6875   4.229   0.067   0.058  0.2765  0.2999  0.6249
  462TMC3    C3 6876   4.143   0.027  17.656  0.1441  0.2259  0.1614
  462TMC3    C4 6877   4.055   0.178   0.169 -0.6874  0.4032  0.2809
  462TMC3    C5 6878   3.975   0.135   0.072  0.4865  0.0609 -0.7477
  462TMC3    C6 6879   4.015   0.060  17.662 -0.0075 -0.6198  0.2000
  462TMC3     C 6880   4.284   0.259   0.164 -0.0817  0.4747 -0.2542
  462TMC3     O 6881   4.368   0.266   0.077  0.1783  0.0418  0.4277
  462TMC3     H 6882   4.327   0.020   0.056 -0.0993 -0.4358 -0.7040
  462TMC3    H1 6883   4.018   0.242   0.248  1.5983 -1.3107  2.7276
  462TMC3    H2 6884   3.947   0.031  17.582 -1.2345  3.1331 -0.0894
  462TMC3    C7 6885   3.831   0.132   0.090  0.1967  0.3255  0.7572
  462TMC3    C8 6886   4.206   0.019  17.528  0.2078 -1.0345 -0.8660
  462TMC3    O1 6887   3.757   0.120  17.685 -0.4540 -0.4479 -0.2862
  462TMC3    O2 6888   4.149   4.679  17.442  0.2316  0.5326  0.0993
  463MPD2     C 6889   4.510   4.618   2.050 -0.0650 -0.4190  0.5489
  463MPD2    C1 6890   4.481   4.626   1.918 -0.2750  0.6658  0.1393
  463MPD2    C2 6891   4.542   4.721   1.837 -0.4688  0.6442 -0.1101
  463MPD2    C3 6892   4.641   0.077   1.891  0.2586  0.2325 -0.5371
  463MPD2    C4 6893   4.687   0.048   2.016 -0.0925 -0.1915 -0.6967
  463MPD2    C5 6894   4.621   4.683   2.097 -0.3375  0.2610  0.3597
  463MPD2     H 6895   4.511   0.008   1.734  0.9468 -0.4893 -0.6533
  463MPD2    H1 6896   0.042   0.113   2.056  1.3499 -2.4302  0.1522
  463MPD2    H2 6897   4.475   4.545   2.122  0.3610  1.6874  2.8978
  463MPD2    H3 6898   4.662   4.680   2.197  1.9197  0.2267 -0.5653
  463MPD2     N 6899   4.706   0.181   1.820 -0.1466  0.2078  0.0978
  463MPD2    H5 6900   0.051   0.230   1.878  1.7348 -2.4291  0.1051
  463MPD2    N1 6901   4.398   4.535   1.848 -0.0836 -0.3042  0.2861
  463MPD2    H7 6902   4.365   4.553   1.754 -0.2655  0.3669  0.4816
  464TMC3    C1 6903   4.272   4.328   1.836  0.8291 -1.3198 -0.6021
  464TMC3    C2 6904   4.191   4.374   1.732 -0.3011  0.1665  0.3731
  464TMC3    C3 6905   4.113   4.279   1.672 -0.2168 -0.1935 -0.5853
  464TMC3    C4 6906   4.271   4.189   1.875  0.7582  0.0109  0.0735
  464TMC3    C5 6907   4.186   4.103   1.813  0.2236  0.0276 -0.3526
  464TMC3    C6 6908   4.102   4.152   1.713  0.0230  0.3042  0.0178
  464TMC3     C 6909   4.357   4.423   1.906 -0.5639 -0.0139  0.6504
  464TMC3     O 6910   4.385   4.370   2.012  0.3740  0.3037  0.2619
  464TMC3     H 6911   4.181   4.476   1.698 -1.0769 -0.3909 -1.0435
  464TMC3    H1 6912   4.331   4.156   1.959 -0.3139  0.9818  1.2146
  464TMC3    H2 6913   4.028   4.089   1.665  1.1764 -1.3399  0.4010
  464TMC3    C7 6914   4.173   3.967   1.869 -0.1313  0.0180  0.3763
  464TMC3    C8 6915   3.992   4.339   1.621 -0.3953 -0.2575  0.1856
  464TMC3    O1 6916   4.201   3.949   1.987  1.0220 -0.1209  0.1323
  464TMC3    O2 6917   4.009   4.430   1.542 -0.0495  0.2260 -0.4048
  465MPD2     C 6918   0.803   2.810  17.056  0.2189  0.1911 -0.0361
  465MPD2    C1 6919   0.683   2.833  17.123 -0.0475 -0.5500  0.3312
  465MPD2    C2 6920   0.579   2.893  17.054 -0.3323 -0.5278  0.5604
  465MPD2    C3 6921   0.589   2.920  16.915  0.8697  0.1324 -0.1519
  465MPD2    C4 6922   0.699   2.879  16.850  0.2728  0.3811 -0.5203
  465MPD2    C5 6923   0.801   2.832  16.926 -0.1643  0.6546 -0.6622
  465MPD2     H 6924   0.490   2.913  17.112 -0.7003 -0.1247 -0.1560
  465MPD2    H1 6925   0.707   2.878  16.741 -1.4601 -0.9315 -0.6351
  465MPD2    H2 6926   0.898   2.783  17.102  0.0007 -0.0720  0.2648
  465MPD2    H3 6927   0.891   2.812  16.870 -0.7764 -1.6938 -0.8037
  465MPD2     N 6928   0.471   2.970  16.854 -0.6942 -0.1513 -0.0053
  465MPD2    H5 6929   0.391   2.973  16.917 -0.0632  0.7147  0.7564
  465MPD2    N1 6930   0.675   2.808  17.257 -0.6609 -0.4578  0.0316
  465MPD2    H7 6931   0.584   2.824  17.299 -0.1489 -0.2263  1.0549
  466TMC3    C1 6932   0.200   3.194  16.797  0.1771 -0.4082 -0.3422
  466TMC3    C2 6933   0.213   3.284  16.695 -1.2386  0.4089 -0.7306
  466TMC3    C3 6934   0.290   3.250  16.588 -0.1883 -0.6566 -0.1995
  466TMC3    C4 6935   0.245   3.063  16.787 -0.2341  0.2573 -0.0160
  466TMC3    C5 6936   0.329   3.045  16.680  0.2794  0.1164  0.2420
  466TMC3    C6 6937   0.351   3.132  16.584 -0.7603  0.0321 -0.2538
  466TMC3     C 6938   0.173   3.232  16.931 -0.2979  0.0785 -0.1869
  466TMC3     O 6939   0.180   3.137  17.009  0.0112 -0.1960  0.3008
  466TMC3     H 6940   0.162   3.379  16.703  0.3688  1.1977  0.3029
  466TMC3    H1 6941   0.231   2.985  16.862  2.2052 -0.5224 -0.3867
  466TMC3    H2 6942   0.417   3.111  16.500  2.3399 -0.2659  2.2927
  466TMC3    C7 6943   0.459   2.994  16.722  0.1896  0.3024  0.3784
  466TMC3    C8 6944   0.359   3.348  16.516 -0.1115 -0.3866 -0.3982
  466TMC3    O1 6945   0.551   3.017  16.646  0.1144 -0.3948  0.2604
  466TMC3    O2 6946   0.401   3.316  16.403 -0.2044  0.0536 -0.5459
  467TMC3    C1 6947   1.901   1.589  13.108  0.4851 -0.1771 -0.0752
  467TMC3    C2 6948   1.994   1.665  13.040 -0.2102 -0.1273  0.5308
  467TMC3    C3 6949   1.992   1.803  13.067  1.0435 -0.5911 -0.0141
  467TMC3    C4 6950   1.809   1.644  13.189  0.5490 -0.2289 -0.6062
  467TMC3    C5 6951   1.802   1.781  13.200 -0.1874  0.1718 -0.2728
  467TMC3    C6 6952   1.902   1.859  13.148  0.1812  0.6908  0.0783
  467TMC3     C 6953   1.941   1.449  13.147  0.4654 -0.0699 -0.0714
  467TMC3     O 6954   1.915   1.416  13.260 -0.2227 -0.6899  0.7390
  467TMC3     H 6955   2.083   1.628  12.990  0.2779 -0.6340  1.7820
  467TMC3    H1 6956   1.758   1.578  13.259  0.1073 -1.2433 -1.8722
  467TMC3    H2 6957   1.915   1.959  13.188 -1.0493  1.0122 -0.3296
  467TMC3    C7 6958   1.715   1.844  13.297 -0.0863  0.2130 -0.2728
  467TMC3    C8 6959   2.122   1.863  13.068 -0.4048  0.4136  0.4610
  467TMC3    O1 6960   1.693   1.965  13.278 -0.0577  0.0624  0.1957
  467TMC3    O2 6961   2.224   1.793  13.080  0.2576  0.1270  0.1180
  468MPD2     C 6962   1.299   4.459  10.452 -0.1466  0.0011 -0.0390
  468MPD2    C1 6963   1.358   4.415  10.568 -0.2237  0.9092  0.3258
  468MPD2    C2 6964   1.396   4.281  10.571  1.2013 -0.1988 -0.3578
  468MPD2    C3 6965   1.378   4.198  10.459  0.2948  0.4249 -0.4163
  468MPD2    C4 6966   1.329   4.253  10.341  0.0427 -0.0962 -0.0216
  468MPD2    C5 6967   1.291   4.386  10.337 -0.5429 -1.0646 -0.8832
  468MPD2     H 6968   1.449   4.251  10.661 -1.3333  0.8854  1.4835
  468MPD2    H1 6969   1.319   4.195  10.250  0.7500 -0.4347  0.1172
  468MPD2    H2 6970   1.267   4.562  10.444 -0.7257 -0.2018 -0.3387
  468MPD2    H3 6971   1.245   4.429  10.248  0.1194  0.5634 -0.4344
  468MPD2     N 6972   1.414   4.059  10.455  0.4619 -0.7298 -0.2766
  468MPD2    H5 6973   1.422   4.013  10.365  1.5577  1.0110 -1.0813
  468MPD2    N1 6974   1.391   4.503  10.673 -0.6260  0.5220  0.3405
  468MPD2    H7 6975   1.398   4.463  10.766 -2.6005  1.2795  0.8306
  469TMC3    C1 6976   1.446   4.702  10.787  0.6356 -0.9218 -0.2464
  469TMC3    C2 6977   1.545   4.651  10.871 -0.5020  0.3073 -0.0471
  469TMC3    C3 6978   1.630   0.005  10.947 -0.8932 -0.0526 -0.3276
  469TMC3    C4 6979   1.419   0.112  10.799 -1.0738  0.8229 -0.0358
  469TMC3    C5 6980   1.492   0.187  10.889  0.5991  0.2867  0.7633
  469TMC3    C6 6981   1.606   0.141  10.954  0.1109 -0.3305  0.6551
  469TMC3     C 6982   1.397   4.641  10.669  0.8632 -0.4057  0.4844
  469TMC3     O 6983   1.375   4.705  10.568  0.4268  0.3173 -0.2943
  469TMC3     H 6984   1.567   4.545  10.864 -0.2322  0.5400 -2.8242
  469TMC3    H1 6985   1.324   0.146  10.758 -2.0480  0.7989  2.1872
  469TMC3    H2 6986   1.663   0.206  11.018  1.9469 -0.1738 -1.1487
  469TMC3    C7 6987   1.425   0.300  10.941  0.3730 -0.4121 -0.2490
  469TMC3    C8 6988   1.678   4.677  11.077  0.3088 -0.4168 -0.5148
  469TMC3    O1 6989   1.361   0.354  10.851 -0.2926  0.5154 -0.6475
  469TMC3    O2 6990   1.598   4.614  11.149 -0.1401 -0.0823 -0.3465
  470TMC3    C1 6991   2.749   1.303   0.471 -0.3752  0.2509 -0.6854
  470TMC3    C2 6992   2.727   1.420   0.536 -0.2435  1.0030 -0.1037
  470TMC3    C3 6993   2.771   1.418   0.664 -0.3386 -0.6155  0.5240
  470TMC3    C4 6994   2.808   1.192   0.520  0.0160  0.1011  0.9188
  470TMC3    C5 6995   2.850   1.201   0.658  0.9400 -0.1290 -1.2126
  470TMC3    C6 6996   2.837   1.317   0.724 -0.0254  0.7516 -0.2307
  470TMC3     C 6997   2.703   1.295   0.336 -0.2716 -0.6046 -0.3357
  470TMC3     O 6998   2.719   1.396   0.265  0.0635  0.2942  0.0219
  470TMC3     H 6999   2.687   1.506   0.484 -0.8545  0.8643  0.1383
  470TMC3    H1 7000   2.816   1.097   0.468  0.8068  0.8626 -0.3464
  470TMC3    H2 7001   2.869   1.326   0.827 -0.5643  1.2532 -0.1097
  470TMC3    C7 7002   2.938   1.094   0.705 -0.6150  0.1994 -0.6504
  470TMC3    C8 7003   2.739   1.533   0.747  0.3916  0.0381  1.7969
  470TMC3    O1 7004   2.953   0.997   0.632  0.1429 -0.3635  0.0137
  470TMC3    O2 7005   2.807   1.549   0.846  0.3907  0.8602  0.4101
  471MPD2     C 7006   3.569   2.580  16.904 -0.2976 -0.4239  0.8060
  471MPD2    C1 7007   3.643   2.471  16.873 -0.2361 -0.3255 -0.4039
  471MPD2    C2 7008   3.750   2.432  16.949  0.4086 -1.0129 -0.3187
  471MPD2    C3 7009   3.771   2.501  17.066 -0.1152 -0.8042  0.5299
  471MPD2    C4 7010   3.700   2.608  17.107  0.7017 -0.7233  0.1044
  471MPD2    C5 7011   3.602   2.654  17.017 -1.1825  0.2925 -0.2176
  471MPD2     H 7012   3.817   2.352  16.919 -0.7498 -1.9238 -0.5032
  471MPD2    H1 7013   3.721   2.657  17.202 -0.7609  2.4195 -1.1949
  471MPD2    H2 7014   3.490   2.631  16.850  0.6118  0.0725 -0.0557
  471MPD2    H3 7015   3.542   2.737  17.054 -2.3036  0.6560 -2.8375
  471MPD2     N 7016   3.870   2.458  17.155  0.4062 -0.0898 -0.2802
  471MPD2    H5 7017   3.866   2.488  17.252  1.1558 -3.2983  0.7240
  471MPD2    N1 7018   3.621   2.389  16.764  0.6232  0.1868 -0.0798
  471MPD2    H7 7019   3.696   2.323  16.750 -0.4804 -1.3793  1.4247
  472TMC3    C1 7020   3.532   2.299  16.570 -0.2925 -0.5335  0.4348
  472TMC3    C2 7021   3.446   2.322  16.472  0.2521  0.0524 -0.0254
  472TMC3    C3 7022   3.455   2.228  16.373 -0.8798  0.2830  0.0500
  472TMC3    C4 7023   3.629   2.195  16.573 -0.0032  0.2640  0.1960
  472TMC3    C5 7024   3.625   2.097  16.473 -0.3280 -0.4359 -0.2840
  472TMC3    C6 7025   3.534   2.121  16.374 -0.1242  0.2116  1.0199
  472TMC3     C 7026   3.519   2.394  16.675  0.7341 -0.1300 -0.0294
  472TMC3     O 7027   3.427   2.475  16.671  0.0508  0.3475  0.0384
  472TMC3     H 7028   3.361   2.389  16.467 -1.1422 -1.4466  3.0828
  472TMC3    H1 7029   3.698   2.183  16.656  0.2399  2.6268  0.3479
  472TMC3    H2 7030   3.508   2.055  16.291  1.1178  0.6397  0.2998
  472TMC3    C7 7031   3.625   1.968  16.534  0.0520  0.2143  0.4887
  472TMC3    C8 7032   3.331   2.205  16.314 -0.1666 -0.4878  0.3772
  472TMC3    O1 7033   3.622   1.965  16.655  0.4336 -0.0297 -0.4343
  472TMC3    O2 7034   3.271   2.299  16.264 -0.6873 -0.3000 -0.3679
  473MPD2     C 7035   4.094   4.064  13.948 -0.9690 -0.0189  0.1876
  473MPD2    C1 7036   3.968   4.115  13.972  0.3838  0.2870 -0.2273
  473MPD2    C2 7037   3.945   4.209  14.071 -0.3153  0.7341  0.0140
  473MPD2    C3 7038   4.052   4.251  14.141  0.8458 -0.8812  0.1742
  473MPD2    C4 7039   4.179   4.208  14.113  0.0560 -0.1049  0.1122
  473MPD2    C5 7040   4.197   4.115  14.016 -0.0471  0.3451  0.5514
  473MPD2     H 7041   3.848   4.254  14.090 -0.6803 -0.1698  0.3102
  473MPD2    H1 7042   4.269   4.236  14.168  1.2421  1.0479 -2.3919
  473MPD2    H2 7043   4.113   3.984  13.877  2.9574  0.6552  0.4786
  473MPD2    H3 7044   4.296   4.074  14.001  0.2426  1.7134 -1.2157
  473MPD2     N 7045   4.018   4.340  14.236  0.6847 -0.4421 -0.5325
  473MPD2    H5 7046   3.920   4.351  14.261  1.5000 -0.3275  2.5761
  473MPD2    N1 7047   3.856   4.078  13.892 -0.1216 -0.3127  0.4168
  473MPD2    H7 7048   3.767   4.107  13.932  0.5407 -0.2642  1.8706
  474TMC3    C1 7049   4.060   4.474  14.419  0.6037  1.1193  0.3099
  474TMC3    C2 7050   3.929   4.512  14.417  0.4906  0.1908 -0.2764
  474TMC3    C3 7051   3.888   4.582  14.528 -0.6039 -0.4576  0.1676
  474TMC3    C4 7052   4.144   4.498  14.522 -0.0569  0.2234  0.2394
  474TMC3    C5 7053   4.086   4.554  14.629 -0.5566  0.6051  0.2903
  474TMC3    C6 7054   3.955   4.602  14.643  0.3708  0.4230  0.4348
  474TMC3     C 7055   4.114   4.404  14.308  0.3813  0.2358 -0.1107
  474TMC3     O 7056   4.236   4.408  14.285  0.0763  0.8724  0.4528
  474TMC3     H 7057   3.868   4.505  14.328 -0.5232  0.8087  0.3739
  474TMC3    H1 7058   4.231   4.435  14.536  0.1637  0.3024 -0.7835
  474TMC3    H2 7059   3.912   4.649  14.731 -1.9199  1.1589 -1.0878
  474TMC3    C7 7060   4.160   4.521  14.747 -0.4421 -0.0355 -0.4624
  474TMC3    C8 7061   3.757   4.647  14.526 -0.1943 -0.2268 -0.2468
  474TMC3    O1 7062   4.275   4.479  14.737 -0.1587 -0.4935 -0.0892
  474TMC3    O2 7063   3.661   4.597  14.581  0.0297 -0.5315  0.2255
  475MPD2     C 7064   2.979   2.082  10.278  0.7047  0.1288 -0.5452
  475MPD2    C1 7065   3.013   2.215  10.281 -0.3058 -0.4057 -0.4485
  475MPD2    C2 7066   2.919   2.302  10.339 -0.0835  0.2227  0.2019
  475MPD2    C3 7067   2.787   2.262  10.357  0.4302 -0.2610  0.0178
  475MPD2    C4 7068   2.753   2.127  10.339  0.1138 -0.6102 -0.6555
  475MPD2    C5 7069   2.853   2.040  10.313  0.4098 -0.3038  0.5012
  475MPD2     H 7070   2.939   2.406  10.361 -0.5984  0.2885  0.3639
  475MPD2    H1 7071   2.663   2.077  10.372  0.3218 -1.3357 -1.1891
  475MPD2    H2 7072   3.038   2.002  10.234  2.2230  0.7369  0.3929
  475MPD2    H3 7073   2.815   1.940  10.298  2.6607 -1.1571  0.4482
  475MPD2     N 7074   2.691   2.357  10.379 -0.2443  0.6056  1.0057
  475MPD2    H5 7075   2.727   2.451  10.393 -1.4761  1.6112 -2.6173
  475MPD2    N1 7076   3.130   2.256  10.224 -0.4691 -0.7786  0.6324
  475MPD2    H7 7077   3.198   2.194  10.180 -2.1243 -1.5264 -0.8775
  476TMC3    C1 7078   3.258   2.419  10.127  0.3024 -0.3529 -0.4608
  476TMC3    C2 7079   3.176   2.423  10.017  0.3119  0.8188 -0.0250
  476TMC3    C3 7080   3.162   2.539   9.952 -0.1631  0.4258  0.0507
  476TMC3    C4 7081   3.333   2.531  10.155  0.9809  0.0089  0.2248
  476TMC3    C5 7082   3.326   2.642  10.082  0.7220  0.6871  0.6645
  476TMC3    C6 7083   3.248   2.644   9.967  0.4637  0.0258 -0.2375
  476TMC3     C 7084   3.185   2.378  10.248  1.0282 -0.0223 -0.7301
  476TMC3     O 7085   3.152   2.478  10.310  0.2457 -0.2834 -0.2913
  476TMC3     H 7086   3.126   2.331   9.989 -0.2762  1.0830  0.1589
  476TMC3    H1 7087   3.399   2.530  10.240 -1.0868  0.2560  1.8459
  476TMC3    H2 7088   3.243   2.734   9.907 -0.6349 -0.2008 -0.4864
  476TMC3    C7 7089   3.355   2.766  10.140  0.7627  0.1370 -0.5284
  476TMC3    C8 7090   3.022   2.578   9.927  0.2329  0.7069 -0.3163
  476TMC3    O1 7091   3.374   2.867  10.078 -0.1733 -0.1430  0.5296
  476TMC3    O2 7092   2.993   2.688   9.885  0.2515  0.6581 -0.1821
  477MPD2     C 7093   0.324   3.932  11.800 -0.0885 -0.4454  0.5028
  477MPD2    C1 7094   0.266   3.836  11.720 -0.2548 -0.2778  0.2434
  477MPD2    C2 7095   0.288   3.706  11.759 -1.0468  0.7186 -0.0300
  477MPD2    C3 7096   0.354   3.677  11.878 -0.1286  0.2657  1.1513
  477MPD2    C4 7097   0.403   3.777  11.959  0.8006 -1.0676  0.0206
  477MPD2    C5 7098   0.393   3.904  11.911  0.2253 -0.7430  0.1660
  477MPD2     H 7099   0.243   3.623  11.705  0.6363 -0.1922 -0.0514
  477MPD2    H1 7100   0.446   3.766  12.058 -2.1148 -2.1145  1.1757
  477MPD2    H2 7101   0.304   4.038  11.786 -1.7349 -0.9744 -1.1432
  477MPD2    H3 7102   0.433   3.980  11.977  0.2744 -0.2938 -0.3762
  477MPD2     N 7103   0.354   3.545  11.925  0.0261  0.1749 -0.2064
  477MPD2    H5 7104   0.308   3.472  11.872 -1.8711  1.2822 -0.0825
  477MPD2    N1 7105   0.182   3.877  11.615 -0.3097 -0.1539 -0.5641
  477MPD2    H7 7106   0.170   3.976  11.594  0.9584 -0.2824 -1.9319
  478TMC3    C1 7107   4.709   3.861  11.492  0.2383 -0.8795  0.2806
  478TMC3    C2 7108   4.666   3.972  11.557 -0.2513 -0.2376 -0.2742
  478TMC3    C3 7109   4.546   4.022  11.527  0.2775  0.0803 -0.4258
  478TMC3    C4 7110   4.628   3.792  11.410 -0.2647  0.0646 -0.8697
  478TMC3    C5 7111   4.509   3.845  11.373 -0.0894 -0.2462 -0.0258
  478TMC3    C6 7112   4.464   3.960  11.434  0.2951 -0.5516  0.3121
  478TMC3     C 7113   0.100   3.791  11.545  0.5331 -0.8087 -0.1140
  478TMC3     O 7114   0.099   3.669  11.525 -0.5647  0.1153  0.2936
  478TMC3     H 7115   4.723   4.029  11.630 -0.8748 -0.3977  0.3339
  478TMC3    H1 7116   4.672   3.711  11.353  1.3520  0.0742  0.3740
  478TMC3    H2 7117   4.364   3.998  11.416 -0.0309 -0.1081  3.0731
  478TMC3    C7 7118   4.450   3.783  11.256 -0.5356  0.3168 -0.1285
  478TMC3    C8 7119   4.487   4.106  11.634  0.3796  0.2006  0.2604
  478TMC3    O1 7120   4.479   3.662  11.244 -1.0285  0.7466 -0.0086
  478TMC3    O2 7121   4.534   4.079  11.742 -0.7432  0.0839 -0.1344
  479MPD2     C 7122   3.359   1.437  15.248 -0.3086  0.2587  0.7321
  479MPD2    C1 7123   3.315   1.384  15.369  0.2863 -0.6548  0.8754
  479MPD2    C2 7124   3.366   1.439  15.487 -0.0449  0.1554  0.1608
  479MPD2    C3 7125   3.461   1.535  15.478 -0.7384 -0.4245 -0.0575
  479MPD2    C4 7126   3.518   1.579  15.355  0.2095 -0.0152 -0.1032
  479MPD2    C5 7127   3.461   1.530  15.243 -0.2192  0.3646  0.3217
  479MPD2     H 7128   3.321   1.426  15.585  1.1924  2.3508  1.0228
  479MPD2    H1 7129   3.601   1.647  15.344 -0.8879  1.5116  1.0738
  479MPD2    H2 7130   3.302   1.407  15.161  0.8442  1.7968 -0.5675
  479MPD2    H3 7131   3.496   1.575  15.151 -0.5918 -0.4708 -0.2219
  479MPD2     N 7132   3.509   1.610  15.595 -0.1988  0.8707 -0.0728
  479MPD2    H5 7133   3.602   1.649  15.583  0.2430  0.3761  1.7825
  479MPD2    N1 7134   3.213   1.281  15.365 -0.0040 -0.0390 -0.7023
  479MPD2    H7 7135   3.184   1.256  15.271  0.0027  1.0735 -1.0067
  480TMC3    C1 7136   3.141   1.604  15.889 -0.1370 -0.3513  0.2359
  480TMC3    C2 7137   3.057   1.610  15.784 -0.1551  0.9005  0.1712
  480TMC3    C3 7138   3.099   1.659  15.664  0.2356 -0.0769  0.1787
  480TMC3    C4 7139   3.276   1.589  15.866 -0.4646  0.4318 -0.8118
  480TMC3    C5 7140   3.320   1.621  15.740  0.8749 -0.2595 -0.8277
  480TMC3    C6 7141   3.232   1.678  15.647  0.0635 -0.2508  0.0343
  480TMC3     C 7142   3.086   1.516  15.993 -0.5660  0.4197 -0.7592
  480TMC3     O 7143   3.018   1.418  15.962 -0.1659 -0.6091 -0.2163
  480TMC3     H 7144   2.952   1.593  15.806  0.1286 -0.4976  0.4197
  480TMC3    H1 7145   3.340   1.552  15.945 -1.1895 -1.3611 -1.0657
  480TMC3    H2 7146   3.275   1.701  15.550 -2.4747  1.0420 -0.7741
  480TMC3    C7 7147   3.460   1.624  15.720  0.1736  0.2842 -0.0949
  480TMC3    C8 7148   3.028   1.597  15.555  0.5312  0.2772  0.4615
  480TMC3    O1 7149   3.526   1.652  15.814 -0.3911  0.4499 -0.0719
  480TMC3    O2 7150   2.939   1.515  15.580  0.8241 -0.1894 -0.5832
  481MPD2     C 7151   0.013   0.331  14.133 -0.8693  0.4395 -0.1506
  481MPD2    C1 7152   4.613   0.378  14.181 -0.2603 -0.5748  0.1504
  481MPD2    C2 7153   4.591   0.406  14.313 -0.1649 -0.2672  0.1457
  481MPD2    C3 7154   4.679   0.357  14.409 -0.3797  0.2914  0.0481
  481MPD2    C4 7155   0.066   0.285  14.366 -0.0036 -0.1509 -0.2294
  481MPD2    C5 7156   0.095   0.279  14.232 -0.1306 -0.5306 -0.0283
  481MPD2     H 7157   4.504   0.463  14.343 -2.0529 -2.4292 -1.2731
  481MPD2    H1 7158   0.135   0.245  14.440  0.3380  0.5960 -0.1395
  481MPD2    H2 7159   0.036   0.323  14.028 -2.6528 -2.1401 -0.3638
  481MPD2    H3 7160   0.198   0.251  14.211 -0.5900 -1.8930 -0.4824
  481MPD2     N 7161   4.670   0.388  14.548 -0.4831  0.1454  0.6823
  481MPD2    H5 7162   0.027   0.373  14.608 -0.5521  1.8486  1.1999
  481MPD2    N1 7163   4.505   0.405  14.090 -0.0117 -0.3921 -0.7697
  481MPD2    H7 7164   4.522   0.396  13.990  0.7699 -2.3702 -0.4675
  482TMC3    C1 7165   4.291   0.462  14.011 -0.0103 -0.1033 -0.3731
  482TMC3    C2 7166   4.284   0.361  13.914  0.1514  0.2106 -0.2146
  482TMC3    C3 7167   4.221   0.398  13.800  0.3212 -0.6467 -0.2276
  482TMC3    C4 7168   4.253   0.593  13.994  0.0055 -0.0106 -0.0829
  482TMC3    C5 7169   4.206   0.622  13.870  0.3042 -0.9771  1.1731
  482TMC3    C6 7170   4.182   0.528  13.776  0.3088  0.4276  0.4075
  482TMC3     C 7171   4.375   0.438  14.128 -0.6300 -0.3348  0.2699
  482TMC3     O 7172   4.321   0.448  14.236  0.4289 -0.8523  0.0821
  482TMC3     H 7173   4.305   0.259  13.944  0.6654 -0.1059 -1.6509
  482TMC3    H1 7174   4.239   0.662  14.077 -1.2337 -2.6268  1.8600
  482TMC3    H2 7175   4.140   0.553  13.679 -4.1187  0.2183  2.2805
  482TMC3    C7 7176   4.187   0.765  13.849 -0.4444  0.3925 -0.0905
  482TMC3    C8 7177   4.203   0.295  13.708  0.7056  0.7270  0.2578
  482TMC3    O1 7178   4.176   0.840  13.947 -0.3522 -0.0534  0.0195
  482TMC3    O2 7179   4.251   0.188  13.737  0.1831  0.4183  0.1529
  483TMC3    C1 7180   2.256   4.327   0.822 -0.7924 -0.1583 -0.5536
  483TMC3    C2 7181   2.291   4.429   0.740  1.0566 -0.5309  0.2700
  483TMC3    C3 7182   2.430   4.442   0.716 -0.4399 -0.3147  0.3571
  483TMC3    C4 7183   2.352   4.242   0.882 -0.5601 -0.4395  0.3812
  483TMC3    C5 7184   2.484   4.263   0.854  0.1587  0.0110  0.0033
  483TMC3    C6 7185   2.526   4.364   0.771 -0.0197 -0.2158  0.0760
  483TMC3     C 7186   2.138   4.261   0.782 -0.3484 -0.3883 -0.1674
  483TMC3     O 7187   2.035   4.327   0.757 -0.2617  0.4976 -0.2523
  483TMC3     H 7188   2.206   4.475   0.692  3.7912  0.2171 -3.8135
  483TMC3    H1 7189   2.320   4.167   0.954 -0.8771 -0.7642 -0.1010
  483TMC3    H2 7190   2.630   4.375   0.740  0.1785 -0.6237  0.6061
  483TMC3    C7 7191   2.575   4.156   0.885 -0.4978  0.0807 -0.1685
  483TMC3    C8 7192   2.477   4.515   0.599  0.3007  0.0568 -0.3777
  483TMC3    O1 7193   2.666   4.130   0.807 -0.5212 -0.1795 -0.2889
  483TMC3    O2 7194   2.583   4.490   0.546 -0.2480  0.1193  0.3376
  484MPD2     C 7195   0.716   2.700  12.301  0.2224  0.8554 -0.3035
  484MPD2    C1 7196   0.763   2.657  12.423  0.3227  0.5322  0.3249
  484MPD2    C2 7197   0.896   2.678  12.454  0.5813 -0.2514  0.4458
  484MPD2    C3 7198   0.982   2.748  12.366  0.3999 -0.6797 -0.0973
  484MPD2    C4 7199   0.927   2.800  12.253  0.0342  0.3038  0.1640
  484MPD2    C5 7200   0.800   2.765  12.216 -1.0454 -0.6058  0.2970
  484MPD2     H 7201   0.937   2.637  12.546  1.4902  0.5615  0.3984
  484MPD2    H1 7202   0.988   2.864  12.190 -0.8167  0.8891 -0.0700
  484MPD2    H2 7203   0.612   2.692  12.270 -0.4203  2.2017  1.4751
  484MPD2    H3 7204   0.744   2.803  12.131  0.5676  0.1517 -0.4404
  484MPD2     N 7205   1.115   2.766  12.396  0.0530 -0.4465 -1.3756
  484MPD2    H5 7206   1.170   2.822  12.331  1.1273 -1.9869 -1.8069
  484MPD2    N1 7207   0.666   2.586  12.503 -0.4478  0.3989  0.0164
  484MPD2    H7 7208   0.577   2.568  12.458 -0.0047 -0.2513 -0.6171
  485TMC3    C1 7209   1.318   2.764  12.505  0.0037  0.6547 -0.5461
  485TMC3    C2 7210   1.409   2.664  12.539 -0.2876  0.0248 -0.5752
  485TMC3    C3 7211   1.542   2.697  12.520  0.1141 -0.0049 -0.2616
  485TMC3    C4 7212   1.347   2.886  12.438  0.3991 -0.3282 -0.2846
  485TMC3    C5 7213   1.480   2.915  12.420 -0.3878 -0.0272  0.6227
  485TMC3    C6 7214   1.572   2.821  12.464 -0.4361  0.5792 -0.1047
  485TMC3     C 7215   1.181   2.720  12.505 -0.1027  0.1299 -0.2588
  485TMC3     O 7216   1.150   2.644  12.598 -0.0929  0.3271  0.1514
  485TMC3     H 7217   1.392   2.567  12.584  0.9958 -0.9132 -2.1299
  485TMC3    H1 7218   1.275   2.952  12.391  0.9997 -0.8551 -1.9551
  485TMC3    H2 7219   1.676   2.845  12.445  0.4413 -2.5133  0.8137
  485TMC3    C7 7220   1.511   2.972  12.293  0.9564 -0.1062 -0.0476
  485TMC3    C8 7221   1.613   2.594  12.440  0.0110 -0.4077  0.5676
  485TMC3    O1 7222   1.476   3.083  12.263 -0.2393  0.5201  0.0690
  485TMC3    O2 7223   1.653   2.634  12.330 -0.1239 -0.4144 -0.1773
  486MPD2     C 7224   3.351   1.459  12.628 -0.4273 -0.0672  0.4425
  486MPD2    C1 7225   3.220   1.422  12.608  0.5841  1.0133  0.0388
  486MPD2    C2 7226   3.112   1.508  12.637  0.3447 -0.1304  0.0599
  486MPD2    C3 7227   3.142   1.626  12.704 -0.5076  0.2741  0.1711
  486MPD2    C4 7228   3.276   1.655  12.732  0.6518  0.1801  0.1243
  486MPD2    C5 7229   3.381   1.578  12.689 -0.6135  0.1948  0.3270
  486MPD2     H 7230   3.008   1.479  12.634 -0.2534  2.1702 -1.6359
  486MPD2    H1 7231   3.303   1.753  12.770 -0.0370  0.6912 -0.6817
  486MPD2    H2 7232   3.435   1.392  12.615 -0.4931  0.3232 -2.0048
  486MPD2    H3 7233   3.479   1.621  12.709 -1.5768  1.0637  3.0547
  486MPD2     N 7234   3.039   1.709  12.744 -0.0143 -0.4309 -0.2277
  486MPD2    H5 7235   2.945   1.678  12.720  0.1477 -1.8301  0.9489
  486MPD2    N1 7236   3.199   1.299  12.550  0.0071 -0.0225  0.6213
  486MPD2    H7 7237   3.283   1.243  12.537  0.6370  1.0412  0.1316
  487TMC3    C1 7238   3.081   1.105  12.479  0.7363 -0.5601 -0.0155
  487TMC3    C2 7239   2.955   1.059  12.436  0.5266 -0.5200  0.0667
  487TMC3    C3 7240   2.939   0.920  12.428  0.6745 -0.2691  0.3050
  487TMC3    C4 7241   3.176   1.011  12.521 -0.9663 -0.2281 -0.4806
  487TMC3    C5 7242   3.157   0.880  12.501 -0.2507  0.2763 -0.4051
  487TMC3    C6 7243   3.039   0.829  12.443 -0.1194 -0.3064  0.6453
  487TMC3     C 7244   3.077   1.245  12.522 -0.2652 -0.3268  0.1916
  487TMC3     O 7245   2.964   1.292  12.520 -0.1698  0.2315 -0.6729
  487TMC3     H 7246   2.874   1.124  12.407  0.8739 -0.6326 -1.1448
  487TMC3    H1 7247   3.262   1.046  12.576  0.1397 -0.5981 -1.9976
  487TMC3    H2 7248   3.015   0.725  12.458  1.2453 -0.7368 -0.2049
  487TMC3    C7 7249   3.231   0.774  12.572  0.1992 -0.4813 -1.0631
  487TMC3    C8 7250   2.826   0.875  12.509 -0.7090  0.4475  0.3441
  487TMC3    O1 7251   3.228   0.659  12.528  0.2586 -0.2472  0.2233
  487TMC3    O2 7252   2.856   0.810  12.606 -0.0708  0.0444 -0.0513
  488MPD2     C 7253   2.649   3.118  16.480 -0.6137  0.2084  0.0402
  488MPD2    C1 7254   2.659   3.251  16.523  0.5667  1.0876  0.0365
  488MPD2    C2 7255   2.619   3.288  16.651  0.5501  0.2308 -1.5004
  488MPD2    C3 7256   2.588   3.190  16.746 -0.1846 -0.6612  0.0354
  488MPD2    C4 7257   2.587   3.055  16.701 -1.1260 -0.5424 -0.1118
  488MPD2    C5 7258   2.604   3.028  16.569 -0.5184 -0.2236 -0.4473
  488MPD2     H 7259   2.617   3.391  16.684  0.1441 -0.2805  0.0994
  488MPD2    H1 7260   2.574   2.970  16.767 -0.2808 -0.6547 -0.0964
  488MPD2    H2 7261   2.674   3.077  16.384  0.9271 -3.3976  1.9883
  488MPD2    H3 7262   2.581   2.929  16.532 -2.3726  0.7571 -1.8719
  488MPD2     N 7263   2.545   3.232  16.875 -0.6245  0.1903  0.4931
  488MPD2    H5 7264   2.533   3.332  16.884 -1.0297  0.0196  1.8504
  488MPD2    N1 7265   2.714   3.348  16.436  0.6689 -0.5821 -0.2602
  488MPD2    H7 7266   2.724   3.442  16.474 -2.0865  1.0380 -3.5277
  489TMC3    C1 7267   2.473   3.200  17.104  0.9643  1.1922 -0.2785
  489TMC3    C2 7268   2.371   3.290  17.093 -0.1906  0.2799  0.3719
  489TMC3    C3 7269   2.347   3.384  17.193 -0.5201 -0.0845  0.5261
  489TMC3    C4 7270   2.546   3.192  17.215  0.5910 -0.2058 -0.5948
  489TMC3    C5 7271   2.519   3.275  17.317  0.1558  0.7427  0.1295
  489TMC3    C6 7272   2.424   3.375  17.307  0.0607  0.2972  0.1016
  489TMC3     C 7273   2.530   3.143  16.982  0.4761  0.1599 -0.2906
  489TMC3     O 7274   2.556   3.024  17.002  0.1480 -0.1206 -0.1538
  489TMC3     H 7275   2.305   3.291  17.007 -1.7492  1.7081  1.5760
  489TMC3    H1 7276   2.631   3.125  17.204  2.1448  1.5201  1.0004
  489TMC3    H2 7277   2.411   3.455  17.379  0.3059 -1.4790  2.0993
  489TMC3    C7 7278   2.627   3.304  17.403  0.1937  0.3065  0.0411
  489TMC3    C8 7279   2.306   3.510  17.133 -0.8965  0.0475 -0.0204
  489TMC3    O1 7280   2.648   3.419  17.443 -0.4168  0.6476 -0.5502
  489TMC3    O2 7281   2.269   3.514  17.015  0.1036 -0.5106  0.1706
  490MPD2     C 7282   3.489   2.745  17.378 -0.1082  0.0766 -0.6026
  490MPD2    C1 7283   3.545   2.628  17.428 -0.2644  0.3447  0.2440
  490MPD2    C2 7284   3.672   2.628  17.486 -0.0906 -0.1111 -0.1659
  490MPD2    C3 7285   3.744   2.741  17.491  1.7515 -0.1499 -0.4409
  490MPD2    C4 7286   3.681   2.858  17.453 -0.2509  0.2385  0.4848
  490MPD2    C5 7287   3.559   2.857  17.387 -0.2619 -0.6041 -0.2776
  490MPD2     H 7288   3.714   2.536  17.525  1.7153  0.8604  0.2342
  490MPD2    H1 7289   3.732   2.953  17.451  1.0480 -0.4499  1.3167
  490MPD2    H2 7290   3.386   2.745  17.344 -1.1019  1.3787  2.3554
  490MPD2    H3 7291   3.513   2.950  17.356  1.8821  1.2258  2.0269
  490MPD2     N 7292   3.872   2.756  17.547 -0.4995  0.4442  0.3681
  490MPD2    H5 7293   3.907   2.847  17.574 -0.9626  0.2236  1.7396
  490MPD2    N1 7294   3.482   2.504  17.412  0.4782  0.2836  0.0860
  490MPD2    H7 7295   3.512   2.424  17.467 -0.6614 -1.4399 -1.8139
  491TMC3    C1 7296   3.283   2.375  17.374 -0.0791  0.5118  0.6455
  491TMC3    C2 7297   3.298   2.309  17.494  0.1814 -0.2134 -0.4605
  491TMC3    C3 7298   3.240   2.190  17.510 -0.0976  0.6717  0.0461
  491TMC3    C4 7299   3.201   2.326  17.275 -0.6936  0.7017  0.2746
  491TMC3    C5 7300   3.132   2.210  17.306 -0.6122 -0.1691  0.3579
  491TMC3    C6 7301   3.151   2.133  17.421  0.8630 -0.4093 -0.0401
  491TMC3     C 7302   3.372   2.482  17.330  0.1867  0.5888 -0.5050
  491TMC3     O 7303   3.339   2.549  17.230  0.0803  0.3339 -0.0134
  491TMC3     H 7304   3.351   2.354  17.577  0.8866  3.6222 -2.9917
  491TMC3    H1 7305   3.187   2.368  17.176 -2.2645  0.0329  0.2020
  491TMC3    H2 7306   3.081   2.052  17.439  0.8013  0.1341  2.1012
  491TMC3    C7 7307   3.032   2.151  17.213  0.2763  0.0994 -0.3607
  491TMC3    C8 7308   3.276   2.120  17.626 -0.1076  0.6660 -0.8257
  491TMC3    O1 7309   3.005   2.032  17.233 -0.3077  0.1033  0.2158
  491TMC3    O2 7310   3.353   2.177   0.003  0.0890  0.6724  0.1561
  492MPD2     C 7311   4.610   2.292  11.405 -0.8827  0.2355  0.9691
  492MPD2    C1 7312   4.519   2.265  11.307 -0.1639 -0.5702 -0.4082
  492MPD2    C2 7313   4.392   2.221  11.343 -1.3622 -0.5707 -0.0314
  492MPD2    C3 7314   4.369   2.191  11.482 -0.3877 -0.3472 -0.2612
  492MPD2    C4 7315   4.460   2.231  11.579  0.0202  0.2448  0.2051
  492MPD2    C5 7316   4.579   2.289  11.538  0.5743  0.0646  0.5837
  492MPD2     H 7317   4.315   2.210  11.268 -0.6295  3.4827 -1.3751
  492MPD2    H1 7318   4.440   2.216  11.684  1.3108 -1.4039  0.2075
  492MPD2    H2 7319   4.710   2.333  11.390  0.8875 -4.1065  0.9432
  492MPD2    H3 7320   4.655   2.306  11.613  0.9021  0.2942  0.1954
  492MPD2     N 7321   4.257   2.113  11.531  0.3932  0.2619  0.1921
  492MPD2    H5 7322   4.247   2.090  11.629 -1.4431  0.0758 -0.0417
  492MPD2    N1 7323   4.548   2.304  11.178 -1.2324 -0.1443 -0.4785
  492MPD2    H7 7324   4.640   2.346  11.169 -0.0009 -3.0982 -1.3496
  493TMC3    C1 7325   4.544   2.361  10.955  0.2092 -0.3921  0.5689
  493TMC3    C2 7326   4.628   2.468  10.973 -0.4941 -0.7897  0.4113
  493TMC3    C3 7327   4.688   2.512  10.865 -0.4282 -0.2178  0.1413
  493TMC3    C4 7328   4.520   2.306  10.830 -0.5149 -0.4354  0.1762
  493TMC3    C5 7329   4.573   2.371  10.724 -0.5830 -0.3241  0.0063
  493TMC3    C6 7330   4.657   2.475  10.739 -0.8914 -0.5593  0.0106
  493TMC3     C 7331   4.468   2.307  11.065 -0.2611 -0.3489  0.2880
  493TMC3     O 7332   4.353   2.270  11.039 -0.0957 -0.5555  0.0920
  493TMC3     H 7333   4.647   2.505  11.073 -1.2755  0.8257 -0.0311
  493TMC3    H1 7334   4.434   2.242  10.813 -0.3473 -0.4348 -0.6734
  493TMC3    H2 7335   4.712   2.510  10.653  0.1484  1.8401  1.6500
  493TMC3    C7 7336   4.518   2.345  10.594  0.3261 -0.6868  0.2124
  493TMC3    C8 7337   0.092   2.576  10.893  0.0830 -0.6241 -0.3531
  493TMC3    O1 7338   4.491   2.447  10.531  0.6290  0.0517  0.0079
  493TMC3    O2 7339   0.135   2.546  11.000 -0.1237  0.2158 -0.0928
  494TMC3    C1 7340   4.205   0.012   0.545  0.8470  0.0487 -0.3928
  494TMC3    C2 7341   4.190   4.601   0.576 -0.3092 -0.7257 -0.0204
  494TMC3    C3 7342   4.279   4.510   0.526  0.3927 -0.2272 -0.8020
  494TMC3    C4 7343   4.311   0.047   0.471 -0.0263  0.5491 -0.2630
  494TMC3    C5 7344   4.398   4.675   0.428  0.2802 -0.6683 -0.6573
  494TMC3    C6 7345   4.385   4.546   0.446  0.2030  0.2089  0.4811
  494TMC3     C 7346   4.090   0.111   0.553 -0.5569  0.1375 -0.7666
  494TMC3     O 7347   4.103   0.211   0.486  0.0855  0.1672 -0.5068
  494TMC3     H 7348   4.106   4.567   0.635 -0.0931 -0.1254  0.6356
  494TMC3    H1 7349   4.338   0.148   0.442 -0.2328  0.0912 -2.0397
  494TMC3    H2 7350   4.460   4.480   0.404  3.4957  3.6165  0.9334
  494TMC3    C7 7351   4.468   4.703   0.311  0.4633  0.3270 -0.2559
  494TMC3    C8 7352   4.287   4.375   0.586  0.7752  0.2559  0.9337
  494TMC3    O1 7353   4.446   4.631   0.219 -0.5719  0.0219  0.6371
  494TMC3    O2 7354   4.399   4.337   0.617 -0.0153  0.2923 -0.6477
  495TMC3    C1 7355   3.321   1.581  14.609 -0.7246  0.0603 -0.0072
  495TMC3    C2 7356   3.217   1.581  14.525  0.2631  0.2736  0.6969
  495TMC3    C3 7357   3.107   1.655  14.569 -0.0783 -1.0417 -0.1608
  495TMC3    C4 7358   3.325   1.650  14.726 -0.4176 -0.0054  0.0395
  495TMC3    C5 7359   3.208   1.714  14.768  0.0283  0.1293  0.0905
  495TMC3    C6 7360   3.093   1.716  14.690 -0.2478  0.0525  0.1587
  495TMC3     C 7361   3.402   1.458  14.619  0.2976  0.4128  0.2437
  495TMC3     O 7362   3.506   1.471  14.680  0.7293  0.2011  0.1902
  495TMC3     H 7363   3.216   1.539  14.426 -0.2145 -0.7325  1.1311
  495TMC3    H1 7364   3.391   1.619  14.806  1.1511  0.9380 -0.8997
  495TMC3    H2 7365   3.010   1.783  14.712  0.6149  1.2334 -0.1702
  495TMC3    C7 7366   3.180   1.703  14.910 -0.9342  0.4340  0.1710
  495TMC3    C8 7367   2.994   1.683  14.473 -0.3582 -0.4538 -0.2921
  495TMC3    O1 7368   3.269   1.734  14.991  0.3836 -0.1045 -0.1942
  495TMC3    O2 7369   2.927   1.785  14.480 -0.3091 -0.3139  0.1217
  496MPD2     C 7370   1.044   1.045  14.813  0.2499  0.2836 -0.3585
  496MPD2    C1 7371   1.040   0.923  14.875  0.0543 -0.2361 -0.2902
  496MPD2    C2 7372   0.947   0.903  14.975 -0.9248  0.0451  0.2148
  496MPD2    C3 7373   0.887   1.016  15.039  0.6496  0.2062 -1.0813
  496MPD2    C4 7374   0.917   1.137  14.988  0.3867 -0.4150 -0.7512
  496MPD2    C5 7375   0.986   1.154  14.874  0.0215  0.0877 -0.5078
  496MPD2     H 7376   0.943   0.809  15.029  3.6925 -0.7567 -0.8304
  496MPD2    H1 7377   0.865   1.227  15.019  0.6137  0.2949 -2.3828
  496MPD2    H2 7378   1.104   1.067  14.726 -0.5452 -2.1764 -1.5373
  496MPD2    H3 7379   1.000   1.254  14.834  1.2456  0.3824  0.6479
  496MPD2     N 7380   0.805   0.995  15.152  0.2072  0.1632 -0.0735
  496MPD2    H5 7381   0.786   0.898  15.173 -1.1218  0.4911  0.2333
  496MPD2    N1 7382   1.113   0.820  14.814 -0.2818 -1.1084  0.2802
  496MPD2    H7 7383   1.166   0.849  14.733  0.5137 -0.2725  1.0951
  497TMC3    C1 7384   0.648   1.040  15.329 -0.4733 -0.1217 -0.0800
  497TMC3    C2 7385   0.576   0.933  15.283 -0.5884  0.0392  0.0570
  497TMC3    C3 7386   0.453   0.914  15.344 -0.1333  0.2915 -0.0275
  497TMC3    C4 7387   0.600   1.126  15.426  0.1724 -0.9629  0.1153
  497TMC3    C5 7388   0.492   1.086  15.501 -0.0162 -0.1220 -0.3366
  497TMC3    C6 7389   0.406   0.980  15.458 -0.8020 -0.4212  0.2035
  497TMC3     C 7390   0.737   1.092  15.226  0.0535  0.2901  0.2135
  497TMC3     O 7391   0.738   1.214  15.221  0.0615 -0.2850  0.1840
  497TMC3     H 7392   0.587   0.881  15.189 -0.1771  0.2965 -0.0327
  497TMC3    H1 7393   0.634   1.228  15.444 -1.1179 -0.6673  0.8941
  497TMC3    H2 7394   0.314   0.955  15.510  0.3380  0.1060  2.4771
  497TMC3    C7 7395   0.428   1.166  15.603  1.0439  0.4599 -0.2308
  497TMC3    C8 7396   0.346   0.886  15.251 -0.2968 -0.1909 -1.1838
  497TMC3    O1 7397   0.306   1.151  15.597 -0.3289  0.1488  0.2119
  497TMC3    O2 7398   0.377   0.900  15.130  0.0291  0.4150  0.3359
  498MPD2     C 7399   1.593   2.380   9.794 -0.1354  0.4603  0.3053
  498MPD2    C1 7400   1.674   2.268   9.813 -0.1539  0.3472  0.2548
  498MPD2    C2 7401   1.610   2.140   9.856 -0.9569 -0.1898 -0.6493
  498MPD2    C3 7402   1.470   2.145   9.880 -0.5302  0.4551  0.2197
  498MPD2    C4 7403   1.394   2.260   9.855  0.0840  0.1984 -0.4433
  498MPD2    C5 7404   1.456   2.368   9.805 -1.3052 -0.1650 -0.4454
  498MPD2     H 7405   1.666   2.047   9.866 -1.0444 -0.1127  0.4973
  498MPD2    H1 7406   1.288   2.275   9.870 -0.3642 -0.3640 -3.0104
  498MPD2    H2 7407   1.646   2.466   9.755  0.5621  0.4832  1.3209
  498MPD2    H3 7408   1.390   2.453   9.795 -0.2494  0.6559 -0.3798
  498MPD2     N 7409   1.415   2.027   9.930  0.3728  0.0349 -0.7532
  498MPD2    H5 7410   1.483   1.951   9.940  0.4918  0.3171  0.4843
  498MPD2    N1 7411   1.814   2.268   9.799  0.0175  0.0081  0.3214
  498MPD2    H7 7412   1.857   2.176   9.810  0.7724  0.2508 -0.5514
  499TMC3    C1 7413   2.032   2.318   9.746  0.2926  0.0345  0.6009
  499TMC3    C2 7414   2.070   2.186   9.739  0.4978 -0.1627 -0.7292
  499TMC3    C3 7415   2.192   2.157   9.682  0.0153  0.4009 -0.2615
  499TMC3    C4 7416   2.115   2.413   9.695  0.0882  0.5964  0.2252
  499TMC3    C5 7417   2.238   2.379   9.646  0.3795 -0.8797  0.4554
  499TMC3    C6 7418   2.270   2.249   9.634  0.1034  0.0459  0.0116
  499TMC3     C 7419   1.895   2.371   9.763  0.6364  0.4886  0.6333
  499TMC3     O 7420   1.863   2.488   9.748  0.1548 -0.5341  0.7523
  499TMC3     H 7421   2.007   2.108   9.781 -0.3938  1.1591  0.3916
  499TMC3    H1 7422   2.086   2.517   9.702 -2.9899 -0.2364  0.0359
  499TMC3    H2 7423   2.355   2.227   9.570  0.7534  1.4311  0.3845
  499TMC3    C7 7424   2.328   2.483   9.620  0.0307  0.1596 -0.2448
  499TMC3    C8 7425   2.248   2.017   9.689 -0.0778 -0.0439 -0.6600
  499TMC3    O1 7426   2.282   2.595   9.612  0.1006 -0.4396 -0.6616
  499TMC3    O2 7427   2.366   2.000   9.713 -0.2035  0.3564  0.7966
  500MPD2     C 7428   3.751   3.290  10.589 -0.0962  0.3324 -0.3514
  500MPD2    C1 7429   3.749   3.329  10.457 -0.1235  0.7654  0.8593
  500MPD2    C2 7430   3.635   3.392  10.406 -1.0045 -0.4131  0.1886
  500MPD2    C3 7431   3.525   3.414  10.486 -0.1601 -0.5823  0.8104
  500MPD2    C4 7432   3.519   3.367  10.618  0.0479 -0.1455 -0.3127
  500MPD2    C5 7433   3.634   3.303  10.663 -0.3682 -0.2233 -0.3196
  500MPD2     H 7434   3.641   3.427  10.304 -1.1636  0.3174  0.4301
  500MPD2    H1 7435   3.435   3.382  10.685  0.2030  0.2824 -0.2113
  500MPD2    H2 7436   3.835   3.250  10.645  0.2238  0.9071 -0.4170
  500MPD2    H3 7437   3.636   3.280  10.769  2.0510  1.0535 -0.0955
  500MPD2     N 7438   3.409   3.486  10.448  0.0821 -0.5454 -0.3819
  500MPD2    H5 7439   3.333   3.499  10.515  0.6871 -1.0596  0.3987
  500MPD2    N1 7440   3.864   3.305  10.372 -0.2206  0.1257 -0.1657
  500MPD2    H7 7441   3.852   3.329  10.274  0.1289 -1.2678 -0.5473
  501TMC3    C1 7442   4.089   3.281  10.320 -0.2731  0.0543 -0.0700
  501TMC3    C2 7443   4.092   3.399  10.254  0.4004  0.2365  0.2382
  501TMC3    C3 7444   4.211   3.461  10.236 -0.0738  0.3459  0.2307
  501TMC3    C4 7445   4.201   3.237  10.376  0.2152  0.7455  0.2500
  501TMC3    C5 7446   4.316   3.309  10.379 -0.2027  0.3036 -0.0038
  501TMC3    C6 7447   4.319   3.420  10.300  0.3325 -0.6085  0.8156
  501TMC3     C 7448   3.990   3.293  10.422 -0.4137 -0.5762  0.6853
  501TMC3     O 7449   4.040   3.285  10.532  0.0725  1.0009  0.3396
  501TMC3     H 7450   4.001   3.445  10.215  0.5435  0.0234 -0.3461
  501TMC3    H1 7451   4.200   3.149  10.440 -1.0628  1.2467  0.9182
  501TMC3    H2 7452   4.408   3.480  10.281  0.2236 -0.5338  0.5326
  501TMC3    C7 7453   4.396   3.304  10.504  0.7628  0.0343  0.1772
  501TMC3    C8 7454   4.185   3.603  10.244  1.0298 -0.1348 -0.1693
  501TMC3    O1 7455   4.387   3.206  10.578  0.5962  0.2930 -0.3274
  501TMC3    O2 7456   4.225   3.652  10.349  0.1247 -0.4285 -0.1229
  502TMC3    C1 7457   2.680   2.498  15.233  0.0358 -0.3512  0.3909
  502TMC3    C2 7458   2.746   2.544  15.125 -0.3731 -0.4603  0.0646
  502TMC3    C3 7459   2.671   2.580  15.015  0.0886  0.3231  0.4889
  502TMC3    C4 7460   2.547   2.473  15.230 -0.2021  0.3807  0.0825
  502TMC3    C5 7461   2.477   2.500  15.115  0.6348  0.3031  0.1637
  502TMC3    C6 7462   2.534   2.558  15.009  0.2185 -0.3087  0.4148
  502TMC3     C 7463   2.748   2.485  15.359  0.4460  0.1936 -0.3020
  502TMC3     O 7464   2.860   2.529  15.378 -0.0481  0.6488 -0.5988
  502TMC3     H 7465   2.848   2.580  15.135 -1.6884  2.9335  1.3330
  502TMC3    H1 7466   2.484   2.449  15.315 -0.4832  0.7407 -0.0228
  502TMC3    H2 7467   2.477   2.601  14.928  3.3673  0.7592 -1.2122
  502TMC3    C7 7468   2.341   2.459  15.106 -0.4236 -0.6007  0.6040
  502TMC3    C8 7469   2.729   2.671  14.917  0.2465  0.0580 -0.5803
  502TMC3    O1 7470   2.260   2.502  15.026  0.0602 -0.6756  0.5748
  502TMC3    O2 7471   2.799   2.756  14.961 -0.2074 -0.2835  0.8541
  503MPD2     C 7472   4.470   3.260  16.858 -0.2126 -0.1930  0.1822
  503MPD2    C1 7473   4.500   3.309  16.982 -0.0263 -0.1886 -0.1652
  503MPD2    C2 7474   4.528   3.221  17.088 -0.3553  0.4437 -0.0020
  503MPD2    C3 7475   4.544   3.082  17.059  0.2150 -0.5236 -0.2897
  503MPD2    C4 7476   4.511   3.036  16.931 -0.2360 -0.0275  0.4864
  503MPD2    C5 7477   4.471   3.128  16.839  1.2866  0.1024 -1.1876
  503MPD2     H 7478   4.548   3.249  17.191 -0.5782 -0.4771  0.2896
  503MPD2    H1 7479   4.527   2.933  16.903  0.3950 -0.1072  1.1363
  503MPD2    H2 7480   4.455   3.319  16.768 -0.5099  0.4610  0.6517
  503MPD2    H3 7481   4.447   3.097  16.738 -0.1143 -1.0973 -0.5014
  503MPD2     N 7482   4.596   2.998  17.165 -0.4302 -0.1050  0.3684
  503MPD2    H5 7483   4.631   3.038  17.251 -0.2711  1.4817 -0.4242
  503MPD2    N1 7484   4.506   3.444  17.016  0.7747 -0.1757 -0.0307
  503MPD2    H7 7485   4.518   3.466  17.114  2.7167  0.1176 -0.3473
  504TMC3    C1 7486   4.697   2.814  17.278  0.0187 -0.4351 -0.2761
  504TMC3    C2 7487   4.679   2.871  17.398  0.1936 -0.4039 -0.1926
  504TMC3    C3 7488   0.027   2.824  17.505 -1.2903 -0.7813 -0.4660
  504TMC3    C4 7489   0.055   2.707  17.255  0.3602 -0.1413  0.3641
  504TMC3    C5 7490   0.119   2.657  17.361 -0.2679  0.5514  0.0590
  504TMC3    C6 7491   0.114   2.715  17.490  0.0152 -0.6603 -0.8797
  504TMC3     C 7492   4.638   2.871  17.153  1.3018 -0.3971  0.1549
  504TMC3     O 7493   4.624   2.794  17.057  1.0035  0.5160 -0.0786
  504TMC3     H 7494   4.604   2.949  17.407  1.1005  0.3591  0.7297
  504TMC3    H1 7495   0.062   2.663  17.156  0.7627  0.5276  0.0993
  504TMC3    H2 7496   0.169   2.677  17.575 -0.0465  1.7551  0.2513
  504TMC3    C7 7497   0.249   2.587  17.325  0.9582  0.3670 -0.2368
  504TMC3    C8 7498   4.692   2.857  17.628 -0.3593 -0.2851 -0.3594
  504TMC3    O1 7499   0.280   2.599  17.204 -0.0343 -0.2183 -0.0530
  504TMC3    O2 7500   4.597   2.932  17.628  0.6128  0.1520 -0.0659
  505MPD2     C 7501   1.173   1.710  11.117  0.0290  0.5024 -0.4986
  505MPD2    C1 7502   1.201   1.579  11.123  0.2738  0.3197  0.1205
  505MPD2    C2 7503   1.335   1.546  11.140 -0.1747 -0.2624 -0.0639
  505MPD2    C3 7504   1.434   1.643  11.149 -0.8824  0.3344  0.4887
  505MPD2    C4 7505   1.401   1.776  11.143  0.5778 -0.9435  0.1102
  505MPD2    C5 7506   1.264   1.807  11.135 -0.1636  0.2869 -0.3553
  505MPD2     H 7507   1.361   1.442  11.156  2.5141  0.4016 -0.2426
  505MPD2    H1 7508   1.467   1.862  11.139 -0.3148 -0.3155 -1.0099
  505MPD2    H2 7509   1.073   1.752  11.117 -0.7108 -1.2276 -0.1233
  505MPD2    H3 7510   1.231   1.910  11.141 -2.1911 -0.5104  1.7781
  505MPD2     N 7511   1.565   1.603  11.155  0.2012 -0.6200 -0.2090
  505MPD2    H5 7512   1.577   1.502  11.156  0.4807 -0.5753  1.2928
  505MPD2    N1 7513   1.100   1.486  11.102 -0.4775  0.3685 -0.0376
  505MPD2    H7 7514   1.014   1.524  11.064 -0.4753 -2.1179 -2.5255
  506TMC3    C1 7515   0.991   1.273  11.072 -0.0490  0.7175  0.2267
  506TMC3    C2 7516   0.936   1.304  10.947 -0.1830 -0.2785 -0.3468
  506TMC3    C3 7517   0.901   1.194  10.873 -0.4463 -0.1188  0.3097
  506TMC3    C4 7518   1.002   1.143  11.110  0.8073  0.0305 -0.2879
  506TMC3    C5 7519   0.974   1.037  11.027  0.0399 -0.3383 -0.3624
  506TMC3    C6 7520   0.913   1.061  10.912 -0.0532 -0.8594  0.6219
  506TMC3     C 7521   1.103   1.349  11.124 -0.1139 -0.0638 -0.4056
  506TMC3     O 7522   1.192   1.272  11.168 -0.0605  0.1676 -0.8361
  506TMC3     H 7523   0.947   1.403  10.905 -0.5202  0.7523  1.9624
  506TMC3    H1 7524   1.035   1.125  11.212 -0.7237  0.5490  0.2852
  506TMC3    H2 7525   0.889   0.979  10.845 -0.0541 -1.9743  2.0027
  506TMC3    C7 7526   1.089   0.942  11.004 -0.0186 -0.3975  0.4916
  506TMC3    C8 7527   0.851   1.214  10.733 -0.2427 -0.1278 -0.3838
  506TMC3    O1 7528   1.076   0.840  10.942  0.4466  0.0028 -0.2794
  506TMC3    O2 7529   0.778   1.121  10.693 -0.4203  0.1986 -0.5863
  507TMC3    C1 7530   0.802   2.375  14.480 -0.2542 -0.1425  0.0759
  507TMC3    C2 7531   0.788   2.384  14.343  0.1308 -0.7522 -0.4466
  507TMC3    C3 7532   0.904   2.370  14.272 -0.6170  0.5399 -0.3210
  507TMC3    C4 7533   0.920   2.354  14.547  0.1118 -0.0765  0.4615
  507TMC3    C5 7534   1.035   2.347  14.473 -0.2640  0.3168 -0.0709
  507TMC3    C6 7535   1.030   2.351  14.333 -0.6166 -0.0904  1.0496
  507TMC3     C 7536   0.676   2.357  14.561 -0.1978 -0.1556 -0.2437
  507TMC3     O 7537   0.676   2.284  14.660  0.3622  0.0010 -0.1347
  507TMC3     H 7538   0.692   2.414  14.304  0.3129 -1.4690 -1.4319
  507TMC3    H1 7539   0.913   2.343  14.655  1.1940  2.4432  0.7838
  507TMC3    H2 7540   1.124   2.336  14.283 -1.0899  2.5694 -0.6704
  507TMC3    C7 7541   1.142   2.425  14.532  0.2027  0.0489  0.4997
  507TMC3    C8 7542   0.913   2.489  14.193  0.4830  0.2563  0.3099
  507TMC3    O1 7543   1.193   2.489  14.447 -0.3243 -0.4590 -0.0124
  507TMC3    O2 7544   0.830   2.505  14.107  0.0891  0.1367 -0.0502
  508MPD2     C 7545   2.207   4.462  15.760 -0.2937 -0.1311 -0.9174
  508MPD2    C1 7546   2.270   4.570  15.819 -0.4402 -0.6858 -0.2481
  508MPD2    C2 7547   2.286   4.688  15.743 -0.5704  0.4879  0.5793
  508MPD2    C3 7548   2.251   4.691  15.612  0.4581 -0.9459 -0.4037
  508MPD2    C4 7549   2.209   4.571  15.546 -0.5152 -0.0805 -0.1259
  508MPD2    C5 7550   2.181   4.460  15.620  0.1253 -0.2983 -0.4935
  508MPD2     H 7551   2.312   0.057  15.792 -1.0263  1.4246 -0.9612
  508MPD2    H1 7552   2.185   4.570  15.441  0.9174 -0.2890 -0.4568
  508MPD2    H2 7553   2.183   4.372  15.815 -0.3699  1.7909  2.1698
  508MPD2    H3 7554   2.135   4.375  15.571 -0.6594 -0.2668  0.1982
  508MPD2     N 7555   2.260   0.101  15.547  0.0690  0.4957  0.1348
  508MPD2    H5 7556   2.293   0.186  15.592 -1.7869  1.2486  0.0869
  508MPD2    N1 7557   2.307   4.571  15.955  0.1305  0.2371  0.0212
  508MPD2    H7 7558   2.302   4.480  16.001  0.0254  0.4498  0.4279
  509TMC3    C1 7559   2.089   0.458  15.341  0.6209 -0.0087 -0.0793
  509TMC3    C2 7560   2.189   0.538  15.383  0.0255 -0.4399 -0.2835
  509TMC3    C3 7561   2.310   0.481  15.422  0.7875  0.5929 -0.1592
  509TMC3    C4 7562   2.105   0.321  15.338  0.0189  0.3267 -0.1236
  509TMC3    C5 7563   2.220   0.268  15.385 -0.5803 -0.2146 -0.0664
  509TMC3    C6 7564   2.320   0.344  15.442 -0.5515  0.5851 -0.2376
  509TMC3     C 7565   1.978   0.520  15.274 -0.0679  0.0263 -0.6451
  509TMC3     O 7566   1.917   0.438  15.208  0.2493  0.4856 -0.5883
  509TMC3     H 7567   2.176   0.645  15.376 -0.5840 -0.3108  2.8114
  509TMC3    H1 7568   2.030   0.251  15.304 -0.7161  0.1621  1.8252
  509TMC3    H2 7569   2.409   0.296  15.482 -0.9897  0.6519  0.8072
  509TMC3    C7 7570   2.206   0.132  15.428  0.7358 -0.2060 -0.4304
  509TMC3    C8 7571   2.401   0.563  15.492  0.6698  0.5792  0.0247
  509TMC3    O1 7572   2.136   0.068  15.356  0.0616 -0.1888  0.1247
  509TMC3    O2 7573   2.481   0.504  15.565 -0.1740  0.2627 -1.0489
  510MPD2     C 7574   0.133   2.030  14.584 -0.5232 -0.2565  0.4315
  510MPD2    C1 7575   0.151   1.897  14.620  0.6631 -0.3126  0.0152
  510MPD2    C2 7576   0.262   1.831  14.576 -0.6677 -0.0609 -0.1486
  510MPD2    C3 7577   0.356   1.891  14.494  0.0768 -0.3623 -0.3274
  510MPD2    C4 7578   0.331   2.021  14.456  0.2816  0.0998 -1.1877
  510MPD2    C5 7579   0.227   2.095  14.506  0.2544  0.1346  0.0342
  510MPD2     H 7580   0.280   1.730  14.611 -1.8908 -0.4699 -0.6781
  510MPD2    H1 7581   0.410   2.072  14.402  1.0479 -3.8343 -3.7755
  510MPD2    H2 7582   0.061   2.088  14.640  0.4425  0.3062  1.0770
  510MPD2    H3 7583   0.223   2.200  14.480 -2.0733  0.2146  0.7234
  510MPD2     N 7584   0.465   1.810  14.449 -1.0032 -0.4343 -0.4368
  510MPD2    H5 7585   0.465   1.715  14.483  1.7340  1.0705  3.7974
  510MPD2    N1 7586   0.053   1.836  14.697  0.1686 -0.1717  0.0334
  510MPD2    H7 7587   4.700   1.897  14.725  1.0989  0.8630  0.3477
  511TMC3    C1 7588   4.663   1.662  14.812 -0.1212 -0.0615  0.5616
  511TMC3    C2 7589   4.598   1.724  14.912  0.1825 -0.7515 -0.2970
  511TMC3    C3 7590   4.500   1.645  14.977 -0.5557 -0.1367 -0.1295
  511TMC3    C4 7591   4.645   1.534  14.783  0.2647 -0.5628  0.5508
  511TMC3    C5 7592   4.560   1.454  14.853  0.7120 -0.1028 -0.2308
  511TMC3    C6 7593   4.475   1.514  14.949  0.1290  0.7840 -0.9909
  511TMC3     C 7594   0.060   1.710  14.756 -0.5128  0.0558 -0.7202
  511TMC3     O 7595   0.156   1.633  14.762  0.2738 -0.2645 -0.1272
  511TMC3     H 7596   4.628   1.826  14.935  1.2952 -0.5463 -2.6523
  511TMC3    H1 7597   4.694   1.503  14.692 -0.2527  1.3176 -0.3679
  511TMC3    H2 7598   4.389   1.466  14.994  0.8026 -0.4239 -0.9843
  511TMC3    C7 7599   4.527   1.317  14.802 -0.1725 -0.0820 -0.3805
  511TMC3    C8 7600   4.430   1.704  15.092  1.1314 -0.2815  0.1527
  511TMC3    O1 7601   4.586   1.286  14.699 -0.1446  0.1727 -0.4504
  511TMC3    O2 7602   4.451   1.824  15.099 -0.1366  0.0056 -0.5196
  512TMC3    C1 7603   3.641   1.197  12.874  0.0364  0.2260 -0.5239
  512TMC3    C2 7604   3.659   1.145  13.000 -0.1536  0.4455  0.1804
  512TMC3    C3 7605   3.673   1.008  13.005 -0.3288  0.2754  0.3592
  512TMC3    C4 7606   3.633   1.111  12.764  0.0368  0.7900 -0.3035
  512TMC3    C5 7607   3.639   0.977  12.778  0.3708  0.9007  0.2647
  512TMC3    C6 7608   3.665   0.923  12.896  0.5447  0.2603 -0.2856
  512TMC3     C 7609   3.664   1.334  12.849  0.3954  0.1265 -0.0000
  512TMC3     O 7610   3.641   1.372  12.736 -0.3544  0.1500  0.2860
  512TMC3     H 7611   3.665   1.214  13.084  0.3674  2.5522 -1.5886
  512TMC3    H1 7612   3.604   1.150  12.667 -0.4746 -0.0102 -0.4759
  512TMC3    H2 7613   3.680   0.817  12.914  2.9054  0.4034 -1.3584
  512TMC3    C7 7614   3.658   0.898  12.658  0.0956  0.2401  0.2919
  512TMC3    C8 7615   3.716   0.954  13.128  0.1924 -0.2592  0.6557
  512TMC3    O1 7616   3.613   0.957  12.559 -0.3863 -0.3409  0.1603
  512TMC3    O2 7617   3.746   0.834  13.130  0.3732 -0.6627 -0.2370
  513MPD2     C 7618   0.644   0.821  13.144  0.4099  0.3498  0.7007
  513MPD2    C1 7619   0.743   0.830  13.047 -0.0238 -0.4541 -0.0557
  513MPD2    C2 7620   0.820   0.943  13.052  0.0963 -0.1687  0.1240
  513MPD2    C3 7621   0.806   1.034  13.153  0.2817  0.8383 -0.7457
  513MPD2    C4 7622   0.707   1.031  13.247 -0.0633  0.3989  0.0068
  513MPD2    C5 7623   0.628   0.922  13.235 -0.6202  0.4979  0.3723
  513MPD2     H 7624   0.894   0.968  12.977 -1.2260  1.7860 -0.5340
  513MPD2    H1 7625   0.683   1.112  13.315  0.6456 -0.7514  1.6318
  513MPD2    H2 7626   0.581   0.734  13.147  1.9299 -0.7027  1.9552
  513MPD2    H3 7627   0.538   0.923  13.296 -0.7646 -2.2072  0.1829
  513MPD2     N 7628   0.898   1.142  13.151  0.6356  0.7673  0.2177
  513MPD2    H5 7629   0.971   1.126  13.083  2.3876  4.4304  1.2133
  513MPD2    N1 7630   0.757   0.726  12.951  0.0337 -0.5210  0.2863
  513MPD2    H7 7631   0.680   0.660  12.940 -1.0285  1.3451 -3.2331
  514TMC3    C1 7632   0.856   0.604  12.773  0.4380 -0.3382  0.0456
  514TMC3    C2 7633   0.762   0.603  12.675 -0.1022  0.1932  0.7755
  514TMC3    C3 7634   0.795   0.591  12.544 -0.1177  0.0743 -0.1511
  514TMC3    C4 7635   0.983   0.598  12.724  0.5124  0.4859 -0.0126
  514TMC3    C5 7636   1.015   0.577  12.590  0.7628 -0.3952 -0.0352
  514TMC3    C6 7637   0.920   0.571  12.496 -0.2289 -0.9072  0.1430
  514TMC3     C 7638   0.859   0.718  12.859  0.1101  0.1186 -0.3126
  514TMC3     O 7639   0.953   0.791  12.836 -0.5845  0.1570  0.8214
  514TMC3     H 7640   0.664   0.631  12.712 -0.4891  0.8960 -0.7436
  514TMC3    H1 7641   1.068   0.597  12.792  1.3148 -3.4863 -1.0545
  514TMC3    H2 7642   0.953   0.573  12.393 -2.0026 -1.5066 -0.4363
  514TMC3    C7 7643   1.126   0.656  12.538  0.0206 -0.0859  0.1488
  514TMC3    C8 7644   0.686   0.595  12.451 -1.0746 -0.5916  0.4076
  514TMC3    O1 7645   1.170   0.636  12.424 -0.1761 -0.7631 -0.5264
  514TMC3    O2 7646   0.571   0.582  12.501  0.3453  0.1364 -0.1197
  515MPD2     C 7647   3.353   3.436  14.603  0.7449 -0.2344  0.6442
  515MPD2    C1 7648   3.427   3.319  14.606  0.1248 -0.1659 -0.4113
  515MPD2    C2 7649   3.549   3.318  14.668  0.3940 -0.0032 -0.4500
  515MPD2    C3 7650   3.602   3.429  14.725 -0.4525  0.1562 -0.2181
  515MPD2    C4 7651   3.531   3.542  14.719  0.7556  0.1370  0.4848
  515MPD2    C5 7652   3.401   3.541  14.664  0.1228  0.4862  0.5303
  515MPD2     H 7653   3.609   3.228  14.663 -1.0766 -0.9418 -1.3153
  515MPD2    H1 7654   3.572   3.631  14.766 -0.4816  0.9622 -0.0209
  515MPD2    H2 7655   3.254   3.444  14.559  1.1079 -0.6183 -0.2572
  515MPD2    H3 7656   3.342   3.632  14.667  2.4507  1.9952  0.3674
  515MPD2     N 7657   3.726   3.434  14.789  0.6353  0.1824  0.2615
  515MPD2    H5 7658   3.763   3.526  14.808 -0.0264  0.0444  2.1679
  515MPD2    N1 7659   3.389   3.200  14.540 -0.1446  0.3701 -0.3834
  515MPD2    H7 7660   3.446   3.119  14.561 -1.1789 -0.1197  0.5401
  516TMC3    C1 7661   3.271   3.041  14.412 -0.3979  0.1614 -0.4251
  516TMC3    C2 7662   3.199   3.030  14.300  0.3887 -0.0413 -0.4100
  516TMC3    C3 7663   3.146   2.916  14.249 -0.8382 -0.2143 -0.1581
  516TMC3    C4 7664   3.294   2.935  14.488 -0.7830 -0.6908  0.0638
  516TMC3    C5 7665   3.237   2.817  14.441  0.6581 -0.5043 -0.9257
  516TMC3    C6 7666   3.157   2.804  14.327 -0.8009 -0.7866  0.5430
  516TMC3     C 7667   3.278   3.180  14.468 -0.0421  0.7291  0.0904
  516TMC3     O 7668   3.198   3.267  14.426  0.0788  0.2049  0.4228
  516TMC3     H 7669   3.179   3.122  14.246 -0.0125  0.0792 -0.0606
  516TMC3    H1 7670   3.346   2.940  14.584  1.3121 -0.8263 -1.0664
  516TMC3    H2 7671   3.102   2.714  14.301 -0.9950 -0.2266 -0.9869
  516TMC3    C7 7672   3.218   2.718  14.542 -0.2151 -0.6336  0.0004
  516TMC3    C8 7673   3.046   2.920  14.152  0.1586 -0.0330  0.9782
  516TMC3    O1 7674   3.263   2.744  14.654  0.0171  0.2572 -0.0318
  516TMC3    O2 7675   2.985   2.815  14.133  0.2402  0.7027 -0.4817
  517MPD2     C 7676   2.854   0.043  16.992  0.0722 -0.1585 -0.6166
  517MPD2    C1 7677   2.931   4.692  17.070 -0.0820  0.1886  0.2467
  517MPD2    C2 7678   2.953   4.721  17.207 -0.0432 -0.9072 -0.2921
  517MPD2    C3 7679   2.886   0.112  17.257 -0.3532  0.0159  0.2569
  517MPD2    C4 7680   2.802   0.189  17.176 -0.1194 -0.1158 -0.0001
  517MPD2    C5 7681   2.790   0.153  17.047  0.2666  0.7684 -0.0766
  517MPD2     H 7682   3.015   4.658  17.270  2.9935 -0.1227 -2.5402
  517MPD2    H1 7683   2.755   0.275  17.223 -2.0250 -2.1487  1.8072
  517MPD2    H2 7684   2.830   0.018  16.889  1.7846 -0.8861 -0.8393
  517MPD2    H3 7685   2.729   0.207  16.975  2.1302  1.1053 -1.3978
  517MPD2     N 7686   2.918   0.159  17.383 -0.8362 -0.2701 -0.2696
  517MPD2    H5 7687   2.880   0.247  17.417  0.5013  0.6369 -1.0871
  517MPD2    N1 7688   3.001   4.578  17.023 -0.1383 -0.2522  0.0616
  517MPD2    H7 7689   3.064   4.539  17.093 -0.5339 -4.1444 -1.7482
  518TMC3    C1 7690   3.038   4.392  16.910  0.3998 -0.2464 -0.4866
  518TMC3    C2 7691   2.957   4.281  16.888 -0.1198 -0.9845  0.2617
  518TMC3    C3 7692   3.018   4.159  16.916 -0.3724 -0.1784  0.2037
  518TMC3    C4 7693   3.163   4.385  16.951 -0.4775 -0.2398  0.3985
  518TMC3    C5 7694   3.227   4.268  16.965  0.0544 -0.0961 -0.3346
  518TMC3    C6 7695   3.150   4.151  16.956  0.0701  0.2822  0.6082
  518TMC3     C 7696   2.970   4.517  16.907  0.5575 -0.0983  0.2584
  518TMC3     O 7697   2.870   4.529  16.838  0.1320 -0.0834 -0.0909
  518TMC3     H 7698   2.855   4.283  16.852 -0.4750  0.1267  1.3195
  518TMC3    H1 7699   3.225   4.474  16.962  0.1576 -0.4831 -1.1882
  518TMC3    H2 7700   3.199   4.057  16.981 -0.8092 -0.2665  0.2727
  518TMC3    C7 7701   3.367   4.244  17.005 -0.0620 -0.1589  0.3492
  518TMC3    C8 7702   2.930   4.063  16.971 -0.6402 -0.3312  0.7368
  518TMC3    O1 7703   3.412   4.132  16.997  0.1121  0.4506 -0.1321
  518TMC3    O2 7704   2.812   4.087  16.962  0.1787  0.8343 -0.1268
  519MPD2     C 7705   0.616   3.009  13.840  0.2508  0.6373  0.7323
  519MPD2    C1 7706   0.506   2.931  13.876 -0.1285 -0.5135 -0.4816
  519MPD2    C2 7707   0.519   2.798  13.873 -0.8184 -0.0726 -0.0424
  519MPD2    C3 7708   0.633   2.738  13.825  0.0838 -0.1003 -0.0434
  519MPD2    C4 7709   0.737   2.813  13.796 -0.4013 -0.5811  0.1451
  519MPD2    C5 7710   0.733   2.948  13.807 -0.3791  0.6382  1.2071
  519MPD2     H 7711   0.440   2.740  13.918 -0.2339  0.3505  1.5179
  519MPD2    H1 7712   0.834   2.770  13.771  0.6097  0.8200  1.5996
  519MPD2    H2 7713   0.611   3.116  13.824 -0.3854  0.0841 -2.7748
  519MPD2    H3 7714   0.813   3.013  13.775  0.6320 -0.9491  0.4605
  519MPD2     N 7715   0.649   2.597  13.818  0.6315 -0.6815  0.3498
  519MPD2    H5 7716   0.737   2.559  13.785 -0.1263 -1.3299 -0.9483
  519MPD2    N1 7717   0.377   2.992  13.907 -0.5242  0.4429 -0.2884
  519MPD2    H7 7718   0.371   3.093  13.897 -1.0440  0.4346 -0.0215
  520TMC3    C1 7719   0.583   2.365  13.828  0.5359  0.1417 -0.9772
  520TMC3    C2 7720   0.474   2.276  13.850 -0.0040 -0.4224  0.4073
  520TMC3    C3 7721   0.503   2.154  13.912  0.1092  0.0313 -0.3074
  520TMC3    C4 7722   0.715   2.327  13.847 -0.1844 -0.0559 -0.6747
  520TMC3    C5 7723   0.730   2.211  13.919  0.1217  0.5676  0.2220
  520TMC3    C6 7724   0.634   2.123  13.939 -0.2068  0.3221 -0.0750
  520TMC3     C 7725   0.548   2.508  13.837  0.3217  0.2662 -0.0144
  520TMC3     O 7726   0.431   2.519  13.871 -0.9096  0.2661  0.1834
  520TMC3     H 7727   0.372   2.306  13.828  0.9606  3.1082  0.7774
  520TMC3    H1 7728   0.785   2.409  13.862  1.2432 -1.3052 -0.5826
  520TMC3    H2 7729   0.649   2.022  13.976 -3.7513 -0.0315  0.4986
  520TMC3    C7 7730   0.865   2.183  13.965 -0.2409  0.1222 -0.7164
  520TMC3    C8 7731   0.401   2.074  13.972  0.5070 -0.4897  0.1975
  520TMC3    O1 7732   0.875   2.102  14.057  0.8182 -0.5147 -0.1178
  520TMC3    O2 7733   0.421   1.957  14.004  0.3450 -0.2304  0.3486
  521MPD2     C 7734   1.440   0.826  17.223 -0.0017  0.3333  0.2260
  521MPD2    C1 7735   1.346   0.758  17.143  0.5056 -1.2535 -0.3870
  521MPD2    C2 7736   1.380   0.645  17.073 -0.0793 -0.5685  0.4446
  521MPD2    C3 7737   1.513   0.604  17.079  0.7475 -0.0118  0.4861
  521MPD2    C4 7738   1.607   0.672  17.156  0.2148 -0.6191 -0.1777
  521MPD2    C5 7739   1.572   0.781  17.235  0.0193 -0.3982  0.6520
  521MPD2     H 7740   1.306   0.591  17.016  0.1039  0.3968 -0.6907
  521MPD2    H1 7741   1.709   0.634  17.153 -0.6074 -2.6448 -2.4398
  521MPD2    H2 7742   1.419   0.916  17.279  2.0704  1.1454 -0.2844
  521MPD2    H3 7743   1.641   0.843  17.291  2.0000 -1.9671 -0.0465
  521MPD2     N 7744   1.557   0.500  16.992  0.1383  0.5085 -0.1098
  521MPD2    H5 7745   1.491   0.466  16.923 -0.1502 -1.1136  0.9582
  521MPD2    N1 7746   1.210   0.794  17.155 -0.4795  0.2662 -0.3548
  521MPD2    H7 7747   1.191   0.878  17.209 -0.7103 -0.7909  1.2213
  522TMC3    C1 7748   1.687   0.313  16.917  0.3169  0.2838 -0.1869
  522TMC3    C2 7749   1.753   0.201  16.954 -0.2211  0.2848 -0.4391
  522TMC3    C3 7750   1.745   0.088  16.866  0.3487  0.2815  0.1351
  522TMC3    C4 7751   1.618   0.328  16.800  0.2431  0.5065  0.1415
  522TMC3    C5 7752   1.632   0.221  16.715 -0.5797  0.3653 -0.4974
  522TMC3    C6 7753   1.687   0.098  16.744  0.0146  0.8397  0.1254
  522TMC3     C 7754   1.656   0.408  17.020 -0.2559 -0.5334  0.0662
  522TMC3     O 7755   1.732   0.416  17.113 -0.1264 -0.0893 -0.8522
  522TMC3     H 7756   1.810   0.191  17.046 -2.7608 -0.8561  1.0142
  522TMC3    H1 7757   1.567   0.419  16.771  1.0843  1.4634  1.6287
  522TMC3    H2 7758   1.677   0.012  16.678 -0.0605  0.7450  0.2625
  522TMC3    C7 7759   1.598   0.228  16.570  0.5971  0.0324 -0.4228
  522TMC3    C8 7760   1.827   4.691  16.895 -0.0048  0.5224  0.0286
  522TMC3    O1 7761   1.642   0.135  16.498  0.3275  0.8952  0.2555
  522TMC3    O2 7762   1.868   4.689  17.012 -0.3539 -1.0413  0.3150
  523MPD2     C 7763   3.887   4.585  10.246 -0.5934  0.1304  0.5178
  523MPD2    C1 7764   3.940   4.583  10.119  0.0527 -0.0647 -0.3343
  523MPD2    C2 7765   3.931   4.690  10.032  0.0294 -0.0060  0.4616
  523MPD2    C3 7766   3.874   0.083  10.070 -0.1955  0.5487  0.8427
  523MPD2    C4 7767   3.817   0.082  10.191 -0.5579 -0.1963 -0.2262
  523MPD2    C5 7768   3.813   4.698  10.275  0.0465  0.0598  0.2648
  523MPD2     H 7769   3.975   4.678   9.934 -0.3390  0.1960  0.2681
  523MPD2    H1 7770   3.762   0.172  10.215  0.5227 -0.0244  1.5951
  523MPD2    H2 7771   3.878   4.493  10.302 -0.3550 -0.5150 -0.4931
  523MPD2    H3 7772   3.768   4.697  10.374 -0.9381 -1.1824 -0.1964
  523MPD2     N 7773   3.857   0.203   9.989 -0.1916  0.3281  0.1871
  523MPD2    H5 7774   3.804   0.275  10.037 -0.7760 -0.2998  0.4814
  523MPD2    N1 7775   4.009   4.461  10.079  0.7380 -0.2218  0.0897
  523MPD2    H7 7776   4.018   4.389  10.149  2.0198 -1.1429 -1.0334
  524TMC3    C1 7777   3.853   0.338   9.796  0.4813 -0.1025 -0.2872
  524TMC3    C2 7778   3.912   0.381   9.681 -0.8075 -0.3265 -0.4309
  524TMC3    C3 7779   3.882   0.510   9.639 -0.1301 -0.6971 -0.0846
  524TMC3    C4 7780   3.757   0.413   9.856 -0.0906  0.5051  0.1761
  524TMC3    C5 7781   3.717   0.531   9.803 -0.0475  0.7389 -0.1536
  524TMC3    C6 7782   3.785   0.585   9.695  0.3778  0.3867 -0.6723
  524TMC3     C 7783   3.898   0.217   9.864  0.3791  0.0593  0.1503
  524TMC3     O 7784   3.956   0.141   9.794  0.8448  0.5092  0.0878
  524TMC3     H 7785   4.008   0.334   9.661 -0.9085 -0.0519 -1.5678
  524TMC3    H1 7786   3.705   0.388   9.947 -1.2089 -1.0656 -0.8950
  524TMC3    H2 7787   3.766   0.679   9.643 -0.2621  0.2587 -0.6656
  524TMC3    C7 7788   3.619   0.610   9.864  0.2030  0.6219 -0.3494
  524TMC3    C8 7789   3.956   0.561   9.522  0.2305  0.2406  0.0126
  524TMC3    O1 7790   3.542   0.552   9.937  0.1148  0.4490 -0.1710
  524TMC3    O2 7791   3.964   0.680   9.496 -0.1328 -0.5290 -0.0852
  525MPD2     C 7792   2.279   2.158  14.396 -0.0799 -0.4222  0.2251
  525MPD2    C1 7793   2.179   2.184  14.490  0.0274 -0.3441 -0.0334
  525MPD2    C2 7794   2.135   2.304  14.506  0.5644 -0.4992 -0.0719
  525MPD2    C3 7795   2.165   2.412  14.422 -0.3461 -0.0620  0.4377
  525MPD2    C4 7796   2.269   2.392  14.331  0.1747  0.2812  0.8686
  525MPD2    C5 7797   2.317   2.267  14.321 -0.4347 -0.5234  0.3680
  525MPD2     H 7798   2.064   2.322  14.586 -0.9735  1.0903 -1.7961
  525MPD2    H1 7799   2.306   2.472  14.269 -0.2892  0.7542  1.2031
  525MPD2    H2 7800   2.328   2.063  14.377  0.9545 -0.0724  1.1575
  525MPD2    H3 7801   2.387   2.244  14.242 -1.2406  0.6587 -0.6736
  525MPD2     N 7802   2.108   2.536  14.434  0.2236  0.1095  0.4206
  525MPD2    H5 7803   2.161   2.615  14.399  2.3372 -1.9716 -1.0595
  525MPD2    N1 7804   2.139   2.080  14.590  0.2503 -0.5283 -0.1183
  525MPD2    H7 7805   2.072   2.107  14.661  1.0042 -1.5218  0.9689
  526TMC3    C1 7806   2.130   1.864  14.690 -0.0804 -0.6407 -0.0067
  526TMC3    C2 7807   2.028   1.895  14.773 -0.7322 -0.8416 -0.2956
  526TMC3    C3 7808   1.995   1.814  14.880 -0.3451  0.4917 -0.8289
  526TMC3    C4 7809   2.205   1.752  14.723 -0.4494 -0.8272  0.3137
  526TMC3    C5 7810   2.170   1.670  14.824  0.5917 -0.6774 -0.6497
  526TMC3    C6 7811   2.071   1.703  14.911  0.4278 -0.3997 -0.8741
  526TMC3     C 7812   2.182   1.949  14.582 -0.0079  0.0016 -0.2812
  526TMC3     O 7813   2.247   1.885  14.495  0.0714 -0.2440 -0.0901
  526TMC3     H 7814   1.971   1.984  14.749 -1.2036 -1.4258 -1.3396
  526TMC3    H1 7815   2.285   1.722  14.657  0.4780  1.0847  0.5572
  526TMC3    H2 7816   2.048   1.641  14.997  0.4108  1.3345  0.3607
  526TMC3    C7 7817   2.267   1.575  14.869 -1.1046 -0.3303  0.5651
  526TMC3    C8 7818   1.883   1.845  14.959  0.8676 -0.2023  0.5119
  526TMC3    O1 7819   2.279   1.563  14.989 -0.2577  0.7708 -0.1656
  526TMC3    O2 7820   1.850   1.960  14.971 -0.3075 -0.3855  0.1074
  527MPD2     C 7821   4.078   0.305   0.906  0.6183 -0.1057  1.0283
  527MPD2    C1 7822   4.128   0.270   1.027  0.3400 -0.1173  0.3293
  527MPD2    C2 7823   4.268   0.283   1.048 -0.2211  0.5443  0.1256
  527MPD2    C3 7824   4.357   0.319   0.941 -0.1784  0.4041  0.2913
  527MPD2    C4 7825   4.295   0.349   0.825  0.4333  0.0732  0.8336
  527MPD2    C5 7826   4.166   0.331   0.807  0.8129  0.1843  0.3478
  527MPD2     H 7827   4.310   0.259   1.145 -2.5112  1.9960  1.4596
  527MPD2    H1 7828   4.345   0.357   0.730  1.3661 -0.8804  1.2442
  527MPD2    H2 7829   3.974   0.292   0.875  1.1489 -0.7210 -0.5252
  527MPD2    H3 7830   4.119   0.360   0.713  0.7020 -1.5779 -0.1268
  527MPD2     N 7831   4.498   0.321   0.957 -0.4464 -0.4784 -0.4590
  527MPD2    H5 7832   4.537   0.281   1.042  0.0959 -1.4681 -1.1601
  527MPD2    N1 7833   4.055   0.217   1.136 -0.4959  0.0461 -0.0929
  527MPD2    H7 7834   4.110   0.186   1.215  1.0412 -0.3487 -1.3326
  528TMC3    C1 7835   3.863   0.149   1.272 -0.2841  0.1227  0.2182
  528TMC3    C2 7836   3.946   0.093   1.372  0.7777 -0.0473  0.3881
  528TMC3    C3 7837   3.882   0.062   1.489  0.0645 -0.6376 -0.4066
  528TMC3    C4 7838   3.723   0.158   1.285  0.0417  0.1226  0.4728
  528TMC3    C5 7839   3.674   0.130   1.414 -0.3509 -0.2315  1.0664
  528TMC3    C6 7840   3.749   0.074   1.514 -0.3645 -0.1486  0.7852
  528TMC3     C 7841   3.915   0.203   1.144 -0.1159 -0.1137  0.0813
  528TMC3     O 7842   3.836   0.245   1.063 -0.0389 -0.2347 -0.4240
  528TMC3     H 7843   4.053   0.104   1.360  0.8141 -0.9979 -0.1055
  528TMC3    H1 7844   3.657   0.192   1.205  0.8423  2.3390  0.7696
  528TMC3    H2 7845   3.710   0.040   1.609 -0.5340  0.0080  0.7720
  528TMC3    C7 7846   3.531   0.147   1.437 -0.1739  0.4032 -0.1677
  528TMC3    C8 7847   3.972   0.057   1.608 -0.2311 -0.1346 -0.1166
  528TMC3    O1 7848   3.464   0.184   1.341 -0.0561 -0.1247 -0.2556
  528TMC3    O2 7849   4.069   0.128   1.601 -0.8202  0.2100  0.6599
  529MPD2     C 7850   2.356   2.970   0.411  0.1295 -0.7086 -0.6838
  529MPD2    C1 7851   2.218   2.958   0.424 -0.6323  0.3292 -0.2937
  529MPD2    C2 7852   2.142   3.013   0.321  0.0429  0.3626 -0.2709
  529MPD2    C3 7853   2.208   3.081   0.221 -0.4143  0.7964 -0.2270
  529MPD2    C4 7854   2.342   3.084   0.211  0.5744 -0.0793  0.2992
  529MPD2    C5 7855   2.422   3.022   0.302 -0.9013  0.1905  0.2323
  529MPD2     H 7856   2.033   3.007   0.326 -0.0153  1.0086 -0.7365
  529MPD2    H1 7857   2.390   3.132   0.127  1.0533  0.3256  0.8024
  529MPD2    H2 7858   2.416   2.939   0.495  0.8090  0.6008 -0.6793
  529MPD2    H3 7859   2.527   3.042   0.291 -1.0358 -0.3807 -2.2283
  529MPD2     N 7860   2.141   3.160   0.122 -0.9736  0.1170 -0.2415
  529MPD2    H5 7861   2.195   3.217   0.059  0.4621 -1.1929 -0.1798
  529MPD2    N1 7862   2.155   2.921   0.540  0.1968  0.0108 -0.2860
  529MPD2    H7 7863   2.054   2.915   0.547  0.3398 -1.5460  0.5280
  530TMC3    C1 7864   2.111   2.850   0.749 -0.6412  0.6838  0.5277
  530TMC3    C2 7865   2.153   2.771   0.856  0.0610 -0.6358 -0.3680
  530TMC3    C3 7866   2.064   2.768   0.961  0.6377 -0.8642 -0.4836
  530TMC3    C4 7867   2.001   2.934   0.751 -0.1264 -0.1905  0.5498
  530TMC3    C5 7868   1.926   2.931   0.866  0.4011  0.7963  0.3161
  530TMC3    C6 7869   1.946   2.837   0.965 -0.3091  0.1740 -0.3327
  530TMC3     C 7870   2.212   2.866   0.647 -0.3471  0.0637  0.0219
  530TMC3     O 7871   2.329   2.836   0.675  0.1630  0.4238  0.0544
  530TMC3     H 7872   2.238   2.704   0.854  0.7597  0.3159 -2.3350
  530TMC3    H1 7873   1.988   3.010   0.675 -2.0095 -0.4662  0.5883
  530TMC3    H2 7874   1.892   2.824   1.058 -0.5657 -0.2028 -0.5323
  530TMC3    C7 7875   1.826   3.036   0.887 -0.5477  0.1864 -0.0848
  530TMC3    C8 7876   2.101   2.686   1.080 -0.8620  0.0473  0.2554
  530TMC3    O1 7877   1.829   3.126   0.806 -0.6116  0.1128  0.6117
  530TMC3    O2 7878   2.012   2.668   1.164  0.8359 -0.3712  0.3258
  531MPD2     C 7879   1.443   1.030  12.698  0.1585 -0.3682 -0.2021
  531MPD2    C1 7880   1.325   1.042  12.767 -0.1331  0.0351 -0.1169
  531MPD2    C2 7881   1.235   0.954  12.725  0.6087 -0.7180  0.6707
  531MPD2    C3 7882   1.242   0.859  12.626  0.3744 -0.6363  0.1921
  531MPD2    C4 7883   1.358   0.850  12.555 -0.0609  0.2096  0.0474
  531MPD2    C5 7884   1.460   0.938  12.597  0.4676  0.2968 -0.4228
  531MPD2     H 7885   1.149   0.935  12.788 -0.5516 -0.8350 -0.9330
  531MPD2    H1 7886   1.365   0.785  12.469  0.9411  1.9249 -1.1435
  531MPD2    H2 7887   1.523   1.100  12.719 -2.6061  2.4428  1.0704
  531MPD2    H3 7888   1.556   0.923  12.548  0.3502  0.1779 -0.6132
  531MPD2     N 7889   1.146   0.757  12.632 -0.3858 -0.4096  0.0934
  531MPD2    H5 7890   1.088   0.752  12.715 -1.5091 -0.3564 -0.6880
  531MPD2    N1 7891   1.313   1.139  12.876  0.5412  0.0225 -0.1096
  531MPD2    H7 7892   1.392   1.201  12.891  0.4175 -0.1356  1.2079
  532TMC3    C1 7893   1.212   1.258  13.040 -0.4764  0.2198 -0.3181
  532TMC3    C2 7894   1.086   1.300  13.093 -0.0167  0.1726 -0.1969
  532TMC3    C3 7895   1.057   1.290  13.224 -0.7287  0.6094 -0.6816
  532TMC3    C4 7896   1.300   1.211  13.136 -0.4745  0.2356  0.4342
  532TMC3    C5 7897   1.266   1.210  13.269 -0.4952 -0.0271 -0.0967
  532TMC3    C6 7898   1.151   1.255  13.316  0.2454 -0.2555  0.1248
  532TMC3     C 7899   1.195   1.173  12.930 -0.5252  0.2619 -0.4241
  532TMC3     O 7900   1.081   1.140  12.904  0.0288 -0.3824  0.6784
  532TMC3     H 7901   1.014   1.344  13.024  1.6422  0.9400 -1.4327
  532TMC3    H1 7902   1.399   1.186  13.099 -1.5079 -1.8915 -0.8805
  532TMC3    H2 7903   1.132   1.255  13.423 -2.8558 -0.3042 -0.4200
  532TMC3    C7 7904   1.369   1.158  13.358  0.2511  0.0835 -1.0706
  532TMC3    C8 7905   0.925   1.234  13.250 -0.4038  0.1512 -0.3713
  532TMC3    O1 7906   1.385   1.201  13.471  0.2006 -0.7818 -0.0972
  532TMC3    O2 7907   0.887   1.238  13.368 -0.1900  0.1222 -0.4953
  533TMC3    C1 7908   1.946   2.705  14.473 -0.7990  0.3456 -0.1855
  533TMC3    C2 7909   2.048   2.795  14.481 -0.1361  0.2573  0.0294
  533TMC3    C3 7910   2.017   2.922  14.524  0.7436  0.2757 -0.2532
  533TMC3    C4 7911   1.820   2.736  14.515  0.5768  0.4197  0.0442
  533TMC3    C5 7912   1.799   2.855  14.577 -0.7955  0.4035  0.0965
  533TMC3    C6 7913   1.896   2.953  14.577 -0.0411  0.2392  0.2467
  533TMC3     C 7914   1.987   2.562  14.484  0.0444 -0.2579 -0.3308
  533TMC3     O 7915   1.901   2.481  14.523 -0.3769 -0.4168 -0.0668
  533TMC3     H 7916   2.149   2.771  14.447  0.1332 -0.7807  1.5839
  533TMC3    H1 7917   1.745   2.658  14.515 -0.5942  1.5433 -2.3595
  533TMC3    H2 7918   1.887   3.047  14.630  1.4619  1.5289 -1.7925
  533TMC3    C7 7919   1.693   2.846  14.672  0.0901 -0.3720 -0.0794
  533TMC3    C8 7920   2.129   3.007  14.549  0.6911  0.0308  0.1248
  533TMC3    O1 7921   1.632   2.742  14.678 -0.2285 -0.0673 -0.1181
  533TMC3    O2 7922   2.242   2.952  14.566 -0.0600 -0.5003  0.8677
  534MPD2     C 7923   4.043   3.703   1.920  0.1062 -0.1137 -0.8946
  534MPD2    C1 7924   4.070   3.752   1.792  0.1755  0.3109 -0.1038
  534MPD2    C2 7925   4.040   3.669   1.680 -0.1812  0.1053  0.4433
  534MPD2    C3 7926   3.981   3.545   1.698 -0.9222  0.6407  0.5326
  534MPD2    C4 7927   3.954   3.509   1.826 -0.3022 -0.3931  0.5876
  534MPD2    C5 7928   3.982   3.584   1.936 -0.0464  0.1572  0.3077
  534MPD2     H 7929   4.068   3.704   1.581  1.5449 -1.2526  0.4518
  534MPD2    H1 7930   3.897   3.419   1.848 -0.6840 -0.3975 -0.4088
  534MPD2    H2 7931   4.072   3.760   2.008  1.5801 -1.3262 -0.5787
  534MPD2    H3 7932   3.963   3.553   2.038 -0.3329  1.9134  0.7855
  534MPD2     N 7933   3.943   3.460   1.594 -0.3660  0.3444  0.0263
  534MPD2    H5 7934   3.896   3.371   1.611 -0.0926  0.0522 -0.7435
  534MPD2    N1 7935   4.122   3.885   1.772  0.2774 -0.7338 -0.5279
  534MPD2    H7 7936   4.124   3.918   1.676 -0.0052  1.1383  0.1018
  535TMC3    C1 7937   3.890   3.392   1.375  0.3094  0.6523  0.8222
  535TMC3    C2 7938   3.770   3.345   1.419  0.6145  0.6838  0.7173
  535TMC3    C3 7939   3.676   3.307   1.323 -0.1832  0.0787  1.1865
  535TMC3    C4 7940   3.915   3.409   1.240  0.5182  0.1567  1.3261
  535TMC3    C5 7941   3.815   3.377   1.155  0.4272  0.6840  0.5812
  535TMC3    C6 7942   3.698   3.326   1.189 -0.3200 -0.0042 -0.3222
  535TMC3     C 7943   3.960   3.483   1.462 -0.5329 -0.0508  0.8218
  535TMC3     O 7944   4.024   3.572   1.402 -0.0553  0.3761 -0.0265
  535TMC3     H 7945   3.766   3.319   1.524  1.4179  0.5150  0.7116
  535TMC3    H1 7946   4.011   3.447   1.206 -0.3383  1.2159  0.1263
  535TMC3    H2 7947   3.616   3.311   1.120 -1.5805 -0.0705  1.1918
  535TMC3    C7 7948   3.832   3.419   1.014  0.5586 -0.5446 -0.2570
  535TMC3    C8 7949   3.555   3.236   1.361 -0.3092 -0.7837 -0.9744
  535TMC3    O1 7950   3.945   3.417   0.971  0.8828 -0.9004 -0.2583
  535TMC3    O2 7951   3.494   3.188   1.267 -0.0648  0.6258  0.3496
  536MPD2     C 7952   2.249   1.378  16.404 -0.0871 -0.5083  0.2631
  536MPD2    C1 7953   2.345   1.477  16.413  0.0436 -0.5903 -0.0404
  536MPD2    C2 7954   2.351   1.581  16.321 -0.3345 -0.3300 -0.5087
  536MPD2    C3 7955   2.244   1.593  16.230  0.5669 -0.2290 -0.5685
  536MPD2    C4 7956   2.148   1.492  16.217  0.7286 -0.1887 -0.3290
  536MPD2    C5 7957   2.160   1.380  16.303 -0.2186  0.5325  0.5381
  536MPD2     H 7958   2.423   1.662  16.324 -1.9577  1.1744 -2.1529
  536MPD2    H1 7959   2.076   1.484  16.136 -2.1394  1.2273  2.1052
  536MPD2    H2 7960   2.252   1.299  16.478 -1.1704 -1.2162 -0.4647
  536MPD2    H3 7961   2.084   1.303  16.300  0.8929 -0.4546 -2.3221
  536MPD2     N 7962   2.230   1.703  16.144  0.4310  0.1816 -0.2261
  536MPD2    H5 7963   2.137   1.718  16.105 -0.8873 -0.7905  2.5541
  536MPD2    N1 7964   2.428   1.481  16.530 -0.5292  0.9277 -0.5317
  536MPD2    H7 7965   2.397   1.409  16.595  0.8652 -1.3497 -2.3784
  537TMC3    C1 7966   2.593   1.553  16.687  0.4520  0.5243 -0.0146
  537TMC3    C2 7967   2.653   1.668  16.731  0.3182  0.0929 -0.5885
  537TMC3    C3 7968   2.672   1.687  16.866 -0.5860  0.6005 -0.9606
  537TMC3    C4 7969   2.558   1.456  16.773 -0.5365 -0.6954 -0.6258
  537TMC3    C5 7970   2.583   1.469  16.900 -0.1268 -0.0985  0.0368
  537TMC3    C6 7971   2.643   1.582  16.948  0.4030  0.5620 -0.0610
  537TMC3     C 7972   2.531   1.573  16.558  0.7133 -0.6600 -0.1934
  537TMC3     O 7973   2.592   1.653  16.488 -0.3502 -0.9386  0.6428
  537TMC3     H 7974   2.680   1.747  16.662  0.6322  1.6069  1.2649
  537TMC3    H1 7975   2.513   1.365  16.736  0.8897 -1.2802 -0.9271
  537TMC3    H2 7976   2.668   1.604  17.051 -2.6354  1.6512  0.4670
  537TMC3    C7 7977   2.550   1.353  16.980  0.1959  0.3474 -0.2774
  537TMC3    C8 7978   2.745   1.798  16.917 -0.0893  0.3572 -0.7362
  537TMC3    O1 7979   2.484   1.264  16.933  0.7094 -0.4577  0.1875
  537TMC3    O2 7980   2.839   1.776  16.995  0.2052 -0.0952  0.1419
  538TMC3    C1 7981   0.011   4.688  10.582 -0.1853  0.2056  0.1954
  538TMC3    C2 7982   0.131   0.003  10.521 -0.0244  0.1245 -0.5753
  538TMC3    C3 7983   0.116   0.100  10.425  0.3680  0.4819 -0.3039
  538TMC3    C4 7984   4.606   0.008  10.546  0.0224 -0.3033  0.2934
  538TMC3    C5 7985   4.599   0.109  10.458 -0.2421 -0.1720  0.6813
  538TMC3    C6 7986   4.715   0.150  10.395  0.3293  0.2420  0.0849
  538TMC3     C 7987   0.011   4.681  10.729 -0.0970 -0.5086  0.5699
  538TMC3     O 7988   4.627   4.655  10.782 -0.4604 -0.1515  0.2639
  538TMC3     H 7989   0.230   4.695  10.554 -0.7445 -1.2866  0.2680
  538TMC3    H1 7990   4.514   4.696  10.591  1.5735 -1.1054  2.8483
  538TMC3    H2 7991   4.718   0.212  10.306 -0.6683 -0.0706 -0.1708
  538TMC3    C7 7992   4.483   0.199  10.474 -0.2818 -0.0733 -0.4684
  538TMC3    C8 7993   0.226   0.102  10.322 -0.1686  0.6160 -0.2810
  538TMC3    O1 7994   4.381   0.143  10.503 -0.0194 -0.0564 -0.0929
  538TMC3    O2 7995   0.298   0.003  10.328 -0.2634  0.3352 -0.0330
  539MPD2     C 7996   4.384   4.323  11.809  0.6196  0.1842 -0.0587
  539MPD2    C1 7997   4.366   4.317  11.669  0.4633 -0.1151 -0.3334
  539MPD2    C2 7998   4.296   4.423  11.608 -0.7572  0.6253  0.6974
  539MPD2    C3 7999   4.244   4.528  11.678 -0.3139  0.0661 -0.1811
  539MPD2    C4 8000   4.272   4.533  11.814  0.2584  0.3334 -1.2236
  539MPD2    C5 8001   4.343   4.433  11.878  0.3149  0.1010  0.0408
  539MPD2     H 8002   4.280   4.412  11.501 -0.0617 -0.0836  0.6636
  539MPD2    H1 8003   4.236   4.616  11.872 -0.8235 -0.0830 -1.3056
  539MPD2    H2 8004   4.428   4.241  11.865 -2.1565 -0.7065  0.8586
  539MPD2    H3 8005   4.368   4.436  11.984  1.2800  1.1898 -0.2191
  539MPD2     N 8006   4.166   4.631  11.622  0.0977 -0.0885 -0.1612
  539MPD2    H5 8007   4.141   4.711  11.679 -0.1024  0.1141 -0.5373
  539MPD2    N1 8008   4.410   4.213  11.587 -0.6631 -0.3741  0.4337
  539MPD2    H7 8009   4.391   4.219  11.487  0.0834  4.7209  0.6083
  540TMC3    C1 8010   4.057   0.045  11.456 -0.4677  0.2450 -0.3654
  540TMC3    C2 8011   4.048   0.076  11.323  0.0529  0.6660  0.2369
  540TMC3    C3 8012   3.998   0.196  11.286 -0.0124  0.8519 -0.5656
  540TMC3    C4 8013   4.015   0.128  11.548  0.1628 -0.0378  1.0714
  540TMC3    C5 8014   3.982   0.256  11.510  0.0273  0.0790 -0.2634
  540TMC3    C6 8015   3.978   0.291  11.380 -0.1046  0.2499 -0.2949
  540TMC3     C 8016   4.139   4.649  11.486 -0.0937 -0.5252 -0.2427
  540TMC3     O 8017   4.199   4.597  11.395 -0.0498 -0.1557 -0.2373
  540TMC3     H 8018   4.095   0.012  11.248 -1.8357 -0.6586  0.1943
  540TMC3    H1 8019   3.987   0.088  11.645 -1.6718 -1.7499 -0.1617
  540TMC3    H2 8020   3.931   0.382  11.345 -0.0663 -0.8365 -3.1353
  540TMC3    C7 8021   3.889   0.333  11.594  0.4145  0.2102  0.9450
  540TMC3    C8 8022   4.003   0.228  11.148 -0.1915  0.2646 -0.1774
  540TMC3    O1 8023   3.818   0.419  11.550 -0.4795  0.0655 -0.0396
  540TMC3    O2 8024   4.035   0.342  11.120  0.1627 -0.3191 -0.4547
  541MPD2     C 8025   2.859   0.976  13.000  0.2473  0.2225  0.3427
  541MPD2    C1 8026   2.718   0.985  12.991 -0.9903  0.0479  0.3812
  541MPD2    C2 8027   2.669   1.070  12.885 -0.4752  0.4103  1.0053
  541MPD2    C3 8028   2.761   1.142  12.805 -0.6625 -0.2837  0.1481
  541MPD2    C4 8029   2.898   1.121  12.822 -0.6266  0.5293  0.1795
  541MPD2    C5 8030   2.942   1.042  12.918 -0.0091 -0.4121 -0.0940
  541MPD2     H 8031   2.562   1.082  12.869  0.2018  2.2904 -2.0824
  541MPD2    H1 8032   2.967   1.173  12.756  2.5622 -1.2974  2.0954
  541MPD2    H2 8033   2.911   0.918  13.075  0.5082  0.2396  0.1767
  541MPD2    H3 8034   3.046   1.013  12.927 -0.0113 -0.9868 -1.9223
  541MPD2     N 8035   2.730   1.235  12.705 -0.0886  0.2061 -0.1572
  541MPD2    H5 8036   2.789   1.261  12.626 -1.0952  2.9636 -0.0068
  541MPD2    N1 8037   2.633   0.900  13.060  0.1087 -0.2594  0.0465
  541MPD2    H7 8038   2.540   0.893  13.021  0.5329  1.6584 -1.3221
  542TMC3    C1 8039   2.580   1.362  12.565  0.1303  0.1635  0.1106
  542TMC3    C2 8040   2.653   1.339  12.454 -0.0579  0.8287 -0.2598
  542TMC3    C3 8041   2.591   1.356  12.337  0.1923  0.3249  0.1823
  542TMC3    C4 8042   2.463   1.427  12.557 -0.3688  0.2843  0.1994
  542TMC3    C5 8043   2.411   1.463  12.435  0.0660 -0.4536 -0.0131
  542TMC3    C6 8044   2.471   1.419  12.318  0.2362  0.3474  0.4838
  542TMC3     C 8045   2.605   1.299  12.699  0.1001  0.1775  0.2892
  542TMC3     O 8046   2.514   1.296  12.780  0.3973  0.7947 -0.3758
  542TMC3     H 8047   2.754   1.301  12.461 -0.5340 -0.9315 -3.0040
  542TMC3    H1 8048   2.405   1.451  12.646  0.5310  1.0277  0.5806
  542TMC3    H2 8049   2.418   1.411  12.223  1.5401  1.0227 -0.2916
  542TMC3    C7 8050   2.299   1.561  12.435  0.4866 -0.1998 -0.5894
  542TMC3    C8 8051   2.652   1.278  12.232 -0.3699 -0.3900  0.1929
  542TMC3    O1 8052   2.236   1.557  12.538  0.1113  0.2131  0.3818
  542TMC3    O2 8053   2.778   1.268  12.228 -0.4649 -0.1703 -0.1053
  543TMC3    C1 8054   1.189   2.628  17.346 -0.2157  0.6929 -0.5195
  543TMC3    C2 8055   1.169   2.502  17.392  0.4284 -0.2327  0.1793
  543TMC3    C3 8056   1.154   2.490  17.529  0.1735 -0.1788  0.3224
  543TMC3    C4 8057   1.189   2.741  17.428 -0.1582  0.4339 -0.3312
  543TMC3    C5 8058   1.176   2.723  17.559  0.4718  0.1104 -0.3433
  543TMC3    C6 8059   1.162   2.597  17.614 -0.1748  0.2647  0.0488
  543TMC3     C 8060   1.238   2.643  17.214  0.7061 -0.2818 -0.1677
  543TMC3     O 8061   1.307   2.550  17.172 -0.5382  0.6321  0.1202
  543TMC3     H 8062   1.172   2.415  17.328  0.6379 -0.4676  0.5115
  543TMC3    H1 8063   1.222   2.838  17.390  0.7602  0.0725 -0.4676
  543TMC3    H2 8064   1.128   2.573   0.019 -0.1768 -1.4923 -0.3743
  543TMC3    C7 8065   1.156   2.850  17.632 -0.4591  0.2051 -0.1683
  543TMC3    C8 8066   1.183   2.364  17.587 -0.4771 -0.3064  0.5523
  543TMC3    O1 8067   1.129   2.948  17.564  0.0326  0.5764 -0.1590
  543TMC3    O2 8068   1.277   2.360  17.665  0.7393 -0.3772  0.3724
  544MPD2     C 8069   1.074   1.863  17.570  0.1438  0.4227 -0.1346
  544MPD2    C1 8070   1.192   1.921  17.605 -0.0915  0.1689  0.3364
  544MPD2    C2 8071   1.194   2.057  17.618 -0.4849 -0.2698  0.5408
  544MPD2    C3 8072   1.083   2.130  17.580  1.0233 -0.2242  1.0269
  544MPD2    C4 8073   0.968   2.068  17.536 -0.0125  0.8356 -0.3213
  544MPD2    C5 8074   0.962   1.932  17.541 -0.3590 -0.3475  0.2274
  544MPD2     H 8075   1.281   2.112  17.650 -0.7756 -1.1141  2.8114
  544MPD2    H1 8076   0.889   2.115  17.480 -0.3738 -0.2781 -0.7501
  544MPD2    H2 8077   1.064   1.755  17.576 -0.0166  0.3305 -2.1594
  544MPD2    H3 8078   0.876   1.888  17.493  0.2741 -1.1158 -0.1955
  544MPD2     N 8079   1.077   2.272  17.564  0.2273  0.6223  0.0596
  544MPD2    H5 8080   0.988   2.313  17.536  0.8774  1.9422 -0.0960
  544MPD2    N1 8081   1.296   1.833  17.639  0.1718 -0.0319 -1.0005
  544MPD2    H7 8082   1.289   1.738  17.605 -2.0413  0.3385 -1.6011
  545TMC3    C1 8083   1.516   1.756   0.016  0.5995  0.1660 -0.4380
  545TMC3    C2 8084   1.653   1.779   0.013 -0.6595 -0.1175 -0.2160
  545TMC3    C3 8085   1.741   1.672   0.001 -1.0310 -0.2736 -0.2904
  545TMC3    C4 8086   1.465   1.626   0.028  0.1669 -0.2838  0.0097
  545TMC3    C5 8087   1.563   1.523   0.023  0.8192 -0.1544 -0.0401
  545TMC3    C6 8088   1.703   1.540   0.009  0.3614  0.2265  0.4092
  545TMC3     C 8089   1.416   1.863   0.004  0.8255 -0.3525 -0.2278
  545TMC3     O 8090   1.441   1.967   0.061  0.0600 -0.9992 -0.5442
  545TMC3     H 8091   1.685   1.881  17.689 -1.2710  0.0361 -0.4265
  545TMC3    H1 8092   1.361   1.598   0.045  0.3451  1.3702  3.8419
  545TMC3    H2 8093   1.773   1.461  17.679 -0.5735 -0.5214  0.1478
  545TMC3    C7 8094   1.524   1.394   0.080 -0.1616 -0.1022  0.0853
  545TMC3    C8 8095   1.887   1.682   0.001 -0.3843 -0.3690 -0.1350
  545TMC3    O1 8096   1.403   1.365   0.067 -0.0161  0.2050 -0.1416
  545TMC3    O2 8097   1.956   1.600  17.637  0.0288 -0.3431  0.5103
  546MPD2     C 8098   2.938   2.511  17.547 -0.0508  0.6263  0.8415
  546MPD2    C1 8099   2.890   2.555  17.427  0.0924 -0.8211  0.4171
  546MPD2    C2 8100   2.945   2.671  17.375  0.0435 -0.1033 -0.3786
  546MPD2    C3 8101   3.056   2.728  17.429  0.3160  0.9990 -0.5630
  546MPD2    C4 8102   3.116   2.686  17.546 -0.1899 -0.4088 -0.9360
  546MPD2    C5 8103   3.053   2.578  17.600  0.3657  0.6109  0.9037
  546MPD2     H 8104   2.901   2.710  17.284  0.5415  2.2508  0.3914
  546MPD2    H1 8105   3.211   2.723  17.583 -2.4344  2.7542  1.6516
  546MPD2    H2 8106   2.894   2.429  17.602 -1.8024  2.2479  1.8819
  546MPD2    H3 8107   3.102   2.542  17.690  0.3645 -0.8128  0.3276
  546MPD2     N 8108   3.111   2.845  17.367  0.3722  0.4626 -0.3868
  546MPD2    H5 8109   3.190   2.885  17.416 -0.8578  0.9129  1.2000
  546MPD2    N1 8110   2.774   2.494  17.380 -0.0054  0.2739 -0.1481
  546MPD2    H7 8111   2.744   2.417  17.438 -1.7463  0.1281 -1.2370
  547TMC3    C1 8112   2.593   2.456  17.226 -0.4124 -0.1029  0.1680
  547TMC3    C2 8113   2.507   2.514  17.137 -0.0897  0.1342  0.2634
  547TMC3    C3 8114   2.403   2.438  17.088 -0.3469 -0.2949  0.5073
  547TMC3    C4 8115   2.593   2.324  17.251  0.5353 -0.2665  0.4261
  547TMC3    C5 8116   2.499   2.249  17.181  0.2908  0.0459 -0.3879
  547TMC3    C6 8117   2.403   2.301  17.090  0.2358 -0.8202 -0.1602
  547TMC3     C 8118   2.711   2.530  17.262  0.2587  0.9980  0.0875
  547TMC3     O 8119   2.745   2.609  17.176  0.2234 -0.3487 -0.0971
  547TMC3     H 8120   2.527   2.616  17.108 -0.3487 -0.1422 -0.9030
  547TMC3    H1 8121   2.659   2.284  17.328 -0.7960 -2.6171  0.3392
  547TMC3    H2 8122   2.313   2.249  17.060  0.2736 -0.2253 -1.3102
  547TMC3    C7 8123   2.491   2.107  17.217 -0.2729  0.0400 -0.5538
  547TMC3    C8 8124   2.294   2.506  17.019  0.8559  0.0403 -0.2129
  547TMC3    O1 8125   2.528   2.076  17.330  0.2666 -0.1991 -0.2482
  547TMC3    O2 8126   2.216   2.440  16.948  0.2047  0.2264  0.3083
  548MPD2     C 8127   3.227   3.113  12.084 -0.5752 -0.2714  0.6758
  548MPD2    C1 8128   3.180   3.015  12.177  0.6704 -0.5167  0.6410
  548MPD2    C2 8129   3.264   2.923  12.226 -0.1028 -0.7453 -0.1269
  548MPD2    C3 8130   3.393   2.924  12.189  0.3792 -0.6038  0.0258
  548MPD2    C4 8131   3.441   3.011  12.101  0.1572  0.0582 -0.4311
  548MPD2    C5 8132   3.357   3.113  12.046  0.5135 -0.5841  0.2079
  548MPD2     H 8133   3.228   2.849  12.298 -1.9806 -0.0948 -0.4024
  548MPD2    H1 8134   3.545   3.001  12.070  0.3800 -0.1358  0.3731
  548MPD2    H2 8135   3.157   3.182  12.039  0.0875  0.2354  0.4338
  548MPD2    H3 8136   3.391   3.181  11.969 -0.4898 -1.0669 -0.6506
  548MPD2     N 8137   3.473   2.823  12.250 -0.9314 -0.5066 -0.1464
  548MPD2    H5 8138   3.430   2.772  12.326  1.0917 -0.0868  1.2771
  548MPD2    N1 8139   3.048   3.026  12.227 -0.0974  0.2008 -0.2644
  548MPD2    H7 8140   2.999   3.114  12.217  1.7382  1.2783  0.3062
  549TMC3    C1 8141   2.838   2.948  12.322 -0.0745  0.2132  0.1928
  549TMC3    C2 8142   2.800   3.076  12.343 -0.0415 -0.6848  0.0137
  549TMC3    C3 8143   2.676   3.095  12.403 -0.2240 -0.1316 -0.1759
  549TMC3    C4 8144   2.761   2.841  12.372 -0.0535 -0.0594  0.2171
  549TMC3    C5 8145   2.649   2.862  12.445 -0.2051  0.4694 -0.2538
  549TMC3    C6 8146   2.601   2.992  12.446 -0.7704 -0.0024 -0.2847
  549TMC3     C 8147   2.976   2.923  12.291 -0.1196  0.2145 -0.3389
  549TMC3     O 8148   3.007   2.807  12.313  0.1007  0.1842  0.0526
  549TMC3     H 8149   2.871   3.158  12.330 -0.2225 -0.2580  1.6652
  549TMC3    H1 8150   2.789   2.739  12.347 -0.6929 -0.3887  0.8482
  549TMC3    H2 8151   2.502   3.006  12.488  0.8980  0.6833  3.3730
  549TMC3    C7 8152   2.549   2.763  12.465 -0.3031  1.0616  0.3266
  549TMC3    C8 8153   2.618   3.226  12.429  0.0778 -0.1265  0.4020
  549TMC3    O1 8154   2.435   2.792  12.434  0.9918 -0.1906  0.2748
  549TMC3    O2 8155   2.492   3.228  12.423 -0.0684 -1.0156  0.1487
  550TMC3    C1 8156   1.860   0.995  12.078  0.1469  0.7064  0.4466
  550TMC3    C2 8157   1.825   1.073  12.187 -0.2415  0.0685  0.3676
  550TMC3    C3 8158   1.698   1.127  12.199 -0.2651  0.2645 -0.4448
  550TMC3    C4 8159   1.768   0.980  11.979 -0.1844  0.0727  0.2813
  550TMC3    C5 8160   1.644   1.037  11.992 -0.4594  0.2790  0.4141
  550TMC3    C6 8161   1.608   1.113  12.099  0.3280  0.3852 -0.4089
  550TMC3     C 8162   1.994   0.943  12.080 -0.4111  0.4479 -0.5026
  550TMC3     O 8163   2.079   1.000  12.144  0.2309  0.2766 -0.1151
  550TMC3     H 8164   1.891   1.075  12.273 -0.5060  3.1833  0.5270
  550TMC3    H1 8165   1.805   0.943  11.883  1.1538 -0.0280  0.8372
  550TMC3    H2 8166   1.510   1.160  12.096  0.3574  0.4127 -0.9171
  550TMC3    C7 8167   1.553   1.019  11.883 -0.3241  0.1732  0.8273
  550TMC3    C8 8168   1.649   1.155  12.329 -1.1123 -0.1563 -0.1304
  550TMC3    O1 8169   1.439   1.016  11.925 -0.2017  0.3679  0.5642
  550TMC3    O2 8170   1.733   1.168  12.413  0.8861 -0.0809  0.3238
  551TMC3    C1 8171   3.950   3.373  13.180  0.2966 -0.5330  0.4817
  551TMC3    C2 8172   4.071   3.383  13.110  0.6974 -0.2135 -0.1972
  551TMC3    C3 8173   4.164   3.463  13.172  0.5934  0.5018 -0.6194
  551TMC3    C4 8174   3.926   3.439  13.299 -0.3615  0.1382  0.1678
  551TMC3    C5 8175   4.019   3.528  13.349  0.6207  0.0834  0.0028
  551TMC3    C6 8176   4.142   3.528  13.289 -0.2433 -0.4047  0.3901
  551TMC3     C 8177   3.842   3.286  13.116  0.3204 -0.0064  0.4608
  551TMC3     O 8178   3.868   3.250  13.003  0.0297 -0.2447  0.4990
  551TMC3     H 8179   4.086   3.331  13.016  2.6200  1.0292 -0.5809
  551TMC3    H1 8180   3.824   3.436  13.335 -0.9124  1.3134 -1.2873
  551TMC3    H2 8181   4.226   3.579  13.332 -1.1610  2.9343 -1.7872
  551TMC3    C7 8182   4.018   3.577  13.486 -0.1636  0.2637 -0.6367
  551TMC3    C8 8183   4.291   3.464  13.110  0.3570 -0.1804 -0.3437
  551TMC3    O1 8184   4.120   3.616  13.536  0.7916 -0.8595  0.4503
  551TMC3    O2 8185   4.325   3.364  13.050  0.1544  0.2053  0.2612
  552MPD2     C 8186   1.056   0.905  13.930  0.6399  0.0599 -0.4908
  552MPD2    C1 8187   1.044   0.761  13.926  0.7801  0.2047  0.0521
  552MPD2    C2 8188   1.116   0.688  14.017  0.0314 -0.1243  0.0982
  552MPD2    C3 8189   1.199   0.754  14.106  0.1750 -0.3681 -0.7031
  552MPD2    C4 8190   1.208   0.895  14.110 -0.1619  0.0009 -0.6490
  552MPD2    C5 8191   1.125   0.966  14.027 -0.3879 -0.0574 -0.0243
  552MPD2     H 8192   1.100   0.581  14.020 -0.9809  0.0742  2.2089
  552MPD2    H1 8193   1.284   0.950  14.164 -0.1203  0.6790 -1.4036
  552MPD2    H2 8194   1.008   0.965  13.854  0.4511  0.0227 -0.4001
  552MPD2    H3 8195   1.116   1.074  14.027 -1.7430 -0.1743 -0.0941
  552MPD2     N 8196   1.290   0.693  14.194  0.2281 -0.2362 -0.4070
  552MPD2    H5 8197   1.344   0.753  14.255 -0.5512 -0.4597  0.5035
  552MPD2    N1 8198   0.965   0.689  13.834  0.8342  0.1885 -0.3245
  552MPD2    H7 8199   0.968   0.588  13.837 -0.3771  0.1988  1.5363
  553TMC3    C1 8200   0.838   0.631  13.647 -0.3662  0.2595  0.5038
  553TMC3    C2 8201   0.848   0.657  13.511 -0.8141 -0.0766 -0.1170
  553TMC3    C3 8202   0.827   0.556  13.420 -0.4267  0.3715 -0.3229
  553TMC3    C4 8203   0.832   0.500  13.696  0.7173  0.1401 -0.1691
  553TMC3    C5 8204   0.836   0.399  13.598  0.2135 -0.1051  0.1618
  553TMC3    C6 8205   0.818   0.430  13.465  0.4926  0.0545 -1.2989
  553TMC3     C 8206   0.888   0.737  13.728 -0.3841  0.2145 -0.9299
  553TMC3     O 8207   0.885   0.852  13.680 -0.2211 -0.1838  0.2587
  553TMC3     H 8208   0.866   0.756  13.472  1.8399 -0.7813 -0.6395
  553TMC3    H1 8209   0.802   0.474  13.797 -0.5974 -2.0293 -1.1130
  553TMC3    H2 8210   0.821   0.344  13.399 -1.7493  0.4649 -1.9192
  553TMC3    C7 8211   0.945   0.304  13.603 -0.1489 -0.0586  0.1569
  553TMC3    C8 8212   0.905   0.570  13.297  0.5136  0.7764 -0.0080
  553TMC3    O1 8213   0.969   0.224  13.514 -0.2038 -0.3520  0.2893
  553TMC3    O2 8214   1.005   0.646  13.297 -0.1773  0.0288 -0.6371
  554TMC3    C1 8215   3.437   4.704  11.676  0.6555  0.7827 -0.6378
  554TMC3    C2 8216   3.427   4.581  11.617 -0.7048 -0.8592 -0.0641
  554TMC3    C3 8217   3.502   4.548  11.510  0.0263 -0.7857  0.3254
  554TMC3    C4 8218   3.512   0.080  11.616 -0.3312 -0.6432  0.4463
  554TMC3    C5 8219   3.588   0.044  11.512  0.7155  0.5581 -0.0595
  554TMC3    C6 8220   3.586   4.639  11.457 -0.1923 -0.0020 -0.8192
  554TMC3     C 8221   3.460   4.708  11.813 -0.0528 -0.0611 -0.1200
  554TMC3     O 8222   3.459   0.091  11.866  0.1353  0.3841  0.7410
  554TMC3     H 8223   3.351   4.517  11.661 -0.9370 -0.4959  0.0631
  554TMC3    H1 8224   3.538   0.174  11.664 -3.1723 -0.3528  1.4212
  554TMC3    H2 8225   3.641   4.616  11.367 -0.1497 -2.8195 -0.0693
  554TMC3    C7 8226   3.656   0.145  11.424 -0.6414  0.0599 -0.6696
  554TMC3    C8 8227   3.450   4.460  11.404  0.7665  0.1156  0.3502
  554TMC3    O1 8228   3.739   0.108  11.342 -0.1762  0.3896 -0.4518
  554TMC3    O2 8229   3.451   4.505  11.290  0.1821 -0.2098  0.2773
  555TMC3    C1 8230   1.689   4.101  14.717  0.2464  1.0463  0.0258
  555TMC3    C2 8231   1.663   4.210  14.799  0.4352  0.1149  0.0943
  555TMC3    C3 8232   1.682   4.194  14.928 -0.6953  0.2356 -0.9186
  555TMC3    C4 8233   1.719   3.978  14.774 -0.2410 -0.1822 -0.3335
  555TMC3    C5 8234   1.722   3.963  14.914  0.1080  0.8883 -0.2262
  555TMC3    C6 8235   1.692   4.071  14.991 -0.2745  0.4286 -0.3624
  555TMC3     C 8236   1.695   4.096  14.567  0.1599  0.0517 -0.4562
  555TMC3     O 8237   1.772   4.013  14.514  0.3326  0.3634  0.3740
  555TMC3     H 8238   1.647   4.310  14.760  0.0128 -0.2426 -0.6463
  555TMC3    H1 8239   1.736   3.890  14.714  1.0698  1.0240 -1.7285
  555TMC3    H2 8240   1.690   4.068  15.099 -0.0420 -0.4371 -0.3809
  555TMC3    C7 8241   1.759   3.837  14.981  0.5736  0.1212 -0.1501
  555TMC3    C8 8242   1.718   4.306  15.017  0.6539  0.1885  0.1379
  555TMC3    O1 8243   1.721   3.813  15.097  0.0734  0.4417 -0.0022
  555TMC3    O2 8244   1.674   4.419  15.010  0.1878  0.4424  0.1206
  556MPD2     C 8245   0.465   1.385  10.400  0.2319 -0.0584  0.3164
  556MPD2    C1 8246   0.465   1.256  10.430  0.6169 -0.1792  0.1748
  556MPD2    C2 8247   0.465   1.164  10.325 -0.1234 -0.1007  0.8948
  556MPD2    C3 8248   0.452   1.198  10.189  0.7699  0.1701  1.0228
  556MPD2    C4 8249   0.451   1.339  10.169 -0.4015 -0.5091  0.3665
  556MPD2    C5 8250   0.463   1.433  10.269 -0.6242  0.3027  0.6743
  556MPD2     H 8251   0.453   1.058  10.346  1.9338 -0.7958 -1.4448
  556MPD2    H1 8252   0.455   1.386  10.072 -1.4177  1.0181  1.0595
  556MPD2    H2 8253   0.452   1.449  10.487 -0.9556 -2.5565  1.9760
  556MPD2    H3 8254   0.456   1.540  10.254  2.1748  0.6354  1.5604
  556MPD2     N 8255   0.439   1.095  10.091  0.1053  0.0982 -0.1329
  556MPD2    H5 8256   0.461   1.002  10.124  0.6082 -0.1310 -1.0875
  556MPD2    N1 8257   0.469   1.216  10.569  0.4868  0.1598 -0.2724
  556MPD2    H7 8258   0.476   1.286  10.642 -0.5571  0.1046 -0.1306
  557TMC3    C1 8259   0.424   0.997   9.882 -0.4074 -0.5728 -0.8223
  557TMC3    C2 8260   0.513   0.998   9.774 -0.7821  0.3794 -0.4975
  557TMC3    C3 8261   0.525   0.874   9.714  0.1061  0.1923  0.2612
  557TMC3    C4 8262   0.374   0.884   9.944  0.3534 -0.2367 -0.2894
  557TMC3    C5 8263   0.398   0.764   9.887  0.4353  0.1909  0.0891
  557TMC3    C6 8264   0.470   0.758   9.770 -0.3266 -0.3063 -0.6514
  557TMC3     C 8265   0.411   1.120   9.959 -0.6004 -0.1193  0.0373
  557TMC3     O 8266   0.393   1.223   9.894  0.0109  0.6546  0.4624
  557TMC3     H 8267   0.553   1.092   9.739 -0.9333  1.1067  1.3232
  557TMC3    H1 8268   0.306   0.888  10.028  1.1829  1.0558  0.3243
  557TMC3    H2 8269   0.470   0.667   9.712 -0.0012 -0.1993 -0.8179
  557TMC3    C7 8270   0.361   0.643   9.963  0.4139 -0.9751 -0.2712
  557TMC3    C8 8271   0.536   0.874   9.570  0.2463 -0.4070 -0.3416
  557TMC3    O1 8272   0.280   0.657  10.050 -0.7026  0.2463 -0.1645
  557TMC3    O2 8273   0.498   0.977   9.512  0.8583 -0.3534 -0.2504
  558TMC3    C1 8274   3.255   3.604  10.301 -0.2085 -0.1608  0.0343
  558TMC3    C2 8275   3.147   3.549  10.370  0.0385 -0.2497 -0.2052
  558TMC3    C3 8276   3.022   3.556  10.308 -0.4277 -0.4093 -0.4213
  558TMC3    C4 8277   3.235   3.678  10.188  0.2939 -0.1582  0.5824
  558TMC3    C5 8278   3.108   3.681  10.129 -0.3139  0.4194  0.4408
  558TMC3    C6 8279   3.004   3.615  10.184 -0.1688 -0.3935  0.0576
  558TMC3     C 8280   3.390   3.550  10.327 -0.0573  0.2286 -0.3173
  558TMC3     O 8281   3.472   3.567  10.239 -0.5847  0.1626 -0.0676
  558TMC3     H 8282   3.162   3.485  10.456  0.9162 -0.1254 -0.2697
  558TMC3    H1 8283   3.318   3.718  10.132 -0.5238 -0.4255 -0.8293
  558TMC3    H2 8284   2.905   3.616  10.141  0.9596 -1.7531 -2.5579
  558TMC3    C7 8285   3.096   3.716   9.987 -0.1277  0.2992 -0.5415
  558TMC3    C8 8286   2.915   3.553  10.410  0.1536 -0.3903 -0.3652
  558TMC3    O1 8287   3.172   3.808   9.944 -0.7160  0.3323  0.3152
  558TMC3    O2 8288   2.835   3.642  10.394 -0.0040 -0.4354 -0.1955
  559MPD2     C 8289   3.047   3.774  10.595 -0.3839 -0.6068  0.0641
  559MPD2    C1 8290   2.983   3.745  10.712 -1.1242  0.4745 -0.4149
  559MPD2    C2 8291   3.051   3.750  10.834  0.5144 -0.1012  0.4319
  559MPD2    C3 8292   3.186   3.773  10.836  0.0453  0.2568 -0.6105
  559MPD2    C4 8293   3.258   3.786  10.725  0.4227 -0.0397  0.7893
  559MPD2    C5 8294   3.183   3.788  10.601  0.5015  0.2653  0.1194
  559MPD2     H 8295   3.001   3.741  10.930  1.8000 -1.8656  0.9281
  559MPD2    H1 8296   3.364   3.808  10.720  0.1714  1.1296  0.7294
  559MPD2    H2 8297   3.006   3.775  10.494 -0.1723 -0.2270 -0.0191
  559MPD2    H3 8298   3.241   3.792  10.509  2.9865  1.4701  1.7539
  559MPD2     N 8299   3.235   3.780  10.967 -0.5170 -0.0548  0.2285
  559MPD2    H5 8300   3.173   3.763  11.046 -1.7935  2.0755 -0.3130
  559MPD2    N1 8301   2.841   3.736  10.703  0.0735 -0.4755  0.0142
  559MPD2    H7 8302   2.806   3.761  10.611 -3.0443 -0.8673  1.1056
  560TMC3    C1 8303   3.394   3.798  11.141  0.2131 -0.6048  0.4438
  560TMC3    C2 8304   3.339   3.692  11.201  0.0178  0.0931 -0.1098
  560TMC3    C3 8305   3.390   3.645  11.318 -0.1419 -0.4083  0.4517
  560TMC3    C4 8306   3.503   3.860  11.190  0.0899  0.3151  0.0834
  560TMC3    C5 8307   3.549   3.815  11.312 -0.2748 -0.3903  0.4904
  560TMC3    C6 8308   3.498   3.705  11.377  0.7114 -0.1372  0.3517
  560TMC3     C 8309   3.362   3.821  11.002  0.1144  0.5683 -0.1917
  560TMC3     O 8310   3.448   3.867  10.927  0.0169  0.2633  0.1086
  560TMC3     H 8311   3.258   3.638  11.155  0.4731 -2.2542  1.8599
  560TMC3    H1 8312   3.556   3.936  11.134  0.5928 -0.3461 -0.3336
  560TMC3    H2 8313   3.551   3.662  11.461  0.4929  0.9812  1.0502
  560TMC3    C7 8314   3.671   3.868  11.379  0.3550  0.9366  0.5436
  560TMC3    C8 8315   3.358   3.506  11.332  0.0387  0.3784 -0.3593
  560TMC3    O1 8316   3.682   3.832  11.495 -0.3143 -0.2274 -0.3449
  560TMC3    O2 8317   3.248   3.466  11.294  0.1235 -0.0171 -0.2252
  561TMC3    C1 8318   0.942   2.993  11.017 -0.7357  0.3054  0.3592
  561TMC3    C2 8319   0.837   2.953  11.100  0.0810 -0.2780 -1.1247
  561TMC3    C3 8320   0.842   2.989  11.233  0.1784  0.3731  0.5806
  561TMC3    C4 8321   1.053   3.052  11.063 -0.2092 -0.4335  0.3229
  561TMC3    C5 8322   1.050   3.097  11.184 -0.5629  0.1753 -1.0697
  561TMC3    C6 8323   0.954   3.058  11.278 -0.1272  0.0797 -0.3147
  561TMC3     C 8324   0.947   2.908  10.894 -0.0222  0.2330  0.2525
  561TMC3     O 8325   0.839   2.865  10.853  0.8176 -0.0285  0.1378
  561TMC3     H 8326   0.752   2.894  11.066 -0.0783 -0.8476  0.2856
  561TMC3    H1 8327   1.133   3.074  10.993 -1.4287 -0.8122 -1.1907
  561TMC3    H2 8328   0.964   3.110  11.373 -0.8831  2.1771 -1.3833
  561TMC3    C7 8329   1.149   3.188  11.226 -0.3324 -0.3395 -0.3189
  561TMC3    C8 8330   0.759   2.914  11.329  0.2958  0.3276  0.4044
  561TMC3    O1 8331   1.194   3.170  11.338 -0.6664  0.5314 -0.4580
  561TMC3    O2 8332   0.658   2.856  11.289 -0.1099 -0.3989  0.5264
  562TMC3    C1 8333   1.739   4.142  16.106  0.1459  0.4110  0.4197
  562TMC3    C2 8334   1.684   4.250  16.042 -0.0351 -0.0102  0.6294
  562TMC3    C3 8335   1.645   4.234  15.912 -0.0264  0.3708 -0.0896
  562TMC3    C4 8336   1.743   4.017  16.047 -0.3051  0.3655  0.1789
  562TMC3    C5 8337   1.689   4.000  15.921 -0.7786 -0.2663 -0.4929
  562TMC3    C6 8338   1.638   4.107  15.852  0.3081 -0.4219  0.1404
  562TMC3     C 8339   1.762   4.168  16.249  0.1008 -0.6791 -0.2925
  562TMC3     O 8340   1.773   4.290  16.279  0.0040  0.3554 -0.2646
  562TMC3     H 8341   1.674   4.347  16.089  2.8077 -0.7251  2.7245
  562TMC3    H1 8342   1.797   3.938  16.099 -0.8603 -0.6238 -0.7326
  562TMC3    H2 8343   1.601   4.105  15.750 -0.0652 -1.9559  0.3043
  562TMC3    C7 8344   1.702   3.876  15.845 -0.2667  0.5277  0.5450
  562TMC3    C8 8345   1.581   4.349  15.860  0.6610  0.7156  0.6173
  562TMC3    O1 8346   1.698   3.885  15.721  0.2835 -0.2312 -0.0003
  562TMC3    O2 8347   1.564   4.442  15.938 -0.1503  0.1801 -0.3740
  563MPD2     C 8348   4.010   1.149  15.648  0.2477 -0.5752 -0.9007
  563MPD2    C1 8349   4.034   1.110  15.781  0.5417  0.0111 -0.5866
  563MPD2    C2 8350   4.143   1.028  15.804  0.6115 -0.7453 -0.2838
  563MPD2    C3 8351   4.251   1.017  15.712 -1.0831  0.4422  1.0732
  563MPD2    C4 8352   4.238   1.089  15.598 -0.2892 -0.4551  0.6164
  563MPD2    C5 8353   4.118   1.145  15.560  0.2543 -0.1288 -0.6005
  563MPD2     H 8354   4.155   0.985  15.903  0.8313  0.3695  0.1722
  563MPD2    H1 8355   4.315   1.083  15.521 -0.7541 -3.1572  0.3336
  563MPD2    H2 8356   3.919   1.199  15.616  1.1089  1.5513 -0.0614
  563MPD2    H3 8357   4.097   1.178  15.459 -4.7692 -2.7120 -0.4248
  563MPD2     N 8358   4.368   0.948  15.754  0.9273  0.5882 -0.0558
  563MPD2    H5 8359   4.368   0.900  15.843 -0.2857 -1.4248 -1.1510
  563MPD2    N1 8360   3.939   1.148  15.881 -0.6869  0.1390  0.1651
  563MPD2    H7 8361   3.853   1.194  15.854  0.7045  1.9145 -1.2906
  564TMC3    C1 8362   3.872   1.196  16.103 -0.0237 -0.7195  0.4556
  564TMC3    C2 8363   3.756   1.148  16.146  0.2508 -0.0831 -0.3654
  564TMC3    C3 8364   3.706   1.199  16.271  0.8048 -0.0664  0.2162
  564TMC3    C4 8365   3.951   1.287  16.179 -0.9875 -0.2815  0.4846
  564TMC3    C5 8366   3.907   1.323  16.300  0.4971  0.4726 -0.2176
  564TMC3    C6 8367   3.778   1.298  16.339  0.3175  0.2460 -0.4873
  564TMC3     C 8368   3.950   1.116  16.011 -0.3128  0.0093 -0.0261
  564TMC3     O 8369   4.038   1.056  16.070  0.1399 -0.2166  0.2276
  564TMC3     H 8370   3.723   1.055  16.102  2.3221 -0.5131 -1.0342
  564TMC3    H1 8371   4.053   1.304  16.147 -0.8099  0.1945  1.2941
  564TMC3    H2 8372   3.744   1.327  16.437  2.3205 -1.1840  0.6431
  564TMC3    C7 8373   4.011   1.263  16.384 -0.1079  0.2073 -0.4769
  564TMC3    C8 8374   3.614   1.116  16.350 -0.3695 -0.6706  0.2977
  564TMC3    O1 8375   4.129   1.297  16.361  0.6022 -0.2442 -0.0214
  564TMC3    O2 8376   3.609   1.155  16.467 -0.1205 -0.6746  0.1718
  565TMC3    C1 8377   0.447   2.453  10.018 -0.3624 -0.0289 -0.3929
  565TMC3    C2 8378   0.468   2.396  10.139  0.3972 -0.1664  0.4383
  565TMC3    C3 8379   0.387   2.291  10.173 -0.4193 -0.2777 -0.7264
  565TMC3    C4 8380   0.363   2.403   9.929  0.1286 -0.5488 -0.4347
  565TMC3    C5 8381   0.285   2.294   9.966 -0.2530  0.3167  0.1830
  565TMC3    C6 8382   0.294   2.236  10.085  0.6064  0.2967  0.0945
  565TMC3     C 8383   0.549   2.529   9.957 -0.3500 -0.8403  0.2194
  565TMC3     O 8384   0.530   2.565   9.842  0.1234  0.1420 -0.3777
  565TMC3     H 8385   0.529   2.440  10.217  2.2929 -1.3060 -0.4144
  565TMC3    H1 8386   0.333   2.461   9.842 -0.9672 -0.7540 -0.1848
  565TMC3    H2 8387   0.224   2.168  10.132 -0.0189 -0.3778 -1.8030
  565TMC3    C7 8388   0.167   2.251   9.889  0.3824 -0.7369  0.2057
  565TMC3    C8 8389   0.438   2.207  10.286  0.3372 -0.0419 -0.6760
  565TMC3    O1 8390   0.110   2.145   9.918 -0.1253 -0.2607 -0.2490
  565TMC3    O2 8391   0.508   2.258  10.368  0.2684 -0.6715 -0.2737
  566MPD2     C 8392   1.149   3.568  14.167 -0.0906  0.2546  0.1382
  566MPD2    C1 8393   1.261   3.576  14.094  0.1862 -0.4606  0.0369
  566MPD2    C2 8394   1.249   3.589  13.956  0.1351 -0.3936  0.1262
  566MPD2    C3 8395   1.128   3.631  13.891  0.1295 -0.6463  0.2282
  566MPD2    C4 8396   1.020   3.632  13.973 -0.0393  0.0273 -0.5899
  566MPD2    C5 8397   1.032   3.602  14.108 -0.4152  0.0674  0.0078
  566MPD2     H 8398   1.337   3.601  13.893 -0.0982  0.9436  0.0499
  566MPD2    H1 8399   0.928   3.672  13.932 -0.2595 -0.4037 -0.5190
  566MPD2    H2 8400   1.143   3.528  14.268 -1.0071  0.7756  0.2907
  566MPD2    H3 8401   0.938   3.603  14.163 -0.3437 -1.7693  0.1584
  566MPD2     N 8402   1.119   3.671  13.758 -0.1674 -0.0488  0.5796
  566MPD2    H5 8403   1.029   3.702  13.722 -0.5480  3.1323  4.3145
  566MPD2    N1 8404   1.390   3.576  14.162  0.9937  0.0271 -0.6650
  566MPD2    H7 8405   1.374   3.602  14.259 -2.0084 -2.0208 -0.5972
  567TMC3    C1 8406   1.620   3.598  14.182  0.2658  0.3696  0.0564
  567TMC3    C2 8407   1.728   3.656  14.118 -0.0909  0.5359  0.0779
  567TMC3    C3 8408   1.817   3.726  14.192  0.0268 -0.4922 -0.2960
  567TMC3    C4 8409   1.605   3.609  14.319 -0.6218 -0.7725 -0.2518
  567TMC3    C5 8410   1.699   3.680  14.389  0.4118  0.5296  0.2373
  567TMC3    C6 8411   1.810   3.725  14.330  0.3127 -0.0512  0.3953
  567TMC3     C 8412   1.511   3.564  14.101  0.3155 -0.6324  0.6161
  567TMC3     O 8413   1.538   3.543  13.983 -0.2122  0.3100 -0.2609
  567TMC3     H 8414   1.724   3.662  14.010 -0.5848  1.2593  0.1339
  567TMC3    H1 8415   1.531   3.551  14.375 -1.7139 -0.6120 -1.5249
  567TMC3    H2 8416   1.887   3.765  14.395 -0.4059 -0.6810  1.6203
  567TMC3    C7 8417   1.705   3.645  14.525  0.1874 -0.7860 -0.1559
  567TMC3    C8 8418   1.885   3.831  14.118  0.8656  0.0334 -1.0227
  567TMC3    O1 8419   1.811   3.595  14.556 -1.0336 -0.1308 -0.2048
  567TMC3    O2 8420   1.886   3.817  13.994 -0.3731 -0.4535 -0.0494
  568MPD2     C 8421   4.239   0.164  16.894  0.1089  0.2115  0.0699
  568MPD2    C1 8422   4.106   0.134  16.873 -0.3099  0.4265 -0.4736
  568MPD2    C2 8423   4.012   0.233  16.870 -0.2749 -0.3682 -0.1712
  568MPD2    C3 8424   4.052   0.362  16.886 -0.1263  0.2707  0.2503
  568MPD2    C4 8425   4.183   0.391  16.911  0.3177  0.1137  0.2752
  568MPD2    C5 8426   4.277   0.293  16.916  0.2009  0.3911 -0.3223
  568MPD2     H 8427   3.909   0.216  16.842 -0.8870  1.0681  1.1980
  568MPD2    H1 8428   4.216   0.492  16.931 -0.8042  0.7747 -1.2269
  568MPD2    H2 8429   4.316   0.088  16.890  1.1011  1.2471 -0.5689
  568MPD2    H3 8430   4.378   0.321  16.946  0.2482 -1.1389  0.9443
  568MPD2     N 8431   3.950   0.464  16.879 -0.2692  0.3920  0.1299
  568MPD2    H5 8432   3.857   0.439  16.844 -0.5079  0.7029  0.5393
  568MPD2    N1 8433   4.069   0.001  16.849  0.2783 -0.0895  0.4645
  568MPD2    H7 8434   4.147   4.661  16.834 -0.1062 -0.7116  1.0715
  569TMC3    C1 8435   3.851   0.675  16.891  0.9552  0.1518  0.3630
  569TMC3    C2 8436   3.859   0.805  16.936  0.3160  0.7971 -0.1564
  569TMC3    C3 8437   3.748   0.886  16.934 -0.7402 -0.3961 -0.3654
  569TMC3    C4 8438   3.729   0.621  16.853  0.0760  0.4840  0.8178
  569TMC3    C5 8439   3.618   0.710  16.860  0.1373 -0.6058 -0.6208
  569TMC3    C6 8440   3.622   0.842  16.894 -0.7885 -0.1538  0.2498
  569TMC3     C 8441   3.967   0.596  16.921  0.3524 -0.4073 -0.0274
  569TMC3     O 8442   4.052   0.641  16.993  0.0409  0.7941 -0.4140
  569TMC3     H 8443   3.953   0.848  16.971  0.4305 -0.8530  1.5898
  569TMC3    H1 8444   3.720   0.521  16.813 -0.7141  1.8170 -2.4080
  569TMC3    H2 8445   3.539   0.911  16.881 -1.4556 -0.8759  0.6975
  569TMC3    C7 8446   3.512   0.661  16.767  0.5047 -0.8559 -0.8824
  569TMC3    C8 8447   3.763   1.034  16.913 -0.4003  0.3915 -0.1776
  569TMC3    O1 8448   3.501   0.544  16.737 -0.1645 -0.6820 -0.1244
  569TMC3    O2 8449   3.661   1.097  16.916 -0.9258  0.3641 -0.7864
  570TMC3    C1 8450   2.811   3.446  16.235 -0.2027 -0.1561  0.4736
  570TMC3    C2 8451   2.869   3.429  16.113 -0.0887 -0.6253 -0.0767
  570TMC3    C3 8452   2.897   3.538  16.042 -0.4109 -0.3197 -0.3255
  570TMC3    C4 8453   2.776   3.570  16.283 -0.6825 -0.1684  0.1342
  570TMC3    C5 8454   2.813   3.677  16.207  0.2609 -0.1710 -0.7451
  570TMC3    C6 8455   2.863   3.658  16.081 -0.1790  0.0732  0.3178
  570TMC3     C 8456   2.749   3.330  16.305 -0.3453 -0.9133  0.4888
  570TMC3     O 8457   2.720   3.239  16.236  0.1414 -0.2643 -0.4011
  570TMC3     H 8458   2.898   3.328  16.086  0.1708 -0.7905  0.8024
  570TMC3    H1 8459   2.720   3.575  16.376 -0.0078  0.3034  0.5136
  570TMC3    H2 8460   2.888   3.742  16.017  3.2416 -1.6090 -0.5265
  570TMC3    C7 8461   2.772   3.808  16.250  0.2568 -0.6584  0.6954
  570TMC3    C8 8462   3.028   3.537  15.983 -0.5559 -0.6854 -0.4865
  570TMC3    O1 8463   2.717   3.818  16.363  0.0502  0.6394  0.1493
  570TMC3    O2 8464   3.093   3.642  15.998 -0.2863  0.3492 -0.6126
  571MPD2     C 8465   1.793   4.650  17.428  0.4823 -0.3443 -0.5847
  571MPD2    C1 8466   1.702   4.607  17.511 -0.1600  0.3395 -0.2592
  571MPD2    C2 8467   1.597   4.694  17.537  0.2292 -0.1631 -0.0994
  571MPD2    C3 8468   1.585   0.098  17.487 -0.2525 -0.5167  0.3737
  571MPD2    C4 8469   1.684   0.142  17.404  0.3190 -0.3037 -0.3974
  571MPD2    C5 8470   1.792   0.057  17.383 -0.0299  0.0093  0.6049
  571MPD2     H 8471   1.523   4.660  17.608  0.7853 -1.5006 -0.1610
  571MPD2    H1 8472   1.677   0.242  17.364 -1.8056 -0.6669 -0.9148
  571MPD2    H2 8473   1.870   4.581  17.395  0.9635 -0.3273  0.4866
  571MPD2    H3 8474   1.866   0.087  17.311 -0.8203 -0.0657 -0.2374
  571MPD2     N 8475   1.485   0.188  17.529  0.0060  0.4237 -0.0276
  571MPD2    H5 8476   1.513   0.282  17.500 -1.4154  0.4341 -1.4012
  571MPD2    N1 8477   1.715   4.482  17.566  0.3185  0.4352 -0.2461
  571MPD2    H7 8478   1.798   4.431  17.537  0.2892 -0.0720  0.5564
  572TMC3    C1 8479   1.297   0.281  17.621  0.7755  0.4139 -0.4308
  572TMC3    C2 8480   1.167   0.269  17.669 -0.7644  0.0231  0.2854
  572TMC3    C3 8481   1.090   0.376  17.657  0.0405 -0.0220 -0.3049
  572TMC3    C4 8482   1.357   0.401  17.603 -0.8682 -0.5744 -0.2241
  572TMC3    C5 8483   1.271   0.507  17.604 -0.2196 -0.4606 -0.3284
  572TMC3    C6 8484   1.138   0.493  17.624 -0.1708  0.1143  0.6142
  572TMC3     C 8485   1.373   0.159  17.597  0.5286 -0.3445 -0.0354
  572TMC3     O 8486   1.328   0.051  17.637 -0.4320  0.2526  0.1744
  572TMC3     H 8487   1.126   0.170  17.684  0.2493 -0.2259  1.3681
  572TMC3    H1 8488   1.461   0.424  17.580 -0.8002 -2.3913 -1.6920
  572TMC3    H2 8489   1.071   0.578  17.628  0.0363  0.3610 -1.2444
  572TMC3    C7 8490   1.314   0.644  17.593 -0.7351 -0.2092 -0.2364
  572TMC3    C8 8491   0.945   0.353  17.681  0.0621  0.6574  0.6350
  572TMC3    O1 8492   1.234   0.717  17.542  0.2763 -0.2059 -0.2569
  572TMC3    O2 8493   0.907   0.237  17.676  1.0477  0.3623  0.1023
  573MPD2     C 8494   2.466   1.212   1.373  0.0935  0.1381 -0.2964
  573MPD2    C1 8495   2.342   1.252   1.357  0.1874 -0.3341 -0.3522
  573MPD2    C2 8496   2.271   1.199   1.251 -0.1068  0.9129 -0.1777
  573MPD2    C3 8497   2.311   1.088   1.177  0.9542 -0.0583 -0.2844
  573MPD2    C4 8498   2.439   1.040   1.207 -0.9093 -0.6205 -0.1004
  573MPD2    C5 8499   2.510   1.109   1.305  0.3584  0.1461  0.5013
  573MPD2     H 8500   2.172   1.242   1.238 -0.1747  1.5288  2.4453
  573MPD2    H1 8501   2.487   0.963   1.148 -1.2475 -0.9780  0.0912
  573MPD2    H2 8502   2.535   1.260   1.442 -0.9357  2.9077 -1.2242
  573MPD2    H3 8503   2.614   1.083   1.318 -0.4864 -2.7247  1.6008
  573MPD2     N 8504   2.233   1.031   1.073 -0.1828  0.1310 -0.1007
  573MPD2    H5 8505   2.283   0.962   1.018  0.2052 -0.9918  1.6720
  573MPD2    N1 8506   2.279   1.341   1.442  0.5551  0.1339 -0.3595
  573MPD2    H7 8507   2.185   1.372   1.417  0.2265  0.4635  1.2311
  574TMC3    C1 8508   2.082   1.010   0.894 -0.5566  0.0178 -0.2897
  574TMC3    C2 8509   1.970   1.047   0.831 -0.1408  0.1649 -0.3148
  574TMC3    C3 8510   1.956   1.023   0.698 -0.1888  0.1174 -0.5630
  574TMC3    C4 8511   2.175   0.935   0.827  0.8512  0.0703 -0.0742
  574TMC3    C5 8512   2.157   0.909   0.693 -0.4943  0.1428  0.5655
  574TMC3    C6 8513   2.047   0.960   0.628 -0.3105 -0.3523 -0.0931
  574TMC3     C 8514   2.123   1.079   1.013 -0.2449 -0.4764 -0.0782
  574TMC3     O 8515   2.061   1.181   1.049  0.5656 -0.6274  0.2170
  574TMC3     H 8516   1.888   1.091   0.887  0.9308  0.1842  1.2490
  574TMC3    H1 8517   2.266   0.893   0.868  1.3151  0.5857 -0.5689
  574TMC3    H2 8518   2.025   0.928   0.527 -0.5986 -1.1165  0.2168
  574TMC3    C7 8519   2.232   0.797   0.635 -0.0037  0.6057  0.8744
  574TMC3    C8 8520   1.824   1.034   0.642 -0.0150 -0.7128 -0.3284
  574TMC3    O1 8521   2.273   0.708   0.707 -0.3984 -0.3557 -0.3942
  574TMC3    O2 8522   1.739   1.016   0.725  0.1355 -0.6405 -0.3572
  575TMC3    C1 8523   0.559   2.103  11.132 -0.1323 -0.6985  0.5099
  575TMC3    C2 8524   0.466   2.010  11.179  0.4942 -0.2932 -0.2921
  575TMC3    C3 8525   0.427   1.902  11.098 -0.0167  0.1095 -0.3940
  575TMC3    C4 8526   0.598   2.090  11.002 -0.2556 -0.0081 -0.7280
  575TMC3    C5 8527   0.539   1.992  10.923  0.8149 -0.5610  0.0698
  575TMC3    C6 8528   0.451   1.895  10.965  0.1344  0.2005  0.1800
  575TMC3     C 8529   0.654   2.181  11.216 -0.6056 -0.7048  0.1766
  575TMC3     O 8530   0.760   2.200  11.160  0.4068 -0.1798  0.5892
  575TMC3     H 8531   0.447   2.017  11.285  1.0199 -0.2012 -0.2067
  575TMC3    H1 8532   0.676   2.143  10.948  0.0878  2.2307  2.0352
  575TMC3    H2 8533   0.410   1.818  10.900  1.9578 -0.1058 -0.6175
  575TMC3    C7 8534   0.552   2.012  10.777  0.1707 -0.0495  0.3715
  575TMC3    C8 8535   0.337   1.809  11.159  0.0694  0.4797  0.7408
  575TMC3    O1 8536   0.575   2.122  10.733  0.1182  0.2327 -0.5211
  575TMC3    O2 8537   0.349   1.697  11.114  0.4876  0.0347 -0.4050
  576MPD2     C 8538   4.669   3.156  12.481 -0.2464 -0.4967  0.1443
  576MPD2    C1 8539   0.001   3.279  12.441 -0.5086  0.4575 -0.4645
  576MPD2    C2 8540   4.652   3.392  12.464  0.3871  0.3722 -0.1858
  576MPD2    C3 8541   4.533   3.391  12.527  0.3777  0.1774 -0.4165
  576MPD2    C4 8542   4.474   3.270  12.555  0.1009  0.1493 -0.5097
  576MPD2    C5 8543   4.548   3.154  12.544  0.2417 -0.0250 -0.6721
  576MPD2     H 8544   4.698   3.488  12.444 -0.5100  0.8484  0.0477
  576MPD2    H1 8545   4.380   3.260  12.608 -1.7451 -1.3728 -4.1079
  576MPD2    H2 8546   4.712   3.057  12.472 -0.3280 -0.4560 -0.6812
  576MPD2    H3 8547   4.519   3.058  12.584  0.6186  0.6730  1.2969
  576MPD2     N 8548   4.476   3.518  12.548  0.3582 -0.2826  0.1868
  576MPD2    H5 8549   4.529   3.600  12.521  2.2175 -1.0300  1.6009
  576MPD2    N1 8550   0.120   3.287  12.367 -0.1506 -1.0386  0.5653
  576MPD2    H7 8551   0.157   3.379  12.345 -1.8134 -0.3638  0.5533
  577TMC3    C1 8552   0.305   3.215  12.239 -0.1815  0.3488 -0.6277
  577TMC3    C2 8553   0.364   3.107  12.181  0.5409 -0.1841  0.3264
  577TMC3    C3 8554   0.436   3.131  12.067  0.5898  0.2677  0.1405
  577TMC3    C4 8555   0.321   3.347  12.194 -0.4014  0.2567 -0.5167
  577TMC3    C5 8556   0.384   3.365  12.075 -0.4626 -0.6471  0.4386
  577TMC3    C6 8557   0.444   3.262  12.009  0.7481  0.4710  0.3195
  577TMC3     C 8558   0.202   3.181  12.337  0.2182  0.2496 -0.1961
  577TMC3     O 8559   0.176   3.064  12.349  0.2684 -0.5009 -0.2902
  577TMC3     H 8560   0.337   3.006  12.210 -1.6068  0.0546 -0.8262
  577TMC3    H1 8561   0.284   3.438  12.240 -1.4831  0.4625 -1.8278
  577TMC3    H2 8562   0.499   3.277  11.917 -2.5438  4.0469 -1.0513
  577TMC3    C7 8563   0.410   3.501  12.040 -0.5389 -0.4643  0.1149
  577TMC3    C8 8564   0.494   3.015  11.995 -0.6343  0.2299  0.5897
  577TMC3    O1 8565   0.469   3.558  12.130  0.0456 -0.4468  0.4425
  577TMC3    O2 8566   0.472   2.895  12.027 -0.3353 -0.7786  0.2738
  578MPD2     C 8567   2.097   3.070   1.178 -0.6838 -0.6852 -0.7244
  578MPD2    C1 8568   2.192   3.094   1.079 -0.0329  0.6161  0.0432
  578MPD2    C2 8569   2.321   3.045   1.090 -0.3652  0.0530  0.0813
  578MPD2    C3 8570   2.362   2.986   1.206  0.4866  0.4133  0.2122
  578MPD2    C4 8571   2.267   2.952   1.296 -0.2993  0.6163  0.5421
  578MPD2    C5 8572   2.136   2.985   1.282 -0.1511 -0.4331  0.5298
  578MPD2     H 8573   2.393   3.074   1.014 -1.3047  0.2906 -0.7165
  578MPD2    H1 8574   2.291   2.893   1.383  2.4197 -0.2013 -0.7462
  578MPD2    H2 8575   1.996   3.109   1.185 -0.5150 -0.1783 -1.0732
  578MPD2    H3 8576   2.068   2.953   1.361  0.9288 -4.0287 -0.0069
  578MPD2     N 8577   2.495   2.936   1.214  0.0488 -0.1962  0.2829
  578MPD2    H5 8578   2.545   2.955   1.128 -0.8650 -1.0684 -0.4385
  578MPD2    N1 8579   2.146   3.173   0.962 -0.2957  0.2206  0.4100
  578MPD2    H7 8580   2.049   3.203   0.971 -0.5980 -0.6214  0.0532
  579TMC3    C1 8581   2.695   2.855   1.293  0.7322  0.3326 -0.3783
  579TMC3    C2 8582   2.785   2.849   1.398  0.1176 -0.1910  0.4467
  579TMC3    C3 8583   2.921   2.853   1.380  0.1637 -0.5474  0.0972
  579TMC3    C4 8584   2.745   2.819   1.172  0.6190 -0.5987  0.0398
  579TMC3    C5 8585   2.878   2.819   1.146  0.5084 -0.2997 -0.6788
  579TMC3    C6 8586   2.965   2.843   1.248 -0.3241 -0.2103  0.1944
  579TMC3     C 8587   2.557   2.891   1.326  0.0190 -0.3403  0.0271
  579TMC3     O 8588   2.519   2.891   1.442 -0.3280 -0.0233 -0.2338
  579TMC3     H 8589   2.751   2.870   1.498  3.1816  2.1392  0.9981
  579TMC3    H1 8590   2.665   2.798   1.102  0.2785  0.2531  0.1676
  579TMC3    H2 8591   3.072   2.848   1.231 -0.7086  0.5687 -1.9688
  579TMC3    C7 8592   2.928   2.792   1.008 -0.8948 -1.0190 -0.2675
  579TMC3    C8 8593   3.010   2.906   1.486 -0.3071 -0.1182  0.1147
  579TMC3    O1 8594   3.050   2.797   0.982  0.5911 -0.2826  0.4455
  579TMC3    O2 8595   2.961   2.898   1.597 -0.3778 -0.2479 -0.1591
  580TMC3    C1 8596   2.292   2.301  11.934 -0.7258 -0.2108 -0.2897
  580TMC3    C2 8597   2.361   2.302  11.813 -0.2903 -0.2433 -1.0960
  580TMC3    C3 8598   2.473   2.224  11.808 -0.2738 -0.2433  0.5220
  580TMC3    C4 8599   2.319   2.222  12.034  1.0695  0.0334  0.4155
  580TMC3    C5 8600   2.424   2.135  12.026  0.4728  0.4612  0.3784
  580TMC3    C6 8601   2.502   2.139  11.915  0.2235  0.2933  0.7438
  580TMC3     C 8602   2.303   2.435  11.993  0.3141  0.1024 -0.5737
  580TMC3     O 8603   2.231   2.469  12.083  0.1532  0.0685  0.1444
  580TMC3     H 8604   2.340   2.365  11.727  0.2791  0.2846 -0.8520
  580TMC3    H1 8605   2.262   2.232  12.126  0.3325 -0.6574  0.0380
  580TMC3    H2 8606   2.601   2.095  11.908 -0.1249 -0.5348  1.0992
  580TMC3    C7 8607   2.449   2.047  12.137 -0.0675  0.1844  0.1008
  580TMC3    C8 8608   2.580   2.274  11.720 -0.1763  0.5145 -0.8326
  580TMC3    O1 8609   2.379   2.067  12.236  0.1157  0.6181 -0.2020
  580TMC3    O2 8610   2.564   2.308  11.606  0.3648 -0.2354 -0.2540
  581MPD2     C 8611   4.636   2.402  14.897  0.6750 -0.4894  0.3673
  581MPD2    C1 8612   4.649   2.527  14.951  0.2237 -0.1675  0.1365
  581MPD2    C2 8613   4.555   2.624  14.920  0.1898 -0.1356  0.3495
  581MPD2    C3 8614   4.454   2.593  14.823 -0.5459  0.5031  0.0670
  581MPD2    C4 8615   4.441   2.470  14.774 -0.6437 -0.0032 -0.0150
  581MPD2    C5 8616   4.533   2.376  14.812  1.1704  0.9084  0.5569
  581MPD2     H 8617   4.564   2.720  14.969  0.3602 -0.1634  0.3728
  581MPD2    H1 8618   4.364   2.440  14.703  0.6152 -1.1825 -0.8811
  581MPD2    H2 8619   4.708   2.322  14.913  0.2239 -0.8401  0.6380
  581MPD2    H3 8620   4.517   2.277  14.771 -2.4439  0.0025  4.1460
  581MPD2     N 8621   4.371   2.697  14.772  0.1152  0.0020  0.5107
  581MPD2    H5 8622   4.392   2.793  14.798  2.5182 -0.3426 -0.1198
  581MPD2    N1 8623   0.034   2.547  15.038 -0.0620 -0.9344 -0.0658
  581MPD2    H7 8624   0.098   2.468  15.041  1.5602  0.3048 -1.6679
  582TMC3    C1 8625   0.224   2.651  15.131 -0.6728 -0.8204  0.1083
  582TMC3    C2 8626   0.257   2.714  15.246  0.5703 -0.2958 -0.0373
  582TMC3    C3 8627   0.381   2.690  15.296  0.3047  0.0497 -0.1830
  582TMC3    C4 8628   0.293   2.549  15.072 -0.8418 -0.1123 -0.0202
  582TMC3    C5 8629   0.404   2.511  15.144 -0.6090 -0.1228 -0.2374
  582TMC3    C6 8630   0.461   2.587  15.243 -0.5860 -0.0397  0.2720
  582TMC3     C 8631   0.087   2.661  15.089  0.1023 -0.1600  0.4598
  582TMC3     O 8632   0.025   2.760  15.128 -0.9628 -0.1034  0.2483
  582TMC3     H 8633   0.200   2.793  15.294  1.0751  0.2651 -0.3674
  582TMC3    H1 8634   0.270   2.495  14.982  1.7252  1.3769 -1.5752
  582TMC3    H2 8635   0.561   2.557  15.272 -0.3884  0.2569 -0.1111
  582TMC3    C7 8636   0.475   2.395  15.095  0.1438 -0.3676  0.2452
  582TMC3    C8 8637   0.397   2.717  15.439 -0.1536 -0.3286 -0.3145
  582TMC3    O1 8638   0.594   2.416  15.065  0.2589  0.4781  0.1632
  582TMC3    O2 8639   0.304   2.760  15.507  0.6960  0.7075 -0.3156
  583MPD2     C 8640   0.118   4.024  16.978 -0.7662  0.2730 -0.5389
  583MPD2    C1 8641   0.111   4.124  16.887  0.0168 -0.2708  0.1822
  583MPD2    C2 8642   0.091   4.255  16.931 -0.4336 -0.4814 -0.1415
  583MPD2    C3 8643   0.102   4.290  17.060  0.3748  0.3343 -0.2274
  583MPD2    C4 8644   0.130   4.188  17.146 -0.0408  1.4527 -0.3126
  583MPD2    C5 8645   0.139   4.058  17.107 -0.3254 -0.1911  0.3565
  583MPD2     H 8646   0.069   4.332  16.858  0.1617  0.2472  0.4489
  583MPD2    H1 8647   0.161   4.209  17.248 -0.5695 -0.9348  0.3537
  583MPD2    H2 8648   0.144   3.925  16.944  0.4758  0.4052  0.0095
  583MPD2    H3 8649   0.168   3.977  17.173  0.2911 -0.0447  0.2677
  583MPD2     N 8650   0.094   4.424  17.101  0.2191  0.1779  0.2045
  583MPD2    H5 8651   0.080   4.494  17.029 -0.0674 -0.5987 -0.4845
  583MPD2    N1 8652   0.113   4.094  16.751 -0.0349 -0.2765  0.0586
  583MPD2    H7 8653   0.117   4.165  16.679  1.0230 -1.2515 -0.8303
  584TMC3    C1 8654   0.116   4.603  17.235 -0.0800  0.0312 -0.6530
  584TMC3    C2 8655   0.169   4.666  17.125  0.4428  0.2723 -0.2455
  584TMC3    C3 8656   0.204   0.073  17.142  0.4377  0.4219  0.5683
  584TMC3    C4 8657   0.106   4.658  17.362 -0.6775  0.3754  0.3670
  584TMC3    C5 8658   0.141   0.065  17.368  0.0313  1.4878  0.6824
  584TMC3    C6 8659   0.196   0.131  17.265  0.2386 -0.3658 -0.1623
  584TMC3     C 8660   0.088   4.460  17.227  0.3268  0.2247  0.0892
  584TMC3     O 8661   0.056   4.400  17.324  0.5985  0.1802 -0.4692
  584TMC3     H 8662   0.163   4.638  17.021 -0.1967 -0.9119  0.1102
  584TMC3    H1 8663   0.083   4.603  17.452 -2.1835  0.1401 -0.1651
  584TMC3    H2 8664   0.215   0.236  17.284 -0.1141 -0.6505  1.7544
  584TMC3    C7 8665   0.156   0.117  17.498  0.2142 -0.0853 -0.5812
  584TMC3    C8 8666   0.220   0.160  17.026 -0.4468  0.9019 -0.1440
  584TMC3    O1 8667   0.224   0.214  17.514  0.2718 -0.1302 -0.1238
  584TMC3    O2 8668   0.137   0.162  16.935  0.5251 -0.7083  0.1041
  585MPD2     C 8669   4.437   3.442  17.597 -0.1169 -0.0401 -0.6170
  585MPD2    C1 8670   4.357   3.416   0.016  0.1965  0.1511 -0.1380
  585MPD2    C2 8671   4.317   3.285   0.031 -0.0617  0.3753  0.7953
  585MPD2    C3 8672   4.356   3.183  17.644  0.4589  0.8438 -0.2262
  585MPD2    C4 8673   4.442   3.214  17.538 -0.2890  0.1880 -0.2481
  585MPD2    C5 8674   4.472   3.344  17.514  0.1637 -0.2502 -0.2808
  585MPD2     H 8675   4.236   3.263   0.100 -1.4196  1.5398 -0.4397
  585MPD2    H1 8676   4.478   3.139  17.469 -1.6508 -1.7581  1.1669
  585MPD2    H2 8677   4.468   3.543  17.572  0.6125  0.4494  2.3259
  585MPD2    H3 8678   4.549   3.372  17.443  0.2120 -2.6873 -1.1814
  585MPD2     N 8679   4.324   3.048  17.656 -0.1931  0.8644 -0.9508
  585MPD2    H5 8680   4.368   2.986  17.589  1.0065  2.3926 -1.5972
  585MPD2    N1 8681   4.320   3.522   0.103  0.3237 -0.2335 -0.5511
  585MPD2    H7 8682   4.344   3.614   0.066  2.0359 -1.0005 -1.3058
  586TMC3    C1 8683   4.220   2.851   0.020 -0.3815  0.4207 -0.2869
  586TMC3    C2 8684   4.331   2.785  17.680 -0.3272  0.0091  0.5212
  586TMC3    C3 8685   4.319   2.675  17.602 -0.2920  0.1553 -0.2535
  586TMC3    C4 8686   4.094   2.805  17.683  0.1393 -0.2908  0.0188
  586TMC3    C5 8687   4.085   2.682  17.614 -0.3932 -0.4248 -0.3715
  586TMC3    C6 8688   4.199   2.616  17.568 -0.1261 -0.6168 -0.0467
  586TMC3     C 8689   4.237   2.995   0.050 -0.6963 -0.1164  0.0399
  586TMC3     O 8690   4.173   3.042   0.143  0.3021  0.6101 -0.4275
  586TMC3     H 8691   4.427   2.817   0.026 -0.2770 -2.1670  2.1225
  586TMC3    H1 8692   4.005   2.857   0.022  0.4478 -0.0032  0.3829
  586TMC3    H2 8693   4.193   2.537  17.495  1.2471  1.1980 -2.1172
  586TMC3    C7 8694   3.961   2.655  17.548 -0.3794 -0.4637  0.7890
  586TMC3    C8 8695   4.438   2.603  17.562 -0.5163  0.4003  0.8625
  586TMC3    O1 8696   3.940   2.537  17.522 -0.3818  0.2457 -0.3184
  586TMC3    O2 8697   4.456   2.562  17.447  0.6476 -0.1184 -0.1016
  587TMC3    C1 8698   1.820   1.849  16.465  0.3328  0.5294 -0.4224
  587TMC3    C2 8699   1.773   1.957  16.530  0.0407  0.2234 -1.0215
  587TMC3    C3 8700   1.852   2.066  16.555 -0.4211  0.1073 -0.0844
  587TMC3    C4 8701   1.938   1.862  16.396  0.5349  0.6205 -0.3869
  587TMC3    C5 8702   2.015   1.980  16.410  0.2512  0.0284 -0.6170
  587TMC3    C6 8703   1.971   2.081  16.486 -0.0564 -0.6935 -0.1453
  587TMC3     C 8704   1.760   1.720  16.463  0.3642 -0.3953  0.2569
  587TMC3     O 8705   1.831   1.623  16.433  0.3769 -0.2029 -0.6580
  587TMC3     H 8706   1.699   1.939  16.607  0.2499 -0.9661 -1.0930
  587TMC3    H1 8707   1.971   1.782  16.331  2.3456  0.1733  1.0654
  587TMC3    H2 8708   2.032   2.165  16.515 -2.2808  1.2236 -1.0168
  587TMC3    C7 8709   2.154   1.957  16.407 -0.2170  0.1880 -0.0784
  587TMC3    C8 8710   1.831   2.153  16.666  0.3585 -0.6153  0.0770
  587TMC3    O1 8711   2.189   1.842  16.422 -0.5791  0.2937  0.1586
  587TMC3    O2 8712   1.937   2.207  16.698 -0.0410 -0.0641  0.1480
  588TMC3    C1 8713   0.028   4.082   9.602  0.1276  0.2383 -0.7688
  588TMC3    C2 8714   0.035   3.942   9.598  0.8524  0.4286 -0.3267
  588TMC3    C3 8715   0.019   3.878   9.716 -0.3745  0.4057 -0.2664
  588TMC3    C4 8716   0.003   4.148   9.719  0.5127  0.5876  0.6539
  588TMC3    C5 8717   4.721   4.081   9.839 -0.1834  0.0538 -0.3558
  588TMC3    C6 8718   0.002   3.941   9.839  0.1356  0.5192 -0.2866
  588TMC3     C 8719   0.109   4.144   9.498 -0.0477 -0.4442 -0.1885
  588TMC3     O 8720   0.180   4.078   9.429 -0.4262 -0.4166 -0.1365
  588TMC3     H 8721   0.064   3.894   9.505  1.3877 -1.6299  0.9328
  588TMC3    H1 8722   4.720   4.256   9.720 -1.4586  0.4924 -2.0112
  588TMC3    H2 8723   0.010   3.888   9.933  0.1493 -0.0592 -0.6105
  588TMC3    C7 8724   0.003   4.159   9.964 -1.2453  0.5430 -0.1139
  588TMC3    C8 8725   0.026   3.738   9.704 -0.2350  0.1844 -0.4456
  588TMC3    O1 8726   4.660   4.129  10.063  0.3838 -0.8069  0.3092
  588TMC3    O2 8727   4.704   3.693   9.601 -0.1195  0.4995  0.2314
  589TMC3    C1 8728   2.686   2.076   1.409 -0.0148  0.4646  0.2394
  589TMC3    C2 8729   2.806   2.123   1.464 -0.4950  0.5235 -0.1102
  589TMC3    C3 8730   2.928   2.098   1.397 -0.5683  0.4178  0.2208
  589TMC3    C4 8731   2.683   2.011   1.290 -0.4506  0.1942  0.1643
  589TMC3    C5 8732   2.801   1.999   1.218 -0.2027 -0.3084  0.2903
  589TMC3    C6 8733   2.922   2.034   1.274  0.0996 -0.4735  0.1434
  589TMC3     C 8734   2.558   2.110   1.472 -0.0718  0.0251 -0.5856
  589TMC3     O 8735   2.460   2.133   1.400 -0.1545 -0.3564  0.4784
  589TMC3     H 8736   2.810   2.167   1.563  0.0042  0.1619  0.0277
  589TMC3    H1 8737   2.586   1.967   1.266 -0.3563 -1.6525  3.0527
  589TMC3    H2 8738   3.006   2.008   1.211  0.0702  0.5595 -0.3141
  589TMC3    C7 8739   2.785   1.946   1.085  0.0738  0.8494 -0.0397
  589TMC3    C8 8740   3.061   2.136   1.450  0.0878 -0.4224  0.5439
  589TMC3    O1 8741   2.881   1.885   1.039 -0.0337 -0.4430  0.3176
  589TMC3    O2 8742   3.085   2.221   1.533  0.3736 -0.1555 -0.5042
  590MPD2     C 8743   2.795   0.164  16.613  0.2414 -0.0489 -0.0545
  590MPD2    C1 8744   2.754   0.190  16.488  0.0613  0.0034  0.4607
  590MPD2    C2 8745   2.774   0.315  16.434  0.5871  0.6281  0.0765
  590MPD2    C3 8746   2.827   0.414  16.507  0.0809 -0.4299 -0.3288
  590MPD2    C4 8747   2.839   0.398  16.648 -0.1498  0.1062  0.0051
  590MPD2    C5 8748   2.823   0.272  16.690 -0.3292  0.9149  0.3035
  590MPD2     H 8749   2.750   0.333  16.330  0.0737  1.3591  0.3268
  590MPD2    H1 8750   2.864   0.471  16.724  0.7360 -2.1432  1.8813
  590MPD2    H2 8751   2.779   0.069  16.662  1.0987  0.7760  1.8103
  590MPD2    H3 8752   2.836   0.260  16.797 -0.0171 -0.1399  0.1370
  590MPD2     N 8753   2.853   0.534  16.438  0.4061  0.0731 -0.0319
  590MPD2    H5 8754   2.818   0.535  16.343  2.0994 -0.9955 -0.6765
  590MPD2    N1 8755   2.699   0.089  16.401 -0.3467 -0.5638  0.2048
  590MPD2    H7 8756   2.648   0.131  16.324 -1.6247  0.3495  1.5341
  591TMC3    C1 8757   2.965   0.733  16.414 -0.7365 -0.5681 -0.6213
  591TMC3    C2 8758   3.027   0.675  16.304 -0.3225 -0.0343  0.9595
  591TMC3    C3 8759   3.131   0.748  16.247 -1.0358  0.3997 -0.0613
  591TMC3    C4 8760   3.005   0.856  16.460  0.5964 -0.6391  0.7029
  591TMC3    C5 8761   3.104   0.921  16.389  0.3756  0.0031 -0.5732
  591TMC3    C6 8762   3.160   0.875  16.279  0.8512 -0.2766 -0.1004
  591TMC3     C 8763   2.880   0.648  16.493  0.4794  0.4946  0.1782
  591TMC3     O 8764   2.867   0.689  16.610  0.2740  0.2794  0.3390
  591TMC3     H 8765   2.996   0.584  16.253  1.9330  0.1860 -0.7797
  591TMC3    H1 8766   2.964   0.898  16.552 -0.4975 -0.9446  0.3609
  591TMC3    H2 8767   3.242   0.931  16.237  1.7467 -0.4779  1.3766
  591TMC3    C7 8768   3.147   1.051  16.433 -0.2688  0.9292  0.0615
  591TMC3    C8 8769   3.177   0.682  16.129  0.3889 -0.3547  0.6171
  591TMC3    O1 8770   3.178   1.066  16.550  0.0553 -0.0711  0.3312
  591TMC3    O2 8771   3.179   0.558  16.122  0.4863  0.1502 -0.5990
  592MPD2     C 8772   3.733   2.302  11.390  0.4310  0.4116 -0.3793
  592MPD2    C1 8773   3.718   2.303  11.526  0.3193 -0.5392  0.8123
  592MPD2    C2 8774   3.611   2.238  11.582 -0.0594 -0.1834  0.0868
  592MPD2    C3 8775   3.523   2.159  11.509  0.1962 -0.5250  0.0158
  592MPD2    C4 8776   3.558   2.152  11.376  0.8467 -0.2808 -0.1904
  592MPD2    C5 8777   3.649   2.228  11.313  0.2859 -0.6616  0.9459
  592MPD2     H 8778   3.607   2.237  11.691 -0.1407 -0.8735  0.0780
  592MPD2    H1 8779   3.497   2.090  11.312  0.1737  0.5174 -0.3187
  592MPD2    H2 8780   3.805   2.367  11.343 -0.4174  1.8791  0.3576
  592MPD2    H3 8781   3.661   2.231  11.205 -1.2735  1.7283  0.8221
  592MPD2     N 8782   3.416   2.086  11.574  0.5307  0.0646  0.5565
  592MPD2    H5 8783   3.394   2.109  11.671 -0.5830 -1.1331  0.5792
  592MPD2    N1 8784   3.810   2.376  11.605  0.5446  0.2670 -0.2208
  592MPD2    H7 8785   3.873   2.444  11.563 -2.7198  2.7815 -1.1000
  593TMC3    C1 8786   3.897   2.455  11.816 -0.0915 -0.4008 -0.0840
  593TMC3    C2 8787   3.918   2.441  11.953  0.4113 -0.2495  0.6059
  593TMC3    C3 8788   3.982   2.542  12.007 -0.5123  0.1376 -0.9282
  593TMC3    C4 8789   3.948   2.555  11.745 -0.1466  0.5165  0.6708
  593TMC3    C5 8790   4.025   2.652  11.805 -0.3388  0.8231 -0.2028
  593TMC3    C6 8791   4.036   2.651  11.940 -0.4580 -0.0659 -0.0984
  593TMC3     C 8792   3.814   2.358  11.743 -0.4621  0.2329 -0.5237
  593TMC3     O 8793   3.756   2.284  11.822  0.2441  0.0686  0.4877
  593TMC3     H 8794   3.881   2.357  12.012  1.8955 -0.7745  0.8121
  593TMC3    H1 8795   3.935   2.571  11.638 -1.0162 -0.8994  0.5647
  593TMC3    H2 8796   4.102   2.707  12.006  0.9641 -0.8143 -0.8701
  593TMC3    C7 8797   4.090   2.748  11.722  0.8563  0.1598  0.5410
  593TMC3    C8 8798   4.031   2.520  12.143  0.2849  0.6962  0.7199
  593TMC3    O1 8799   4.116   2.711  11.606  0.7215 -0.0669 -0.4288
  593TMC3    O2 8800   4.036   2.622  12.212 -0.0704 -0.0562  0.4846
  594MPD2     C 8801   1.811   0.848  13.938 -0.4488  0.6007 -0.6346
  594MPD2    C1 8802   1.838   0.790  14.063  0.7888  0.5830 -0.1602
  594MPD2    C2 8803   1.961   0.821  14.123 -0.5343  0.7031  0.0552
  594MPD2    C3 8804   2.040   0.916  14.072 -0.1355 -0.5762  0.0563
  594MPD2    C4 8805   2.011   0.971  13.952  0.1649  0.4041 -0.1840
  594MPD2    C5 8806   1.904   0.926  13.876  0.2136 -0.4724  0.4722
  594MPD2     H 8807   1.990   0.781  14.219 -2.3028  2.2796  1.2560
  594MPD2    H1 8808   2.083   1.036  13.905 -0.7140  0.1793 -1.8405
  594MPD2    H2 8809   1.715   0.832  13.891 -0.9793  1.2954  0.2049
  594MPD2    H3 8810   1.881   0.969  13.780  0.0215 -1.6896 -0.0189
  594MPD2     N 8811   2.151   0.948  14.146  0.4317 -0.0156  0.7629
  594MPD2    H5 8812   2.176   0.877  14.215 -1.3929 -0.0196  1.4210
  594MPD2    N1 8813   1.751   0.699  14.121 -0.0851 -0.1125 -0.1920
  594MPD2    H7 8814   1.658   0.693  14.081 -0.7084 -1.4975  1.4686
  595TMC3    C1 8815   2.574   1.068  14.249 -0.0477 -0.2635 -0.7568
  595TMC3    C2 8816   2.474   1.087  14.161  0.0807  0.7127  0.6499
  595TMC3    C3 8817   2.355   1.053  14.207  0.2043  0.1567 -0.5332
  595TMC3    C4 8818   2.559   1.008  14.370 -0.1699  0.1270  0.1073
  595TMC3    C5 8819   2.432   0.971  14.417  0.1021 -0.0821 -0.0883
  595TMC3    C6 8820   2.330   0.995  14.331  0.1412 -0.1465  0.4551
  595TMC3     C 8821   2.678   1.169  14.257 -0.6289  0.3996 -0.3384
  595TMC3     O 8822   2.760   1.154  14.345  0.6076  0.3304 -0.3286
  595TMC3     H 8823   2.486   1.113  14.057  0.7055 -1.2048  0.2486
  595TMC3    H1 8824   2.638   0.988  14.442  0.2317 -3.5288 -1.3613
  595TMC3    H2 8825   2.225   0.994  14.359 -0.1499  0.7727 -0.6174
  595TMC3    C7 8826   2.402   1.034  14.547  0.7853 -0.3584 -0.0639
  595TMC3    C8 8827   2.247   1.045  14.118  0.4028  0.3659  0.4517
  595TMC3    O1 8828   2.281   1.049  14.572  0.5392 -0.3143  0.1124
  595TMC3    O2 8829   2.259   1.115  14.019  0.0037 -0.0755 -0.4728
  596MPD2     C 8830   0.975   3.890  16.600  0.1686 -0.2708  0.0918
  596MPD2    C1 8831   0.966   3.998  16.514  1.4597  0.0953 -0.5095
  596MPD2    C2 8832   0.985   3.982  16.379 -0.1989  0.1703 -0.5403
  596MPD2    C3 8833   1.016   3.862  16.323 -0.5057  0.1291  1.0988
  596MPD2    C4 8834   1.024   3.747  16.405  0.6591  0.5542 -0.0659
  596MPD2    C5 8835   1.005   3.764  16.544  0.4238  0.3870  0.2721
  596MPD2     H 8836   0.956   4.071  16.323  3.5005  1.1351 -0.9034
  596MPD2    H1 8837   1.056   3.652  16.362 -0.0600  0.1734  0.2572
  596MPD2    H2 8838   0.964   3.903  16.707  1.3551 -0.9844  0.3009
  596MPD2    H3 8839   1.011   3.683  16.616  1.3377 -0.5513 -0.8606
  596MPD2     N 8840   1.038   3.835  16.190 -0.2324  0.1737 -0.0968
  596MPD2    H5 8841   1.033   3.739  16.158  1.2373  0.5111 -1.3214
  596MPD2    N1 8842   0.919   4.128  16.549 -0.1283 -0.0757 -0.0157
  596MPD2    H7 8843   0.937   4.213  16.497  2.4355  2.3025  4.7176
  597TMC3    C1 8844   0.805   4.291  16.678 -0.4165  0.5672  0.4429
  597TMC3    C2 8845   0.829   4.396  16.593 -0.0916 -0.6056 -0.0638
  597TMC3    C3 8846   0.833   4.521  16.643  0.6319 -0.6086  0.1885
  597TMC3    C4 8847   0.796   4.318  16.811  0.3391  0.9221  0.2402
  597TMC3    C5 8848   0.788   4.444  16.854  0.7630  0.4291  0.2672
  597TMC3    C6 8849   0.796   4.550  16.771 -0.0017 -0.6926  0.0230
  597TMC3     C 8850   0.821   4.148  16.644 -0.1796  0.4077  0.5422
  597TMC3     O 8851   0.770   4.063  16.717 -0.0182  0.1476  0.1550
  597TMC3     H 8852   0.835   4.388  16.485  1.8419 -1.2493  0.0878
  597TMC3    H1 8853   0.778   4.240  16.883 -1.1574  1.3904  0.3853
  597TMC3    H2 8854   0.787   4.651  16.808  1.5525 -0.7345  0.5219
  597TMC3    C7 8855   0.772   4.471  17.000 -0.0220 -0.8285 -0.4334
  597TMC3    C8 8856   0.885   4.628  16.572 -0.3050 -0.0066  0.6838
  597TMC3    O1 8857   0.705   4.390  17.059  0.3973 -0.7284 -0.0411
  597TMC3    O2 8858   0.844   0.016  16.604  0.0930 -0.4378  0.3530
  598TMC3    C1 8859   3.910   0.815  15.411  0.5153 -0.1865 -0.2022
  598TMC3    C2 8860   3.785   0.817  15.349 -0.1958  0.2276  0.4409
  598TMC3    C3 8861   3.788   0.846  15.213 -0.6143 -0.3398 -0.5096
  598TMC3    C4 8862   4.027   0.848  15.345  0.3104  0.3629 -0.3646
  598TMC3    C5 8863   4.016   0.880  15.215 -0.1238 -0.2187  0.6445
  598TMC3    C6 8864   3.901   0.880  15.149 -0.0832 -0.7988 -0.2814
  598TMC3     C 8865   3.898   0.787  15.553  0.2491  1.0698 -0.2912
  598TMC3     O 8866   3.788   0.791  15.607 -0.3866 -0.0464 -0.3649
  598TMC3     H 8867   3.697   0.785  15.403  1.5902 -0.6032  2.8924
  598TMC3    H1 8868   4.117   0.863  15.404  0.2843 -0.0643 -0.2197
  598TMC3    H2 8869   3.897   0.937  15.057  1.3490  1.6262  1.1566
  598TMC3    C7 8870   4.130   0.952  15.169 -0.2951  0.1930  0.1906
  598TMC3    C8 8871   3.666   0.891  15.154  0.4130  0.5897  0.7252
  598TMC3    O1 8872   4.172   1.044  15.238 -0.0899 -0.4053 -0.2347
  598TMC3    O2 8873   3.672   0.993  15.088  0.2874  1.0621  0.3660
  599MPD2     C 8874   4.047   3.325  15.992 -0.3889  0.8589 -0.4894
  599MPD2    C1 8875   3.992   3.196  15.980 -0.3091 -0.5884  0.5128
  599MPD2    C2 8876   3.855   3.177  15.977  0.0169  0.2715 -0.6160
  599MPD2    C3 8877   3.769   3.287  15.989  0.2703 -1.2349  0.0319
  599MPD2    C4 8878   3.826   3.412  15.983 -0.1852 -0.7352 -0.3660
  599MPD2    C5 8879   3.962   3.429  15.995  0.7134  0.2861  0.6435
  599MPD2     H 8880   3.811   3.078  15.970  0.9146  0.1055 -3.5446
  599MPD2    H1 8881   3.764   3.501  15.981 -1.1093 -1.3096  3.0043
  599MPD2    H2 8882   4.153   3.349  15.992 -0.3459  0.6535 -3.0900
  599MPD2    H3 8883   4.004   3.529  15.993  0.5071  0.3866  1.3457
  599MPD2     N 8884   3.628   3.281  16.020  0.5944 -0.3383 -0.1785
  599MPD2    H5 8885   3.586   3.373  16.033  0.6282 -0.4017  0.3918
  599MPD2    N1 8886   4.081   3.091  15.976  0.0557 -0.0248  0.4163
  599MPD2    H7 8887   4.179   3.115  15.986 -0.1895  2.2987 -2.7489
  600TMC3    C1 8888   3.426   3.183  16.092  0.6464 -0.1504 -0.0100
  600TMC3    C2 8889   3.340   3.082  16.068  0.0251 -1.0024 -0.0314
  600TMC3    C3 8890   3.210   3.092  16.119 -0.1757 -0.4321 -0.6075
  600TMC3    C4 8891   3.386   3.300  16.145  0.4977 -0.1305 -0.2058
  600TMC3    C5 8892   3.249   3.314  16.185 -0.3914 -0.2157  0.0906
  600TMC3    C6 8893   3.167   3.212  16.163 -0.4831 -0.5250  0.7940
  600TMC3     C 8894   3.555   3.162  16.024  0.0282  0.6440 -0.4556
  600TMC3     O 8895   3.585   3.052  15.978  0.2072  0.5574  0.0130
  600TMC3     H 8896   3.366   2.994  16.012  0.8222 -1.5856  1.2727
  600TMC3    H1 8897   3.452   3.385  16.148 -0.5844  0.8200 -2.8438
  600TMC3    H2 8898   3.070   3.217  16.210  0.2322  0.8494  2.1271
  600TMC3    C7 8899   3.208   3.422  16.277  0.1940  0.1307  0.2743
  600TMC3    C8 8900   3.143   2.964  16.157 -0.7182 -0.0793 -0.7576
  600TMC3    O1 8901   3.112   3.395  16.349  0.2110 -0.1553  0.4420
  600TMC3    O2 8902   3.202   2.860  16.160 -0.3311 -0.2561 -0.5912
  601MPD2     C 8903   1.650   1.016  17.645  0.5103 -1.0430 -0.7024
  601MPD2    C1 8904   1.542   1.004  17.568 -0.2168  0.1889 -0.4009
  601MPD2    C2 8905   1.466   0.896  17.584  0.6848  0.2055 -0.2733
  601MPD2    C3 8906   1.505   0.785  17.658  0.1210  0.0136 -0.2554
  601MPD2    C4 8907   1.612   0.804   0.053 -0.2996  0.2407  0.2368
  601MPD2    C5 8908   1.672   0.926   0.050 -0.1216 -0.3312 -0.2392
  601MPD2     H 8909   1.390   0.886  17.508  1.3470  0.5088 -0.9780
  601MPD2    H1 8910   1.630   0.739   0.138 -1.7257 -0.7929 -0.2441
  601MPD2    H2 8911   1.713   1.104  17.647  1.4212 -1.6676 -2.7600
  601MPD2    H3 8912   1.739   0.932   0.135  0.3015  1.2696 -0.6977
  601MPD2     N 8913   1.428   0.667  17.665 -0.3427 -0.3803  0.5390
  601MPD2    H5 8914   1.469   0.594   0.028 -0.6079 -0.1066  1.0727
  601MPD2    N1 8915   1.501   1.110  17.483  0.0553 -0.2392  0.4925
  601MPD2    H7 8916   1.419   1.090  17.426 -0.6341  1.5028  0.8857
  602TMC3    C1 8917   1.510   1.302  17.356 -0.2757  0.8442  0.0813
  602TMC3    C2 8918   1.521   1.437  17.367 -0.4758 -0.4958 -0.0403
  602TMC3    C3 8919   1.450   1.523  17.288  0.3541 -0.1842 -0.1606
  602TMC3    C4 8920   1.417   1.244  17.282  0.5069 -0.3033 -0.2268
  602TMC3    C5 8921   1.339   1.329  17.214 -0.1935  0.1060  0.5551
  602TMC3    C6 8922   1.359   1.469  17.198 -0.3315  0.3568 -0.4267
  602TMC3     C 8923   1.567   1.227  17.469 -0.4911  0.6312 -0.5837
  602TMC3     O 8924   1.668   1.278  17.518  0.6793 -0.0642  0.0496
  602TMC3     H 8925   1.575   1.480  17.450 -0.5130 -0.4284 -0.0508
  602TMC3    H1 8926   1.413   1.141  17.250  2.0582 -1.7627  4.2967
  602TMC3    H2 8927   1.304   1.523  17.122  0.3356 -0.3326 -1.4007
  602TMC3    C7 8928   1.232   1.276  17.135  0.6427 -0.0523  0.6015
  602TMC3    C8 8929   1.440   1.656  17.329 -0.4667  0.0356  0.3013
  602TMC3    O1 8930   1.240   1.162  17.088  0.0249 -0.0101 -0.3494
  602TMC3    O2 8931   1.516   1.700  17.416  1.2098 -0.3387  0.0524
  603TMC3    C1 8932   0.130   1.505  10.747  0.5794  1.1651  0.0244
  603TMC3    C2 8933   0.120   1.487  10.881 -0.3630  0.2662 -0.0073
  603TMC3    C3 8934   0.105   1.595  10.959  0.0645  0.1152 -0.6970
  603TMC3    C4 8935   0.134   1.633  10.702 -0.1762  0.3389  0.8425
  603TMC3    C5 8936   0.129   1.737  10.779  0.1290 -0.6411 -0.5086
  603TMC3    C6 8937   0.102   1.727  10.913 -0.2601  0.4514 -0.4757
  603TMC3     C 8938   0.135   1.389  10.663  0.2854  0.1224  0.0368
  603TMC3     O 8939   0.169   1.283  10.712 -0.3438 -0.4123 -0.5919
  603TMC3     H 8940   0.130   1.388  10.925  1.8525 -0.1414 -1.4214
  603TMC3    H1 8941   0.150   1.651  10.596 -3.6709 -0.1837  0.2261
  603TMC3    H2 8942   0.128   1.811  10.976  0.8804 -0.2411 -0.0235
  603TMC3    C7 8943   0.160   1.870  10.729 -0.2556 -0.0213  0.9908
  603TMC3    C8 8944   0.014   1.583  11.068  0.4932  0.0714  0.6720
  603TMC3    O1 8945   0.220   1.944  10.807 -0.6758  0.0605 -0.3928
  603TMC3    O2 8946   0.003   1.472  11.112 -0.0664  0.1816 -0.0088
  604MPD2     C 8947   0.316   0.573  16.209 -0.1471  0.0153 -0.6307
  604MPD2    C1 8948   0.173   0.573  16.199  0.1280  1.0215 -0.1797
  604MPD2    C2 8949   0.111   0.524  16.083  0.6880 -0.4709  0.2643
  604MPD2    C3 8950   0.184   0.488  15.978 -0.6568 -0.4622  0.2211
  604MPD2    C4 8951   0.326   0.501  15.982 -0.0030 -0.1397  0.0532
  604MPD2    C5 8952   0.387   0.547  16.096 -0.0054  0.2607 -0.2344
  604MPD2     H 8953   0.004   0.506  16.079  0.6926 -0.7284  1.2937
  604MPD2    H1 8954   0.385   0.466  15.897  0.1111 -0.7752  0.3983
  604MPD2    H2 8955   0.360   0.598  16.304 -1.7061 -1.9064  0.6040
  604MPD2    H3 8956   0.494   0.560  16.107  0.1174 -1.4801  0.6748
  604MPD2     N 8957   0.110   0.444  15.868  0.1833 -0.1663  0.1696
  604MPD2    H5 8958   0.010   0.459  15.880 -0.0876  0.7640 -3.2783
  604MPD2    N1 8959   0.107   0.609  16.319  0.3955  0.0141 -0.8563
  604MPD2    H7 8960   0.162   0.648  16.396  1.4331 -0.1957 -1.4991
  605TMC3    C1 8961   4.648   0.655  16.474  0.1641  0.6914 -0.3637
  605TMC3    C2 8962   0.040   0.678  16.544  0.9687 -0.5552 -0.5692
  605TMC3    C3 8963   0.055   0.811  16.590 -0.4889  0.4304 -0.3692
  605TMC3    C4 8964   4.556   0.756  16.454 -0.1650  0.8107 -0.2756
  605TMC3    C5 8965   4.572   0.874  16.516 -0.7704  0.1774  0.0856
  605TMC3    C6 8966   4.689   0.909  16.573  0.2736  0.0056 -0.5207
  605TMC3     C 8967   4.694   0.599  16.340 -0.5238 -0.1315  0.3070
  605TMC3     O 8968   4.599   0.575  16.262 -0.7577 -0.0196 -0.2838
  605TMC3     H 8969   0.104   0.593  16.564  0.8209 -0.5140  0.0797
  605TMC3    H1 8970   4.468   0.749  16.391 -1.3686  2.7791  1.1457
  605TMC3    H2 8971   4.707   1.009  16.612 -0.7291  0.7055 -1.8818
  605TMC3    C7 8972   4.457   0.956  16.522 -0.1942 -0.6968 -0.8770
  605TMC3    C8 8973   0.205   0.838  16.589  0.4293 -0.3718 -0.0422
  605TMC3    O1 8974   4.465   1.074  16.502 -0.2077  0.5672 -0.0174
  605TMC3    O2 8975   0.268   0.750  16.535 -0.4550 -0.1167 -0.0853
  606TMC3    C1 8976   1.071   3.814  17.068  0.4148 -0.1448  0.2018
  606TMC3    C2 8977   1.163   3.734  17.134 -0.2615 -0.7453  1.0568
  606TMC3    C3 8978   1.156   3.593  17.110  0.6075  1.2113 -0.9269
  606TMC3    C4 8979   0.991   3.764  16.967  0.1149  0.5506 -0.2920
  606TMC3    C5 8980   0.983   3.627  16.957  0.8752  0.0736 -0.3600
  606TMC3    C6 8981   1.068   3.541  17.023  0.1315 -1.0989  0.1109
  606TMC3     C 8982   1.081   3.958  17.090 -0.0640  1.3739  1.3267
  606TMC3     O 8983   1.091   3.983  17.206 -0.0480  0.0654 -0.6461
  606TMC3     H 8984   1.241   3.773  17.198 -0.0331 -0.3083  0.5097
  606TMC3    H1 8985   0.922   3.834  16.920  0.1764 -1.0485 -2.7653
  606TMC3    H2 8986   1.041   3.436  17.034  1.3060 -1.4413 -0.3205
  606TMC3    C7 8987   0.853   3.566  16.955 -0.3733 -0.1882 -0.0039
  606TMC3    C8 8988   1.220   3.505  17.202  0.3937  0.4133  0.5736
  606TMC3    O1 8989   0.788   3.603  16.857 -0.4417  0.0508 -0.2301
  606TMC3    O2 8990   1.265   3.570  17.297  0.0130  0.1151  0.4597
  607MPD2     C 8991   3.528   1.646  11.461  0.3054  0.0902  0.7202
  607MPD2    C1 8992   3.562   1.710  11.578  0.0675 -0.0799 -0.9320
  607MPD2    C2 8993   3.502   1.662  11.693 -0.3826 -0.4371 -0.0503
  607MPD2    C3 8994   3.433   1.544  11.693 -0.2940 -0.0088 -0.0758
  607MPD2    C4 8995   3.409   1.476  11.583 -0.7063  0.1187  0.5900
  607MPD2    C5 8996   3.461   1.530  11.467  0.4114 -0.1569 -0.0450
  607MPD2     H 8997   3.525   1.709  11.788 -0.8248 -2.3070  0.9698
  607MPD2    H1 8998   3.364   1.378  11.588 -1.9305  0.7195  1.4554
  607MPD2    H2 8999   3.554   1.695  11.368 -1.0761  2.8946  1.8171
  607MPD2    H3 9000   3.440   1.477  11.375 -3.6263 -0.3265  0.9954
  607MPD2     N 9001   3.393   1.499  11.824 -0.5532  0.4841  0.8338
  607MPD2    H5 9002   3.424   1.563  11.897  0.4763  1.4202 -0.4141
  607MPD2    N1 9003   3.644   1.821  11.594 -0.2007 -0.0476 -0.5880
  607MPD2    H7 9004   3.671   1.839  11.690 -1.1988 -3.2977  0.3189
  608TMC3    C1 9005   3.828   1.977  11.542  0.0316 -0.4192 -0.7119
  608TMC3    C2 9006   3.832   1.997  11.679 -0.6033  0.6815 -0.3605
  608TMC3    C3 9007   3.946   2.036  11.744 -1.0413 -0.4902 -0.6989
  608TMC3    C4 9008   3.947   1.979  11.477 -0.0594  0.3440 -0.3627
  608TMC3    C5 9009   4.055   2.012  11.549 -0.1812  0.0810 -0.2117
  608TMC3    C6 9010   4.066   2.049  11.681  0.3845  0.1180 -0.2632
  608TMC3     C 9011   3.723   1.884  11.494 -0.2493 -0.2046 -0.1974
  608TMC3     O 9012   3.732   1.858  11.375  0.3446  0.6309  0.2342
  608TMC3     H 9013   3.737   2.013  11.728 -0.4982 -1.4963  0.5529
  608TMC3    H1 9014   3.946   1.961  11.370 -0.5898 -0.9262 -0.1512
  608TMC3    H2 9015   4.153   2.075  11.741 -0.7297 -1.1278  1.8574
  608TMC3    C7 9016   4.163   2.063  11.456  0.0486 -0.0542  0.3884
  608TMC3    C8 9017   3.947   2.046  11.885 -0.3972 -0.4883 -0.7373
  608TMC3    O1 9018   4.143   2.068  11.335  0.2364 -0.0215 -0.9334
  608TMC3    O2 9019   4.021   2.119  11.946 -0.3047 -0.0394  0.1599
  609TMC3    C1 9020   3.266   0.990   9.180 -0.4886 -0.5474  0.1742
  609TMC3    C2 9021   3.307   1.069   9.085  1.0427 -0.5895 -0.4108
  609TMC3    C3 9022   3.408   1.028   9.009  0.2253 -0.2568  0.8079
  609TMC3    C4 9023   3.326   0.871   9.214 -0.2052 -0.6465 -0.0005
  609TMC3    C5 9024   3.426   0.830   9.138  0.9100 -0.6872 -0.2170
  609TMC3    C6 9025   3.471   0.905   9.029 -0.0850  0.2798 -0.4185
  609TMC3     C 9026   3.139   1.016   9.245 -0.2824  0.0501 -0.3886
  609TMC3     O 9027   3.082   0.917   9.293 -0.1349  0.4734 -0.2377
  609TMC3     H 9028   3.258   1.164   9.065  1.3644 -0.2843  0.2328
  609TMC3    H1 9029   3.303   0.814   9.304  0.8709 -1.7877 -0.4534
  609TMC3    H2 9030   3.538   0.863   8.954 -1.6120  1.4669 -2.4450
  609TMC3    C7 9031   3.466   0.692   9.161 -0.1566  0.2457 -0.1477
  609TMC3    C8 9032   3.429   1.118   8.896 -0.3314 -0.5164 -0.4521
  609TMC3    O1 9033   3.385   0.624   9.226  0.2846 -0.1092  0.2685
  609TMC3    O2 9034   3.341   1.201   8.865 -0.7958 -0.0911 -0.0512
  610TMC3    C1 9035   4.113   1.937  12.599 -0.2116  0.6552 -0.0488
  610TMC3    C2 9036   4.145   1.957  12.468  0.3109  0.4381 -0.5173
  610TMC3    C3 9037   4.131   1.852  12.384 -0.3628  0.4815 -0.2479
  610TMC3    C4 9038   4.053   1.816  12.637  0.0420  0.5571  0.0439
  610TMC3    C5 9039   4.032   1.716  12.548  0.1346 -0.3992  0.2748
  610TMC3    C6 9040   4.069   1.733  12.419  0.5644 -0.1210  0.2154
  610TMC3     C 9041   4.064   2.055  12.672  0.4683 -0.0043 -0.6413
  610TMC3     O 9042   4.039   2.149  12.598  0.0572 -0.1555  0.2818
  610TMC3     H 9043   4.164   2.058  12.433  2.1520  0.3858  0.3460
  610TMC3    H1 9044   4.031   1.799  12.742 -0.2767 -0.8657 -0.2456
  610TMC3    H2 9045   4.077   1.646  12.354 -0.4078 -0.7712  0.9680
  610TMC3    C7 9046   4.010   1.583  12.602 -0.4854 -0.0008  0.7184
  610TMC3    C8 9047   4.191   1.874  12.246 -0.8287  0.4083 -0.9381
  610TMC3    O1 9048   4.014   1.577  12.724  0.2393 -0.4684 -0.5054
  610TMC3    O2 9049   4.285   1.954  12.236  0.1541  0.2456  0.1980
  611MPD2     C 9050   4.218   1.535   9.964 -0.0705  0.0595 -0.5520
  611MPD2    C1 9051   4.133   1.640   9.972  0.5610  0.2221 -0.1518
  611MPD2    C2 9052   4.178   1.773   9.950 -0.1587  0.3515 -0.2157
  611MPD2    C3 9053   4.314   1.801   9.937 -0.0785 -0.1392  0.2477
  611MPD2    C4 9054   4.395   1.685   9.947 -0.3949 -0.0570  0.8296
  611MPD2    C5 9055   4.349   1.559   9.942  0.6846 -0.4168 -0.1189
  611MPD2     H 9056   4.108   1.855   9.954  1.5427  1.8934 -1.6217
  611MPD2    H1 9057   4.503   1.695   9.936 -0.5645  0.0842 -0.6406
  611MPD2    H2 9058   4.186   1.432   9.978  3.0381 -0.5272  2.2075
  611MPD2    H3 9059   4.419   1.477   9.928 -0.8395 -1.6852 -0.3177
  611MPD2     N 9060   4.374   1.926   9.942  0.4543 -0.3715  0.2039
  611MPD2    H5 9061   4.475   1.925   9.949  0.4046  1.1936  1.1918
  611MPD2    N1 9062   3.995   1.614  10.007 -0.4388 -0.2080  0.2372
  611MPD2    H7 9063   3.973   1.517  10.024  0.8929 -1.2076 -3.5984
  612TMC3    C1 9064   4.394   2.163   9.950 -0.7012 -0.2995  0.0799
  612TMC3    C2 9065   4.492   2.164  10.045  0.2584 -0.5236  1.0878
  612TMC3    C3 9066   4.551   2.288  10.076  0.0639 -0.6853  0.4211
  612TMC3    C4 9067   4.347   2.276   9.889 -0.1370 -0.8299 -1.0403
  612TMC3    C5 9068   4.412   2.395   9.920 -0.6284 -0.4408  0.2928
  612TMC3    C6 9069   4.517   2.405  10.014 -0.5833  0.0695  0.5176
  612TMC3     C 9070   4.306   2.048   9.943 -0.3278  0.3810 -0.4134
  612TMC3     O 9071   4.186   2.064   9.933 -0.2481 -0.5850  0.3388
  612TMC3     H 9072   4.518   2.069  10.091 -0.0023 -0.1398  2.0239
  612TMC3    H1 9073   4.255   2.286   9.833 -0.8321  2.8582  0.7961
  612TMC3    H2 9074   4.568   2.500  10.022  0.6442 -0.5883  0.5050
  612TMC3    C7 9075   4.327   2.502   9.875  0.5878 -0.2430 -0.2161
  612TMC3    C8 9076   4.641   2.297  10.189  0.5928 -0.5074 -0.0805
  612TMC3    O1 9077   4.268   2.488   9.770  0.1128  0.6191  0.5674
  612TMC3    O2 9078   4.705   2.401  10.200  0.0495  0.2794 -0.8429
  613MPD2     C 9079   2.005   3.757  16.331 -0.5974 -0.2291 -0.7233
  613MPD2    C1 9080   2.045   3.714  16.203  0.0260  0.1502 -0.2622
  613MPD2    C2 9081   2.039   3.579  16.178 -0.0092  0.3668 -0.0743
  613MPD2    C3 9082   2.014   3.486  16.274  0.1580 -0.0962  0.3301
  613MPD2    C4 9083   1.987   3.524  16.403  0.3171 -0.4032 -0.1303
  613MPD2    C5 9084   1.981   3.659  16.427  0.4746 -0.1654 -0.5929
  613MPD2     H 9085   2.064   3.551  16.076 -2.1780 -3.2135  0.3325
  613MPD2    H1 9086   1.975   3.448  16.480  1.0205 -1.4460 -1.0674
  613MPD2    H2 9087   2.010   3.863  16.352 -1.5539 -0.0430 -1.4320
  613MPD2    H3 9088   1.956   3.688  16.529 -1.9394 -1.3375 -0.8431
  613MPD2     N 9089   1.993   3.346  16.239 -0.1177  0.1602 -0.2092
  613MPD2    H5 9090   1.956   3.282  16.309 -0.5692  0.4207 -0.2119
  613MPD2    N1 9091   2.075   3.797  16.091  0.1365 -0.0840 -0.0264
  613MPD2    H7 9092   2.098   3.749  16.004  1.3448  0.7104 -0.1461
  614TMC3    C1 9093   2.134   3.978  15.961  0.6638 -0.1221 -0.1345
  614TMC3    C2 9094   2.194   3.883  15.882  0.3320  0.2386 -0.1420
  614TMC3    C3 9095   2.154   3.860  15.754  0.7074  0.6762  0.1781
  614TMC3    C4 9096   2.050   4.070  15.903 -0.6069 -0.3029 -0.0691
  614TMC3    C5 9097   2.023   4.049  15.766  0.6021  0.7222  0.4383
  614TMC3    C6 9098   2.068   3.943  15.689 -0.5675  0.0454 -0.2808
  614TMC3     C 9099   2.089   3.935  16.095 -0.7145  0.5804 -0.0197
  614TMC3     O 9100   2.044   4.018  16.172 -0.5778 -0.4863 -0.0655
  614TMC3     H 9101   2.267   3.815  15.924 -0.5901 -1.1530 -0.7915
  614TMC3    H1 9102   1.985   4.134  15.962  1.1080  1.3385  0.0329
  614TMC3    H2 9103   2.030   3.925  15.589 -2.6164  0.3900  0.4424
  614TMC3    C7 9104   1.951   4.161  15.695  0.3136 -0.0658  0.5350
  614TMC3    C8 9105   2.139   3.724  15.739 -0.4667  0.5168 -0.2359
  614TMC3    O1 9106   1.905   4.254  15.760 -0.0631 -0.7602 -0.4630
  614TMC3    O2 9107   2.127   3.663  15.845 -0.7550  0.6163 -0.2498
  615MPD2     C 9108   2.226   0.114  16.250  0.2592 -0.5013  0.5207
  615MPD2    C1 9109   2.252   0.240  16.209  0.9355  0.3683 -0.5227
  615MPD2    C2 9110   2.183   0.289  16.095 -0.4009 -0.0769  0.1820
  615MPD2    C3 9111   2.096   0.213  16.024  0.3133  0.2648  0.5443
  615MPD2    C4 9112   2.070   0.090  16.069 -0.2474 -0.0563 -0.4097
  615MPD2    C5 9113   2.130   0.044  16.179 -1.6647 -0.4520 -0.4931
  615MPD2     H 9114   2.189   0.394  16.070  1.9852 -0.3184 -0.2810
  615MPD2    H1 9115   2.005   0.022  16.015 -0.3416  0.5607 -1.0731
  615MPD2    H2 9116   2.266   0.066  16.338  1.0951 -0.7800 -0.0165
  615MPD2    H3 9117   2.115   4.664  16.208 -0.5136 -0.0257  1.6168
  615MPD2     N 9118   2.027   0.253  15.910 -0.7400  0.7580 -0.1317
  615MPD2    H5 9119   1.952   0.195  15.875 -1.3177  1.2052  0.3816
  615MPD2    N1 9120   2.326   0.328  16.280 -0.2322 -0.0562  0.0685
  615MPD2    H7 9121   2.327   0.423  16.245  0.5172 -0.4471 -0.9700
  616TMC3    C1 9122   2.447   0.422  16.456 -0.1859  0.2047 -0.6651
  616TMC3    C2 9123   2.469   0.536  16.386 -0.5708 -0.6720  0.4770
  616TMC3    C3 9124   2.512   0.650  16.454 -0.5104  0.0796 -0.1060
  616TMC3    C4 9125   2.431   0.429  16.596  0.1397  0.1211 -0.1786
  616TMC3    C5 9126   2.465   0.544  16.661  0.3326 -0.1530 -1.1124
  616TMC3    C6 9127   2.512   0.658  16.590 -0.3432  0.7429 -0.5679
  616TMC3     C 9128   2.389   0.303  16.398  0.3015 -0.7525 -0.5568
  616TMC3     O 9129   2.405   0.199  16.460  0.1849  0.7054  0.8173
  616TMC3     H 9130   2.481   0.532  16.278  1.8580  0.4094  0.7170
  616TMC3    H1 9131   2.394   0.342  16.650 -2.8289  1.3576 -0.2435
  616TMC3    H2 9132   2.536   0.746  16.649  0.7570  0.8325 -1.1400
  616TMC3    C7 9133   2.521   0.527  16.795  0.8111 -0.4073  0.0311
  616TMC3    C8 9134   2.529   0.773  16.377 -0.1998  0.3623 -0.2081
  616TMC3    O1 9135   2.583   0.615  16.844  0.2374  0.1335  0.4718
  616TMC3    O2 9136   2.486   0.770  16.264  0.0571 -0.2764 -0.0191
  617MPD2     C 9137   0.172   3.569  13.250 -0.6467  0.0297  0.1574
  617MPD2    C1 9138   0.153   3.593  13.381 -0.7949  0.1176 -0.3028
  617MPD2    C2 9139   0.041   3.535  13.445  0.6413 -0.0288 -0.0560
  617MPD2    C3 9140   4.671   3.471  13.367  0.6003  0.0327 -0.5282
  617MPD2    C4 9141   4.681   3.467  13.232  0.6786  0.3934 -0.9213
  617MPD2    C5 9142   0.068   3.521  13.170  0.2966 -0.3972 -0.3833
  617MPD2     H 9143   0.010   3.559  13.546  0.5038 -2.5223  0.4811
  617MPD2    H1 9144   4.609   3.419  13.166 -0.8164 -0.2492  1.2005
  617MPD2    H2 9145   0.264   3.598  13.199 -1.3766  0.0094 -1.1751
  617MPD2    H3 9146   0.082   3.517  13.063 -0.0476 -0.2340 -0.4358
  617MPD2     N 9147   4.557   3.419  13.423 -0.4146  1.0970  0.5563
  617MPD2    H5 9148   4.487   3.392  13.355  0.4613 -0.2889  0.2010
  617MPD2    N1 9149   0.258   3.652  13.458 -0.8461 -0.5971  0.1299
  617MPD2    H7 9150   0.348   3.671  13.415 -0.7297  2.2062  1.6373
  618TMC3    C1 9151   0.372   3.755  13.630 -0.4731 -0.3488 -0.1298
  618TMC3    C2 9152   0.432   3.667  13.712  0.3715 -0.3053  0.4237
  618TMC3    C3 9153   0.562   3.646  13.713  0.3316  0.1433 -0.1952
  618TMC3    C4 9154   0.442   3.811  13.528 -0.2680  0.4400 -0.7244
  618TMC3    C5 9155   0.572   3.776  13.519 -0.4367  0.4236 -0.1341
  618TMC3    C6 9156   0.637   3.695  13.611  0.5616 -0.4230 -0.2035
  618TMC3     C 9157   0.244   3.704  13.584  0.1976  0.0780  0.5399
  618TMC3     O 9158   0.143   3.737  13.645 -0.5267  0.3211 -0.1274
  618TMC3     H 9159   0.371   3.630  13.794 -0.8461  2.0093  0.5390
  618TMC3    H1 9160   0.400   3.881  13.457 -0.4859 -0.0421 -1.0635
  618TMC3    H2 9161   0.743   3.674  13.599  0.6509  0.3686 -0.8301
  618TMC3    C7 9162   0.595   3.754  13.382  0.1348 -0.4186 -0.8895
  618TMC3    C8 9163   0.612   3.541  13.798  0.2576 -0.2113 -0.6503
  618TMC3    O1 9164   0.501   3.757  13.306  0.1577 -0.3267  0.3990
  618TMC3    O2 9165   0.535   3.507  13.890  0.6768  0.0065  0.2801
  619MPD2     C 9166   1.495   4.704  13.657 -0.2463 -0.2271  0.2087
  619MPD2    C1 9167   1.401   0.044  13.570 -1.1295 -0.7494 -0.1421
  619MPD2    C2 9168   1.268   0.051  13.596  0.6152  0.5011 -0.6796
  619MPD2    C3 9169   1.220   4.712  13.711 -0.0715  0.4618 -0.0771
  619MPD2    C4 9170   1.311   4.651  13.800 -0.4033 -0.1232 -0.4915
  619MPD2    C5 9171   1.448   4.643  13.772  0.1008  0.4545 -0.0431
  619MPD2     H 9172   1.207   0.107  13.526 -0.4851  0.5706  0.3438
  619MPD2    H1 9173   1.278   4.599  13.889 -1.4842 -1.1318 -1.4771
  619MPD2    H2 9174   1.601   4.694  13.641 -0.0824 -0.5433  1.5353
  619MPD2    H3 9175   1.518   4.585  13.831 -1.9657 -1.4136  0.6162
  619MPD2     N 9176   1.085   0.002  13.729 -0.3552 -0.1237  0.2814
  619MPD2    H5 9177   1.035   0.044  13.652 -0.8128  1.2507  1.3096
  619MPD2    N1 9178   1.438   0.104  13.456 -0.3345 -0.5444 -0.1808
  619MPD2    H7 9179   1.365   0.145  13.398  0.0287 -0.7743 -0.8040
  620TMC3    C1 9180   1.584   0.211  13.297  0.7160 -0.6831  0.1342
  620TMC3    C2 9181   1.470   0.232  13.220 -0.0485  0.2253 -1.3678
  620TMC3    C3 9182   1.470   0.335  13.138  0.0324 -0.8788 -0.1359
  620TMC3    C4 9183   1.687   0.297  13.300  0.4257 -0.0840 -0.8425
  620TMC3    C5 9184   1.680   0.405  13.218 -0.3939  0.3702 -0.3186
  620TMC3    C6 9185   1.575   0.419  13.127 -0.2591 -0.0600 -0.0601
  620TMC3     C 9186   1.569   0.122  13.411  0.0845 -0.3044  0.3601
  620TMC3     O 9187   1.665   0.103  13.481 -0.1152  0.1215  0.0434
  620TMC3     H 9188   1.380   0.173  13.230  1.1263 -1.9630 -3.5398
  620TMC3    H1 9189   1.750   0.301  13.388  1.4718 -0.6117 -1.5690
  620TMC3    H2 9190   1.567   0.502  13.058  3.2506  1.6234  1.5892
  620TMC3    C7 9191   1.701   0.524  13.301  0.4277  0.1166 -0.4739
  620TMC3    C8 9192   1.347   0.397  13.100 -0.0806 -0.5061 -0.6501
  620TMC3    O1 9193   1.794   0.517  13.382 -0.2632 -0.0536 -0.2482
  620TMC3    O2 9194   1.333   0.515  13.134 -0.2792  0.8599 -0.7856
  621MPD2     C 9195   1.913   0.118  10.575  0.7577 -0.5099 -0.5707
  621MPD2    C1 9196   2.043   0.064  10.584 -0.0740 -0.4441 -0.5449
  621MPD2    C2 9197   2.121   0.079  10.472  0.0115 -0.1262  0.4063
  621MPD2    C3 9198   2.084   0.134  10.357 -0.4133  0.3230  0.1266
  621MPD2    C4 9199   1.954   0.180  10.346  0.3053 -0.2237 -0.5415
  621MPD2    C5 9200   1.871   0.174  10.459  0.5201 -1.3225  1.1780
  621MPD2     H 9201   2.221   0.037  10.477  0.7035  1.4868  0.1664
  621MPD2    H1 9202   1.909   0.196  10.249 -1.7463 -0.6672  0.3225
  621MPD2    H2 9203   1.842   0.124  10.657 -0.6598  0.7634 -1.8832
  621MPD2    H3 9204   1.768   0.209  10.456  0.8187 -0.2042  3.8148
  621MPD2     N 9205   2.185   0.132  10.257 -0.8106 -0.1103  0.2412
  621MPD2    H5 9206   2.267   0.079  10.285  0.0728  2.1058  1.8211
  621MPD2    N1 9207   2.100   0.009  10.699 -0.1735  0.0927 -0.1274
  621MPD2    H7 9208   2.194   4.693  10.688  0.0342  0.5657 -0.0429
  622TMC3    C1 9209   2.103   4.596  10.883  0.0953  0.5222  0.0929
  622TMC3    C2 9210   2.003   4.504  10.905 -1.0894 -0.7470  0.0043
  622TMC3    C3 9211   2.006   4.385  10.845  0.6100  0.3941  0.2952
  622TMC3    C4 9212   2.216   4.548  10.820 -0.2307  0.0491  0.1091
  622TMC3    C5 9213   2.226   4.419  10.781 -0.2091  0.5540  0.2487
  622TMC3    C6 9214   2.115   4.340  10.781 -0.9218  0.1171  0.1755
  622TMC3     C 9215   2.037   4.709  10.817  0.4805  0.2024 -0.0707
  622TMC3     O 9216   1.938   0.027  10.871  0.0970 -0.3657  0.1412
  622TMC3     H 9217   1.914   4.539  10.956  0.3119  1.1610  1.1284
  622TMC3    H1 9218   2.299   4.615  10.802 -0.7480  0.5140 -0.5548
  622TMC3    H2 9219   2.127   4.233  10.772  1.3149  0.5992 -2.6360
  622TMC3    C7 9220   2.337   4.381  10.691  0.6084  0.3165 -1.1583
  622TMC3    C8 9221   1.889   4.371  10.759  0.5028 -0.5142  0.6564
  622TMC3    O1 9222   2.439   4.447  10.687 -0.1953 -0.4196 -0.5772
  622TMC3    O2 9223   1.778   4.390  10.808 -0.2061  0.1053  1.2562
  623MPD2     C 9224   0.494   0.762  15.697  0.1337 -0.2307  0.3134
  623MPD2    C1 9225   0.441   0.803  15.815  0.1995 -0.2379  0.2159
  623MPD2    C2 9226   0.525   0.834  15.918  0.0961  0.2599 -0.3213
  623MPD2    C3 9227   0.657   0.821  15.912 -0.0240 -0.7875  0.3326
  623MPD2    C4 9228   0.709   0.784  15.790  0.3434 -1.1324 -0.0537
  623MPD2    C5 9229   0.627   0.756  15.682 -0.6779 -0.1517  0.2704
  623MPD2     H 9230   0.488   0.884  16.007  4.1950  1.4589  0.7091
  623MPD2    H1 9231   0.816   0.780  15.775 -0.0465 -2.8166 -2.3410
  623MPD2    H2 9232   0.428   0.734  15.616 -0.8617  1.8647  0.3949
  623MPD2    H3 9233   0.665   0.733  15.583 -0.8840  1.7774 -0.2607
  623MPD2     N 9234   0.732   0.837  16.029 -0.1871 -0.3662 -0.1790
  623MPD2    H5 9235   0.672   0.846  16.111  0.2907  0.6177  0.0646
  623MPD2    N1 9236   0.303   0.819  15.850 -0.7638  0.4817  0.1216
  623MPD2    H7 9237   0.268   0.860  15.936 -0.1206  0.7541  0.2479
  624TMC3    C1 9238   1.081   0.772  16.330  0.2652  0.3690 -1.0047
  624TMC3    C2 9239   1.017   0.851  16.425  0.9235  0.7433 -0.4040
  624TMC3    C3 9240   0.905   0.921  16.394  0.4635 -0.5296 -0.6973
  624TMC3    C4 9241   1.030   0.756  16.204  0.4731 -0.1216  0.7635
  624TMC3    C5 9242   0.916   0.829  16.179  0.2864  0.4557  0.2732
  624TMC3    C6 9243   0.849   0.908  16.271  0.2791 -0.1065 -0.4422
  624TMC3     C 9244   1.191   0.684  16.369 -0.7877  0.0341  0.1231
  624TMC3     O 9245   1.201   0.675  16.492  0.5330  0.2547 -0.6586
  624TMC3     H 9246   1.055   0.848  16.527  0.6681  3.1708 -0.2431
  624TMC3    H1 9247   1.067   0.701  16.119 -1.3862  0.9293 -0.7221
  624TMC3    H2 9248   0.766   0.972  16.244 -0.0564 -0.5201 -0.3960
  624TMC3    C7 9249   0.873   0.821  16.041 -0.3206  0.0667 -0.4368
  624TMC3    C8 9250   0.836   0.988  16.500  0.0205 -0.5418  0.0698
  624TMC3    O1 9251   0.947   0.781  15.950 -0.0895  0.6516  0.4536
  624TMC3    O2 9252   0.895   1.021  16.602 -0.2647  0.0944  0.2174
  625MPD2     C 9253   0.514   1.815   0.430 -0.5326 -0.6275  0.0405
  625MPD2    C1 9254   0.557   1.894   0.537 -0.2820  0.1678 -0.0668
  625MPD2    C2 9255   0.659   1.843   0.624  0.0203  0.3483 -0.2845
  625MPD2    C3 9256   0.716   1.720   0.595 -0.3982  0.2926 -0.1776
  625MPD2    C4 9257   0.656   1.641   0.498 -0.4375 -0.0729 -0.3428
  625MPD2    C5 9258   0.559   1.692   0.410  0.4506  0.3664  0.9323
  625MPD2     H 9259   0.686   1.900   0.712  1.9605 -0.5683 -0.2813
  625MPD2    H1 9260   0.679   1.536   0.487 -0.4044 -0.1475  0.4727
  625MPD2    H2 9261   0.431   1.842   0.365 -0.3641 -2.0805 -0.7692
  625MPD2    H3 9262   0.499   1.634   0.340 -0.8610  0.8622  1.6450
  625MPD2     N 9263   0.814   1.672   0.691 -0.6582 -0.1083 -0.3914
  625MPD2    H5 9264   0.833   1.741   0.763  1.4952 -0.0501 -1.0423
  625MPD2    N1 9265   0.494   2.018   0.570 -0.0517  0.3513  0.2617
  625MPD2    H7 9266   0.540   2.056   0.652  1.4082  0.5325 -0.6445
  626TMC3    C1 9267   0.346   2.200   0.543  0.2011 -0.4901 -0.3513
  626TMC3    C2 9268   0.267   2.273   0.456  0.6495 -0.0002 -0.5489
  626TMC3    C3 9269   0.224   2.396   0.505  0.0051  0.2623  0.1436
  626TMC3    C4 9270   0.388   2.258   0.664  0.2987  0.6692 -0.3177
  626TMC3    C5 9271   0.346   2.380   0.703 -0.3454 -0.0260  0.3386
  626TMC3    C6 9272   0.252   2.451   0.629 -0.5687 -0.9060  0.5890
  626TMC3     C 9273   0.390   2.077   0.500  0.1751 -0.6199  0.3064
  626TMC3     O 9274   0.319   2.041   0.408 -0.8600  0.2602 -0.0677
  626TMC3     H 9275   0.223   2.240   0.363 -2.4706  0.8772  0.6045
  626TMC3    H1 9276   0.440   2.192   0.732 -0.9596 -0.4505 -0.4499
  626TMC3    H2 9277   0.214   2.548   0.660 -0.2425 -0.4859 -0.3390
  626TMC3    C7 9278   0.398   2.426   0.829  0.6505  0.3262  0.1186
  626TMC3    C8 9279   0.161   2.482   0.409 -0.0111  0.3882  0.4795
  626TMC3    O1 9280   0.458   2.347   0.903 -0.1372 -0.1836  0.0401
  626TMC3    O2 9281   0.198   2.466   0.288 -0.0345  0.6785 -0.1746
  627MPD2     C 9282   3.840   2.597  14.176  0.4787 -0.1486 -0.3335
  627MPD2    C1 9283   3.890   2.579  14.303 -0.2098  0.9105 -0.4840
  627MPD2    C2 9284   3.868   2.458  14.359 -0.4994  0.1761 -0.0279
  627MPD2    C3 9285   3.790   2.364  14.300  0.0065  0.9993  1.0384
  627MPD2    C4 9286   3.737   2.391  14.175 -0.4295 -0.5240 -0.5628
  627MPD2    C5 9287   3.762   2.507  14.110  0.3118  0.7229 -0.4679
  627MPD2     H 9288   3.907   2.421  14.453 -1.5828 -0.6006  0.1157
  627MPD2    H1 9289   3.682   2.315  14.120 -1.8522 -0.8310  1.2737
  627MPD2    H2 9290   3.844   2.694  14.129 -0.6446 -0.5360 -1.2400
  627MPD2    H3 9291   3.713   2.529  14.016 -4.3330 -4.0147  0.8169
  627MPD2     N 9292   3.758   2.253  14.379 -0.6094  0.2899  0.0072
  627MPD2    H5 9293   3.804   2.243  14.469 -1.3403 -2.0683  0.1130
  627MPD2    N1 9294   3.959   2.674  14.383 -0.6223  0.0494 -0.2863
  627MPD2    H7 9295   4.000   2.646  14.471 -1.1821  1.2421  0.3546
  628TMC3    C1 9296   4.063   2.863  14.459 -0.5736  0.2211  0.1293
  628TMC3    C2 9297   4.093   2.793  14.575  0.1680 -0.4316  0.1869
  628TMC3    C3 9298   4.211   2.812  14.640 -0.3750 -0.2357  0.4543
  628TMC3    C4 9299   4.155   2.950  14.407  0.2440  0.3395  1.7936
  628TMC3    C5 9300   4.268   2.969  14.480  0.0950 -0.2595 -0.0388
  628TMC3    C6 9301   4.301   2.900  14.595 -0.5834 -0.4464  0.5026
  628TMC3     C 9302   3.986   2.804  14.353 -0.5979 -0.3657  0.1125
  628TMC3     O 9303   3.978   2.866  14.252 -0.6841 -0.3512  0.3574
  628TMC3     H 9304   4.022   2.720  14.612 -1.1652 -0.4270 -2.3632
  628TMC3    H1 9305   4.133   3.003  14.314  2.1247 -0.0870  1.1134
  628TMC3    H2 9306   4.406   2.891  14.621 -0.1665  0.1208 -1.0177
  628TMC3    C7 9307   4.354   3.078  14.447  0.1510  0.7097  0.2579
  628TMC3    C8 9308   4.261   2.685  14.688  0.2497 -0.0221 -0.2929
  628TMC3    O1 9309   4.466   3.089  14.501 -0.3539 -0.5074  0.3657
  628TMC3    O2 9310   4.195   2.584  14.656  0.4438  0.6281  0.1402
  629MPD2     C 9311   2.638   1.269  16.348  0.2113 -0.4482 -0.0007
  629MPD2    C1 9312   2.722   1.217  16.446  0.2744  0.3358  0.2647
  629MPD2    C2 9313   2.710   1.084  16.473  0.7068 -0.6403 -0.1663
  629MPD2    C3 9314   2.623   0.999  16.403 -0.8884 -0.5857 -0.1198
  629MPD2    C4 9315   2.541   1.055  16.302  0.4773  0.0692 -0.8187
  629MPD2    C5 9316   2.549   1.190  16.282 -0.3474  0.1951 -0.5590
  629MPD2     H 9317   2.766   1.037  16.554  0.2362  0.1652  0.6333
  629MPD2    H1 9318   2.461   1.003  16.251  1.4001 -0.7257 -1.4595
  629MPD2    H2 9319   2.643   1.375  16.325 -0.8474 -0.1227  1.2766
  629MPD2    H3 9320   2.485   1.228  16.203 -1.9444 -2.9013 -0.7362
  629MPD2     N 9321   2.610   0.865  16.445 -0.4712 -0.1362  0.0083
  629MPD2    H5 9322   2.665   0.834  16.525  0.0050  0.2075 -0.1912
  629MPD2    N1 9323   2.801   1.314  16.514  0.0610 -0.6917  0.3535
  629MPD2    H7 9324   2.805   1.410  16.481  1.1545 -0.8852 -0.0736
  630TMC3    C1 9325   2.931   1.390  16.699 -0.4289  0.2404  0.4337
  630TMC3    C2 9326   2.963   1.503  16.627 -0.9617  0.4967  0.7831
  630TMC3    C3 9327   3.006   1.614  16.700 -0.4571  0.7906  0.8493
  630TMC3    C4 9328   2.951   1.390  16.837  0.4060  0.4890  0.4533
  630TMC3    C5 9329   3.005   1.498  16.897  0.1706 -0.2743 -0.1130
  630TMC3    C6 9330   3.037   1.611  16.829 -0.0330  0.8028 -0.3239
  630TMC3     C 9331   2.867   1.275  16.633 -0.5017 -0.1089  0.2040
  630TMC3     O 9332   2.873   1.171  16.696 -0.4048 -0.0122 -0.1509
  630TMC3     H 9333   2.957   1.500  16.519  2.0386  1.2161  0.5920
  630TMC3    H1 9334   2.955   1.294  16.887 -0.5796 -0.0181 -0.4381
  630TMC3    H2 9335   3.065   1.697  16.888  0.0636  0.4091  0.2010
  630TMC3    C7 9336   3.041   1.494  17.034 -0.2460 -0.2566 -0.6812
  630TMC3    C8 9337   3.046   1.736  16.628 -0.1684 -0.5669  0.2807
  630TMC3    O1 9338   2.965   1.429  17.107 -0.1373 -0.1605  0.5135
  630TMC3    O2 9339   3.125   1.810  16.683 -0.1591 -0.2037 -0.4796
  631MPD2     C 9340   1.401   0.136  15.147  0.4913  0.2677 -0.5464
  631MPD2    C1 9341   1.486   0.235  15.099  0.2180 -0.1695  0.1195
  631MPD2    C2 9342   1.591   0.274  15.169  0.1985  0.3778 -0.3293
  631MPD2    C3 9343   1.631   0.201  15.281  0.1721 -0.4602  0.0301
  631MPD2    C4 9344   1.566   0.083  15.315 -0.6562 -0.4264 -0.7350
  631MPD2    C5 9345   1.448   0.057  15.242 -0.0015 -0.1016 -0.7889
  631MPD2     H 9346   1.645   0.364  15.142 -1.6298  1.9337  1.2425
  631MPD2    H1 9347   1.616   0.013  15.382  1.1404  1.7069  0.1203
  631MPD2    H2 9348   1.304   0.115  15.104  0.0185 -0.0244  0.6959
  631MPD2    H3 9349   1.394   4.689  15.268 -0.7987  0.4857 -0.3695
  631MPD2     N 9350   1.743   0.259  15.356  0.7946  0.0301 -0.3267
  631MPD2    H5 9351   1.779   0.352  15.334 -1.3360  1.6567  2.9701
  631MPD2    N1 9352   1.440   0.312  14.983 -0.2461 -0.7669  1.0197
  631MPD2    H7 9353   1.359   0.271  14.939 -0.7485  0.2732  0.9830
  632TMC3    C1 9354   1.429   0.481  14.819  0.0374  0.6214  0.6252
  632TMC3    C2 9355   1.303   0.520  14.859 -0.0776 -0.7274  0.3953
  632TMC3    C3 9356   1.235   0.618  14.791 -0.2190 -0.0144 -0.4335
  632TMC3    C4 9357   1.497   0.548  14.722 -0.3481 -0.3484 -0.4290
  632TMC3    C5 9358   1.416   0.632  14.654  0.5722 -0.3060  0.1866
  632TMC3    C6 9359   1.283   0.660  14.679 -0.2618  0.1094  0.3966
  632TMC3     C 9360   1.508   0.413  14.925  0.7298 -0.1145  0.8691
  632TMC3     O 9361   1.625   0.439  14.943 -0.8324 -0.5264 -0.5778
  632TMC3     H 9362   1.252   0.486  14.949 -2.5745 -0.8430 -1.0665
  632TMC3    H1 9363   1.601   0.519  14.711 -0.0801  0.7437 -0.8140
  632TMC3    H2 9364   1.226   0.728  14.617 -0.1007  1.0696  1.3115
  632TMC3    C7 9365   1.478   0.723  14.556 -0.2038  0.5975  0.2949
  632TMC3    C8 9366   1.127   0.691  14.855  0.0431 -0.4887  0.1222
  632TMC3    O1 9367   1.403   0.769  14.471  0.4213  0.0178  0.1999
  632TMC3    O2 9368   1.086   0.633  14.952  0.2947 -0.8335  0.1263
  633MPD2     C 9369   0.360   3.962  17.567 -0.1969 -0.5015 -0.1185
  633MPD2    C1 9370   0.396   3.877  17.460 -0.4733  0.7241  0.2425
  633MPD2    C2 9371   0.393   3.741  17.483  0.8478  0.7807 -0.5374
  633MPD2    C3 9372   0.366   3.680  17.600  0.5395 -0.7099  0.0040
  633MPD2    C4 9373   0.325   3.763   0.008 -0.3827 -0.0310  0.7914
  633MPD2    C5 9374   0.323   3.899  17.681 -0.6407 -0.0296  0.4345
  633MPD2     H 9375   0.426   3.670  17.407  1.9842 -0.4171  1.0884
  633MPD2    H1 9376   0.298   3.726   0.106  0.2262  0.5052  1.1645
  633MPD2    H2 9377   0.363   4.070  17.560  1.3531 -0.6258 -1.3238
  633MPD2    H3 9378   0.289   3.958   0.071 -1.5536  0.7485 -0.4816
  633MPD2     N 9379   0.366   3.536  17.612 -0.0410  0.1731 -0.0894
  633MPD2    H5 9380   0.386   3.489  17.525  1.2158  1.0148 -0.2482
  633MPD2    N1 9381   0.451   3.930  17.339 -0.5181  0.1215  0.6303
  633MPD2    H7 9382   0.480   3.864  17.267 -0.7348 -0.2389  0.8717
  634TMC3    C1 9383   0.492   4.085  17.164  0.5475 -0.1036 -0.0261
  634TMC3    C2 9384   0.530   3.973  17.095 -0.2927  0.9231  0.3902
  634TMC3    C3 9385   0.552   3.987  16.962  0.8340 -0.2564  0.3359
  634TMC3    C4 9386   0.450   4.200  17.099  0.2439  0.2149  0.3079
  634TMC3    C5 9387   0.466   4.201  16.966  0.3395  0.1545 -0.1581
  634TMC3    C6 9388   0.511   4.097  16.895  0.6256 -0.2560 -0.2014
  634TMC3     C 9389   0.445   4.060  17.299  0.1764 -0.0489  0.1163
  634TMC3     O 9390   0.405   4.161  17.350  0.8675 -0.4482 -0.7212
  634TMC3     H 9391   0.564   3.881  17.141 -2.9840 -0.3579 -0.1585
  634TMC3    H1 9392   0.413   4.284  17.156 -0.8583  0.3317 -0.5900
  634TMC3    H2 9393   0.514   4.109  16.788  0.5171 -0.5460 -0.2364
  634TMC3    C7 9394   0.411   4.314  16.891  0.2496 -0.2460  0.2491
  634TMC3    C8 9395   0.553   3.863  16.887  0.5834 -0.0605  0.2352
  634TMC3    O1 9396   0.380   4.288  16.776 -0.1244 -0.1152 -0.0627
  634TMC3    O2 9397   0.527   3.761  16.947  0.4173  0.6716  0.3641
  635TMC3    C1 9398   1.691   4.296  17.689  0.4862 -0.1931 -0.5239
  635TMC3    C2 9399   1.823   4.310   0.028 -0.2721  1.1224 -0.0761
  635TMC3    C3 9400   1.886   4.199   0.088 -0.4715 -0.0283 -0.5773
  635TMC3    C4 9401   1.621   4.184   0.032  0.0714  0.5892 -0.1717
  635TMC3    C5 9402   1.685   4.080   0.091  0.2835 -0.2745  0.5779
  635TMC3    C6 9403   1.822   4.085   0.117  0.0420 -0.3020 -0.0164
  635TMC3     C 9404   1.622   4.406  17.616  0.2751  0.1134  0.3640
  635TMC3     O 9405   1.498   4.406  17.619 -0.2317 -0.0086 -0.3099
  635TMC3     H 9406   1.876   4.404   0.037 -0.9907  1.4539  0.6858
  635TMC3    H1 9407   1.515   4.183   0.008  0.2414 -0.9060 -0.8634
  635TMC3    H2 9408   1.880   3.996   0.138  0.0592 -0.3463 -0.2513
  635TMC3    C7 9409   1.603   3.959   0.101 -0.1636  0.2220  0.3678
  635TMC3    C8 9410   2.017   4.217   0.134 -0.2662 -0.2023  0.4682
  635TMC3    O1 9411   1.488   3.971   0.064 -0.3900 -0.4771  0.3432
  635TMC3    O2 9412   2.072   4.314   0.085 -0.0990  0.3406 -0.5975
  636MPD2     C 9413   1.729   3.600  15.751 -0.8201  0.7075  0.5534
  636MPD2    C1 9414   1.699   3.629  15.880  0.0714 -0.2493 -0.3312
  636MPD2    C2 9415   1.684   3.528  15.973 -0.0183  0.2414  0.2008
  636MPD2    C3 9416   1.687   3.394  15.932  0.4303 -0.4135 -0.5379
  636MPD2    C4 9417   1.703   3.368  15.798 -0.2392 -0.1425  0.4356
  636MPD2    C5 9418   1.731   3.468  15.712  0.4510  0.4953 -0.1564
  636MPD2     H 9419   1.667   3.548  16.078  1.7096 -1.6855  0.8488
  636MPD2    H1 9420   1.707   3.267  15.759 -1.1953 -0.0674  0.1455
  636MPD2    H2 9421   1.768   3.665  15.674 -2.0336 -0.3460 -0.9757
  636MPD2    H3 9422   1.752   3.449  15.607 -0.4631 -1.4997  0.0198
  636MPD2     N 9423   1.672   3.284  16.017 -0.7161  0.5337 -0.2165
  636MPD2    H5 9424   1.687   3.315  16.113  1.8012 -2.6260  0.3961
  636MPD2    N1 9425   1.708   3.767  15.926  0.1642  0.0389  0.7656
  636MPD2    H7 9426   1.698   3.787  16.025  0.5980  0.8933  0.6391
  637TMC3    C1 9427   1.772   3.080  16.014  0.0620 -0.7953  0.0893
  637TMC3    C2 9428   1.845   3.149  16.102 -0.7584 -0.4710  0.3948
  637TMC3    C3 9429   1.981   3.163  16.084 -0.0138  0.0569 -0.2487
  637TMC3    C4 9430   1.824   3.021  15.909  0.0087  0.0954 -0.7023
  637TMC3    C5 9431   1.957   3.045  15.888 -0.2036 -0.3180  0.4458
  637TMC3    C6 9432   2.036   3.103  15.974 -0.2879  0.2180 -0.1874
  637TMC3     C 9433   1.656   3.156  15.980 -0.6679  0.0448 -0.1957
  637TMC3     O 9434   1.583   3.111  15.892 -0.2981  0.2469  0.3900
  637TMC3     H 9435   1.800   3.182  16.195  1.5182 -1.8860  1.9916
  637TMC3    H1 9436   1.763   2.971  15.834 -0.5219 -1.1920  0.5917
  637TMC3    H2 9437   2.143   3.109  15.959 -0.2877  0.4798 -0.0803
  637TMC3    C7 9438   1.983   3.100  15.756  0.5491 -0.5301 -0.5268
  637TMC3    C8 9439   2.033   3.293  16.118  0.7347 -0.7070 -0.2410
  637TMC3    O1 9440   1.947   3.034  15.656  0.5727 -0.1801  0.1321
  637TMC3    O2 9441   2.118   3.339  16.041 -0.6300  0.0545 -0.4609
  638MPD2     C 9442   1.586   3.067  14.947 -0.2883 -0.5768 -0.2586
  638MPD2    C1 9443   1.630   2.950  14.883 -0.5989  0.1260  0.3906
  638MPD2    C2 9444   1.628   2.824  14.954  0.5716  0.4027 -0.3350
  638MPD2    C3 9445   1.566   2.821  15.076  0.2488  0.1278  0.3179
  638MPD2    C4 9446   1.511   2.934  15.131 -0.0970 -0.0872  0.6073
  638MPD2    C5 9447   1.529   3.059  15.070  0.2846  0.1770 -0.1473
  638MPD2     H 9448   1.663   2.734  14.906  1.6791 -0.0871  1.4128
  638MPD2    H1 9449   1.452   2.942  15.222 -1.2678 -1.0918 -0.0728
  638MPD2    H2 9450   1.589   3.165  14.900  1.7744 -2.2010 -3.5849
  638MPD2    H3 9451   1.485   3.149  15.113 -1.6522  1.0602 -4.0437
  638MPD2     N 9452   1.554   2.689  15.136 -0.3378 -0.1326  0.1077
  638MPD2    H5 9453   1.626   2.626  15.101 -0.0302 -1.1664  2.6234
  638MPD2    N1 9454   1.689   2.953  14.755  0.3950  0.2085 -0.8299
  638MPD2    H7 9455   1.707   3.040  14.706  0.6397  1.6304  1.8033
  639TMC3    C1 9456   1.472   2.500  15.247 -0.4246 -0.6793 -0.9378
  639TMC3    C2 9457   1.361   2.434  15.216  0.3973  0.6641 -0.0798
  639TMC3    C3 9458   1.380   2.310  15.169 -0.1400  0.8050  0.6376
  639TMC3    C4 9459   1.593   2.445  15.241  0.3209 -0.0894  0.6333
  639TMC3    C5 9460   1.600   2.313  15.209  0.6689 -0.5852  0.2412
  639TMC3    C6 9461   1.492   2.235  15.179  0.6384  0.5145 -0.0062
  639TMC3     C 9462   1.458   2.642  15.217  0.4959 -0.1135  0.6882
  639TMC3     O 9463   1.363   2.698  15.268 -0.2863 -0.1031  0.0274
  639TMC3     H 9464   1.276   2.497  15.196  2.8028  4.5739  2.0529
  639TMC3    H1 9465   1.683   2.500  15.264  0.8708  0.2288 -2.3423
  639TMC3    H2 9466   1.484   2.132  15.148 -1.5812 -0.0091  2.2899
  639TMC3    C7 9467   1.717   2.243  15.247  0.3716  0.2308  0.3836
  639TMC3    C8 9468   1.258   2.258  15.095  0.2565 -0.1062  0.5776
  639TMC3    O1 9469   1.701   2.140  15.304 -0.0062 -0.0713  0.1387
  639TMC3    O2 9470   1.147   2.289  15.130 -0.1302  0.5827  0.4417
  640MPD2     C 9471   2.600   1.270  10.222 -0.0315  0.3416  0.3975
  640MPD2    C1 9472   2.650   1.356  10.128 -0.1624 -0.5586 -0.3358
  640MPD2    C2 9473   2.589   1.477  10.107  0.1372  0.5172 -0.0296
  640MPD2    C3 9474   2.478   1.508  10.183 -0.1639  0.7587  0.0075
  640MPD2    C4 9475   2.422   1.415  10.268 -0.0660  0.1453  0.0336
  640MPD2    C5 9476   2.489   1.300  10.296 -0.2375  0.2483 -0.2601
  640MPD2     H 9477   2.614   1.545  10.026 -3.0995 -0.9197 -2.2794
  640MPD2    H1 9478   2.331   1.440  10.322 -0.0686  2.9847 -1.2773
  640MPD2    H2 9479   2.643   1.178  10.259 -0.5861 -0.1893 -0.2825
  640MPD2    H3 9480   2.457   1.226  10.368 -2.1662  0.8723 -0.4542
  640MPD2     N 9481   2.402   1.628  10.167 -0.1200 -0.9811 -0.2572
  640MPD2    H5 9482   2.306   1.631  10.201  0.4535 -0.9086  1.3495
  640MPD2    N1 9483   2.754   1.306  10.047  0.0218  0.2570  0.7529
  640MPD2    H7 9484   2.776   1.209  10.067  0.2852  0.0833 -0.3939
  641TMC3    C1 9485   2.922   1.288   9.869 -0.5102 -0.0630 -0.5058
  641TMC3    C2 9486   2.945   1.153   9.884 -0.5376  0.2354 -0.1889
  641TMC3    C3 9487   3.020   1.088   9.785 -0.4778  0.2851 -0.0665
  641TMC3    C4 9488   3.007   1.359   9.787  0.1337  0.4529 -0.0972
  641TMC3    C5 9489   3.097   1.291   9.709  0.2043  0.1870 -0.1890
  641TMC3    C6 9490   3.103   1.153   9.703 -0.2830  0.0052  0.1978
  641TMC3     C 9491   2.823   1.370   9.944 -0.8457  0.1251 -1.3845
  641TMC3     O 9492   2.817   1.491   9.914  0.2961 -0.5667  0.0916
  641TMC3     H 9493   2.871   1.101   9.945  0.9727  0.9807  2.2563
  641TMC3    H1 9494   3.013   1.467   9.782  2.2595  0.4423  1.6293
  641TMC3    H2 9495   3.164   1.098   9.632 -1.1058  0.0625 -0.5584
  641TMC3    C7 9496   3.192   1.366   9.624  0.0533 -0.7798 -0.3352
  641TMC3    C8 9497   3.031   0.946   9.797 -0.1423  0.0727  0.4255
  641TMC3    O1 9498   3.181   1.486   9.628  0.1398  0.4410 -0.9908
  641TMC3    O2 9499   3.079   0.887   9.698  0.0627 -0.5491  1.0773
  642TMC3    C1 9500   3.653   2.690  12.311 -0.9462  0.1323 -0.7450
  642TMC3    C2 9501   3.611   2.704  12.446 -0.6685  0.0026 -1.3086
  642TMC3    C3 9502   3.582   2.590  12.510  0.4440  0.5409  0.9954
  642TMC3    C4 9503   3.683   2.572  12.253  0.5814  0.3045  0.4189
  642TMC3    C5 9504   3.655   2.459  12.330 -0.4240 -0.8568  0.1817
  642TMC3    C6 9505   3.601   2.466  12.461 -0.1281 -0.0481 -0.3512
  642TMC3     C 9506   3.608   2.793  12.226 -0.7135  0.4479  0.3493
  642TMC3     O 9507   3.669   2.812  12.121  0.6555 -0.3150  0.5397
  642TMC3     H 9508   3.617   2.801  12.494  0.7630 -0.9083  0.3609
  642TMC3    H1 9509   3.707   2.576  12.147 -1.1405  0.6273  0.0372
  642TMC3    H2 9510   3.596   2.384  12.532 -0.7059 -0.2871 -0.6635
  642TMC3    C7 9511   3.612   2.339  12.253 -0.3995 -0.0221  0.5582
  642TMC3    C8 9512   3.546   2.591  12.657 -0.5225 -0.2988  0.0278
  642TMC3    O1 9513   3.618   2.342  12.130 -0.4407  0.8897 -0.0921
  642TMC3    O2 9514   3.469   2.510  12.712 -0.1015  0.5128 -0.6827
  643TMC3    C1 9515   2.467   1.942   0.002  0.4006 -0.0880  0.8260
  643TMC3    C2 9516   2.336   1.968  17.661 -0.0822 -0.5803 -0.1383
  643TMC3    C3 9517   2.269   1.887  17.571  0.5182 -0.2599  0.3591
  643TMC3    C4 9518   2.534   1.838  17.639 -0.1591  0.2817  0.3154
  643TMC3    C5 9519   2.469   1.765  17.536 -0.0025 -0.0217 -0.1841
  643TMC3    C6 9520   2.335   1.785  17.507  0.3293  0.0923 -0.5411
  643TMC3     C 9521   2.516   1.998   0.131  0.0546  0.4360  0.6045
  643TMC3     O 9522   2.489   2.117   0.149 -0.5402 -0.4501 -0.2662
  643TMC3     H 9523   2.285   2.032   0.037 -1.7650 -1.8151 -0.2142
  643TMC3    H1 9524   2.634   1.808  17.668 -1.3880 -2.2189  1.9680
  643TMC3    H2 9525   2.279   1.730  17.432  0.9188 -1.0213 -0.1661
  643TMC3    C7 9526   2.536   1.650  17.479 -0.4260  0.3765 -0.6468
  643TMC3    C8 9527   2.198   1.962  17.470  0.2608  0.7321  0.4355
  643TMC3    O1 9528   2.598   1.579  17.562 -0.0047 -0.1515 -0.8097
  643TMC3    O2 9529   2.143   1.899  17.375  0.0172 -0.1260  0.0624
  644MPD2     C 9530   3.087   1.792   9.567  0.0362 -0.6375  0.0062
  644MPD2    C1 9531   3.220   1.825   9.567  0.6943 -0.5362  0.0027
  644MPD2    C2 9532   3.246   1.958   9.535  0.5175  0.6117 -0.1751
  644MPD2    C3 9533   3.148   2.053   9.515  0.2808 -0.0805 -0.0471
  644MPD2    C4 9534   3.015   2.020   9.524 -0.5255  0.0484 -0.3088
  644MPD2    C5 9535   2.987   1.887   9.546 -0.1692 -0.5489  0.1208
  644MPD2     H 9536   3.347   1.999   9.531  0.5943  0.6131  2.2376
  644MPD2    H1 9537   2.934   2.091   9.512 -0.6847 -0.1283 -0.2701
  644MPD2    H2 9538   3.051   1.691   9.585  0.1311 -0.3040  2.0798
  644MPD2    H3 9539   2.883   1.859   9.558 -0.2897 -0.6302 -1.0701
  644MPD2     N 9540   3.191   2.189   9.512 -0.3772  0.3725 -0.0295
  644MPD2    H5 9541   3.291   2.201   9.523 -0.8866  1.1200  3.8466
  644MPD2    N1 9542   3.316   1.732   9.606 -0.5030  0.0739 -0.1254
  644MPD2    H7 9543   3.287   1.637   9.624  0.7197 -0.1241  0.8426
  645TMC3    C1 9544   3.174   2.424   9.473  0.3597 -0.0764  0.7119
  645TMC3    C2 9545   3.272   2.452   9.558  0.0812  0.6323  0.0344
  645TMC3    C3 9546   3.293   2.582   9.593 -1.1264 -0.0206 -0.1902
  645TMC3    C4 9547   3.100   2.520   9.406 -0.2488  0.2494  0.5851
  645TMC3    C5 9548   3.128   2.652   9.439  0.3910 -1.1061  0.0702
  645TMC3    C6 9549   3.218   2.682   9.535  0.0727  0.3112 -0.1001
  645TMC3     C 9550   3.119   2.293   9.466  0.3575  0.4375 -0.0124
  645TMC3     O 9551   3.010   2.287   9.411  0.0200 -0.1169 -0.1477
  645TMC3     H 9552   3.319   2.368   9.609 -2.0904 -0.9473 -0.5233
  645TMC3    H1 9553   3.036   2.499   9.321 -1.8293  0.7077  1.6551
  645TMC3    H2 9554   3.234   2.785   9.565  0.0902  0.1359  0.4952
  645TMC3    C7 9555   3.094   2.762   9.352  0.1610 -0.7636  0.0542
  645TMC3    C8 9556   3.412   2.625   9.667  0.4388  0.5072  0.1814
  645TMC3    O1 9557   3.159   2.864   9.358  0.6559 -0.0560  0.1506
  645TMC3    O2 9558   3.425   2.741   9.704  0.2484 -0.8552  0.3333
  646MPD2     C 9559   2.053   1.318  14.519 -0.1769 -0.0624  0.3281
  646MPD2    C1 9560   1.998   1.389  14.620  0.3412 -0.2446 -0.2706
  646MPD2    C2 9561   1.916   1.498  14.588  0.2948  0.1618 -0.6033
  646MPD2    C3 9562   1.878   1.523  14.460 -0.0621 -0.6428  0.1958
  646MPD2    C4 9563   1.930   1.442  14.360  0.0079  0.3423  0.2800
  646MPD2    C5 9564   2.008   1.339  14.395  0.0340 -0.3997  0.8505
  646MPD2     H 9565   1.865   1.551  14.668  2.5005 -0.0926  0.9837
  646MPD2    H1 9566   1.904   1.452  14.255 -0.5591 -4.5969 -0.0761
  646MPD2    H2 9567   2.104   1.226  14.546 -1.1301 -0.2309  1.5748
  646MPD2    H3 9568   2.035   1.270  14.316 -0.0815 -1.9159  2.1379
  646MPD2     N 9569   1.791   1.632  14.437  0.5497 -0.1938  0.5555
  646MPD2    H5 9570   1.751   1.667  14.524 -4.1228  0.2081 -1.7850
  646MPD2    N1 9571   2.022   1.331  14.747 -0.0760 -0.0683  0.4110
  646MPD2    H7 9572   2.075   1.246  14.763  1.6046  0.8388 -0.3129
  647TMC3    C1 9573   1.978   1.293  14.978  0.1957  0.0092  0.6284
  647TMC3    C2 9574   1.887   1.296  15.081 -0.5000 -0.1563 -0.2845
  647TMC3    C3 9575   1.937   1.276  15.208 -0.5121  0.7353  0.3900
  647TMC3    C4 9576   2.110   1.280  14.997 -0.7686 -0.3849 -0.8846
  647TMC3    C5 9577   2.154   1.272  15.124  0.2674  0.4718 -0.5058
  647TMC3    C6 9578   2.072   1.262  15.231 -0.2411 -0.6428  0.3745
  647TMC3     C 9579   1.946   1.368  14.860  0.3592 -0.0351 -0.3409
  647TMC3     O 9580   1.873   1.464  14.876 -0.2401  0.3652  0.7052
  647TMC3     H 9581   1.783   1.309  15.053 -0.4825  0.1419 -0.2121
  647TMC3    H1 9582   2.177   1.320  14.921  1.3455 -0.9526  0.6845
  647TMC3    H2 9583   2.105   1.221  15.326  0.8294 -0.7796 -0.0670
  647TMC3    C7 9584   2.286   1.212  15.127 -0.7271  0.3142  0.2215
  647TMC3    C8 9585   1.870   1.166  15.281  0.4820 -0.5225 -0.0971
  647TMC3    O1 9586   2.336   1.200  15.240  0.8175  0.0052  0.1814
  647TMC3    O2 9587   1.910   1.126  15.393  0.5509  0.3005 -0.5529
  648TMC3    C1 9588   1.013   3.897  15.963 -0.2748  0.1910 -0.3316
  648TMC3    C2 9589   1.008   3.757  15.944  0.0866 -0.0600 -0.1694
  648TMC3    C3 9590   0.918   3.711  15.855  0.0307  0.5727 -0.3200
  648TMC3    C4 9591   0.915   3.975  15.902 -0.0722 -0.0560 -0.8143
  648TMC3    C5 9592   0.824   3.921  15.814 -0.6688 -0.3939  0.0078
  648TMC3    C6 9593   0.815   3.786  15.795 -0.0998  0.3169  0.0131
  648TMC3     C 9594   1.034   3.939  16.098 -0.5125  0.2053 -0.4563
  648TMC3     O 9595   1.056   4.058  16.114  0.7315 -0.2727 -0.1272
  648TMC3     H 9596   1.081   3.693  15.991  0.0769  0.8034  1.0077
  648TMC3    H1 9597   0.915   4.082  15.920 -0.6668  0.4565 -3.9059
  648TMC3    H2 9598   0.753   3.744  15.716  0.9152  0.2826 -0.7705
  648TMC3    C7 9599   0.710   4.002  15.763 -0.0536 -0.0664  0.1351
  648TMC3    C8 9600   0.930   3.576  15.810  0.2242 -0.8554 -0.5213
  648TMC3    O1 9601   0.637   3.950  15.679  0.2994 -0.0170 -0.1167
  648TMC3    O2 9602   0.826   3.516  15.793 -0.3171  0.0873 -0.2384
  649TMC3    C1 9603   4.667   4.665  12.959  0.2067  0.0750 -0.0148
  649TMC3    C2 9604   0.050   0.005  13.020  0.5493 -0.0598 -0.2796
  649TMC3    C3 9605   0.159   4.650  13.049  0.4491 -0.0641 -0.1034
  649TMC3    C4 9606   4.670   4.524  12.944  0.5427  0.6067  0.2739
  649TMC3    C5 9607   0.046   4.442  12.989  0.1264 -0.9250 -0.4211
  649TMC3    C6 9608   0.154   4.510  13.041 -0.1161 -0.5557  0.2374
  649TMC3     C 9609   4.572   0.024  12.878 -0.1915  0.3427 -0.1519
  649TMC3     O 9610   4.548   0.137  12.919 -0.4896  0.3145 -0.1936
  649TMC3     H 9611   0.035   0.112  13.036  2.6268 -0.0682  1.6556
  649TMC3    H1 9612   4.582   4.476  12.902  0.4930 -0.0618  1.1371
  649TMC3    H2 9613   0.243   4.451  13.060  1.1497  1.4425  0.5124
  649TMC3    C7 9614   4.713   4.350  13.090 -0.0199  0.1262 -0.4853
  649TMC3    C8 9615   0.247   4.693  13.152  0.0522  0.5772  0.7518
  649TMC3    O1 9616   4.597   4.319  13.071 -0.1253  0.0968  0.1934
  649TMC3    O2 9617   0.289   4.610  13.229 -0.5313  0.3046  0.6590
  650TMC3    C1 9618   2.908   1.872  12.832  0.0919  0.0774 -0.0041
  650TMC3    C2 9619   2.870   1.994  12.773  0.0264  0.3782  0.8480
  650TMC3    C3 9620   2.744   2.030  12.751  0.9345  0.0166 -0.5622
  650TMC3    C4 9621   2.812   1.776  12.850  0.1763  0.2562  0.2226
  650TMC3    C5 9622   2.689   1.802  12.787 -0.3185  0.1094 -0.5187
  650TMC3    C6 9623   2.653   1.929  12.770  0.5095 -0.3101  0.2385
  650TMC3     C 9624   3.046   1.832  12.801 -0.4592  0.0120  0.1133
  650TMC3     O 9625   3.136   1.905  12.840  0.3751  0.1459 -0.1225
  650TMC3     H 9626   2.954   2.061  12.755 -0.6825  1.2408  0.7471
  650TMC3    H1 9627   2.833   1.676  12.885  0.4379 -1.0202 -3.5036
  650TMC3    H2 9628   2.549   1.948  12.745 -0.4391 -3.2539  1.9328
  650TMC3    C7 9629   2.674   1.719  12.674  0.4726 -0.4998 -0.2141
  650TMC3    C8 9630   2.724   2.147  12.664 -0.4170  0.9725 -0.1545
  650TMC3    O1 9631   2.732   1.614  12.677  0.1484  0.5700  0.0336
  650TMC3    O2 9632   2.826   2.186  12.613 -0.0498  0.5020  0.8610
  651MPD2     C 9633   1.946   3.577  10.267 -0.6023  0.1445 -0.2615
  651MPD2    C1 9634   1.921   3.672  10.365  0.2026 -0.2432  0.6009
  651MPD2    C2 9635   2.024   3.737  10.427 -0.6783  0.8293  0.2246
  651MPD2    C3 9636   2.149   3.703  10.411 -0.1841 -0.6505  0.3519
  651MPD2    C4 9637   2.188   3.612  10.318  0.0192 -0.0657  0.5403
  651MPD2    C5 9638   2.083   3.547  10.240 -1.1495  0.4439  0.0287
  651MPD2     H 9639   1.994   3.814  10.498  0.3404  0.5698  0.9365
  651MPD2    H1 9640   2.288   3.578  10.296  0.1727  1.2724 -0.8265
  651MPD2    H2 9641   1.869   3.522  10.215  0.7674 -1.8072 -0.2138
  651MPD2    H3 9642   2.109   3.467  10.172  0.2810  1.2874 -0.4158
  651MPD2     N 9643   2.247   3.766  10.494 -0.4679  0.0118  0.5428
  651MPD2    H5 9644   2.212   3.834  10.561  0.4228  2.2921 -1.3268
  651MPD2    N1 9645   1.789   3.688  10.420 -0.3612  0.7344  0.4448
  651MPD2    H7 9646   1.776   3.759  10.491 -0.4487  0.4315  0.7312
  652TMC3    C1 9647   2.619   3.802  10.767  0.1137 -0.4452 -0.0937
  652TMC3    C2 9648   2.572   3.782  10.640 -0.2610 -0.1831 -0.3659
  652TMC3    C3 9649   2.440   3.817  10.616  0.2747  0.2367 -0.1131
  652TMC3    C4 9650   2.541   3.845  10.868  0.2165 -0.3801 -0.4140
  652TMC3    C5 9651   2.415   3.890  10.835 -0.4964 -0.4669  0.9602
  652TMC3    C6 9652   2.362   3.877  10.715  0.1295 -0.0617 -0.5773
  652TMC3     C 9653   2.752   3.752  10.804 -0.4428  0.1389  0.6945
  652TMC3     O 9654   2.765   3.742  10.925 -0.2859  0.0819 -0.2856
  652TMC3     H 9655   2.639   3.739  10.566 -0.3526  0.0293 -0.5739
  652TMC3    H1 9656   2.575   3.864  10.969  0.5649  0.7907 -0.7545
  652TMC3    H2 9657   2.268   3.922  10.687  0.2639  0.9946  0.6446
  652TMC3    C7 9658   2.353   3.990  10.910  0.5486 -0.0529  0.6095
  652TMC3    C8 9659   2.381   3.752  10.497  0.1029 -0.2452  0.3700
  652TMC3    O1 9660   2.232   3.996  10.925  0.5929  0.3932  0.4611
  652TMC3    O2 9661   2.449   3.682  10.423 -0.0207  0.2125 -0.2404
  653MPD2     C 9662   0.051   4.064   0.030  0.1783  0.0972 -0.7047
  653MPD2    C1 9663   0.061   4.138  17.605  0.5994  0.2987  0.2675
  653MPD2    C2 9664   4.710   4.100  17.493  0.0642 -0.3412 -0.4589
  653MPD2    C3 9665   4.645   3.985  17.486 -0.4168 -0.5320 -0.3972
  653MPD2    C4 9666   4.628   3.913  17.598 -0.1968 -0.1738  0.4438
  653MPD2    C5 9667   4.687   3.955   0.022 -0.0844  0.2396  0.3906
  653MPD2     H 9668   4.721   4.165  17.407 -4.3191  0.8890 -0.0946
  653MPD2    H1 9669   4.566   3.825  17.612  1.1805 -1.4626 -1.7178
  653MPD2    H2 9670   0.099   4.083   0.125  0.7545 -0.6907 -0.8377
  653MPD2    H3 9671   4.670   3.897   0.112 -1.7452  1.4223  0.8446
  653MPD2     N 9672   4.601   3.945  17.356  0.2496  0.2636  0.2903
  653MPD2    H5 9673   4.615   4.015  17.285 -0.1382  1.1049  1.0406
  653MPD2    N1 9674   0.137   4.260  17.589 -0.2240 -0.2260 -0.0040
  653MPD2    H7 9675   0.123   4.318  17.507 -0.0174 -0.8608 -0.4952
  654TMC3    C1 9676   4.498   3.823  17.180 -0.6180 -0.9469 -0.2778
  654TMC3    C2 9677   4.486   3.935  17.097  1.1708  0.4612 -0.2016
  654TMC3    C3 9678   4.479   3.915  16.963 -0.2126  0.0701  0.0651
  654TMC3    C4 9679   4.483   3.697  17.127  0.6542  0.3523 -0.0878
  654TMC3    C5 9680   4.473   3.681  16.993 -0.3781 -0.5415  0.0326
  654TMC3    C6 9681   4.470   3.788  16.910 -0.4006 -0.1130 -0.5563
  654TMC3     C 9682   4.531   3.835  17.320  0.3749  0.4143  0.0230
  654TMC3     O 9683   4.517   3.740  17.392 -0.2148  0.2249 -0.3625
  654TMC3     H 9684   4.478   4.034  17.140 -2.3180  0.0164  0.1895
  654TMC3    H1 9685   4.480   3.612  17.194 -0.3922  1.7145  1.5868
  654TMC3    H2 9686   4.454   3.766  16.806 -1.4642 -1.7965 -0.0293
  654TMC3    C7 9687   4.493   3.546  16.930 -0.4588  0.1667  0.4035
  654TMC3    C8 9688   4.441   4.030  16.889  0.1090  0.2156 -0.7777
  654TMC3    O1 9689   4.491   3.558  16.808  0.4463  0.0553  0.0050
  654TMC3    O2 9690   4.383   4.121  16.942 -0.2640  0.1217 -0.4106
  655MPD2     C 9691   1.312   3.980  15.687  0.0429 -0.7231  0.4199
  655MPD2    C1 9692   1.187   4.017  15.645 -0.3908 -0.0816  0.1029
  655MPD2    C2 9693   1.123   3.945  15.545 -0.3548 -0.1634 -0.5210
  655MPD2    C3 9694   1.189   3.840  15.481 -0.0860  0.3206  0.5001
  655MPD2    C4 9695   1.313   3.800  15.526  0.7690 -0.9234  0.5887
  655MPD2    C5 9696   1.367   3.865  15.637 -0.6499  0.3291 -0.7343
  655MPD2     H 9697   1.025   3.979  15.514 -0.1690  0.9928  0.1430
  655MPD2    H1 9698   1.372   3.726  15.475  1.4435 -0.1824  0.2960
  655MPD2    H2 9699   1.367   4.022  15.771  0.4657  1.3628 -0.9080
  655MPD2    H3 9700   1.473   3.851  15.658 -0.6426  0.8123 -0.4639
  655MPD2     N 9701   1.130   3.772  15.372  0.5580  0.2286 -0.3684
  655MPD2    H5 9702   1.174   3.692  15.328 -3.8279 -0.7010 -3.1558
  655MPD2    N1 9703   1.124   4.138  15.694  0.0805  0.4245 -0.3859
  655MPD2    H7 9704   1.048   4.182  15.644 -0.4876 -1.3827 -1.1375
  656TMC3    C1 9705   1.078   4.333  15.819 -0.0098  0.3559 -0.5485
  656TMC3    C2 9706   1.044   4.352  15.949 -0.3204 -0.1228  0.4894
  656TMC3    C3 9707   0.925   4.419  15.961 -0.2543 -0.2487  0.2289
  656TMC3    C4 9708   1.005   4.368  15.711 -0.1298  0.1062 -0.5021
  656TMC3    C5 9709   0.903   4.447  15.734  0.7357  1.1329 -0.1089
  656TMC3    C6 9710   0.851   4.466  15.857  0.6435 -0.8711  0.0826
  656TMC3     C 9711   1.165   4.215  15.800 -0.5507  0.3019 -0.0518
  656TMC3     O 9712   1.245   4.192  15.890 -0.0547  0.0482 -0.5300
  656TMC3     H 9713   1.096   4.300  16.029  2.1126 -2.8897 -2.9090
  656TMC3    H1 9714   1.044   4.372  15.610  0.8023 -0.1401 -0.1566
  656TMC3    H2 9715   0.764   4.529  15.875  1.8989  1.7369 -2.9734
  656TMC3    C7 9716   0.808   4.449  15.622  1.3352 -0.0608 -0.1554
  656TMC3    C8 9717   0.853   4.382  16.083 -0.4875 -0.6116  0.1693
  656TMC3    O1 9718   0.841   4.399  15.513 -0.2748 -0.5322  0.0895
  656TMC3    O2 9719   0.843   4.266  16.114 -0.4772 -0.1203 -0.4254
  657TMC3    C1 9720   0.119   3.196  15.081 -0.1185 -0.1053  0.5535
  657TMC3    C2 9721   0.161   3.233  15.208  0.0037  0.8491 -0.0256
  657TMC3    C3 9722   0.090   3.330  15.275  0.0683  0.4457 -0.1711
  657TMC3    C4 9723   0.006   3.248  15.026 -0.0961  0.3103 -0.4235
  657TMC3    C5 9724   4.660   3.340  15.102  0.3292  0.3321 -0.1770
  657TMC3    C6 9725   4.700   3.384  15.220 -0.2315 -0.0462  0.2721
  657TMC3     C 9726   0.171   3.076  15.018  0.7727  0.5942 -0.4130
  657TMC3     O 9727   0.109   3.026  14.920 -0.6287  0.5205  0.1139
  657TMC3     H 9728   0.244   3.190  15.262 -0.2574 -0.3959 -0.6190
  657TMC3    H1 9729   4.700   3.216  14.927  1.9969 -1.5917 -0.4133
  657TMC3    H2 9730   4.635   3.447  15.279 -0.3382 -1.3107  1.5155
  657TMC3    C7 9731   4.550   3.417  15.048 -0.0128  0.5160 -0.1408
  657TMC3    C8 9732   0.134   3.387  15.399 -0.3563 -0.8862 -0.2972
  657TMC3    O1 9733   4.513   3.518  15.108  0.2618 -0.6017 -0.0685
  657TMC3    O2 9734   0.074   3.486  15.434 -0.5626 -0.2542  0.7571
  658MPD2     C 9735   1.472   3.488  14.939 -0.4655  0.2855 -0.3069
  658MPD2    C1 9736   1.384   3.569  14.872  0.1378  0.1255 -0.9176
  658MPD2    C2 9737   1.426   3.617  14.751 -0.1983  0.2040  1.2673
  658MPD2    C3 9738   1.550   3.588  14.708 -0.6809  0.0615  0.1208
  658MPD2    C4 9739   1.644   3.523  14.781  0.1256  0.7979 -0.3519
  658MPD2    C5 9740   1.600   3.469  14.896  0.3394 -0.8377 -0.1547
  658MPD2     H 9741   1.347   3.663  14.692  1.2376  2.6452  1.2234
  658MPD2    H1 9742   1.748   3.497  14.762 -0.0249  0.1615 -0.2856
  658MPD2    H2 9743   1.443   3.440  15.031  1.1682  1.6294  0.8966
  658MPD2    H3 9744   1.663   3.405  14.957 -3.3079 -2.1152  2.2463
  658MPD2     N 9745   1.583   3.649  14.586 -0.2236 -0.0993 -0.0080
  658MPD2    H5 9746   1.503   3.702  14.551  0.0962 -0.8438 -1.8504
  658MPD2    N1 9747   1.249   3.583  14.926  0.1995 -0.2907  0.2841
  658MPD2    H7 9748   1.226   3.526  15.006  0.3889 -1.7421 -0.7072
  659TMC3    C1 9749   1.044   3.697  14.969  0.4600 -0.1843  0.4743
  659TMC3    C2 9750   1.072   3.715  15.103 -0.0611 -0.2035  0.5007
  659TMC3    C3 9751   0.974   3.724  15.192 -0.7945  0.5753 -0.2591
  659TMC3    C4 9752   0.922   3.737  14.915 -0.2537 -0.8483  0.4541
  659TMC3    C5 9753   0.821   3.743  15.013 -0.0163 -0.2615  0.2404
  659TMC3    C6 9754   0.846   3.743  15.148 -0.1882  0.5365 -0.1571
  659TMC3     C 9755   1.159   3.683  14.885  0.0156 -0.2747  0.3455
  659TMC3     O 9756   1.168   3.765  14.793  0.2398  0.2079  0.2380
  659TMC3     H 9757   1.175   3.697  15.134  0.1107 -2.5863 -1.4212
  659TMC3    H1 9758   0.893   3.727  14.811 -1.0890 -0.0345  0.6137
  659TMC3    H2 9759   0.763   3.753  15.216 -0.1101  0.4535 -0.0500
  659TMC3    C7 9760   0.691   3.727  14.966 -0.0195 -0.7313  0.3938
  659TMC3    C8 9761   1.004   3.800  15.311 -0.1861 -0.0839 -0.0171
  659TMC3    O1 9762   0.599   3.777  15.025  0.1429  0.1831 -0.3046
  659TMC3    O2 9763   0.913   3.868  15.356  0.1129 -0.3153  0.1382
  660MPD2     C 9764   4.689   2.020  13.043  0.2258  0.0376 -0.4390
  660MPD2    C1 9765   4.650   2.142  13.005 -0.0486 -0.3711  0.3962
  660MPD2    C2 9766   4.563   2.213  13.092  0.6541  0.4958  0.3907
  660MPD2    C3 9767   4.500   2.153  13.199 -0.2702  0.4786 -0.2639
  660MPD2    C4 9768   4.544   2.031  13.237 -0.2188 -0.1828 -0.5337
  660MPD2    C5 9769   4.641   1.967  13.157 -0.3395 -0.1988 -0.9960
  660MPD2     H 9770   4.535   2.312  13.060  0.6592  1.4948  3.4102
  660MPD2    H1 9771   4.502   1.962  13.310  1.0039 -1.3484 -0.9241
  660MPD2    H2 9772   0.031   1.956  12.985  1.1424  0.5975 -0.0190
  660MPD2    H3 9773   4.662   1.865  13.185 -0.6389  0.4420  1.5369
  660MPD2     N 9774   4.386   2.208  13.267  0.9099 -0.0634 -0.7721
  660MPD2    H5 9775   4.375   2.166  13.359  1.3153  1.2728 -0.1061
  660MPD2    N1 9776   4.687   2.186  12.871 -0.2711  0.0967  0.9571
  660MPD2    H7 9777   4.711   2.109  12.809  1.7685  0.6451  1.0651
  661TMC3    C1 9778   4.691   2.313  12.675  0.9908  0.1232 -0.1745
  661TMC3    C2 9779   4.713   2.433  12.618  0.0799  0.6072  0.2635
  661TMC3    C3 9780   4.723   2.430  12.478  0.3219 -0.0656  0.0021
  661TMC3    C4 9781   4.672   2.196  12.601 -0.7313  0.6485  0.6674
  661TMC3    C5 9782   4.649   2.206  12.467  0.4275 -0.0181  0.1103
  661TMC3    C6 9783   4.669   2.327  12.401 -0.2515 -0.4712  0.4396
  661TMC3     C 9784   4.673   2.310  12.818 -0.0387  0.4019  0.1021
  661TMC3     O 9785   4.653   2.418  12.873  0.1379 -0.1541 -0.7844
  661TMC3     H 9786   0.025   2.520  12.673 -0.1788  1.9414 -1.6751
  661TMC3    H1 9787   4.633   2.110  12.654  1.4422  0.1312  1.4173
  661TMC3    H2 9788   4.655   2.336  12.294 -1.5086  4.0185  1.0168
  661TMC3    C7 9789   4.562   2.108  12.411  0.1036  0.3477  0.2990
  661TMC3    C8 9790   4.711   2.561  12.414 -0.2529  0.7993  0.8384
  661TMC3    O1 9791   4.608   1.999  12.444 -0.4775 -0.5736  0.2491
  661TMC3    O2 9792   4.675   2.648  12.490  0.2443  0.5264 -0.7817
  662MPD2     C 9793   0.084   2.272   0.012 -0.3228  0.6603  0.2991
  662MPD2    C1 9794   0.053   2.320  17.584  0.5319 -0.5553 -0.4012
  662MPD2    C2 9795   4.671   2.409  17.575 -0.3339  0.3791 -0.0711
  662MPD2    C3 9796   4.599   2.453  17.685  0.1873 -0.2450 -0.2511
  662MPD2    C4 9797   4.626   2.401   0.117 -0.3712 -0.3343  0.0649
  662MPD2    C5 9798   0.011   2.304   0.124 -0.1851 -0.0435  0.2568
  662MPD2     H 9799   4.648   2.454  17.479 -0.2350  1.1383  0.2661
  662MPD2    H1 9800   4.576   2.426   0.210  0.2635 -0.4978  0.4470
  662MPD2    H2 9801   0.154   2.189   0.021 -0.2647  0.9293  2.4633
  662MPD2    H3 9802   0.033   2.250   0.216 -0.1000 -0.0625  0.2254
  662MPD2     N 9803   4.495   2.547  17.677 -0.4947  0.1636 -0.1800
  662MPD2    H5 9804   4.441   2.566   0.065  0.4071 -2.0943  0.9429
  662MPD2    N1 9805   0.122   2.284  17.465  0.3202  0.4593  0.1887
  662MPD2    H7 9806   0.080   2.317  17.378 -0.8008  1.8484  1.2680
  663TMC3    C1 9807   0.254   2.158  17.316  0.1200  0.1355  0.2712
  663TMC3    C2 9808   0.152   2.146  17.224 -0.9617  0.2830  0.3272
  663TMC3    C3 9809   0.135   2.025  17.167  0.0452 -0.4742 -0.2709
  663TMC3    C4 9810   0.355   2.075  17.307  0.7688 -0.3323  0.0677
  663TMC3    C5 9811   0.360   1.969  17.227  0.0589  0.5316  0.5919
  663TMC3    C6 9812   0.247   1.949  17.155 -0.6236  1.3330  0.1875
  663TMC3     C 9813   0.225   2.192  17.456 -0.0738  0.2324  0.0073
  663TMC3     O 9814   0.281   2.128  17.547 -0.4636 -0.2518 -0.1582
  663TMC3     H 9815   0.062   2.202  17.245 -1.1097  1.2640 -2.8654
  663TMC3    H1 9816   0.431   2.079  17.385  1.9653  0.6432 -1.1625
  663TMC3    H2 9817   0.244   1.849  17.114  3.5529  1.7082 -1.0526
  663TMC3    C7 9818   0.394   1.858  17.317 -0.4593  0.8751 -0.1705
  663TMC3    C8 9819   0.018   1.947  17.181 -0.3632 -0.1793 -0.5646
  663TMC3    O1 9820   0.511   1.848  17.350 -0.2286 -0.2802  0.0252
  663TMC3    O2 9821   0.014   1.841  17.117  0.1636 -0.4199  0.6437
  664MPD2     C 9822   3.183   0.578   0.059 -0.3852 -0.2702 -0.0451
  664MPD2    C1 9823   3.073   0.653   0.020 -0.0996 -0.1818 -0.0057
  664MPD2    C2 9824   2.948   0.615   0.073  0.5326  0.1068  0.2142
  664MPD2    C3 9825   2.944   0.523   0.173 -0.5785  0.0407 -0.0490
  664MPD2    C4 9826   3.054   0.455   0.220 -0.0225 -0.6528 -0.4844
  664MPD2    C5 9827   3.173   0.480   0.159  0.4856  0.3180 -1.1962
  664MPD2     H 9828   2.861   0.675   0.047 -0.9384 -1.7468  0.8914
  664MPD2    H1 9829   3.054   0.388   0.305  0.2155 -2.3687 -1.8296
  664MPD2    H2 9830   3.284   0.593   0.024 -0.8975  0.8415 -1.0478
  664MPD2    H3 9831   3.263   0.433   0.198  0.6347  0.3830 -1.4626
  664MPD2     N 9832   2.829   0.516   0.241  0.0499 -0.2219 -0.4588
  664MPD2    H5 9833   2.747   0.566   0.207  0.1735  0.9311  0.9413
  664MPD2    N1 9834   3.078   0.767  17.626 -0.1848 -0.1191 -0.3416
  664MPD2    H7 9835   2.991   0.811  17.596 -2.2031 -2.5036  2.0487
  665TMC3    C1 9836   2.683   0.494   0.412  0.3461  0.7825 -0.2721
  665TMC3    C2 9837   2.654   0.426   0.532  0.1217  0.5179 -0.0253
  665TMC3    C3 9838   2.591   0.493   0.637 -0.2546  0.3068 -0.2915
  665TMC3    C4 9839   2.681   0.626   0.421 -0.7616 -0.2142  0.0297
  665TMC3    C5 9840   2.639   0.693   0.533  0.1942  0.0677  1.0054
  665TMC3    C6 9841   2.581   0.631   0.641 -0.5930 -0.2210 -0.5096
  665TMC3     C 9842   2.797   0.438   0.348 -0.9955  0.3893 -0.7179
  665TMC3     O 9843   2.854   0.340   0.397  0.3495 -0.7718  0.3871
  665TMC3     H 9844   2.683   0.323   0.551 -1.5446  0.0756  0.1048
  665TMC3    H1 9845   2.684   0.682   0.328  2.3219  1.0139  0.8873
  665TMC3    H2 9846   2.534   0.679   0.726  0.5748 -0.8016  0.4683
  665TMC3    C7 9847   2.608   0.832   0.520 -0.7946 -0.5669 -0.2450
  665TMC3    C8 9848   2.528   0.415   0.743  0.0630 -0.2215 -0.5282
  665TMC3    O1 9849   2.634   0.884   0.413  0.2359 -0.6230  0.1208
  665TMC3    O2 9850   2.529   0.293   0.741  0.6718  0.4059  0.0374
  666TMC3    C1 9851   2.319   0.229  10.078 -0.5422 -0.0654 -0.8980
  666TMC3    C2 9852   2.423   0.180  10.151  0.4072 -0.0762  0.5910
  666TMC3    C3 9853   2.529   0.265  10.175  0.1139  0.2989 -0.0392
  666TMC3    C4 9854   2.318   0.352  10.019  1.2789 -0.6127 -0.0135
  666TMC3    C5 9855   2.432   0.433  10.039  0.3148  0.4288 -0.6149
  666TMC3    C6 9856   2.543   0.387  10.112 -0.6094 -0.7989  0.2317
  666TMC3     C 9857   2.184   0.200  10.140  0.4491 -0.8136 -0.3121
  666TMC3     O 9858   2.086   0.246  10.083 -0.4185  0.1121 -0.3094
  666TMC3     H 9859   2.415   0.081  10.194 -0.0960  0.1716  1.0668
  666TMC3    H1 9860   2.228   0.381   9.966  1.1294  1.3960  1.3393
  666TMC3    H2 9861   2.637   0.441  10.121 -1.2256  0.0792  1.5036
  666TMC3    C7 9862   2.421   0.575  10.001 -0.0762 -0.9187 -0.5767
  666TMC3    C8 9863   2.606   0.238  10.294 -0.1603 -0.4164  0.6562
  666TMC3    O1 9864   2.307   0.611   9.996 -0.3294  0.0706  0.0319
  666TMC3    O2 9865   2.562   0.156  10.374 -0.1436 -0.0629 -0.4858
  667MPD2     C 9866   3.900   0.812  14.711  0.1826  0.0129 -0.4022
  667MPD2    C1 9867   3.809   0.895  14.780 -0.3944  0.0076  0.3663
  667MPD2    C2 9868   3.685   0.846  14.801  0.1897 -0.3282 -0.0789
  667MPD2    C3 9869   3.653   0.718  14.771 -0.0922  0.3073 -0.6226
  667MPD2    C4 9870   3.738   0.638  14.704 -0.6485 -0.0492  0.0567
  667MPD2    C5 9871   3.864   0.684  14.673  0.0486  0.1372  0.5478
  667MPD2     H 9872   3.614   0.910  14.853  2.2007  0.3464  1.8700
  667MPD2    H1 9873   3.714   0.535  14.683  0.0978 -0.5907  1.8943
  667MPD2    H2 9874   4.003   0.845  14.701 -0.6477  3.0485  1.0041
  667MPD2    H3 9875   3.942   0.627  14.624 -1.3357 -1.1512 -0.1375
  667MPD2     N 9876   3.522   0.668  14.788 -0.3879 -0.1215 -0.4560
  667MPD2    H5 9877   3.513   0.567  14.777  1.1305 -0.0576 -2.3139
  667MPD2    N1 9878   3.834   1.031  14.806  0.4204  0.4236 -0.5056
  667MPD2    H7 9879   3.784   1.071  14.885  0.7259 -0.0544 -0.0708
  668TMC3    C1 9880   3.989   1.218  14.823 -0.6054 -0.2001 -0.1528
  668TMC3    C2 9881   4.055   1.309  14.755  0.3516 -0.2104 -0.5948
  668TMC3    C3 9882   4.082   1.425  14.832 -1.0003 -0.6588  0.5931
  668TMC3    C4 9883   3.935   1.238  14.948 -0.1093 -0.1682 -1.1848
  668TMC3    C5 9884   3.953   1.359  15.010 -0.4537 -0.2592 -0.6733
  668TMC3    C6 9885   4.034   1.460  14.952 -0.3151 -0.4051  0.2551
  668TMC3     C 9886   3.948   1.103  14.752 -0.2329  0.4919 -0.6513
  668TMC3     O 9887   3.991   1.088  14.639  0.5044 -0.0687 -0.4404
  668TMC3     H 9888   4.116   1.285  14.668  1.0584  1.3726 -0.5288
  668TMC3    H1 9889   3.883   1.161  15.004  1.1690 -1.2468 -1.4434
  668TMC3    H2 9890   4.043   1.557  15.000 -1.3577 -1.1399  1.9393
  668TMC3    C7 9891   3.886   1.393  15.134 -0.5689 -0.7581  0.2354
  668TMC3    C8 9892   4.170   1.528  14.774  0.1614 -0.3928 -0.6290
  668TMC3    O1 9893   3.945   1.487  15.192  0.4460  0.3368 -0.0282
  668TMC3    O2 9894   4.150   1.643  14.809  0.8772 -0.2674  0.9312
  669TMC3    C1 9895   1.562   0.361  14.369 -0.3245 -0.4007  0.0997
  669TMC3    C2 9896   1.436   0.406  14.341 -0.0718 -0.0621 -0.0745
  669TMC3    C3 9897   1.432   0.517  14.267 -0.3497  0.7912  0.5281
  669TMC3    C4 9898   1.671   0.435  14.343  0.0194 -0.3564 -0.6266
  669TMC3    C5 9899   1.658   0.557  14.281 -0.4378 -0.6822  0.0617
  669TMC3    C6 9900   1.537   0.603  14.242  0.2447  0.3189  0.7281
  669TMC3     C 9901   1.568   0.247  14.460  0.3568 -0.3349 -0.8231
  669TMC3     O 9902   1.463   0.191  14.480 -0.2596 -0.6173  0.2547
  669TMC3     H 9903   1.342   0.361  14.369  0.8847 -1.3457  1.0408
  669TMC3    H1 9904   1.767   0.391  14.368 -0.0171  1.4895  2.6925
  669TMC3    H2 9905   1.519   0.699  14.194  2.5703 -1.4639 -3.7434
  669TMC3    C7 9906   1.782   0.619  14.229 -0.2939 -0.3924 -0.3362
  669TMC3    C8 9907   1.302   0.561  14.211 -0.6887 -0.1259  0.3666
  669TMC3    O1 9908   1.887   0.593  14.285  0.6621  0.0263 -0.2823
  669TMC3    O2 9909   1.235   0.466  14.165  0.8701 -0.1611  0.5453
  670MPD2     C 9910   0.002   3.018  13.142  0.2137  0.0593  0.7746
  670MPD2    C1 9911   0.099   3.105  13.184 -0.2456  0.6200 -0.1488
  670MPD2    C2 9912   0.112   3.130  13.321  0.0734 -0.4682 -0.1638
  670MPD2    C3 9913   0.017   3.083  13.415 -1.0702 -0.1368  0.5694
  670MPD2    C4 9914   4.640   3.003  13.365  0.4805 -0.2075 -0.6898
  670MPD2    C5 9915   4.640   2.965  13.230  0.1360  0.6782  0.2748
  670MPD2     H 9916   0.178   3.209  13.357 -1.9179  0.7502  0.8390
  670MPD2    H1 9917   4.577   2.952  13.437  0.3413  2.0386  0.7542
  670MPD2    H2 9918   4.715   2.985  13.039  0.7799 -0.8540  1.0176
  670MPD2    H3 9919   4.575   2.887  13.190  0.1337  0.8557 -0.0646
  670MPD2     N 9920   0.035   3.115  13.551 -0.8096 -0.4171  0.3568
  670MPD2    H5 9921   0.113   3.175  13.577 -2.6435  1.4923  1.5257
  670MPD2    N1 9922   0.204   3.151  13.106 -0.1962 -0.5219  0.6479
  670MPD2    H7 9923   0.278   3.208  13.146  0.2010 -0.3252 -0.3873
  671TMC3    C1 9924   4.722   3.123  13.793 -0.2131  0.3394 -0.3155
  671TMC3    C2 9925   0.130   3.082  13.814 -0.2252 -0.3970  1.0674
  671TMC3    C3 9926   0.155   3.026  13.936 -0.1728 -0.8155  0.3731
  671TMC3    C4 9927   4.621   3.117  13.894  0.1599 -0.8027  0.1980
  671TMC3    C5 9928   4.658   3.067  14.015  0.2720  0.2975 -0.3860
  671TMC3    C6 9929   0.063   3.022  14.032 -0.1065  0.3126 -0.0266
  671TMC3     C 9930   4.671   3.079  13.655 -0.2059  0.3925  0.1639
  671TMC3     O 9931   4.559   3.031  13.660 -0.2624  0.1886  0.1270
  671TMC3     H 9932   0.193   3.040  13.736  1.3393  1.4072  1.3419
  671TMC3    H1 9933   4.520   3.155  13.877  0.7136  0.3596 -0.5076
  671TMC3    H2 9934   0.092   2.967  14.121  0.4831  3.6048  1.8288
  671TMC3    C7 9935   4.556   2.992  14.086  0.0142  0.9247  0.8842
  671TMC3    C8 9936   0.264   2.936  13.949  0.7581 -0.6820 -0.1964
  671TMC3    O1 9937   4.462   2.955  14.017  0.6066 -0.0078 -0.9034
  671TMC3    O2 9938   0.240   2.826  14.000 -0.6397 -0.3139 -0.4036
  672MPD2     C 9939   4.463   3.812   1.613  0.5399 -0.0482  0.0823
  672MPD2    C1 9940   4.526   3.899   1.524 -0.7948 -0.3661 -0.6042
  672MPD2    C2 9941   4.564   4.023   1.575  0.6781 -0.2698  0.7458
  672MPD2    C3 9942   4.557   4.057   1.706  0.0808  0.1096  0.1929
  672MPD2    C4 9943   4.515   3.963   1.796  0.3121  0.5824  0.4847
  672MPD2    C5 9944   4.467   3.838   1.751  0.0293 -0.0665 -0.6355
  672MPD2     H 9945   4.604   4.094   1.503 -0.2769  0.2041  0.6917
  672MPD2    H1 9946   4.498   3.990   1.899 -0.1454 -0.6636  0.7462
  672MPD2    H2 9947   4.412   3.727   1.571  0.0619  0.6861 -0.8263
  672MPD2    H3 9948   4.428   3.767   1.823  1.6976  0.6580  0.9695
  672MPD2     N 9949   4.603   4.177   1.767  0.2631 -0.3998  0.0238
  672MPD2    H5 9950   4.589   4.182   1.867  0.1209 -0.5601  0.0119
  672MPD2    N1 9951   4.535   3.876   1.385 -0.2290  0.6796  0.2246
  672MPD2    H7 9952   4.587   3.948   1.336  0.4921 -0.8354 -1.2396
  673TMC3    C1 9953   4.480   3.792   1.168  0.0586 -1.4034  0.1453
  673TMC3    C2 9954   4.611   3.784   1.128 -0.3305  0.0114 -0.6329
  673TMC3    C3 9955   4.629   3.776   0.991 -1.1690  0.0542  0.4015
  673TMC3    C4 9956   4.371   3.765   1.095  1.3438 -0.2284  0.2045
  673TMC3    C5 9957   4.398   3.751   0.959  0.3408 -0.1335 -0.1561
  673TMC3    C6 9958   4.523   3.758   0.902  0.0519  0.8463  0.1014
  673TMC3     C 9959   4.462   3.775   1.314 -0.0408  0.3431 -0.3558
  673TMC3     O 9960   4.380   3.698   1.353  0.5577 -0.2303  0.1292
  673TMC3     H 9961   4.694   3.807   1.194 -1.2249 -0.9677  0.8249
  673TMC3    H1 9962   4.273   3.754   1.139  0.4095  1.2853 -1.5179
  673TMC3    H2 9963   4.553   3.749   0.798  0.8920 -0.9854  0.5183
  673TMC3    C7 9964   4.283   3.795   0.880 -0.1149 -0.2033 -0.5801
  673TMC3    C8 9965   0.024   3.834   0.919  0.1394  0.0607 -0.3105
  673TMC3    O1 9966   4.178   3.754   0.926  0.2057 -0.1123 -0.3309
  673TMC3    O2 9967   0.008   3.894   0.814 -0.1136  0.3284 -0.4078
  674MPD2     C 9968   4.700   4.280   0.304  0.3226 -0.2163  0.0151
  674MPD2    C1 9969   0.008   4.154   0.345  0.4563  0.8808 -0.5798
  674MPD2    C2 9970   4.636   4.047   0.343  1.0125 -0.2065 -0.1304
  674MPD2    C3 9971   4.508   4.080   0.289  0.0678  0.5074  0.0796
  674MPD2    C4 9972   4.487   4.207   0.234  0.3860  0.1972 -0.7547
  674MPD2    C5 9973   4.583   4.308   0.244 -0.2479 -0.4413 -0.9421
  674MPD2     H 9974   4.668   3.951   0.381  0.6891 -0.6788 -1.0492
  674MPD2    H1 9975   4.391   4.236   0.194 -0.1510 -0.8914 -0.2592
  674MPD2    H2 9976   0.045   4.364   0.308  0.3059 -0.1725 -0.7136
  674MPD2    H3 9977   4.561   4.406   0.202  0.8670  0.3248  0.2498
  674MPD2     N 9978   4.405   3.986   0.293 -0.7466 -0.3177  0.0253
  674MPD2    H5 9979   4.432   3.894   0.327 -1.0169 -1.0118 -1.6587
  674MPD2    N1 9980   0.140   4.135   0.386  0.1790  0.2834  0.0203
  674MPD2    H7 9981   0.196   4.219   0.377  1.1896 -0.4758 -0.8075
  675TMC3    C1 9982   0.339   4.044   0.459  0.1433  0.1932 -0.4423
  675TMC3    C2 9983   0.393   3.969   0.557  0.0901 -0.5425  0.1246
  675TMC3    C3 9984   0.523   3.999   0.591  0.4369 -0.1038 -0.0106
  675TMC3    C4 9985   0.412   4.134   0.384 -0.3323  0.1525 -0.1135
  675TMC3    C5 9986   0.538   4.160   0.421 -0.1715  0.4580  0.2817
  675TMC3    C6 9987   0.595   4.103   0.537 -0.1628  0.4412 -0.7861
  675TMC3     C 9988   0.202   4.019   0.426  0.5893  0.7226  1.0547
  675TMC3     O 9989   0.155   3.907   0.451  0.2419  0.1744 -0.4311
  675TMC3     H 9990   0.332   3.890   0.598  2.2149 -2.1323  0.2419
  675TMC3    H1 9991   0.366   4.200   0.311  0.4800 -0.4011 -1.1324
  675TMC3    H2 9992   0.700   4.115   0.559 -0.0181  1.5322 -2.0874
  675TMC3    C7 9993   0.622   4.246   0.341  0.5154 -0.0176 -0.5514
  675TMC3    C8 9994   0.597   3.909   0.671  0.0155  0.0387 -0.4264
  675TMC3    O1 9995   0.722   4.289   0.400  0.2810 -0.2568  0.2435
  675TMC3    O2 9996   0.705   3.948   0.708  0.2256 -0.3248  0.0112
  676MPD2     C 9997   3.070   1.800  10.954 -1.2758  0.1146  0.2861
  676MPD2    C1 9998   2.983   1.716  11.016 -0.1465 -0.2710 -0.0779
  676MPD2    C2 9999   2.962   1.592  10.968  0.7159 -0.1111  0.5559
  676MPD2    C310000   3.034   1.546  10.859 -0.3133  0.6319  0.0332
  676MPD2    C410001   3.127   1.625  10.804 -0.6084  0.2445 -0.1488
  676MPD2    C510002   3.142   1.758  10.843 -0.1955 -0.6453  0.3547
  676MPD2     H10003   2.898   1.526  11.025  0.0953 -0.4744 -0.5680
  676MPD2    H110004   3.192   1.582  10.728 -0.5666 -0.6827  0.4017
  676MPD2    H210005   3.077   1.905  10.980  1.1012 -0.0777  0.4473
  676MPD2    H310006   3.210   1.824  10.791  0.6151  0.1642  2.4382
  676MPD2     N10007   3.012   1.415  10.807 -0.5146 -0.1030 -0.4986
  676MPD2    H510008   3.052   1.389  10.718 -1.3411 -2.1484 -0.2628
  676MPD2    N110009   2.901   1.748  11.126 -0.1100  0.3248 -0.4935
  676MPD2    H710010   2.850   1.666  11.159 -0.7300  1.1878  0.6715
  677TMC3    C110011   2.805   1.867  11.292 -0.9182 -0.1523 -0.2806
  677TMC3    C210012   2.692   1.798  11.263 -0.3983 -0.5976 -0.3595
  677TMC3    C310013   2.594   1.801  11.354 -0.6465  0.4711 -0.1416
  677TMC3    C410014   2.823   1.946  11.409  0.1307  0.8171 -0.6557
  677TMC3    C510015   2.728   1.934  11.504  0.1648  0.1037  0.4006
  677TMC3    C610016   2.611   1.868  11.471  0.5060 -0.4935  0.2354
  677TMC3     C10017   2.915   1.859  11.201  0.1669  0.1688  0.1065
  677TMC3     O10018   3.003   1.946  11.204 -0.1756 -0.6316  0.5756
  677TMC3     H10019   2.668   1.753  11.167  1.0799 -0.9801 -0.5494
  677TMC3    H110020   2.903   2.019  11.413 -0.8301  1.7096  2.4444
  677TMC3    H210021   2.527   1.866  11.538  2.1926 -2.1655  2.2923
  677TMC3    C710022   2.761   1.962  11.647 -0.1028 -0.5787  0.1142
  677TMC3    C810023   2.503   1.692  11.342 -0.2323 -0.2114  1.0065
  677TMC3    O110024   2.661   1.945  11.722  0.4491 -0.3189  0.6018
  677TMC3    O210025   2.440   1.688  11.239  0.2111 -0.0942 -0.3979
  678MPD2     C10026   3.568   2.104   1.395 -0.1495  0.3464 -0.4432
  678MPD2    C110027   3.510   1.983   1.347  0.0545 -0.3721 -0.3375
  678MPD2    C210028   3.375   1.969   1.361  0.1788  0.0932  0.1474
  678MPD2    C310029   3.293   2.062   1.418 -0.5419 -0.4907 -0.6042
  678MPD2    C410030   3.351   2.174   1.463 -0.6440 -0.1231  0.1643
  678MPD2    C510031   3.484   2.193   1.451 -0.3372  0.2208  0.2854
  678MPD2     H10032   3.336   1.876   1.321 -1.8564  0.5975  0.9851
  678MPD2    H110033   3.300   2.263   1.500 -0.9117 -0.2950  0.2082
  678MPD2    H210034   3.675   2.121   1.390  0.0093 -0.4832  0.0055
  678MPD2    H310035   3.531   2.286   1.481 -1.3133  1.7917 -3.1600
  678MPD2     N10036   3.152   2.042   1.400  0.0680  0.7765 -0.6526
  678MPD2    H510037   3.124   1.953   1.359 -1.1174  0.7516  0.1992
  678MPD2    N110038   3.584   1.885   1.266 -0.1009 -0.3857 -0.1097
  678MPD2    H710039   3.538   1.804   1.227  0.1981 -0.2674 -0.7125
  679TMC3    C110040   3.789   1.565   1.091  0.5462 -0.5604 -0.7852
  679TMC3    C210041   3.732   1.663   1.165 -0.3240  0.0398 -0.3206
  679TMC3    C310042   3.758   1.789   1.131 -0.4132  0.1481 -0.6385
  679TMC3    C410043   3.866   1.594   0.985 -0.4135  0.6231 -0.0039
  679TMC3    C510044   3.881   1.726   0.943 -0.1111 -0.2205 -0.0693
  679TMC3    C610045   3.838   1.830   1.023 -0.2884 -0.2448 -0.4878
  679TMC3     C10046   3.837   1.461   1.172 -0.0322 -0.0542  0.4627
  679TMC3     O10047   3.956   1.476   1.197  0.0297 -0.4013  0.3290
  679TMC3     H10048   3.672   1.642   1.253  1.8985  3.0863  1.9259
  679TMC3    H110049   3.917   1.521   0.922  1.7964  1.7597  0.4530
  679TMC3    H210050   3.853   1.936   1.009 -1.8022  0.1004  0.4628
  679TMC3    C710051   3.893   1.762   0.805  0.3461  0.2008 -0.2800
  679TMC3    C810052   3.719   1.894   1.229 -0.3671  0.1542 -0.3766
  679TMC3    O110053   3.912   1.886   0.785 -0.5533  0.3049 -0.2409
  679TMC3    O210054   3.789   1.993   1.236 -0.0531  0.4716  0.8046
  680MPD2     C10055   4.041   0.078  13.266  0.7808 -0.3066  0.2741
  680MPD2    C110056   4.087   0.020  13.382  0.0058 -0.6040  0.0501
  680MPD2    C210057   4.134   0.096  13.486  0.0401  0.9431  0.8327
  680MPD2    C310058   4.114   0.233  13.481 -0.4649  0.0996  0.0656
  680MPD2    C410059   4.056   0.286  13.368 -0.5011 -0.0495 -0.6202
  680MPD2    C510060   4.019   0.212  13.267 -0.2322  0.6348 -0.2922
  680MPD2     H10061   4.157   0.051  13.582 -0.8751  2.1145  1.6019
  680MPD2    H110062   4.037   0.393  13.374  0.5513  0.1144 -0.2500
  680MPD2    H210063   4.003   0.026  13.178  1.6909 -0.7876  0.1660
  680MPD2    H310064   3.962   0.247  13.181 -1.0489  0.2507  0.0976
  680MPD2     N10065   4.143   0.326  13.587 -0.4769 -0.4845 -0.4368
  680MPD2    H510066   4.116   0.424  13.578 -0.4065 -0.2077  2.4367
  680MPD2    N110067   4.101   4.601  13.400 -0.3893 -0.4485 -0.1636
  680MPD2    H710068   4.146   4.583  13.489  1.1806 -1.4749 -1.1576
  681TMC3    C110069   4.033   4.378  13.440  0.2003 -0.4659 -0.3415
  681TMC3    C210070   3.952   4.409  13.547 -0.1656 -0.2990  0.7783
  681TMC3    C310071   3.987   4.360  13.674  0.3621 -0.0610 -0.8388
  681TMC3    C410072   4.150   4.317  13.460  0.6628  0.0027 -0.2161
  681TMC3    C510073   4.184   4.266  13.582  0.0876  0.2404  0.5574
  681TMC3    C610074   4.101   4.291  13.692  0.6973  0.1691  0.1199
  681TMC3     C10075   4.033   4.496  13.348 -0.0854  0.2648 -0.1864
  681TMC3     O10076   3.937   4.498  13.274 -0.4425  0.0477 -0.0774
  681TMC3     H10077   3.870   4.477  13.533 -0.4947 -0.9818 -0.6552
  681TMC3    H110078   4.232   4.328  13.391 -0.2120  1.4842 -1.0107
  681TMC3    H210079   4.134   4.273  13.793  0.6635  0.4576  0.1826
  681TMC3    C710080   4.326   4.238  13.613 -0.7966  0.6461 -0.2246
  681TMC3    C810081   3.927   4.437  13.783  0.0606  0.4137 -0.0230
  681TMC3    O110082   4.358   4.233  13.730  0.2268 -0.2832 -0.2654
  681TMC3    O210083   3.815   4.480  13.757 -0.0568 -0.2963  0.2834
  682MPD2     C10084   2.163   1.698  10.473  0.2045 -0.3943  0.3282
  682MPD2    C110085   2.132   1.566  10.505  0.2423 -0.2115  0.3218
  682MPD2    C210086   2.123   1.527  10.642  0.6448  0.2320  0.2241
  682MPD2    C310087   2.176   1.612  10.740 -0.5381  0.7296 -0.2845
  682MPD2    C410088   2.226   1.737  10.696 -0.5712  0.2997 -0.0865
  682MPD2    C510089   2.214   1.777  10.565 -0.1918 -0.1284 -0.1246
  682MPD2     H10090   2.075   1.434  10.669 -0.3163  0.6308 -0.1051
  682MPD2    H110091   2.258   1.808  10.772 -0.6558 -0.2878  0.5072
  682MPD2    H210092   2.162   1.741  10.374  1.7416 -3.3684 -0.9982
  682MPD2    H310093   2.252   1.872  10.530  1.5789 -1.6253 -2.3165
  682MPD2     N10094   2.188   1.571  10.877  0.4434  0.3860  0.3821
  682MPD2    H510095   2.217   1.647  10.938  0.5968 -0.3887  1.2632
  682MPD2    N110096   2.074   1.471  10.419  0.9304 -0.0403 -0.0651
  682MPD2    H710097   2.038   1.384  10.456 -1.4027  0.2661 -1.6250
  683TMC3    C110098   2.086   1.557  11.274 -0.1826 -0.0012 -0.5467
  683TMC3    C210099   2.040   1.437  11.315 -0.3194  0.0781 -0.0349
  683TMC3    C310100   2.054   1.324  11.244 -0.0002 -1.0375  0.0569
  683TMC3    C410101   2.148   1.564  11.149  0.9481  0.1850 -0.1645
  683TMC3    C510102   2.145   1.448  11.072  0.0936 -0.3160 -0.6174
  683TMC3    C610103   2.115   1.327  11.123  0.1040 -0.0848 -0.1367
  683TMC3     C10104   2.050   1.683  11.330 -0.1371 -0.4954  0.4346
  683TMC3     O10105   1.949   1.692  11.394 -0.1923 -0.1220 -0.1212
  683TMC3     H10106   1.997   1.428  11.413 -2.0329 -0.3730 -0.8356
  683TMC3    H110107   2.164   1.661  11.103  1.5815  0.6334  0.9931
  683TMC3    H210108   2.122   1.235  11.067 -1.9657  1.2238 -2.5908
  683TMC3    C710109   2.164   1.445  10.926  0.2859  0.4091  0.4312
  683TMC3    C810110   1.971   1.207  11.282 -0.1868 -0.0323 -0.3405
  683TMC3    O110111   2.131   1.344  10.863 -0.1412 -0.2108  0.2154
  683TMC3    O210112   1.876   1.233  11.361  0.4045  0.1183 -0.3295
  684MPD2     C10113   0.026   1.183  16.326 -0.1962  0.7356  0.7146
  684MPD2    C110114   4.708   1.220  16.197 -0.2722  0.0964 -0.5270
  684MPD2    C210115   4.714   1.356  16.158  0.7475 -0.3356  0.2269
  684MPD2    C310116   0.043   1.450  16.247 -0.0873  0.1856  1.0896
  684MPD2    C410117   0.085   1.412  16.369 -0.5458  0.1116  0.8893
  684MPD2    C510118   0.075   1.280  16.407 -0.6569  0.1384  0.4045
  684MPD2     H10119   4.686   1.377  16.055 -2.0738  1.9228  1.4628
  684MPD2    H110120   0.120   1.480  16.446 -0.2215 -0.0063  0.8434
  684MPD2    H210121   0.020   1.081  16.364 -1.9919  0.5630 -0.0499
  684MPD2    H310122   0.103   1.251  16.508 -0.5069 -0.7100  0.1148
  684MPD2     N10123   0.061   1.581  16.207 -0.2744 -0.0281 -0.6744
  684MPD2    H510124   0.108   1.638  16.277 -0.6601  0.3761 -0.7439
  684MPD2    N110125   4.672   1.120  16.097 -0.6208  0.4620 -0.3007
  684MPD2    H710126   4.628   1.147  16.010  0.3049  2.0003 -0.2984
  685TMC3    C110127   4.672   0.906  15.999 -0.2006 -0.2866  0.1081
  685TMC3    C210128   4.573   0.941  15.918  0.0906 -0.3608  0.2647
  685TMC3    C310129   4.584   0.885  15.794  0.9762 -0.0243  0.3323
  685TMC3    C410130   0.049   0.824  15.953  0.1769 -0.4738 -0.3967
  685TMC3    C510131   0.066   0.793  15.823  0.2072 -0.4673  0.5182
  685TMC3    C610132   4.693   0.818  15.740 -0.9980 -0.9457  0.4005
  685TMC3     C10133   4.692   0.980  16.120  0.1459  0.5640 -0.2215
  685TMC3     O10134   0.034   0.924  16.207  0.3698  0.0468 -0.8707
  685TMC3     H10135   4.489   0.999  15.953  0.3257  0.7305 -0.9753
  685TMC3    H110136   0.121   0.788  16.026 -0.1496  2.3189  1.2818
  685TMC3    H210137   4.688   0.786  15.636 -2.5064 -0.7197  0.4003
  685TMC3    C710138   0.198   0.784  15.763  0.1469  0.6471  0.3580
  685TMC3    C810139   4.484   0.927  15.690  0.4610 -0.1474  0.2760
  685TMC3    O110140   0.202   0.789  15.641  0.2797 -0.1261 -0.2205
  685TMC3    O210141   4.512   0.931  15.573 -0.7715  0.2582  0.1395
  686MPD2     C10142   1.326   0.795  15.963  0.2104  0.2695  0.6547
  686MPD2    C110143   1.316   0.710  15.851  0.8593  0.0180  0.1326
  686MPD2    C210144   1.432   0.644  15.806  0.5995 -0.4393 -0.4413
  686MPD2    C310145   1.554   0.681  15.860  0.6222 -0.6351  0.7084
  686MPD2    C410146   1.556   0.750  15.975 -0.0124  0.3696 -0.7910
  686MPD2    C510147   1.448   0.810  16.023 -0.1133  0.0915  0.4103
  686MPD2     H10148   1.429   0.582  15.718 -0.9757 -0.6865 -0.2116
  686MPD2    H110149   1.647   0.770  16.032 -0.2764  1.1440 -0.6396
  686MPD2    H210150   1.235   0.838  16.003 -1.3654 -1.1187 -1.3854
  686MPD2    H310151   1.453   0.874  16.110 -0.5561 -0.9650  1.2111
  686MPD2     N10152   1.679   0.637  15.806 -0.1225  0.2998 -0.0356
  686MPD2    H510153   1.757   0.640  15.872  0.9117 -2.9478 -1.1388
  686MPD2    N110154   1.193   0.684  15.800  0.3527  0.0683 -0.4158
  686MPD2    H710155   1.116   0.732  15.847  1.2698  0.0767  1.0906
  687TMC3    C110156   1.808   0.526  15.634 -0.3624  0.3689  0.4353
  687TMC3    C210157   1.781   0.434  15.542 -0.4132  0.0890  0.3714
  687TMC3    C310158   1.851   0.317  15.550  0.5976  0.5388  0.0682
  687TMC3    C410159   1.903   0.510  15.729 -0.4038 -0.4763  0.9048
  687TMC3    C510160   1.962   0.394  15.729  0.0983 -0.6154  0.9736
  687TMC3    C610161   1.940   0.287  15.645 -0.3854  0.1382  0.1590
  687TMC3     C10162   1.688   0.601  15.672  0.9116  0.2458 -0.0638
  687TMC3     O10163   1.613   0.629  15.580  0.6580  0.3303  0.6533
  687TMC3     H10164   1.703   0.450  15.468 -1.8123  1.6794  2.1898
  687TMC3    H110165   1.928   0.589  15.800 -0.7946 -0.7216  1.3132
  687TMC3    H210166   1.983   0.188  15.655 -1.1354  0.0663  2.8152
  687TMC3    C710167   2.040   0.374  15.850 -0.5658  0.6396 -0.4891
  687TMC3    C810168   1.794   0.206  15.472  0.4654  0.3209  0.8061
  687TMC3    O110169   2.098   0.473  15.890 -0.0055  0.5983 -0.1729
  687TMC3    O210170   1.787   0.092  15.517  0.2615  0.7147 -0.0599
  688MPD2     C10171   0.854   0.021  17.422 -0.5310 -0.4508  0.1203
  688MPD2    C110172   0.750   4.665  17.391 -0.4767 -0.1784 -0.3284
  688MPD2    C210173   0.763   4.607  17.264  0.1197  0.0394 -0.5076
  688MPD2    C310174   0.862   4.638  17.167 -0.0260 -0.3073  0.2501
  688MPD2    C410175   0.959   0.010  17.204  0.2510  0.2756 -0.0114
  688MPD2    C510176   0.953   0.052  17.335 -0.2518  0.6726 -0.2642
  688MPD2     H10177   0.679   4.549  17.229  1.4613 -1.0389 -1.9547
  688MPD2    H110178   1.039   0.043  17.138 -1.1296  1.5127 -1.0601
  688MPD2    H210179   0.851   0.065  17.521  0.8327  0.8897 -0.4420
  688MPD2    H310180   1.041   0.102  17.375  0.8417 -0.3964 -1.3155
  688MPD2     N10181   0.861   4.573  17.040  0.0231  0.2086  0.0233
  688MPD2    H510182   0.923   4.617  16.973 -1.5521  2.6727  0.1842
  688MPD2    N110183   0.631   4.651  17.475  0.4392  0.7051  0.1948
  688MPD2    H710184   0.633   4.700  17.564 -2.6304 -0.1522  0.7439
  689TMC3    C110185   0.429   4.563  17.559  0.0056 -0.0986  0.0279
  689TMC3    C210186   0.438   4.648  17.670 -0.0610 -0.0161 -0.2304
  689TMC3    C310187   0.357   4.618   0.085 -0.4019 -0.3815 -0.0340
  689TMC3    C410188   0.333   4.470  17.537  0.3421 -0.2284 -0.9662
  689TMC3    C510189   0.258   4.448  17.651  0.8836  0.6960  0.4626
  689TMC3    C610190   0.263   4.516   0.073  0.1160 -0.8388  0.1638
  689TMC3     C10191   0.518   4.578  17.444  0.5596  0.2145  0.7397
  689TMC3     O10192   0.481   4.545  17.330 -0.5115  0.6474  0.0665
  689TMC3     H10193   0.509   0.006  17.676  0.4796 -0.4777 -0.4198
  689TMC3    H110194   0.337   4.392  17.462  1.0359 -2.2428  1.1803
  689TMC3    H210195   0.207   4.476   0.156 -1.3052 -5.1069 -2.8603
  689TMC3    C710196   0.225   4.308  17.679  0.2038  0.2198 -0.0159
  689TMC3    C810197   0.357   4.697   0.206 -0.2703  0.6480 -0.4736
  689TMC3    O110198   0.271   4.261   0.085  0.0099  0.1046 -0.4266
  689TMC3    O210199   0.294   4.656   0.300 -0.6600 -0.0670  0.2771
  690MPD2     C10200   2.758   1.904  15.772 -0.0204  0.1070  0.1923
  690MPD2    C110201   2.770   1.849  15.645 -0.4893  0.5420 -0.5802
  690MPD2    C210202   2.847   1.919  15.552  0.1472 -0.0972 -0.8405
  690MPD2    C310203   2.916   2.031  15.586 -0.0275  0.0351 -0.2532
  690MPD2    C410204   2.914   2.068  15.722 -0.2297  0.5324  0.6687
  690MPD2    C510205   2.841   2.003  15.818  0.1418 -0.3966 -0.5568
  690MPD2     H10206   2.847   1.879  15.451  0.6601  3.6379 -2.3451
  690MPD2    H110207   2.965   2.156  15.758  1.7225 -0.6428  0.8081
  690MPD2    H210208   2.703   1.850  15.848  0.2442  2.5076  2.1103
  690MPD2    H310209   2.845   2.039  15.920  0.9854 -1.1100 -0.3333
  690MPD2     N10210   2.995   2.101  15.487  0.6214 -0.4123 -0.1158
  690MPD2    H510211   2.969   2.080  15.391 -0.6605  1.8007 -0.2455
  690MPD2    N110212   2.692   1.745  15.599 -1.0427 -0.1654 -0.4551
  690MPD2    H710213   2.714   1.705  15.508  2.3663  1.1138 -0.1681
  691TMC3    C110214   2.518   1.583  15.607  0.2879 -0.5640  0.7888
  691TMC3    C210215   2.382   1.572  15.636 -0.1557 -0.1876 -0.3115
  691TMC3    C310216   2.318   1.466  15.587  0.7021 -0.3300 -0.3311
  691TMC3    C410217   2.579   1.495  15.530  0.1209  0.8728 -0.5743
  691TMC3    C510218   2.512   1.384  15.477  0.2416  0.0783  0.2447
  691TMC3    C610219   2.381   1.380  15.505 -0.8186  0.1570  0.5554
  691TMC3     C10220   2.593   1.688  15.673  0.1200 -0.1981 -0.3804
  691TMC3     O10221   2.536   1.732  15.771  0.6285  0.3166  0.0037
  691TMC3     H10222   2.328   1.639  15.702  2.4373  1.7530 -0.1623
  691TMC3    H110223   2.685   1.501  15.510  0.0478 -2.4997 -1.9389
  691TMC3    H210224   2.314   1.304  15.468 -0.9584  0.8407 -0.5968
  691TMC3    C710225   2.586   1.264  15.504  0.8984  0.4938  0.3343
  691TMC3    C810226   2.199   1.415  15.644  0.7042  0.2636 -0.4924
  691TMC3    O110227   2.677   1.281  15.574 -0.5113 -0.2022  0.4256
  691TMC3    O210228   2.176   1.292  15.636  0.0340  0.4408  0.5404
  692TMC3    C110229   4.181   2.887  15.939 -0.2570  0.8220 -0.0146
  692TMC3    C210230   4.270   2.913  16.038 -0.2731  0.1132  0.7035
  692TMC3    C310231   4.388   2.841  16.046 -0.9106 -0.2710 -0.4258
  692TMC3    C410232   4.203   2.777  15.859  0.4762 -0.9096 -0.2067
  692TMC3    C510233   4.307   2.696  15.881  0.1363  0.1636 -0.0875
  692TMC3    C610234   4.405   2.733  15.968  0.3046  0.4717 -0.7847
  692TMC3     C10235   4.060   2.971  15.917 -0.3486 -0.3365 -0.3382
  692TMC3     O10236   3.957   2.928  15.856  0.1032 -0.5527 -0.1799
  692TMC3     H10237   4.269   3.009  16.089  0.5778  0.0617  0.8112
  692TMC3    H110238   4.138   2.754  15.776  1.6656 -3.1345 -0.5064
  692TMC3    H210239   4.506   2.695  15.966  0.9460  2.1768 -1.0264
  692TMC3    C710240   4.340   2.591  15.788 -0.0225 -0.0590 -0.3686
  692TMC3    C810241   4.436   2.810  16.180  0.0392  0.8144  0.3612
  692TMC3    O110242   4.269   2.594  15.686 -0.5510 -0.3110 -0.1171
  692TMC3    O210243   4.504   2.707  16.198  0.3524  0.2371 -0.4612
  693MPD2     C10244   4.261   0.651  10.421  0.4795 -0.1981  0.7966
  693MPD2    C110245   4.207   0.528  10.444  0.5352 -0.3230  0.1571
  693MPD2    C210246   4.295   0.422  10.455  0.4476  0.0679 -0.2390
  693MPD2    C310247   4.433   0.440  10.443  0.2229 -0.9769  0.7214
  693MPD2    C410248   4.487   0.561  10.417  0.1110  0.3496 -0.4769
  693MPD2    C510249   4.394   0.662  10.405 -0.7469  0.4084 -0.0649
  693MPD2     H10250   4.260   0.320  10.459 -2.5334  1.1089  0.5752
  693MPD2    H110251   4.595   0.569  10.415  0.1930 -0.6861 -0.0428
  693MPD2    H210252   4.206   0.745  10.423  0.3973 -0.2169 -0.6365
  693MPD2    H310253   4.448   0.756  10.405 -1.3164  0.7193 -2.1195
  693MPD2     N10254   4.521   0.331  10.451 -0.7339  0.6010 -0.4284
  693MPD2    H510255   4.619   0.347  10.430 -0.7443  0.6821 -0.4173
  693MPD2    N110256   4.074   0.518  10.478 -0.0733 -0.1850 -0.2912
  693MPD2    H710257   4.042   0.603  10.524  0.0109 -0.6100  0.5543
  694TMC3    C110258   3.881   0.391  10.547 -0.8236 -0.1008 -0.0112
  694TMC3    C210259   3.802   0.284  10.526  0.9897 -0.2828 -0.1844
  694TMC3    C310260   3.727   0.230  10.627  0.5341 -0.1049 -0.0410
  694TMC3    C410261   3.884   0.452  10.672  0.2402  0.2189  0.2323
  694TMC3    C510262   3.820   0.392  10.771  0.1343 -0.4416 -0.3605
  694TMC3    C610263   3.739   0.282  10.758 -0.3652  0.2734  0.8321
  694TMC3     C10264   4.007   0.399  10.472  0.0105  0.8541  0.0988
  694TMC3     O10265   4.040   0.293  10.418 -0.3992  0.0570  0.3652
  694TMC3     H10266   3.808   0.234  10.430 -1.2014 -2.1709  0.6570
  694TMC3    H110267   3.924   0.552  10.685 -1.5137  1.0331 -0.7080
  694TMC3    H210268   3.676   0.246  10.839 -1.1218 -0.7063 -0.1798
  694TMC3    C710269   3.817   0.466  10.898 -0.6318 -0.0758 -0.1427
  694TMC3    C810270   3.638   0.113  10.597  0.2446 -0.8735 -0.4253
  694TMC3    O110271   3.847   0.582  10.907  0.6671  0.5866 -0.2454
  694TMC3    O210272   3.591   0.056  10.693 -0.2070 -0.5040 -0.2017
  695MPD2     C10273   0.178   2.006  14.159  0.4286 -0.2004 -0.6487
  695MPD2    C110274   0.175   2.111  14.069  0.1268  0.2243  0.5605
  695MPD2    C210275   0.054   2.185  14.050  0.7886  0.8335 -0.4597
  695MPD2    C310276   4.659   2.148  14.116  0.1117 -0.0129 -0.0603
  695MPD2    C410277   4.671   2.046  14.210 -0.0470  0.9810  0.2368
  695MPD2    C510278   0.067   1.971  14.228  0.0463  0.0412  0.5398
  695MPD2     H10279   0.056   2.261  13.973  1.2278  1.6876  0.3862
  695MPD2    H110280   4.593   2.006  14.274  0.7279 -0.9655 -0.0199
  695MPD2    H210281   0.267   1.948  14.180 -0.8250 -1.4639  1.1456
  695MPD2    H310282   0.083   1.891  14.300 -1.7383 -2.2102 -1.5704
  695MPD2     N10283   4.540   2.216  14.087  0.0543 -0.1969 -0.5083
  695MPD2    H510284   4.551   2.288  14.017 -0.2501  1.4005  1.1052
  695MPD2    N110285   0.288   2.154  13.990 -0.1494 -0.2530  0.2830
  695MPD2    H710286   0.274   2.233  13.928 -2.0298 -1.0549 -0.3071
  696TMC3    C110287   4.316   2.282  14.084  0.1562 -1.0168 -0.7278
  696TMC3    C210288   4.236   2.343  14.169  0.1557 -0.5022 -0.0652
  696TMC3    C310289   4.173   2.453  14.118 -0.2235  0.1511  1.0918
  696TMC3    C410290   4.322   2.312  13.946 -0.0583  0.0444 -0.2476
  696TMC3    C510291   4.236   2.396  13.900 -0.4449  0.4538 -0.6502
  696TMC3    C610292   4.161   2.474  13.983 -0.4634  0.4181  0.2786
  696TMC3     C10293   4.414   2.200  14.150  0.2665 -0.0578 -0.4928
  696TMC3     O10294   4.381   2.113  14.230 -0.3540  0.0826 -0.1122
  696TMC3     H10295   4.219   2.301  14.267 -1.0731  1.2728  0.4852
  696TMC3    H110296   4.386   2.253  13.880  1.4129  2.8416 -1.3143
  696TMC3    H210297   4.100   2.559  13.956 -1.3865  0.4574  2.4806
  696TMC3    C710298   4.270   2.437  13.763 -0.6515  0.0402  0.5782
  696TMC3    C810299   4.213   2.578  14.174 -0.0037 -0.0875  1.2319
  696TMC3    O110300   4.318   2.351  13.688  0.4765 -0.2176 -0.4268
  696TMC3    O210301   4.196   2.683  14.110 -0.2549 -0.5049  0.1203
  697MPD2     C10302   3.521   4.374  16.010 -0.0826  0.4517  0.0930
  697MPD2    C110303   3.594   4.324  15.903  1.1425  0.3460 -0.1239
  697MPD2    C210304   3.652   4.413  15.809  0.0359 -0.0855  0.2769
  697MPD2    C310305   3.625   4.544  15.821 -0.2699  0.3489  0.3299
  697MPD2    C410306   3.563   4.593  15.933  0.8746  0.1954 -0.3050
  697MPD2    C510307   3.507   4.507  16.020  0.2878 -0.7004  0.2151
  697MPD2     H10308   3.696   4.375  15.717 -1.1569 -0.7940 -0.0090
  697MPD2    H110309   3.524   4.694  15.932 -0.7788 -0.4185  1.5555
  697MPD2    H210310   3.479   4.311  16.087  0.2600  2.0109  1.5524
  697MPD2    H310311   3.456   4.559  16.100 -0.7846 -0.5634 -0.5595
  697MPD2     N10312   3.680   4.623  15.728 -0.1757  0.7071 -0.0029
  697MPD2    H510313   3.725   4.576  15.649  1.1012  2.3415 -0.2438
  697MPD2    N110314   3.613   4.185  15.879  0.0258  0.1694 -0.3202
  697MPD2    H710315   3.679   4.168  15.804 -1.1220 -1.4534 -0.9526
  698TMC3    C110316   3.802   0.074  15.647  0.5582  0.1706 -0.0566
  698TMC3    C210317   3.803   0.202  15.599 -0.0176 -0.4343  0.1090
  698TMC3    C310318   3.906   0.243  15.518  0.3561 -0.1382  0.3906
  698TMC3    C410319   3.894   4.705  15.615  0.9224  0.0171  0.0276
  698TMC3    C510320   3.991   0.027  15.532  0.2706  0.6156  0.1268
  698TMC3    C610321   4.004   0.153  15.477  0.2920  0.0461  0.4134
  698TMC3     C10322   3.690   0.040  15.728  0.1030 -0.5082 -0.1046
  698TMC3     O10323   3.638   0.121  15.808  0.0200 -0.4822 -0.0833
  698TMC3     H10324   3.726   0.271  15.630  0.9950  0.4329  0.6833
  698TMC3    H110325   3.909   4.603  15.651  1.7067  0.2966  0.5005
  698TMC3    H210326   4.086   0.189  15.417 -1.3547  1.3271 -1.0685
  698TMC3    C710327   4.068   4.644  15.464  0.1649  0.1006 -0.3614
  698TMC3    C810328   3.882   0.370  15.445 -0.0647 -0.7618  0.0180
  698TMC3    O110329   4.092   4.539  15.520  0.0748  1.1668  0.5891
  698TMC3    O210330   3.774   0.427  15.446 -0.5432 -0.2310 -0.4888
  699TMC3    C110331   4.186   2.311  13.313  0.1698  0.2306  0.3667
  699TMC3    C210332   4.154   2.213  13.404 -0.0225  0.1068 -0.3727
  699TMC3    C310333   4.031   2.225  13.459  0.0085 -0.6475 -0.4554
  699TMC3    C410334   4.124   2.430  13.307 -0.6242 -0.0211 -0.4249
  699TMC3    C510335   3.998   2.440  13.374 -0.6275  0.5056 -0.1251
  699TMC3    C610336   3.953   2.336  13.451 -0.2079  0.2987  0.0291
  699TMC3     C10337   4.299   2.298  13.222 -0.1634  0.4351 -0.6277
  699TMC3     O10338   4.294   2.365  13.118  0.3749  0.6075 -0.8486
  699TMC3     H10339   4.208   2.120  13.420 -0.7100 -0.0642  0.9915
  699TMC3    H110340   4.165   2.513  13.251  0.0008  0.8439  1.3037
  699TMC3    H210341   3.861   2.338  13.508 -0.0229 -1.0401  0.3594
  699TMC3    C710342   3.944   2.571  13.414  0.3344 -0.0085  1.0778
  699TMC3    C810343   3.992   2.118  13.553 -0.0496 -0.0787 -0.4358
  699TMC3    O110344   3.878   2.577  13.517  0.5544  0.0039 -0.1554
  699TMC3    O210345   3.871   2.109  13.573  0.2932 -0.6562  0.0795
  700TMC3    C110346   3.150   0.442  17.292 -0.9318 -0.5007  0.3981
  700TMC3    C210347   3.145   0.323  17.223 -0.1313  0.1438  0.0537
  700TMC3    C310348   3.231   0.219  17.258  0.1766 -0.4778  0.2560
  700TMC3    C410349   3.227   0.457  17.404 -0.1352 -0.4248 -0.6756
  700TMC3    C510350   3.295   0.349  17.444 -0.4983  0.3494  0.0521
  700TMC3    C610351   3.310   0.236  17.370 -0.1307  0.3677  0.5001
  700TMC3     C10352   3.070   0.551  17.237 -0.0446  0.0403  1.0348
  700TMC3     O10353   2.977   0.514  17.168 -0.2208 -0.1075 -0.1025
  700TMC3     H10354   3.081   0.301  17.138 -0.5927  0.8233  0.2262
  700TMC3    H110355   3.243   0.554  17.451  0.4610 -1.6632  1.6658
  700TMC3    H210356   3.374   0.164  17.419  2.2584  1.4220 -1.0738
  700TMC3    C710357   3.386   0.359  17.552  0.1472  0.6341 -0.1391
  700TMC3    C810358   3.294   0.129  17.162  0.3874  0.0546  0.5122
  700TMC3    O110359   3.386   0.266  17.631 -0.2121 -0.1190  0.2496
  700TMC3    O210360   3.376   0.049  17.207  0.0878 -0.2322 -0.3592
  701TMC3    C110361   3.040   3.756  15.649  0.1222 -0.4092 -0.6404
  701TMC3    C210362   3.114   3.676  15.564 -0.0721 -0.1673  0.3019
  701TMC3    C310363   3.244   3.719  15.555  0.0724  0.1051  0.0113
  701TMC3    C410364   3.090   3.852  15.726 -0.6635 -0.1797 -0.2829
  701TMC3    C510365   3.224   3.886  15.713 -0.0876  0.6929  0.1452
  701TMC3    C610366   3.306   3.826  15.622  0.2474 -0.2770 -0.3554
  701TMC3     C10367   2.905   3.711  15.688 -0.5037  0.7582 -0.3564
  701TMC3     O10368   2.847   3.772  15.777  0.0338  0.2740 -0.4103
  701TMC3     H10369   3.073   3.589  15.514 -0.2617  0.1913 -0.1567
  701TMC3    H110370   3.028   3.912  15.792  0.3424 -0.2378  0.7057
  701TMC3    H210371   3.410   3.854  15.611 -0.4936  1.3310 -3.4019
  701TMC3    C710372   3.265   4.021  15.740  0.4359 -0.1936 -0.2550
  701TMC3    C810373   3.321   3.658  15.448 -0.6853 -0.7758 -0.2406
  701TMC3    O110374   3.329   4.078  15.653  0.2079 -0.1649  0.0306
  701TMC3    O210375   3.443   3.665  15.459 -0.2777  0.6614  0.8432
  702MPD2     C10376   3.319   0.940  10.364  0.0728 -0.2774 -1.1697
  702MPD2    C110377   3.284   1.066  10.410 -0.1483  0.0836 -0.1493
  702MPD2    C210378   3.350   1.174  10.372 -0.8274  0.0504 -0.7418
  702MPD2    C310379   3.463   1.172  10.291  0.8999 -0.0014  0.0713
  702MPD2    C410380   3.514   1.053  10.261  0.1121 -0.3582 -0.2455
  702MPD2    C510381   3.439   0.942  10.302 -0.3185 -0.0777 -0.5686
  702MPD2     H10382   3.321   1.272  10.409 -0.8487 -0.1752 -0.1595
  702MPD2    H110383   3.594   1.037  10.190  1.1668 -1.1116  1.1009
  702MPD2    H210384   3.273   0.848  10.397  0.2616 -0.4219 -1.3129
  702MPD2    H310385   3.484   0.848  10.271 -2.0662 -1.3191  0.7175
  702MPD2     N10386   3.502   1.294  10.233 -0.0865  0.1463  0.4225
  702MPD2    H510387   3.448   1.376  10.259 -0.2894 -0.2210  1.1685
  702MPD2    N110388   3.163   1.096  10.470  0.6780  0.0574  0.0008
  702MPD2    H710389   3.142   1.195  10.477 -1.6573 -0.4857  0.8666
  703TMC3    C110390   3.636   1.460  10.128  0.6994  0.3159 -0.4477
  703TMC3    C210391   3.525   1.539  10.126  0.4841 -0.4066 -0.0001
  703TMC3    C310392   3.541   1.667  10.080  0.4589  0.6030 -0.0363
  703TMC3    C410393   3.762   1.509  10.087 -0.0010  0.4613  0.2605
  703TMC3    C510394   3.773   1.638  10.039 -0.2392 -0.1283 -0.0353
  703TMC3    C610395   3.660   1.715  10.033 -0.1641  0.2560 -0.3898
  703TMC3     C10396   3.620   1.324  10.165  0.1113  0.0078  0.5416
  703TMC3     O10397   3.710   1.244  10.136 -0.0421 -0.3167 -0.0870
  703TMC3     H10398   3.428   1.490  10.135 -0.7659  2.0494 -0.0129
  703TMC3    H110399   3.841   1.435  10.098  0.9915  1.1568 -2.2976
  703TMC3    H210400   3.666   1.811   9.983  0.7041 -0.2129 -1.1850
  703TMC3    C710401   3.895   1.705  10.008  1.0367 -0.3158 -0.0043
  703TMC3    C810402   3.414   1.734  10.029 -0.3223  0.2650  1.1035
  703TMC3    O110403   3.889   1.820   9.965  0.6369  0.1176 -0.3993
  703TMC3    O210404   3.439   1.830   9.955 -0.0227 -0.0664  0.1027
  704TMC3    C110405   0.483   4.074  12.443 -0.1569  0.1066  0.0884
  704TMC3    C210406   0.619   4.088  12.449 -0.7916  0.2149 -0.0937
  704TMC3    C310407   0.686   4.014  12.541  0.3465 -0.3583 -0.2601
  704TMC3    C410408   0.414   3.988  12.524  0.2690  0.4906  0.2136
  704TMC3    C510409   0.484   3.921  12.619  0.4486 -0.0753 -0.7388
  704TMC3    C610410   0.624   3.926  12.630  0.5271 -0.6974 -0.2570
  704TMC3     C10411   0.406   4.131  12.325  0.0688 -0.3767  0.3024
  704TMC3     O10412   0.284   4.120  12.325 -0.2411  0.3191  0.3844
  704TMC3     H10413   0.680   4.158  12.394 -0.7878  0.7064  0.5357
  704TMC3    H110414   0.313   3.954  12.501  1.9253 -2.5594 -2.4828
  704TMC3    H210415   0.673   3.882  12.716 -0.3517 -1.9666 -0.4053
  704TMC3    C710416   0.411   3.809  12.672 -0.5912 -0.2617  0.3272
  704TMC3    C810417   0.824   3.994  12.511  0.4269 -0.2614  0.3692
  704TMC3    O110418   0.294   3.833  12.699  0.1102 -0.1510 -0.4076
  704TMC3    O210419   0.860   4.022  12.396  0.5299 -0.2741  0.1055
  705MPD2     C10420   4.513   2.138  16.526  0.2591  0.0070 -0.5487
  705MPD2    C110421   4.544   2.267  16.545  0.3721  0.0874 -0.3638
  705MPD2    C210422   4.461   2.346  16.625 -0.3499  0.3392 -0.3097
  705MPD2    C310423   4.337   2.298  16.665 -0.0581  0.0396 -0.5242
  705MPD2    C410424   4.299   2.168  16.625  1.1334  0.2489  0.1367
  705MPD2    C510425   4.390   2.084  16.572 -0.4412  0.2843 -0.4404
  705MPD2     H10426   4.481   2.452  16.639  1.7658 -0.2438  1.0267
  705MPD2    H110427   4.205   2.123  16.655  1.8886  0.0347  2.1146
  705MPD2    H210428   4.566   2.062  16.470 -0.5999  0.5199 -2.0688
  705MPD2    H310429   4.365   1.982  16.546 -1.2260  0.3473  0.0809
  705MPD2     N10430   4.244   2.378  16.722 -0.1256 -0.7717 -0.1347
  705MPD2    H510431   4.150   2.338  16.719  1.1233 -3.6205 -1.2046
  705MPD2    N110432   4.658   2.331  16.492  0.1618  0.4201 -0.4907
  705MPD2    H710433   4.680   2.425  16.524 -0.9459  0.7894 -0.8032
  706TMC3    C110434   0.231   2.418  16.118  0.3973  0.2775  0.2327
  706TMC3    C210435   0.210   2.550  16.133  0.0378  0.4725 -0.5786
  706TMC3    C310436   0.135   2.594  16.239 -0.5817 -0.6716  0.7034
  706TMC3    C410437   0.183   2.321  16.215  0.2018  0.1763  0.0747
  706TMC3    C510438   0.108   2.374  16.325  0.3679  0.6032  0.4933
  706TMC3    C610439   0.078   2.509  16.330 -0.5935 -0.2715 -0.5020
  706TMC3     C10440   0.330   2.385  16.019 -0.5671  0.0320 -0.2197
  706TMC3     O10441   0.388   2.279  16.047 -1.0143  0.4272  0.4412
  706TMC3     H10442   0.254   2.627  16.072  0.5425  0.4909 -0.1975
  706TMC3    H110443   0.207   2.216  16.220 -0.1236  0.1233  0.5528
  706TMC3    H210444   0.015   2.551  16.407  0.6192 -0.5542  0.6632
  706TMC3    C710445   0.012   2.283  16.387 -0.1794 -0.1388 -0.0732
  706TMC3    C810446   0.104   2.734  16.240 -0.3876  0.3560  0.2709
  706TMC3    O110447   0.002   2.177  16.330 -0.1597  0.0691  0.7093
  706TMC3    O210448   0.146   2.804  16.151  0.0460  0.1027 -0.9641
  707TMC3    C110449   1.269   1.650   1.483 -0.1574 -0.4588  0.7358
  707TMC3    C210450   1.262   1.531   1.413  0.0618  0.7998 -0.1493
  707TMC3    C310451   1.175   1.439   1.458  0.0188 -0.1551 -0.1710
  707TMC3    C410452   1.197   1.680   1.595  0.2793  0.4319 -0.2973
  707TMC3    C510453   1.107   1.585   1.632  0.1988 -0.7632  0.3317
  707TMC3    C610454   1.096   1.463   1.570 -0.4394 -0.7588  0.5106
  707TMC3     C10455   1.385   1.727   1.461  0.5292 -0.3862  0.5623
  707TMC3     O10456   1.435   1.784   1.554  0.1421 -0.1122 -0.2077
  707TMC3     H10457   1.325   1.502   1.330  1.3211  0.3717  0.9629
  707TMC3    H110458   1.214   1.774   1.645 -0.9396 -0.1008  1.1053
  707TMC3    H210459   1.054   1.376   1.619  0.0592 -0.2053  1.9337
  707TMC3    C710460   0.993   1.619   1.724  0.2825  0.4661  0.5649
  707TMC3    C810461   1.202   1.299   1.433  0.1830 -0.3834  0.1309
  707TMC3    O110462   0.917   1.527   1.752 -0.3768 -0.0055 -0.1753
  707TMC3    O210463   1.110   1.224   1.457  0.0222 -0.5782 -0.3776
  708MPD2     C10464   3.534   0.398  13.852  0.3410  0.4271  0.0351
  708MPD2    C110465   3.482   0.528  13.861 -0.1590 -0.6066  0.3267
  708MPD2    C210466   3.407   0.564  13.970 -0.2628  0.1675 -0.5486
  708MPD2    C310467   3.385   0.478  14.079 -0.3276  0.5237 -0.6959
  708MPD2    C410468   3.455   0.358  14.075 -0.1325 -0.1866  0.0172
  708MPD2    C510469   3.520   0.316  13.960  0.1797  0.6751 -0.5413
  708MPD2     H10470   3.345   0.652  13.960 -0.9418 -0.0982  1.3483
  708MPD2    H110471   3.443   0.291  14.160 -1.2558  0.7098  0.5728
  708MPD2    H210472   3.609   0.371  13.778  0.2245  2.0331 -0.6625
  708MPD2    H310473   3.574   0.222  13.959  0.0990  0.6247 -0.1556
  708MPD2     N10474   3.285   0.502  14.176 -0.1779 -0.3328  0.5735
  708MPD2    H510475   3.280   0.437  14.254  1.2754 -1.1641 -0.0222
  708MPD2    N110476   3.500   0.609  13.743 -0.2249 -0.6426  0.1624
  708MPD2    H710477   3.533   0.565  13.657  1.6743  0.7358  0.2076
  709TMC3    C110478   3.482   0.811  13.607  1.3315 -0.3226  0.3774
  709TMC3    C210479   3.496   0.720  13.500  0.8357 -0.3030  0.0476
  709TMC3    C310480   3.449   0.771  13.378 -1.1741 -0.2143 -0.4495
  709TMC3    C410481   3.404   0.926  13.597  0.4617  0.0133 -0.2230
  709TMC3    C510482   3.333   0.948  13.483  0.0996 -0.5879  0.8467
  709TMC3    C610483   3.366   0.879  13.365 -0.0224 -0.1353  0.1835
  709TMC3     C10484   3.460   0.744  13.735 -0.0150  0.1491  0.2495
  709TMC3     O10485   3.419   0.817  13.825 -0.6589 -0.2575 -0.1102
  709TMC3     H10486   3.561   0.634  13.506  0.2967 -0.8436 -1.8683
  709TMC3    H110487   3.391   0.994  13.680 -1.0220  0.6644 -0.9779
  709TMC3    H210488   3.298   0.893  13.282  1.4009  4.0879 -0.2260
  709TMC3    C710489   3.190   0.953  13.507  0.2385  0.0769 -0.7145
  709TMC3    C810490   3.473   0.680  13.258 -0.1626 -0.5588  0.1301
  709TMC3    O110491   3.114   0.953  13.411 -0.1313  0.1393  0.2784
  709TMC3    O210492   3.536   0.577  13.275  0.6381  0.5658 -0.0565
  710TMC3    C110493   4.162   2.323   0.198  0.2083  0.5789 -0.3141
  710TMC3    C210494   4.204   2.275   0.075 -0.2378 -0.1022 -0.3218
  710TMC3    C310495   4.198   2.140   0.043  0.2344 -0.3040 -0.6618
  710TMC3    C410496   4.095   2.238   0.278 -0.5855 -0.3656 -0.1562
  710TMC3    C510497   4.079   2.104   0.248 -0.0090 -0.2957  0.0532
  710TMC3    C610498   4.142   2.055   0.137 -0.2802  0.1764 -0.4070
  710TMC3     C10499   4.182   2.460   0.230  0.2085 -0.7860 -0.1866
  710TMC3     O10500   4.275   2.511   0.173 -0.0007 -0.0672 -0.1352
  710TMC3     H10501   4.269   2.342   0.019 -0.1784 -0.1824 -0.3484
  710TMC3    H110502   4.071   2.273   0.378  1.1338 -1.9255  0.7885
  710TMC3    H210503   4.137   1.948   0.120 -1.2781  0.5076 -2.1168
  710TMC3    C710504   4.002   2.023   0.339  0.0197 -0.5013  0.3991
  710TMC3    C810505   4.274   2.100  17.617  0.4324 -0.5078 -0.5032
  710TMC3    O110506   3.993   2.060   0.455  0.2921  0.8428  0.1347
  710TMC3    O210507   4.311   2.189  17.544 -0.2844  0.2148  0.5488
  711TMC3    C110508   3.947   3.389  14.840  0.0839  0.1608 -0.7227
  711TMC3    C210509   3.928   3.447  14.960  0.0210  0.1315 -0.3576
  711TMC3    C310510   4.023   3.428  15.048 -0.1215 -0.0410 -0.3574
  711TMC3    C410511   4.056   3.319  14.801  0.8111 -0.8405 -0.1225
  711TMC3    C510512   4.141   3.301  14.896  0.9445  0.3254 -0.0354
  711TMC3    C610513   4.145   3.372  15.007  0.1012  0.0683 -0.0986
  711TMC3     C10514   3.821   3.338  14.787 -0.1560 -0.3139 -0.4405
  711TMC3     O10515   3.820   3.222  14.750  0.3786  0.7391 -0.0671
  711TMC3     H10516   3.831   3.473  15.000 -0.1685 -0.4651 -0.4231
  711TMC3    H110517   4.064   3.271  14.704 -1.7932 -0.9085 -0.3075
  711TMC3    H210518   4.223   3.351  15.080  0.2199  0.8178 -0.0182
  711TMC3    C710519   4.180   3.165  14.921  0.4155  0.5944  0.3486
  711TMC3    C810520   3.986   3.383  15.183  0.3037  0.1292 -0.3191
  711TMC3    O110521   4.278   3.150  14.989  0.2299 -0.5488 -0.0011
  711TMC3    O210522   3.884   3.324  15.200  0.0405  0.3480 -1.2413
  712MPD2     C10523   0.164   4.158  13.893 -0.6503  0.0208  0.3380
  712MPD2    C110524   0.231   4.181  13.773 -0.2878  0.4137 -0.6123
  712MPD2    C210525   0.346   4.254  13.771 -0.1010 -0.3705  0.9923
  712MPD2    C310526   0.386   4.320  13.885  0.4473  0.3666  0.8825
  712MPD2    C410527   0.307   4.311  13.995  0.5837  0.0665  0.0181
  712MPD2    C510528   0.199   4.231  13.997 -0.5119 -0.0963 -0.4788
  712MPD2     H10529   0.401   4.260  13.678 -1.9222  0.4713 -0.0361
  712MPD2    H110530   0.325   4.372  14.083 -1.4176 -0.7161  0.9772
  712MPD2    H210531   0.086   4.082  13.893 -1.6453  1.0514 -0.4561
  712MPD2    H310532   0.144   4.225  14.089  0.1041 -0.7810 -0.1524
  712MPD2     N10533   0.484   4.417  13.895 -0.3448 -0.4135 -0.3925
  712MPD2    H510534   0.485   4.476  13.978  1.0493 -1.2997  0.2126
  712MPD2    N110535   0.176   4.121  13.659 -0.6744  0.0797 -0.0714
  712MPD2    H710536   0.090   4.070  13.675  0.1936 -1.7605 -1.2402
  713TMC3    C110537   0.659   4.551  13.837 -0.3942 -0.1557  0.8717
  713TMC3    C210538   0.794   4.541  13.815  0.3425  0.6346  0.6364
  713TMC3    C310539   0.871   4.657  13.813 -0.5104  0.2053 -0.5698
  713TMC3    C410540   0.601   4.670  13.866 -0.0016  0.2095  0.1319
  713TMC3    C510541   0.684   0.060  13.872 -0.5621  1.1692 -0.3143
  713TMC3    C610542   0.818   0.058  13.841  0.7137 -0.1925  0.2212
  713TMC3     C10543   0.586   4.431  13.806  0.3454  0.5210 -0.2270
  713TMC3     O10544   0.617   4.359  13.709 -0.0592  0.4877  0.4797
  713TMC3     H10545   0.830   4.450  13.770 -1.0783  0.9250 -1.1096
  713TMC3    H110546   0.493   4.678  13.877 -0.0580 -1.0776  0.5358
  713TMC3    H210547   0.882   0.144  13.860 -1.0650  0.6193  2.5487
  713TMC3    C710548   0.622   0.185  13.894 -0.6763 -1.2141 -0.6241
  713TMC3    C810549   1.017   4.635  13.810 -0.3776  0.2886 -0.2639
  713TMC3    O110550   0.682   0.280  13.943 -0.2946  0.0894 -0.4642
  713TMC3    O210551   1.056   4.535  13.865 -0.2817 -0.3513  0.3102
  714MPD2     C10552   2.442   2.521   1.416  0.7600 -0.7058  0.5927
  714MPD2    C110553   2.508   2.531   1.296  0.1848  0.0062 -0.0840
  714MPD2    C210554   2.439   2.574   1.192  0.3851 -0.9467  0.2700
  714MPD2    C310555   2.309   2.610   1.200  0.1537 -0.2663 -0.5701
  714MPD2    C410556   2.249   2.618   1.327  0.3752 -0.1960  0.1173
  714MPD2    C510557   2.314   2.572   1.432  0.1925  0.9560 -0.1585
  714MPD2     H10558   2.491   2.578   1.097 -0.3936 -1.9948 -0.1927
  714MPD2    H110559   2.146   2.652   1.337 -0.1194 -1.7108  0.2034
  714MPD2    H210560   2.494   2.476   1.500 -0.6332 -1.7024  0.9318
  714MPD2    H310561   2.261   2.564   1.526  1.7481  0.8326  0.7071
  714MPD2     N10562   2.233   2.647   1.082 -0.9426 -0.1076 -0.4325
  714MPD2    H510563   2.281   2.658   0.993  2.1441 -0.8151  1.1515
  714MPD2    N110564   2.647   2.491   1.303 -0.0826  0.0032  0.0108
  714MPD2    H710565   2.687   2.459   1.390  0.4205  0.0227 -0.2120
  715TMC3    C110566   2.862   2.444   1.235  0.5069 -0.5561 -0.7026
  715TMC3    C210567   2.931   2.385   1.131  0.2522  0.3853 -0.4583
  715TMC3    C310568   3.069   2.379   1.138 -0.1316  0.1532 -0.3445
  715TMC3    C410569   2.927   2.507   1.336  0.6017 -0.9230 -0.0578
  715TMC3    C510570   3.065   2.497   1.333 -0.0071 -0.5407  0.0864
  715TMC3    C610571   3.134   2.427   1.240  0.8350 -0.0353  0.4354
  715TMC3     C10572   2.730   2.484   1.197  0.1807  0.4058  0.4444
  715TMC3     O10573   2.704   2.496   1.079  0.2262  0.1729 -0.2589
  715TMC3     H10574   2.881   2.340   1.046 -0.4962 -0.4756  0.4448
  715TMC3    H110575   2.869   2.573   1.400  2.8634  0.1624  0.8424
  715TMC3    H210576   3.242   2.424   1.248  0.9818 -1.1626 -2.0515
  715TMC3    C710577   3.142   2.538   1.450  0.3012 -0.6720 -0.2439
  715TMC3    C810578   3.124   2.263   1.065 -0.4696 -0.0531 -0.7976
  715TMC3    O110579   3.255   2.579   1.441  0.4441  0.1655 -0.1405
  715TMC3    O210580   3.048   2.193   1.001  0.2123 -1.1044 -0.0467
  716MPD2     C10581   3.002   0.734  10.096 -0.0563 -0.3607 -0.7615
  716MPD2    C110582   3.041   0.766   9.967 -0.8079  0.2607 -0.1555
  716MPD2    C210583   3.116   0.673   9.889 -0.5955 -0.2005 -0.4050
  716MPD2    C310584   3.143   0.553   9.948 -0.6389 -0.0399  0.8580
  716MPD2    C410585   3.101   0.518  10.075 -0.2198 -0.5145 -0.3023
  716MPD2    C510586   3.031   0.610  10.146  0.1496 -0.5641 -0.1305
  716MPD2     H10587   3.159   0.693   9.792  0.6780  0.2914  0.2607
  716MPD2    H110588   3.110   0.424  10.128 -1.2365  0.2653  1.2242
  716MPD2    H210589   2.955   0.805  10.163  1.6429 -0.4036  0.4881
  716MPD2    H310590   2.994   0.570  10.240  1.8302 -1.4192  0.1718
  716MPD2     N10591   3.226   0.467   9.876 -0.4960  0.4528  0.9684
  716MPD2    H510592   3.263   0.500   9.788 -0.9664 -3.3730 -0.6626
  716MPD2    N110593   3.005   0.896   9.920 -0.6700 -0.2317 -0.2462
  716MPD2    H710594   2.953   0.949   9.989  0.7890 -1.0097  1.4803
  717TMC3    C110595   3.351   0.263   9.833  0.2849 -0.5798  0.3193
  717TMC3    C210596   3.394   0.336   9.723 -0.3790 -0.4698  0.1530
  717TMC3    C310597   3.498   0.281   9.657  0.1818 -0.1268 -0.0618
  717TMC3    C410598   3.409   0.151   9.881 -0.3505 -0.2088 -0.4761
  717TMC3    C510599   3.521   0.111   9.815 -0.6787 -0.2324  0.2170
  717TMC3    C610600   3.558   0.171   9.699  0.1616  0.2019 -0.4090
  717TMC3     C10601   3.258   0.334   9.916 -0.1582  0.4933  0.4573
  717TMC3     O10602   3.211   0.270  10.012  0.2081 -0.1360  0.5469
  717TMC3     H10603   3.337   0.414   9.674  0.8111 -0.2383 -0.8743
  717TMC3    H110604   3.355   0.085   9.947  0.6695 -0.2601  0.3066
  717TMC3    H210605   3.634   0.120   9.641 -0.0392 -2.2511  1.5071
  717TMC3    C710606   3.599   4.722   9.853  0.3283 -0.1665  0.0433
  717TMC3    C810607   3.549   0.361   9.545 -0.2116 -0.7415  0.1639
  717TMC3    O110608   3.686   4.679   9.782  0.2966  0.1531  0.2847
  717TMC3    O210609   3.514   0.479   9.550  0.0461  0.4139 -0.5275
  718MPD2     C10610   2.724   0.071  13.101 -0.3194 -0.3791  0.3986
  718MPD2    C110611   2.705   0.019  12.977 -0.2416 -0.0318  0.7039
  718MPD2    C210612   2.588   4.676  12.953  0.2514  0.1161  0.3001
  718MPD2    C310613   2.494   4.656  13.054 -0.4359 -0.7996 -0.1257
  718MPD2    C410614   2.515   4.718  13.176 -0.5347  0.2910  0.2522
  718MPD2    C510615   2.629   0.066  13.197  0.1578  1.2447 -0.3058
  718MPD2     H10616   2.563   4.640  12.854  2.5318 -1.8032  0.4227
  718MPD2    H110617   2.438   4.712  13.252 -0.3240 -2.8799  0.1987
  718MPD2    H210618   2.814   0.125  13.126 -0.5907 -0.0758  0.7157
  718MPD2    H310619   2.648   0.119  13.290 -2.9641  1.7363  0.0326
  718MPD2     N10620   2.376   4.594  13.014 -0.0849 -0.0542  0.0319
  718MPD2    H510621   2.361   4.582  12.914 -1.1732 -1.1612  0.3269
  718MPD2    N110622   2.809   0.037  12.878  0.9474  0.4017 -0.0648
  718MPD2    H710623   2.846   0.131  12.887  0.0862  0.8016 -0.6926
  719TMC3    C110624   2.810   0.043  12.639 -0.3825 -0.1509 -0.1531
  719TMC3    C210625   2.742   4.711  12.533  0.0788 -0.4514  0.1779
  719TMC3    C310626   2.665   0.061  12.447 -0.0859  0.1234  0.3037
  719TMC3    C410627   2.803   0.177  12.654 -0.5264 -0.1459 -0.2042
  719TMC3    C510628   2.721   0.259  12.577  0.1877  0.3192 -0.8852
  719TMC3    C610629   2.657   0.199  12.465  0.5252  0.6307 -0.3127
  719TMC3     C10630   2.824   4.689  12.760  0.0282 -0.3208 -0.4452
  719TMC3     O10631   2.812   4.568  12.734 -0.2292  0.1068 -0.4616
  719TMC3     H10632   2.738   4.603  12.529  0.0147 -0.4704  0.8553
  719TMC3    H110633   2.857   0.225  12.734 -1.1321  0.9947 -0.4925
  719TMC3    H210634   2.585   0.261  12.411  0.6415 -0.8218 -2.1558
  719TMC3    C710635   2.782   0.379  12.533  1.0327  0.3756 -0.6458
  719TMC3    C810636   2.547   4.709  12.414  0.4052 -0.3770  0.2496
  719TMC3    O110637   2.904   0.376  12.537 -0.2286  0.8810  0.3375
  719TMC3    O210638   2.531   4.596  12.456  0.0937 -0.0312 -0.3746
  720MPD2     C10639   0.756   1.431  14.061  0.5376 -0.1550 -0.2306
  720MPD2    C110640   0.815   1.463  13.938  0.1441 -0.5344 -0.3685
  720MPD2    C210641   0.949   1.422  13.925 -0.8697 -0.3238  0.0373
  720MPD2    C310642   1.024   1.373  14.032 -0.1616 -0.2114 -0.2761
  720MPD2    C410643   0.959   1.349  14.155  0.0731 -0.2019 -0.1582
  720MPD2    C510644   0.824   1.377  14.165  0.4132  0.7062 -0.2564
  720MPD2     H10645   0.996   1.437  13.828  0.4841  3.2218  1.2276
  720MPD2    H110646   1.014   1.313  14.241 -2.5171  2.5832  2.6805
  720MPD2    H210647   0.649   1.447  14.074  0.9101  2.5818 -0.7709
  720MPD2    H310648   0.767   1.352  14.253  1.3597  0.6271  0.3315
  720MPD2     N10649   1.165   1.362  14.015  0.0913 -0.0978 -0.3502
  720MPD2    H510650   1.206   1.405  13.933  2.4919 -0.3047  0.7546
  720MPD2    N110651   0.746   1.536  13.836  0.3809  0.2549 -0.1930
  720MPD2    H710652   0.786   1.522  13.744  1.1663 -1.5507  0.4202
  721TMC3    C110653   1.396   1.313  14.054  0.9921  0.2129  0.7857
  721TMC3    C210654   1.480   1.227  14.103  0.0537  0.2669  1.1719
  721TMC3    C310655   1.615   1.257  14.093  0.5271 -0.2004  0.8094
  721TMC3    C410656   1.439   1.430  13.991  0.6959 -0.1525  0.4764
  721TMC3    C510657   1.575   1.451  13.971  0.2958  0.4004 -0.0370
  721TMC3    C610658   1.669   1.363  14.027  0.2080  0.5163  0.9523
  721TMC3     C10659   1.254   1.296  14.099 -0.3457 -0.4514 -0.0738
  721TMC3     O10660   1.229   1.217  14.190  0.1864 -0.8110  0.1243
  721TMC3     H10661   1.440   1.141  14.154 -3.2754  0.1656 -1.6180
  721TMC3    H110662   1.371   1.508  13.958  3.8622  2.0639 -0.8078
  721TMC3    H210663   1.775   1.384  14.023  0.3826  0.0089  2.7212
  721TMC3    C710664   1.615   1.539  13.868 -0.1853 -0.3047  0.3224
  721TMC3    C810665   1.714   1.170  14.151 -0.4154  0.1206  0.4310
  721TMC3    O110666   1.718   1.507  13.814 -0.2012  0.3735  0.5628
  721TMC3    O210667   1.830   1.184  14.126 -0.5413  0.2859  0.6408
  722MPD2     C10668   4.415   4.573  13.220 -0.2333  0.0087  0.4285
  722MPD2    C110669   4.380   4.704  13.191  0.8418  0.3344 -0.2214
  722MPD2    C210670   4.291   0.000  13.085  0.2889 -0.5969  0.1433
  722MPD2    C310671   4.233   4.619  13.013  0.1300  0.6312 -0.0167
  722MPD2    C410672   4.273   4.489  13.036 -0.7270  1.0123 -0.4943
  722MPD2    C510673   4.357   4.469  13.148 -0.1627  0.3145 -0.3201
  722MPD2     H10674   4.262   0.104  13.074  0.3650 -0.5895  0.0202
  722MPD2    H110675   4.241   4.406  12.975 -0.0168 -0.8765  1.7406
  722MPD2    H210676   4.472   4.545  13.308 -0.9518  0.0496  0.9110
  722MPD2    H310677   4.372   4.365  13.177  1.7461  0.3276 -1.2941
  722MPD2     N10678   4.141   4.641  12.905  0.3429  0.2840  0.3701
  722MPD2    H510679   4.125   4.559  12.847  1.4532  0.2231  0.1569
  722MPD2    N110680   4.421   0.094  13.267  0.4203  0.6252  1.1145
  722MPD2    H710681   4.387   0.181  13.227  0.0638  0.3553  0.8286
  723TMC3    C110682   4.012   0.025  12.752  0.4577  0.4037 -0.0727
  723TMC3    C210683   3.924   4.649  12.738 -0.0530  0.9295 -0.1495
  723TMC3    C310684   3.841   4.652  12.629 -0.8292 -0.9766  0.3869
  723TMC3    C410685   4.022   0.136  12.664  0.2566 -1.0531  0.5135
  723TMC3    C510686   3.941   0.134  12.560  0.4576 -0.1245  0.2187
  723TMC3    C610687   3.849   0.033  12.538 -0.4480  0.6345  0.3211
  723TMC3     C10688   4.091   0.040  12.868 -0.3469 -0.3532 -0.7160
  723TMC3     O10689   4.140   0.150  12.899 -0.1775 -0.0900  0.1272
  723TMC3     H10690   3.903   4.587  12.824 -1.4774  0.6935 -0.6620
  723TMC3    H110691   4.094   0.216  12.668  2.2675 -2.8343 -0.1936
  723TMC3    H210692   3.767   0.059  12.472 -1.1127  0.7791  1.1947
  723TMC3    C710693   3.919   0.254  12.484  0.7658 -0.4833  0.3628
  723TMC3    C810694   3.738   4.555  12.611  0.0265  0.6262 -0.9906
  723TMC3    O110695   3.898   0.230  12.367 -0.4086 -0.2152  0.0706
  723TMC3    O210696   3.640   4.593  12.549 -0.0157 -0.2655 -0.5627
  724TMC3    C110697   0.672   3.009  10.147 -0.0498 -1.1986  0.1552
  724TMC3    C210698   0.625   3.022  10.014 -0.2552  0.3354  0.3255
  724TMC3    C310699   0.664   3.139   9.946 -0.2179  0.6241 -0.3348
  724TMC3    C410700   0.775   3.093  10.197  0.4555  0.7258 -0.2931
  724TMC3    C510701   0.817   3.187  10.113  0.0032  0.3279 -0.3949
  724TMC3    C610702   0.760   3.219   9.997 -0.2401  0.0053  0.7072
  724TMC3     C10703   0.627   2.902  10.241  0.2231 -0.4477  0.4894
  724TMC3     O10704   0.682   2.904  10.352  0.0923 -0.0692 -0.1560
  724TMC3     H10705   0.536   2.969   9.982 -1.4713  1.3726  1.9255
  724TMC3    H110706   0.822   3.086  10.294 -0.0664  1.8742  0.0382
  724TMC3    H210707   0.813   3.284   9.928 -2.4231 -0.1686 -1.1207
  724TMC3    C710708   0.861   3.306  10.180 -0.0687  0.5530  0.6970
  724TMC3    C810709   0.570   3.207   9.859  0.1880  0.3814 -0.0597
  724TMC3    O110710   0.824   3.410  10.123  0.2183  0.7677  0.1416
  724TMC3    O210711   0.489   3.141   9.798  0.5285 -0.1053 -0.2546
  725TMC3    C110712   1.740   1.836  12.828  0.2471  0.1112 -0.2671
  725TMC3    C210713   1.638   1.882  12.910  0.1427  0.2159 -0.4636
  725TMC3    C310714   1.513   1.832  12.884 -0.3884  0.9741  0.1746
  725TMC3    C410715   1.730   1.726  12.749  0.0338  0.1488  0.3563
  725TMC3    C510716   1.602   1.662  12.742  0.2832 -0.2063 -0.4298
  725TMC3    C610717   1.491   1.729  12.793 -0.0675 -0.1836  0.8086
  725TMC3     C10718   1.836   1.942  12.807  0.3407 -0.2687 -0.6470
  725TMC3     O10719   1.832   2.041  12.884  0.0404 -0.6130 -0.3125
  725TMC3     H10720   1.651   1.964  12.981 -2.2947  0.8289 -0.7033
  725TMC3    H110721   1.814   1.687  12.694 -0.0293 -1.2109  1.1992
  725TMC3    H210722   1.394   1.682  12.793 -1.4844  2.7315 -1.4571
  725TMC3    C710723   1.590   1.548  12.663 -0.1218  0.1299  0.1276
  725TMC3    C810724   1.420   1.933  12.884 -0.7634  0.6949 -0.3040
  725TMC3    O110725   1.698   1.494  12.641 -0.7515  0.3080 -0.3864
  725TMC3    O210726   1.429   2.023  12.967 -0.1379  0.3785  0.3034
  726MPD2     C10727   4.723   2.692  11.293 -0.1107  0.2484  0.2518
  726MPD2    C110728   4.664   2.771  11.189  0.2587 -0.7256  0.1604
  726MPD2    C210729   4.530   2.761  11.164  0.0731  0.2689  0.4421
  726MPD2    C310730   4.459   2.667  11.230 -0.0060 -0.5666  0.0944
  726MPD2    C410731   4.510   2.607  11.348  0.6053 -0.0707  0.5717
  726MPD2    C510732   4.644   2.616  11.374  0.6425  0.1348  0.1728
  726MPD2     H10733   4.490   2.830  11.090  0.7526  0.5076  0.2972
  726MPD2    H110734   4.448   2.547  11.414  0.4273  0.1190  0.5788
  726MPD2    H210735   0.107   2.691  11.307 -0.0153 -1.6675 -0.5300
  726MPD2    H310736   4.685   2.574  11.466 -1.1458 -0.6711  0.5995
  726MPD2     N10737   4.330   2.626  11.183  0.1384 -0.1448 -0.3443
  726MPD2    H510738   4.273   2.575  11.250  1.4858 -0.0044  0.9010
  726MPD2    N110739   0.021   2.862  11.107  0.6373  0.1736 -0.5038
  726MPD2    H710740   4.707   2.884  11.016 -4.1814  0.5976  1.5921
  727TMC3    C110741   0.208   2.973  11.024 -0.3916 -0.3269  0.2261
  727TMC3    C210742   0.333   3.021  11.049 -0.2108  0.4896 -0.4033
  727TMC3    C310743   0.371   3.124  10.969 -0.0185  0.1999  0.4770
  727TMC3    C410744   0.125   3.009  10.918 -0.3668  0.0274 -0.3294
  727TMC3    C510745   0.168   3.116  10.844  0.0205 -0.0767  0.4379
  727TMC3    C610746   0.294   3.171  10.870  0.3100  0.1405  0.0615
  727TMC3     C10747   0.154   2.892  11.129 -0.1859 -0.4451 -0.0355
  727TMC3     O10748   0.227   2.854  11.221  0.1975  0.0412 -0.8993
  727TMC3     H10749   0.397   2.981  11.126 -0.3211 -2.8708 -2.0800
  727TMC3    H110750   0.030   2.966  10.891  0.2218 -2.3675  1.3957
  727TMC3    H210751   0.337   3.244  10.803  1.1512 -0.5102 -0.1043
  727TMC3    C710752   0.088   3.155  10.728  0.2129 -0.0576  0.1673
  727TMC3    C810753   0.495   3.189  10.999  0.3872  0.3507 -0.3304
  727TMC3    O110754   4.715   3.087  10.689  0.5239  0.1026 -0.1969
  727TMC3    O210755   0.553   3.250  10.906 -0.0859  0.2559  0.2587
  728TMC3    C110756   3.129   2.274  15.396  0.1192  0.6199  0.5042
  728TMC3    C210757   3.220   2.376  15.425 -0.5304  0.4433  0.3554
  728TMC3    C310758   3.227   2.478  15.333  0.2432  0.0480 -0.3967
  728TMC3    C410759   3.056   2.270  15.277 -0.7040  0.1905  0.2442
  728TMC3    C510760   3.081   2.370  15.182  0.3800 -0.0676  0.4629
  728TMC3    C610761   3.153   2.479  15.217 -0.3476 -0.5535  0.2362
  728TMC3     C10762   3.082   2.203  15.515  0.2769  0.2000  0.4814
  728TMC3     O10763   3.145   2.227  15.620 -0.1196 -0.9662 -0.1421
  728TMC3     H10764   3.275   2.378  15.519 -1.3853 -0.0702  0.8664
  728TMC3    H110765   3.013   2.173  15.255 -0.7196  0.5390 -1.2407
  728TMC3    H210766   3.165   2.566  15.152 -0.6633 -2.0214 -1.7687
  728TMC3    C710767   3.063   2.329  15.043  0.2811  0.2452 -1.1435
  728TMC3    C810768   3.304   2.598  15.366  0.1827  0.0585  0.1407
  728TMC3    O110769   3.033   2.210  15.030  0.4640 -0.3913  0.2521
  728TMC3    O210770   3.390   2.584  15.453  0.5166 -0.2740 -0.1429
  729MPD2     C10771   0.140   3.571  17.074  0.2003 -0.8850  0.5322
  729MPD2    C110772   0.137   3.434  17.072  0.8019 -0.2288 -0.0961
  729MPD2    C210773   0.131   3.366  17.191  0.0478 -0.0524 -0.5723
  729MPD2    C310774   0.106   3.434  17.308  0.1422 -0.7651 -0.1725
  729MPD2    C410775   0.100   3.577  17.312  0.5171 -0.5579 -0.2678
  729MPD2    C510776   0.122   3.639  17.200  0.4151  0.5482  0.2697
  729MPD2     H10777   0.143   3.258  17.194  0.1266  0.0772  3.1109
  729MPD2    H110778   0.082   3.633  17.403 -1.1505 -1.3365 -0.1106
  729MPD2    H210779   0.154   3.638  16.991  0.2398 -2.1486 -0.4851
  729MPD2    H310780   0.139   3.745  17.191  1.2581  0.3187 -0.7608
  729MPD2     N10781   0.094   3.372  17.437 -0.0820 -0.0792 -0.2166
  729MPD2    H510782   0.109   3.432  17.518 -0.0002 -2.3655  1.4601
  729MPD2    N110783   0.155   3.369  16.945 -0.4202 -0.6363 -0.2897
  729MPD2    H710784   0.146   3.420  16.858  0.8478 -2.2768 -1.3667
  730TMC3    C110785   0.165   3.196  17.555  0.6484 -0.4452  0.1484
  730TMC3    C210786   0.265   3.127  17.499 -1.0155  0.4835 -1.1113
  730TMC3    C310787   0.394   3.169  17.521 -0.8259 -0.2483  0.8427
  730TMC3    C410788   0.192   3.288  17.654 -0.1901 -0.1284 -0.2671
  730TMC3    C510789   0.319   3.328  17.676  0.2292 -0.5618 -0.6202
  730TMC3    C610790   0.419   3.281  17.597 -0.1164  0.2487  0.4798
  730TMC3     C10791   0.078   3.237  17.449  0.1414 -0.6066  0.4580
  730TMC3     O10792   0.033   3.149  17.373 -0.1978  0.1512 -0.1245
  730TMC3     H10793   0.249   3.043  17.431 -0.7048  0.3037 -0.9635
  730TMC3    H110794   0.110   3.347  17.694  0.7368 -0.1395  1.6462
  730TMC3    H210795   0.517   3.321  17.622  1.1316 -1.9478 -0.9505
  730TMC3    C710796   0.324   3.466   0.022  0.5638 -0.5477 -0.0420
  730TMC3    C810797   0.466   3.149  17.397  0.7584  0.3449 -0.5372
  730TMC3    O110798   0.257   3.506   0.116  0.4722  0.4529  0.0866
  730TMC3    O210799   0.436   3.048  17.335  0.1065 -0.3180 -0.2757
  731MPD2     C10800   0.488   0.678  11.985 -0.6127 -0.4746 -0.7326
  731MPD2    C110801   0.626   0.692  11.979  0.2301  0.0097  0.1704
  731MPD2    C210802   0.702   0.677  12.098  0.1397 -0.3622  0.5508
  731MPD2    C310803   0.639   0.656  12.218 -0.0638 -0.5247  0.0604
  731MPD2    C410804   0.502   0.640  12.221  0.1575  0.1681 -0.3312
  731MPD2    C510805   0.430   0.655  12.106  0.0757 -0.5405  0.0387
  731MPD2     H10806   0.810   0.686  12.093  0.2606 -1.8661  0.6661
  731MPD2    H110807   0.457   0.639  12.320  1.6568 -0.1418  0.3578
  731MPD2    H210808   0.423   0.693  11.899 -0.7840  0.1277 -0.4933
  731MPD2    H310809   0.322   0.667  12.111  0.1020 -0.3128  0.0510
  731MPD2     N10810   0.724   0.648  12.330 -0.2537 -0.0299 -0.0863
  731MPD2    H510811   0.822   0.660  12.307 -0.0281 -2.4751 -0.3383
  731MPD2    N110812   0.686   0.708  11.853 -0.4453 -0.3871  0.0960
  731MPD2    H710813   0.633   0.687  11.769 -2.3725  0.7383  1.0308
  732TMC3    C110814   0.839   0.749  11.684  0.4976  0.3212 -0.2725
  732TMC3    C210815   0.740   0.713  11.598  0.1377 -0.2020 -0.1487
  732TMC3    C310816   0.764   0.724  11.465  0.1306  0.0972 -0.4588
  732TMC3    C410817   0.955   0.802  11.642  0.6938  0.1416 -0.6609
  732TMC3    C510818   0.970   0.827  11.510 -0.2181 -0.3987 -0.9123
  732TMC3    C610819   0.868   0.802  11.423 -0.1651 -0.1015 -0.4867
  732TMC3     C10820   0.816   0.747  11.829  0.0534  0.4140  0.9862
  732TMC3     O10821   0.905   0.784  11.907  0.9250 -0.3678 -0.1973
  732TMC3     H10822   0.660   0.646  11.628 -0.8675  0.1708 -1.9759
  732TMC3    H110823   1.022   0.841  11.718 -0.9864 -0.0294  0.8930
  732TMC3    H210824   0.865   0.832  11.319  0.7748  2.8217  0.3145
  732TMC3    C710825   1.089   0.892  11.466  0.3255  0.6335  0.8790
  732TMC3    C810826   0.648   0.754  11.394  0.7097  1.1820 -0.5406
  732TMC3    O110827   1.089   0.927  11.355 -0.2111 -0.5233 -0.1541
  732TMC3    O210828   0.623   0.687  11.289  0.2802  0.1131  0.6002
  733TMC3    C110829   1.916   4.478  13.026 -0.0562 -0.4035 -1.0876
  733TMC3    C210830   2.044   4.465  13.076  0.6496 -0.4170  0.7381
  733TMC3    C310831   2.143   4.541  13.022  0.1433  0.3547  0.4077
  733TMC3    C410832   1.889   4.538  12.908 -0.7648 -0.7318  0.0581
  733TMC3    C510833   1.993   4.608  12.855  0.4693  0.3181 -0.3744
  733TMC3    C610834   2.114   4.621  12.912  0.0343 -0.8074  0.4467
  733TMC3     C10835   1.829   4.370  13.062  0.1312 -0.3980 -0.8449
  733TMC3     O10836   1.872   4.266  13.117  0.1405  0.1104  0.2742
  733TMC3     H10837   2.069   4.415  13.169 -0.5227 -1.0061  0.7518
  733TMC3    H110838   1.801   4.536  12.845  1.7586 -0.5927 -3.4661
  733TMC3    H210839   2.190   4.679  12.861 -0.1551 -0.8232  0.1424
  733TMC3    C710840   1.979   4.665  12.721 -0.5251  0.4889  0.3249
  733TMC3    C810841   2.270   4.567  13.090 -0.2663  0.8794 -0.4052
  733TMC3    O110842   1.871   4.712  12.679  0.3357 -0.2108  0.3846
  733TMC3    O210843   2.260   4.562  13.215 -0.0154 -0.0073 -0.1751
  734MPD2     C10844   3.754   1.837  12.328  0.5317  0.1337 -0.5203
  734MPD2    C110845   3.701   1.771  12.219 -0.6190  0.6755  0.7181
  734MPD2    C210846   3.739   1.812  12.091  0.4339  0.6329 -0.0217
  734MPD2    C310847   3.826   1.918  12.070  0.0495 -0.0622  0.1763
  734MPD2    C410848   3.875   1.984  12.182 -0.5573  0.1557 -0.7106
  734MPD2    C510849   3.833   1.954  12.311  0.3330 -0.1658 -0.4789
  734MPD2     H10850   3.717   1.752  12.003 -2.3666  2.2060 -0.4163
  734MPD2    H110851   3.942   2.067  12.163  1.2974 -0.6843  2.0891
  734MPD2    H210852   3.718   1.811  12.427  2.5641  0.1252  0.2133
  734MPD2    H310853   3.873   2.002  12.399  0.6910 -1.6732  0.1662
  734MPD2     N10854   3.864   1.948  11.938  0.6765 -0.3467 -0.8937
  734MPD2    H510855   3.829   1.881  11.870 -1.7664  0.7794 -0.7760
  734MPD2    N110856   3.614   1.657  12.235 -0.5546 -0.5572  0.0417
  734MPD2    H710857   3.622   1.610  12.324 -0.5152  0.1179  0.3968
  735TMC3    C110858   3.442   1.505  12.172 -0.0286 -0.4502 -0.1768
  735TMC3    C210859   3.353   1.486  12.073 -0.2721 -1.0468 -0.2030
  735TMC3    C310860   3.346   1.368  11.999  0.2485 -0.2828  0.2354
  735TMC3    C410861   3.507   1.399  12.227  0.0198  0.6350 -0.4756
  735TMC3    C510862   3.496   1.277  12.164 -0.7635 -0.1725 -0.1774
  735TMC3    C610863   3.420   1.263  12.046  0.4301  0.2261  0.4627
  735TMC3     C10864   3.530   1.611  12.135  0.2050 -0.3080 -0.3087
  735TMC3     O10865   3.503   1.657  12.023 -0.9564  0.2449 -0.1619
  735TMC3     H10866   3.293   1.569  12.037  0.1116  0.4579  2.6161
  735TMC3    H110867   3.587   1.413  12.299 -1.1132  0.8412  0.7372
  735TMC3    H210868   3.425   1.176  11.981 -1.8354 -0.0416  0.6463
  735TMC3    C710869   3.621   1.211  12.136 -0.4078  0.2593 -0.2259
  735TMC3    C810870   3.339   1.382  11.857 -0.4694  1.0706 -0.3226
  735TMC3    O110871   3.720   1.284  12.132  0.9040  0.1156 -0.2763
  735TMC3    O210872   3.322   1.289  11.778 -0.1894 -0.3411 -0.3712
  736MPD2     C10873   3.687   0.867  12.015  0.0783  0.0341 -0.6955
  736MPD2    C110874   3.703   1.009  12.020  0.4204 -0.2398 -0.3264
  736MPD2    C210875   3.810   1.069  11.953 -0.2656 -0.2988  0.7321
  736MPD2    C310876   3.911   0.992  11.894 -0.0555 -0.5357  0.0460
  736MPD2    C410877   3.890   0.856  11.885  0.3462 -0.3140 -0.4780
  736MPD2    C510878   3.780   0.792  11.944  0.3506  0.4895  0.2070
  736MPD2     H10879   3.814   1.175  11.931  0.1963 -0.2363  1.1156
  736MPD2    H110880   3.962   0.789  11.840 -0.7868 -1.7785 -0.1219
  736MPD2    H210881   3.607   0.822  12.073 -0.9489  0.6626 -1.6213
  736MPD2    H310882   3.775   0.684  11.941  0.2315  0.5137 -0.5311
  736MPD2     N10883   4.017   1.046  11.815 -0.1569 -0.1866  0.2600
  736MPD2    H510884   4.086   0.980  11.780  0.6324  1.7200 -1.7561
  736MPD2    N110885   3.607   1.081  12.093  0.4619  0.2573  0.3059
  736MPD2    H710886   3.517   1.036  12.107  0.1688  0.3657 -1.2074
  737TMC3    C110887   4.133   1.199  11.673 -0.1029 -0.6267  0.3211
  737TMC3    C210888   4.161   1.323  11.634 -0.9867  0.3329 -0.3648
  737TMC3    C310889   4.242   1.342  11.524  0.9089 -0.1933  0.5270
  737TMC3    C410890   4.187   1.096  11.605  0.0833 -0.5806 -0.7174
  737TMC3    C510891   4.269   1.122  11.503 -0.3013  0.9366 -0.4922
  737TMC3    C610892   4.299   1.240  11.453 -1.1033 -0.5579 -0.4455
  737TMC3     C10893   4.044   1.182  11.793 -0.1349 -0.0835 -0.7562
  737TMC3     O10894   4.003   1.280  11.852 -0.5165 -0.0108  0.3926
  737TMC3     H10895   4.112   1.403  11.689  0.9062  0.7709  0.6871
  737TMC3    H110896   4.172   0.993  11.634  1.2914  0.1036  2.2854
  737TMC3    H210897   4.347   1.258  11.357 -0.1879 -1.0033 -0.0688
  737TMC3    C710898   4.336   1.003  11.448 -1.3475 -0.1258 -0.4194
  737TMC3    C810899   4.253   1.476  11.471  0.4369  0.5604 -0.0899
  737TMC3    O110900   4.279   0.895  11.466  0.0289 -0.1624  0.6072
  737TMC3    O210901   4.156   1.547  11.489 -0.3340 -0.2976  0.0899
  738MPD2     C10902   3.893   0.496  15.186  0.3028 -0.1990  0.4777
  738MPD2    C110903   4.010   0.459  15.252  0.3699 -0.4046 -0.2187
  738MPD2    C210904   4.125   0.479  15.184  0.1145 -0.3269  1.1012
  738MPD2    C310905   4.136   0.529  15.056 -0.2587 -0.2212 -0.5197
  738MPD2    C410906   4.014   0.559  14.991 -0.1577  0.1114  0.6996
  738MPD2    C510907   3.899   0.547  15.061  0.0027 -0.6683  0.0231
  738MPD2     H10908   4.220   0.443  15.223  1.4992  0.6646 -1.4012
  738MPD2    H110909   4.018   0.602  14.892  0.4082  1.0760  1.1311
  738MPD2    H210910   3.795   0.489  15.232  1.6146 -0.7161  3.2162
  738MPD2    H310911   3.799   0.562  15.022 -0.7673 -0.9158  1.8876
  738MPD2     N10912   4.258   0.537  14.980  0.2873 -0.1557 -0.4269
  738MPD2    H510913   4.242   0.542  14.880  1.6491  0.7940 -0.5882
  738MPD2    N110914   3.999   0.400  15.374 -0.3991 -0.4279 -0.0144
  738MPD2    H710915   4.081   0.358  15.416  0.2695  1.6726  0.7223
  739TMC3    C110916   4.496   0.537  14.952  0.9031 -0.6434  0.4948
  739TMC3    C210917   4.485   0.492  14.827 -0.6922  0.1399  0.1495
  739TMC3    C310918   4.582   0.503  14.732 -0.4514 -0.7972 -0.2140
  739TMC3    C410919   4.618   0.574  15.004  0.1571 -0.0210  0.1561
  739TMC3    C510920   4.716   0.571  14.913 -0.2374  0.4096 -0.2514
  739TMC3    C610921   4.702   0.542  14.778  0.3597  0.1150 -0.2250
  739TMC3     C10922   4.385   0.535  15.036  0.0628  0.3215  0.0432
  739TMC3     O10923   4.421   0.537  15.151 -0.8570  0.1594  0.6506
  739TMC3     H10924   4.393   0.449  14.789 -0.0895 -0.4888 -0.5901
  739TMC3    H110925   4.633   0.611  15.105  1.8996 -1.5002  0.4370
  739TMC3    H210926   0.067   0.542  14.715  0.1996 -2.7954 -0.4742
  739TMC3    C710927   0.133   0.589  14.956  0.2230 -0.5596  0.1135
  739TMC3    C810928   4.554   0.439  14.603  0.1069 -0.2901 -0.5719
  739TMC3    O110929   0.219   0.630  14.876  0.1201 -0.0323 -0.3122
  739TMC3    O210930   4.436   0.439  14.561  0.2372  0.0862 -0.3628
  740TMC3    C110931   0.673   1.755  14.368  0.0959  0.3464 -0.2411
  740TMC3    C210932   0.729   1.737  14.494  0.6064 -0.7039 -0.0729
  740TMC3    C310933   0.865   1.718  14.500 -0.0402 -0.3032  0.1052
  740TMC3    C410934   0.750   1.767  14.255  0.4624 -0.1518  0.2270
  740TMC3    C510935   0.885   1.740  14.262 -0.0225 -0.6013 -1.0322
  740TMC3    C610936   0.943   1.718  14.385 -0.3435  0.0213  0.7560
  740TMC3     C10937   0.567   1.853  14.363  0.1062  0.4324  0.8025
  740TMC3     O10938   0.582   1.955  14.299 -0.6397  0.5202 -0.1675
  740TMC3     H10939   0.664   1.734  14.581  1.1876  1.2465  0.4249
  740TMC3    H110940   0.698   1.785  14.162 -0.4298  1.3784  1.0092
  740TMC3    H210941   1.049   1.695  14.393 -0.4909 -1.4345 -1.4685
  740TMC3    C710942   0.972   1.754  14.139 -0.6868 -0.6589  0.8757
  740TMC3    C810943   0.933   1.725  14.623 -0.3934  0.2846 -0.2431
  740TMC3    O110944   1.090   1.777  14.160 -0.0081 -0.0619  0.2174
  740TMC3    O210945   1.048   1.685  14.627  0.3728  0.1052  0.2042
  741TMC3    C110946   4.459   1.246  13.692  0.2514 -0.3466 -0.0357
  741TMC3    C210947   4.409   1.226  13.817  0.4001  0.0025 -0.6172
  741TMC3    C310948   4.421   1.104  13.871 -0.2284 -0.2028  0.8675
  741TMC3    C410949   4.504   1.136  13.620  0.1140 -0.0628 -0.2526
  741TMC3    C510950   4.510   1.010  13.678  0.1070 -0.0641  0.2597
  741TMC3    C610951   4.480   0.992  13.809  0.3375  0.1217  0.2913
  741TMC3     C10952   4.472   1.386  13.649  0.5673 -0.4710  0.0521
  741TMC3     O10953   4.471   1.412  13.530 -0.0348  0.4817  0.4586
  741TMC3     H10954   4.344   1.299  13.863 -0.1674  0.5847 -2.3391
  741TMC3    H110955   4.549   1.146  13.522 -0.2234  1.7182 -0.2259
  741TMC3    H210956   4.490   0.899  13.865 -2.0536 -0.1683  0.2479
  741TMC3    C710957   4.610   0.914  13.639 -0.0766  0.2134  1.0216
  741TMC3    C810958   4.378   1.087  14.010 -0.1089  0.3698 -0.0758
  741TMC3    O110959   4.662   0.848  13.728  0.4818  0.4320  0.5122
  741TMC3    O210960   4.279   1.153  14.037  0.2761  0.0353  0.4912
  742TMC3    C110961   4.043   4.178  15.523  0.1777 -0.3916  0.5803
  742TMC3    C210962   3.965   4.231  15.417 -0.5848 -0.1929  0.4231
  742TMC3    C310963   4.011   4.214  15.287  0.2963  0.0629 -0.7726
  742TMC3    C410964   4.156   4.114  15.498 -0.3142 -0.2743  0.6608
  742TMC3    C510965   4.202   4.108  15.368  0.0384  0.3270  0.2517
  742TMC3    C610966   4.129   4.153  15.264 -0.0399  0.6094 -0.1030
  742TMC3     C10967   3.988   4.192  15.661  0.5343 -0.2043  0.0912
  742TMC3     O10968   3.890   4.268  15.675 -0.1664 -0.2449 -0.2986
  742TMC3     H10969   3.865   4.266  15.436 -0.3682  1.7125 -1.8971
  742TMC3    H110970   4.218   4.075  15.578  0.5694 -0.2974 -0.0344
  742TMC3    H210971   4.174   4.151  15.165  1.0189  1.1666  0.3716
  742TMC3    C710972   4.343   4.092  15.339 -0.2479 -0.1032 -0.1713
  742TMC3    C810973   3.931   4.262  15.180 -0.3096  0.3644 -0.4894
  742TMC3    O110974   4.366   4.051  15.227  0.4257  0.0626  0.4101
  742TMC3    O210975   3.839   4.334  15.208  0.0459  0.3239 -0.3353
  743MPD2     C10976   2.260   1.166   1.782 -0.1847  0.1853  0.4756
  743MPD2    C110977   2.302   1.081   1.688 -0.8000  0.1749  0.1435
  743MPD2    C210978   2.445   1.062   1.674 -0.0623  0.3158 -0.3085
  743MPD2    C310979   2.534   1.135   1.754 -0.3846  0.2044 -0.3763
  743MPD2    C410980   2.482   1.223   1.853  0.2197 -0.1710 -0.0442
  743MPD2    C510981   2.347   1.224   1.872 -0.1292 -0.0651  0.7452
  743MPD2     H10982   2.487   1.000   1.596  0.8023  1.3441 -0.6602
  743MPD2    H110983   2.536   1.297   1.912  1.3940  0.2840 -1.6929
  743MPD2    H210984   2.156   1.181   1.807 -0.3526 -0.9727  0.4896
  743MPD2    H310985   2.306   1.301   1.937 -0.6239  0.8809 -0.6989
  743MPD2     N10986   2.673   1.109   1.724 -0.5002  0.1235 -0.0392
  743MPD2    H510987   2.692   1.042   1.650  0.1760  0.5145 -0.2197
  743MPD2    N110988   2.205   1.014   1.608 -0.0204 -0.0915 -0.6002
  743MPD2    H710989   2.108   1.024   1.634 -0.7186 -2.3050 -2.3155
  744TMC3    C110990   2.121   0.888   1.429  0.0069  0.6014 -0.2272
  744TMC3    C210991   2.015   0.970   1.416 -0.2724  0.8647  0.0405
  744TMC3    C310992   1.917   0.934   1.328  0.2048 -0.3429  0.2533
  744TMC3    C410993   2.133   0.769   1.357  0.6353 -0.3601  0.5234
  744TMC3    C510994   2.041   0.741   1.260 -0.2681  0.4015  0.7628
  744TMC3    C610995   1.936   0.822   1.245  0.5392  0.4189 -0.0869
  744TMC3     C10996   2.230   0.919   1.517  0.0818  0.1894  0.4883
  744TMC3     O10997   2.331   0.852   1.499 -0.0917 -0.1731  0.5185
  744TMC3     H10998   1.998   1.051   1.486  0.8589  1.3973 -0.2973
  744TMC3    H110999   2.223   0.709   1.363  0.6383 -0.3527  0.5499
  744TMC3    H211000   1.869   0.790   1.166 -0.6975 -0.8906  1.4739
  744TMC3    C711001   2.080   0.659   1.141  0.2529  0.1611  0.6622
  744TMC3    C811002   1.789   1.004   1.338  0.0294  0.1949 -0.0818
  744TMC3    O111003   2.088   0.715   1.032 -0.3653  0.0555 -0.4581
  744TMC3    O211004   1.793   1.120   1.377  0.2674 -0.0524  0.1907
  745TMC3    C111005   0.164   4.036  13.431  0.2661 -0.6552 -0.0224
  745TMC3    C211006   0.058   3.963  13.467  0.1549  0.0371  0.3803
  745TMC3    C311007   4.709   3.904  13.365  0.0852  1.0648  0.0394
  745TMC3    C411008   0.201   4.060  13.303 -0.3127  0.4099 -0.0014
  745TMC3    C511009   0.136   3.996  13.209  0.1780 -0.3199 -0.1785
  745TMC3    C611010   0.018   3.923  13.237  0.0657  0.0552 -0.1575
  745TMC3     C11011   0.232   4.122  13.530  0.2164  0.4311 -0.0259
  745TMC3     O11012   0.337   4.166  13.491 -0.2564 -0.1707  0.1512
  745TMC3     H11013   0.031   3.949  13.571 -0.7774 -0.7570  0.0214
  745TMC3    H111014   0.281   4.129  13.279 -0.5405  0.8908  0.6199
  745TMC3    H211015   4.681   3.866  13.169  0.1150 -2.5881  2.0201
  745TMC3    C711016   0.150   4.031  13.067 -1.1545  0.2658  0.0686
  745TMC3    C811017   4.571   3.867  13.400 -0.3892 -0.8744  0.1765
  745TMC3    O111018   0.061   4.007  12.987  0.3908  0.0383 -0.4220
  745TMC3    O211019   4.463   3.894  13.341  0.6085  0.3074 -0.2869
  746TMC3    C111020   2.928   1.194  10.794  0.3399  0.4041  0.0993
  746TMC3    C211021   3.022   1.158  10.697 -0.9919 -0.3718 -0.3205
  746TMC3    C311022   2.983   1.055  10.618 -0.4653  0.8752  0.1128
  746TMC3    C411023   2.815   1.123  10.820  0.0525  0.1910  0.5561
  746TMC3    C511024   2.786   1.023  10.731 -0.6441  0.0873  0.1872
  746TMC3    C611025   2.863   0.986  10.623 -0.4642  0.2257 -0.0871
  746TMC3     C11026   2.944   1.318  10.875 -0.1758  0.3644  0.0670
  746TMC3     O11027   2.889   1.307  10.984  0.1513 -0.2560 -0.3879
  746TMC3     H11028   3.116   1.211  10.692  0.8414 -3.5939  0.1290
  746TMC3    H111029   2.745   1.138  10.901 -1.8030  0.3505 -1.0835
  746TMC3    H211030   2.840   0.900  10.561 -2.0398  0.3167  0.3533
  746TMC3    C711031   2.671   0.947  10.759 -0.4205  0.3516  0.3012
  746TMC3    C811032   3.071   1.000  10.514  0.0328 -0.3398  0.1122
  746TMC3    O111033   2.601   0.926  10.664 -0.3520  0.1756  0.7754
  746TMC3    O211034   3.075   0.879  10.493 -0.2709  0.1438  0.0982
  747TMC3    C111035   0.434   1.063  10.755  0.8798 -0.1049  0.4737
  747TMC3    C211036   0.325   0.996  10.807  0.3286  0.4554 -0.4654
  747TMC3    C311037   0.290   1.021  10.940  0.4747  0.2180 -1.2941
  747TMC3    C411038   0.487   1.163  10.836 -0.4745 -0.2394  0.5084
  747TMC3    C511039   0.459   1.175  10.962  0.6269 -0.4562 -0.1822
  747TMC3    C611040   0.363   1.098  11.023 -0.3739  0.1889 -0.1759
  747TMC3     C11041   0.424   1.089  10.611  0.1895 -0.0143  0.1891
  747TMC3     O11042   0.367   1.004  10.550  0.2373 -0.0427 -0.5648
  747TMC3     H11043   0.258   0.932  10.751 -1.0087  0.2819  1.3334
  747TMC3    H111044   0.566   1.226  10.797  0.8704 -0.4893  2.8907
  747TMC3    H211045   0.329   1.106  11.126  2.6222 -0.1657  0.8440
  747TMC3    C711046   0.544   1.253  11.046 -0.3145  0.2217 -0.1332
  747TMC3    C811047   0.201   0.922  11.009 -0.4280  0.5905 -0.2684
  747TMC3    O111048   0.591   1.358  11.000  0.1498 -0.4384 -0.1870
  747TMC3    O211049   0.187   0.820  10.945  0.0274 -0.3557  0.3263
  748MPD2     C11050   1.182   2.205   1.771  0.2500  0.4782  0.3844
  748MPD2    C111051   1.250   2.092   1.797 -0.2193  0.6736 -0.0562
  748MPD2    C211052   1.353   2.053   1.707  0.0979 -0.2216 -0.5762
  748MPD2    C311053   1.392   2.142   1.608 -0.0294 -1.0326 -0.3102
  748MPD2    C411054   1.326   2.259   1.591 -0.0570 -0.3752  0.2594
  748MPD2    C511055   1.220   2.294   1.675 -0.3155 -0.1117 -0.6132
  748MPD2     H11056   1.411   1.963   1.720  0.5722 -0.1519 -2.2056
  748MPD2    H111057   1.355   2.331   1.516 -0.6689 -2.5344 -2.0385
  748MPD2    H211058   1.094   2.227   1.831  0.0242 -1.8405  0.8943
  748MPD2    H311059   1.163   2.386   1.670 -0.4705 -0.1731 -0.0580
  748MPD2     N11060   1.506   2.109   1.529 -0.0520 -0.7261 -0.1927
  748MPD2    H511061   1.559   2.029   1.561  0.4415 -0.0833  0.6001
  748MPD2    N111062   1.215   2.022   1.914 -0.0252  0.1261 -0.1842
  748MPD2    H711063   1.130   2.049   1.962  0.3446 -2.0242  1.6842
  749TMC3    C111064   1.665   2.120   1.361 -0.7932  0.7584 -0.7896
  749TMC3    C211065   1.766   2.097   1.450 -0.0937  0.5165 -0.7809
  749TMC3    C311066   1.892   2.076   1.401  0.1605 -0.4243  0.4594
  749TMC3    C411067   1.685   2.109   1.229 -0.2745 -0.2608  0.7263
  749TMC3    C511068   1.809   2.083   1.181  0.5175  0.0884  0.5531
  749TMC3    C611069   1.917   2.068   1.264 -0.0435  0.1598 -0.6080
  749TMC3     C11070   1.538   2.172   1.411 -0.1677 -0.3916  0.4675
  749TMC3     O11071   1.469   2.240   1.334  0.1909  0.3330 -0.0415
  749TMC3     H11072   1.766   2.126   1.554 -0.2592 -1.9999 -0.0865
  749TMC3    H111073   1.601   2.133   1.164 -0.8247  0.6627  1.7810
  749TMC3    H211074   2.016   2.058   1.220  1.4261 -1.0107  2.9474
  749TMC3    C711075   1.844   2.150   1.059 -0.0502  0.2771  0.1289
  749TMC3    C811076   1.994   2.031   1.498  0.3819  0.5843 -0.3824
  749TMC3    O111077   1.924   2.098   0.984 -0.1490 -0.3893  0.0343
  749TMC3    O211078   1.971   2.038   1.615 -0.1155  0.2696 -0.3064
  750MPD2     C11079   3.433   2.705  11.422  0.5401 -0.2766 -0.4657
  750MPD2    C111080   3.304   2.722  11.406  0.3527 -0.2824 -0.1127
  750MPD2    C211081   3.245   2.672  11.300  0.0843 -0.5305  0.5065
  750MPD2    C311082   3.321   2.590  11.209 -0.0448 -0.2463 -0.5652
  750MPD2    C411083   3.453   2.559  11.239 -0.0008  0.0406 -0.0095
  750MPD2    C511084   3.510   2.617  11.349 -0.0119  0.2978  0.7092
  750MPD2     H11085   3.139   2.690  11.281 -0.0864 -0.4500  1.5595
  750MPD2    H111086   3.513   2.490  11.182 -0.3660  0.1456 -0.5243
  750MPD2    H211087   3.484   2.747  11.508 -2.9356  0.2589  1.3456
  750MPD2    H311088   3.615   2.610  11.377  0.4525  0.8197 -0.9099
  750MPD2     N11089   3.279   2.526  11.086 -0.3356 -0.7784 -0.3871
  750MPD2    H511090   3.345   2.464  11.041  0.9477  1.4975 -1.6215
  750MPD2    N111091   3.229   2.804  11.496 -0.9433 -0.0554  0.1575
  750MPD2    H711092   3.271   2.834  11.584 -1.0544 -0.8912  0.4928
  751TMC3    C111093   3.143   2.494  10.891  0.1205  0.4569  0.2993
  751TMC3    C211094   3.015   2.468  10.842 -0.4639  0.1010 -0.1712
  751TMC3    C311095   3.005   2.409  10.716  0.2442  0.6420  0.5456
  751TMC3    C411096   3.254   2.475  10.809 -0.5324 -0.0468 -0.3633
  751TMC3    C511097   3.235   2.427  10.678 -0.2549  0.0401  0.3503
  751TMC3    C611098   3.109   2.394  10.636  0.2653 -0.2182 -0.3806
  751TMC3     C11099   3.160   2.553  11.022 -0.2930 -0.3230  0.4791
  751TMC3     O11100   3.066   2.612  11.074  0.3833 -0.5949  0.4107
  751TMC3     H11101   2.934   2.488  10.911 -0.4096  0.6046 -0.2538
  751TMC3    H111102   3.354   2.497  10.844  0.2179 -1.1687 -1.7716
  751TMC3    H211103   3.097   2.352  10.537  3.9512  1.3031 -1.4765
  751TMC3    C711104   3.349   2.383  10.594 -0.3278  0.2816  0.5039
  751TMC3    C811105   2.902   2.311  10.704 -0.0556 -0.4784 -0.0994
  751TMC3    O111106   3.442   2.464  10.573 -0.1604  0.3015 -0.0283
  751TMC3    O211107   2.939   2.206  10.651 -0.5342  0.5999 -0.0808
  752TMC3    C111108   0.718   2.722  17.472  0.5030  0.1638 -0.9208
  752TMC3    C211109   0.796   2.650  17.555  0.5080  0.1746 -0.0817
  752TMC3    C311110   0.746   2.626  17.681 -1.1055  0.4063 -0.3334
  752TMC3    C411111   0.599   2.776  17.514  0.4121 -0.0597 -0.1892
  752TMC3    C511112   0.558   2.754  17.642  0.5356  0.4796 -0.1616
  752TMC3    C611113   0.631   2.676   0.030  0.1374  0.4329  0.2772
  752TMC3     C11114   0.760   2.732  17.336  0.7735 -0.7044  0.1727
  752TMC3     O11115   0.870   2.683  17.309  0.3773  0.1929 -0.4746
  752TMC3     H11116   0.888   2.605  17.519  0.1914 -0.7402  0.2439
  752TMC3    H111117   0.546   2.855  17.463 -1.0044  0.3867  1.9597
  752TMC3    H211118   0.604   2.661   0.134 -1.9028 -1.5008 -0.5414
  752TMC3    C711119   0.455   2.827   0.014  0.4814  0.2838  0.1902
  752TMC3    C811120   0.828   2.535   0.065  0.6855  0.6377 -0.4726
  752TMC3    O111121   0.355   2.841  17.635  0.1382 -0.4789  0.6135
  752TMC3    O211122   0.887   2.444   0.003 -0.3575  0.1840 -0.1907
  753TMC3    C111123   3.492   4.012  13.712 -0.2442  0.3556  0.1051
  753TMC3    C211124   3.615   4.056  13.760  0.1087  0.3187 -0.2611
  753TMC3    C311125   3.730   3.991  13.708 -0.4888  0.5140  0.4841
  753TMC3    C411126   3.481   3.930  13.603 -0.5567 -0.3127  0.1461
  753TMC3    C511127   3.598   3.879  13.552 -0.6663  0.2490 -0.3041
  753TMC3    C611128   3.718   3.903  13.609  0.4926 -0.5311 -0.3553
  753TMC3     C11129   3.370   4.061  13.769  0.0259  0.0626 -0.1261
  753TMC3     O11130   3.279   4.092  13.696  0.2446  0.5355  0.4948
  753TMC3     H11131   3.623   4.139  13.829 -0.1911 -1.2997  1.7251
  753TMC3    H111132   3.384   3.904  13.563 -0.2120 -2.6017  0.7557
  753TMC3    H211133   3.808   3.860  13.569 -0.2746 -1.3755 -1.1615
  753TMC3    C711134   3.594   3.765  13.464  0.2574 -0.2722  0.6332
  753TMC3    C811135   3.862   4.009  13.769  0.4357 -0.1077 -0.0338
  753TMC3    O111136   3.505   3.682  13.483  0.0726  0.0281  0.0257
  753TMC3    O211137   3.959   3.970  13.713  0.1353 -0.0312 -0.6107
  754MPD2     C11138   2.755   2.842  12.962 -0.0864  0.5592 -0.0868
  754MPD2    C111139   2.697   2.714  12.959 -0.3451  0.1719 -0.5651
  754MPD2    C211140   2.570   2.695  12.905 -0.2986  0.2641 -0.8599
  754MPD2    C311141   2.499   2.807  12.856  0.0566  0.0378 -0.0611
  754MPD2    C411142   2.561   2.928  12.854  0.3625 -0.2489 -0.1469
  754MPD2    C511143   2.691   2.941  12.896  0.2484  0.0208 -0.2343
  754MPD2     H11144   2.519   2.600  12.915  1.3593 -0.4946  0.2112
  754MPD2    H111145   2.511   3.014  12.809  2.0442  1.1795  0.6974
  754MPD2    H211146   2.850   2.857  13.013 -0.6556  0.9040  0.8733
  754MPD2    H311147   2.742   3.037  12.890 -0.0974  0.0675 -2.4563
  754MPD2     N11148   2.369   2.800  12.801 -0.1465 -0.0116 -0.2896
  754MPD2    H511149   2.329   2.881  12.755  2.8015  2.1863  0.9780
  754MPD2    N111150   2.752   2.594  13.017  0.1547  0.0392  0.1138
  754MPD2    H711151   2.713   2.503  12.992 -0.0968  0.0311  0.5278
  755MPD2     C11152   1.724   3.277  13.086 -0.5361 -0.0974  0.8198
  755MPD2    C111153   1.702   3.142  13.116  0.2462 -0.3225 -0.0653
  755MPD2    C211154   1.763   3.049  13.036  0.2406  0.7098 -0.1808
  755MPD2    C311155   1.847   3.095  12.937 -0.2041  0.7661  0.2842
  755MPD2    C411156   1.879   3.226  12.922 -0.1490  0.0199  0.2996
  755MPD2    C511157   1.816   3.317  12.998  0.0795 -0.4713 -0.0368
  755MPD2     H11158   1.737   2.945  13.053 -2.7268  1.2981 -1.0094
  755MPD2    H111159   1.944   3.253  12.840  1.1511  1.1981  1.7205
  755MPD2    H211160   1.679   3.356  13.146  1.7532  2.1076 -0.3854
  755MPD2    H311161   1.835   3.423  12.983 -1.1950 -0.1175  0.8435
  755MPD2     N11162   1.893   3.004  12.838 -0.1465  0.4997  0.3413
  755MPD2    H511163   1.961   3.041  12.772 -0.7796  1.2670  0.1280
  755MPD2    N111164   1.600   3.104  13.203 -0.6346 -0.6583  0.1687
  755MPD2    H711165   1.587   3.004  13.214 -0.5863 -0.7357 -0.5263
  756MPD2     C11166   2.971   3.773   9.718  0.3035 -0.0029 -1.0822
  756MPD2    C111167   2.962   3.657   9.782 -0.0346  0.6889 -0.6122
  756MPD2    C211168   2.913   3.548   9.714 -0.6028 -0.2563 -0.1673
  756MPD2    C311169   2.879   3.561   9.582  0.0925 -1.2084 -0.6581
  756MPD2    C411170   2.886   3.679   9.511 -0.5951  0.8500 -0.6606
  756MPD2    C511171   2.931   3.790   9.587 -0.3130  0.3112 -0.5089
  756MPD2     H11172   2.919   3.448   9.755  0.0089  0.3579  1.2603
  756MPD2    H111173   2.854   3.705   9.411 -2.0483 -0.9406 -0.6651
  756MPD2    H211174   2.998   3.863   9.772  0.0538  0.1236 -1.1708
  756MPD2    H311175   2.937   3.890   9.546  2.0415 -0.5691 -2.3098
  756MPD2     N11176   2.817   3.451   9.521 -0.8273 -0.0225  0.1710
  756MPD2    H511177   2.809   3.364   9.573 -1.4016 -1.4293 -2.3048
  756MPD2    N111178   3.011   3.633   9.915  0.3815  0.1833 -0.1409
  756MPD2    H711179   2.998   3.543   9.959 -1.8419  1.2010  1.2663
  757MPD2     C11180   2.700   2.476   9.630  0.0846 -0.1915 -0.3135
  757MPD2    C111181   2.570   2.530   9.606  0.3630 -0.2703  0.9259
  757MPD2    C211182   2.563   2.660   9.550 -0.3200 -0.1887  0.7066
  757MPD2    C311183   2.679   2.741   9.539  0.3018 -0.8118 -0.4093
  757MPD2    C411184   2.800   2.688   9.575 -0.4443 -0.0781  1.1353
  757MPD2    C511185   2.815   2.559   9.616 -0.1821 -0.1039  0.4125
  757MPD2     H11186   2.470   2.712   9.530  0.9075  1.8310  0.2365
  757MPD2    H111187   2.887   2.752   9.578  0.5856 -1.4542  0.4852
  757MPD2    H211188   2.731   2.387   9.683  0.6721 -1.1107 -2.2013
  757MPD2    H311189   2.910   2.514   9.642  0.2494  1.0260  0.7493
  757MPD2     N11190   2.672   2.874   9.481 -0.3465 -0.1897  0.1875
  757MPD2    H511191   2.581   2.897   9.442 -0.6792  0.2850  1.2570
  757MPD2    N111192   2.463   2.444   9.633  0.8568 -0.2081  0.1924
  757MPD2    H711193   2.483   2.352   9.670 -3.0714 -0.6574  1.1811
  758MPD2     C11194   1.663   1.925  16.150 -0.0728  0.1907 -0.1122
  758MPD2    C111195   1.755   2.031  16.129  0.4746 -0.2914  0.0017
  758MPD2    C211196   1.737   2.142  16.199  0.1433  0.4680 -0.8609
  758MPD2    C311197   1.614   2.164  16.269 -0.3964 -0.1741 -0.3671
  758MPD2    C411198   1.510   2.070  16.262 -0.0432  0.9294 -0.2912
  758MPD2    C511199   1.541   1.948  16.214  0.2843 -0.0184  0.7813
  758MPD2     H11200   1.825   2.205  16.197  0.4742  0.0539  0.9011
  758MPD2    H111201   1.412   2.079  16.309  0.1710  0.9420  0.1516
  758MPD2    H211202   1.675   1.831  16.097  1.1912 -0.8190  1.9500
  758MPD2    H311203   1.461   1.875  16.216  0.7664 -0.5679 -0.0962
  758MPD2     N11204   1.599   2.286  16.346  0.1891  0.5622 -0.1835
  758MPD2    H511205   1.512   2.304  16.393 -1.6705  2.5310 -4.3578
  758MPD2    N111206   1.878   2.003  16.063 -0.1031 -0.2587 -0.2695
  758MPD2    H711207   1.918   1.909  16.056  0.8824  0.0902  0.7021
  759MPD2     C11208   2.465   0.192   9.757 -0.2715 -0.0147  0.2238
  759MPD2    C111209   2.338   0.222   9.717 -0.2449  0.4282  0.3767
  759MPD2    C211210   2.314   0.350   9.685  0.0699  0.1301 -0.2111
  759MPD2    C311211   2.415   0.440   9.668 -0.1010 -0.2755 -0.2519
  759MPD2    C411212   2.544   0.400   9.688 -0.4618 -0.2880 -0.5443
  759MPD2    C511213   2.565   0.270   9.732  0.4331 -0.2818 -0.2091
  759MPD2     H11214   2.216   0.388   9.659 -0.1552 -1.7633 -2.1268
  759MPD2    H111215   2.630   0.461   9.662  1.4379 -1.6664  2.4722
  759MPD2    H211216   2.503   0.098   9.796 -2.6472 -1.2522 -0.4374
  759MPD2    H311217   2.663   0.226   9.749 -0.8124 -2.4389  1.2376
  759MPD2     N11218   2.379   0.575   9.629  0.2157 -0.2912 -0.0125
  759MPD2    H511219   2.281   0.600   9.628 -0.1210 -1.7232 -1.4999
  759MPD2    N111220   2.220   0.148   9.754  0.0603 -0.4989  0.3217
  759MPD2    H711221   2.128   0.175   9.721  0.5955 -1.1224 -1.6350
  760MPD2     C11222   1.054   2.967  11.847 -0.0777 -0.0612 -0.1578
  760MPD2    C111223   1.164   2.899  11.800  0.3208 -0.5074  0.4995
  760MPD2    C211224   1.183   2.763  11.821  0.2423 -0.3892 -0.1033
  760MPD2    C311225   1.081   2.691  11.884 -0.2955  0.2062  0.2184
  760MPD2    C411226   0.965   2.759  11.912 -0.0314 -0.6852 -0.3374
  760MPD2    C511227   0.954   2.893  11.898 -0.0147 -0.4273 -0.5283
  760MPD2     H11228   1.278   2.712  11.806  0.8063  0.0444  1.9380
  760MPD2    H111229   0.882   2.706  11.958  0.9209 -1.2627  0.7253
  760MPD2    H211230   1.038   3.072  11.827  0.5871 -0.1796 -1.2922
  760MPD2    H311231   0.862   2.945  11.923 -0.4514 -0.9532 -1.0379
  760MPD2     N11232   1.084   2.559  11.909 -0.8930 -0.1040  0.2668
  760MPD2    H511233   1.005   2.521  11.959 -1.4141  1.8060  0.8858
  760MPD2    N111234   1.255   2.981  11.734  0.3736  0.1538 -0.1794
  760MPD2    H711235   1.239   3.081  11.730 -1.5971 -0.0798  1.5444
  761MPD2     C11236   2.410   2.133  10.709  0.6253 -0.6562  0.1409
  761MPD2    C111237   2.523   2.070  10.680 -0.7252  0.1347 -0.0808
  761MPD2    C211238   2.648   2.136  10.692 -0.2934  0.0032  0.3328
  761MPD2    C311239   2.662   2.265  10.744 -0.3776  1.0108 -0.5592
  761MPD2    C411240   2.539   2.318  10.785 -0.3596  0.4767  0.8150
  761MPD2    C511241   2.422   2.256  10.763 -0.0410  0.5436  0.7538
  761MPD2     H11242   2.741   2.090  10.661  0.1734  1.1460  0.0287
  761MPD2    H111243   2.531   2.422  10.816  0.3841  0.4477  1.1209
  761MPD2    H211244   2.311   2.089  10.704  0.2271  0.5190 -2.0178
  761MPD2    H311245   2.330   2.302  10.797  1.1667  3.7351 -0.3210
  761MPD2     N11246   2.776   2.348  10.752 -0.4940 -0.2370 -0.0535
  761MPD2    H511247   2.766   2.446  10.773 -1.1933 -0.3319  0.0672
  761MPD2    N111248   2.505   1.938  10.631 -0.7324 -0.2684  0.6454
  761MPD2    H711249   2.412   1.902  10.615 -1.2738  1.1030  0.7473
  762MPD2     C11250   2.907   1.794  10.029 -0.3391  0.5317  0.6207
  762MPD2    C111251   2.937   1.725  10.145 -0.4714  0.2516 -0.3903
  762MPD2    C211252   3.078   1.696  10.165 -0.2588  0.0536  0.9931
  762MPD2    C311253   3.172   1.737  10.076 -0.4872  0.2299  0.7142
  762MPD2    C411254   3.137   1.820   9.969 -0.0259  0.2841 -0.1447
  762MPD2    C511255   3.007   1.849   9.945 -0.1512 -0.3634 -0.5721
  762MPD2     H11256   3.108   1.634  10.249 -0.9997 -0.3828  0.9326
  762MPD2    H111257   3.209   1.846   9.892 -1.0643  1.1273 -0.8399
  762MPD2    H211258   2.805   1.813   9.999  1.0107  2.6126 -2.6379
  762MPD2    H311259   2.968   1.893   9.854 -1.3093  0.2713  0.2243
  762MPD2     N11260   3.302   1.691  10.095  0.2340 -0.6286 -0.1912
  762MPD2    H511261   3.318   1.633  10.176 -0.2606  0.2419  0.5282
  762MPD2    N111262   2.833   1.672  10.224 -0.5809  0.2392 -0.3233
  762MPD2    H711263   2.738   1.706  10.207 -0.6606 -0.6024 -1.6015
  763MPD2     C11264   4.219   2.418  16.187 -0.1886  0.1988  0.2991
  763MPD2    C111265   4.119   2.484  16.114 -0.0743  0.1739  0.0511
  763MPD2    C211266   4.050   2.599  16.163  0.4043 -0.0268 -0.3047
  763MPD2    C311267   4.094   2.653  16.287 -0.1446  0.6786 -0.5006
  763MPD2    C411268   4.197   2.589  16.353 -0.2606 -0.6854 -0.3720
  763MPD2    C511269   4.248   2.470  16.310  0.6424  0.1007 -0.2032
  763MPD2     H11270   3.968   2.648  16.111 -1.1768 -1.1620  1.1085
  763MPD2    H111271   4.231   2.622  16.450 -2.5133  1.4275 -0.2915
  763MPD2    H211272   4.270   2.330  16.149 -0.4689  1.2117 -2.4241
  763MPD2    H311273   4.336   2.421  16.349  0.5071  2.0660  2.5353
  763MPD2     N11274   4.055   2.771  16.357  0.3865  0.4125 -0.2686
  763MPD2    H511275   4.106   2.799  16.440  0.5253 -1.3882  0.2554
  763MPD2    N111276   4.079   2.432  15.988 -0.3294  0.4700  0.3690
  763MPD2    H711277   4.007   2.481  15.935  0.7317  0.3736 -1.1570
  764MPD2     C11278   2.017   4.094  17.459 -0.3351  0.0465  0.5679
  764MPD2    C111279   1.888   4.050  17.464  0.0767 -0.1614 -0.2831
  764MPD2    C211280   1.863   3.928  17.523 -0.4720 -0.4645  0.4557
  764MPD2    C311281   1.962   3.858  17.587 -0.8625  0.6098  1.1375
  764MPD2    C411282   2.087   3.908  17.599 -0.0010  0.7412 -0.0360
  764MPD2    C511283   2.112   4.023  17.528  0.6192  0.1753  1.1855
  764MPD2     H11284   1.763   3.885  17.524 -0.4662 -0.5188 -0.4197
  764MPD2    H111285   2.171   3.853  17.639 -0.3415  1.4368  1.5955
  764MPD2    H211286   2.054   4.183  17.410  0.7011 -0.3874  0.5639
  764MPD2    H311287   2.212   4.066  17.524  1.2654 -1.5315 -0.8210
  764MPD2     N11288   1.928   3.725  17.624  0.8123 -0.1301  0.4085
  764MPD2    H511289   1.839   3.698  17.583 -0.4148  1.0769  2.2185
  764MPD2    N111290   1.783   4.106  17.394 -0.5614 -0.0008  1.0449
  764MPD2    H711291   1.702   4.046  17.382 -0.5392  0.1441  0.2114
  765MPD2     C11292   1.726   1.509  15.834 -0.2312  0.5444  0.6977
  765MPD2    C111293   1.776   1.628  15.790 -0.4022  0.3632  0.5051
  765MPD2    C211294   1.914   1.628  15.760  0.6862 -0.0135  0.8742
  765MPD2    C311295   1.983   1.511  15.737 -0.3725  0.2863  0.2283
  765MPD2    C411296   1.922   1.393  15.765 -0.1927 -0.5505  0.4728
  765MPD2    C511297   1.798   1.398  15.829  0.1345  0.3255 -0.7911
  765MPD2     H11298   1.959   1.716  15.715  2.7172 -2.1021 -1.2208
  765MPD2    H111299   1.971   1.297  15.754  1.9881  0.4607  1.3814
  765MPD2    H211300   1.626   1.498  15.874  0.8592 -3.2560  2.3030
  765MPD2    H311301   1.770   1.302  15.870  2.9732 -0.4120 -0.5727
  765MPD2     N11302   2.117   1.518  15.687  0.2362  0.2746  0.1102
  765MPD2    H511303   2.154   1.612  15.677  1.3363 -0.2265 -0.5268
  765MPD2    N111304   1.698   1.753  15.789  0.0918  0.0625 -1.1199
  765MPD2    H711305   1.603   1.751  15.826  0.0298  0.0320 -1.2797
  766MPD2     C11306   1.484   1.701  15.252  0.1929 -0.5348  0.0426
  766MPD2    C111307   1.562   1.811  15.267  1.0151  0.7469  0.0412
  766MPD2    C211308   1.668   1.822  15.187 -0.0001  0.8352 -0.1013
  766MPD2    C311309   1.695   1.734  15.086 -0.0686  0.5330  0.5915
  766MPD2    C411310   1.612   1.623  15.076 -0.6316  0.1897 -0.0441
  766MPD2    C511311   1.511   1.602  15.156 -0.9098  0.1399 -0.8934
  766MPD2     H11312   1.727   1.910  15.207 -1.4360  1.7056  0.3166
  766MPD2    H111313   1.628   1.549  14.999  0.1543  0.1196  0.1940
  766MPD2    H211314   1.402   1.686  15.321 -0.1714 -0.8473 -0.4551
  766MPD2    H311315   1.443   1.519  15.145  1.3262 -1.6419 -1.3802
  766MPD2     N11316   1.813   1.729  14.995  0.3754 -0.0444 -0.6866
  766MPD2    H511317   1.836   1.639  14.956  0.3180 -0.2820 -0.1758
  766MPD2    N111318   1.531   1.913  15.362  0.5684  0.6144  0.1421
  766MPD2    H711319   1.595   1.991  15.361  1.7589 -0.4096 -1.5914
  767MPD2     C11320   1.090   2.135  14.895 -0.6777 -0.1925 -0.2117
  767MPD2    C111321   1.226   2.141  14.887 -0.4458  0.1674 -0.1511
  767MPD2    C211322   1.291   2.083  14.782 -0.2146 -0.5469 -0.1612
  767MPD2    C311323   1.217   2.032  14.675  0.1764  0.7487  0.3947
  767MPD2    C411324   1.078   2.038  14.678  0.1953 -0.4417  0.0632
  767MPD2    C511325   1.017   2.090  14.789  0.4415 -0.2707 -0.0305
  767MPD2     H11326   1.400   2.082  14.774 -0.0460 -1.9601  2.5239
  767MPD2    H111327   1.020   2.006  14.592 -0.6101  0.6109  0.2270
  767MPD2    H211328   1.022   2.172  14.970  1.0009  1.1332  0.6623
  767MPD2    H311329   0.910   2.080  14.797  0.2837  3.2262  2.1884
  767MPD2     N11330   1.274   1.973  14.557 -0.3634  0.3991  0.1364
  767MPD2    H511331   1.216   1.968  14.473 -1.1693  2.3736  0.5800
  767MPD2    N111332   1.312   2.197  14.984 -0.0811  0.2395 -0.0470
  767MPD2    H711333   1.413   2.194  14.969 -0.4321  1.0171 -2.6126
  768MPD2     C11334   2.607   0.586  10.373 -0.0608 -0.9250  0.2052
  768MPD2    C111335   2.611   0.529  10.504 -0.7525 -0.6098  1.0927
  768MPD2    C211336   2.721   0.554  10.588  0.6745  0.3083 -0.0904
  768MPD2    C311337   2.834   0.623  10.544 -0.8719 -0.3198 -0.0681
  768MPD2    C411338   2.826   0.681  10.416  0.6414 -0.0642  0.6591
  768MPD2    C511339   2.716   0.658  10.331  0.3772 -0.0054 -0.0253
  768MPD2     H11340   2.719   0.518  10.690  0.0271 -0.8845 -0.5250
  768MPD2    H111341   2.913   0.734  10.377  0.5232 -2.2186 -2.5097
  768MPD2    H211342   2.517   0.592  10.314 -0.5044 -0.2864  0.9391
  768MPD2    H311343   2.699   0.712  10.238  0.2561  1.1564  0.6683
  768MPD2     N11344   2.955   0.636  10.622  0.5628 -0.1726 -0.1404
  768MPD2    H511345   3.028   0.694  10.580  1.4246 -1.4217 -0.3697
  768MPD2    N111346   2.496   0.458  10.549  0.1800 -0.5853 -0.2331
  768MPD2    H711347   2.495   0.425  10.645 -1.3193  2.2496  0.7149
  769MPD2     C11348   3.358   3.438  14.973 -0.0701 -0.4047  0.0992
  769MPD2    C111349   3.226   3.480  15.000  0.0010 -0.0423  0.5273
  769MPD2    C211350   3.189   3.545  15.111 -0.8681  0.8940  0.8383
  769MPD2    C311351   3.287   3.566  15.214  0.1900 -0.1493 -0.0955
  769MPD2    C411352   3.412   3.510  15.197 -0.2228  0.2625 -0.0768
  769MPD2    C511353   3.445   3.451  15.078  0.2600  0.1790  0.0385
  769MPD2     H11354   3.086   3.571  15.129 -0.7197  1.1035  1.3854
  769MPD2    H111355   3.485   3.510  15.277  1.7224  0.8054 -1.8429
  769MPD2    H211356   3.383   3.381  14.884 -0.4002 -2.0818  1.0790
  769MPD2    H311357   3.545   3.418  15.055  0.3810  1.0964 -0.8062
  769MPD2     N11358   3.240   3.625  15.336 -0.0459  0.5415 -0.1739
  769MPD2    H511359   3.144   3.658  15.334  0.0659  0.6838 -2.6159
  769MPD2    N111360   3.131   3.449  14.897 -0.1859 -0.2563  0.5325
  769MPD2    H711361   3.158   3.397  14.814  3.7866 -1.2576  2.4494
  770MPD2     C11362   2.722   2.635  14.558  0.0426  0.2585 -0.4635
  770MPD2    C111363   2.753   2.700  14.671 -0.3165  0.4337  0.0784
  770MPD2    C211364   2.811   2.820  14.662 -0.0371  0.1873 -0.0516
  770MPD2    C311365   2.826   2.891  14.544 -0.0177 -0.1799  0.4340
  770MPD2    C411366   2.787   2.827  14.434 -0.6412 -0.2455  0.0229
  770MPD2    C511367   2.739   2.700  14.442 -0.8777 -0.1946 -0.0699
  770MPD2     H11368   2.835   2.869  14.756  1.8502 -2.1365  0.6839
  770MPD2    H111369   2.786   2.862  14.332 -2.8055  3.2931  1.2674
  770MPD2    H211370   2.666   2.542  14.556  0.2173  0.1884 -1.9574
  770MPD2    H311371   2.705   2.650  14.352  0.2550 -1.0327 -0.0282
  770MPD2     N11372   2.866   3.027  14.537  0.3925 -0.2095 -0.5693
  770MPD2    H511373   2.868   3.077  14.449  2.0157  2.5036  1.0179
  770MPD2    N111374   2.707   2.630  14.786  0.3140 -0.0954 -0.4842
  770MPD2    H711375   2.645   2.552  14.767 -0.6077  0.7523 -0.9802
  771MPD2     C11376   3.764   0.999  13.650 -0.5986  1.0068 -0.2429
  771MPD2    C111377   3.703   1.106  13.598  0.1961 -1.7494 -0.2982
  771MPD2    C211378   3.683   1.118  13.464  0.3590  0.5652  0.2582
  771MPD2    C311379   3.710   1.014  13.376  0.1084 -0.4802 -0.1189
  771MPD2    C411380   3.776   0.904  13.430 -0.1128 -0.0443  1.0734
  771MPD2    C511381   3.810   0.896  13.568 -0.0819  0.4106 -0.5365
  771MPD2     H11382   3.651   1.213  13.425 -2.0234 -0.4034 -0.1896
  771MPD2    H111383   3.797   0.817  13.369  2.6655  1.5034 -0.1447
  771MPD2    H211384   3.807   1.000  13.749 -0.6465  0.6028 -0.2167
  771MPD2    H311385   3.871   0.814  13.605 -2.6332 -1.4764 -0.5051
  771MPD2     N11386   3.697   1.043  13.236 -0.7635  0.1646 -0.2471
  771MPD2    H511387   3.667   1.139  13.221 -0.3173  0.1905 -0.9736
  771MPD2    N111388   3.676   1.219  13.683 -0.4255 -0.5407  0.7022
  771MPD2    H711389   3.641   1.302  13.637  0.0349 -0.8748 -0.2498
  772MPD2     C11390   3.109   1.723  13.772 -0.1808 -0.0707 -0.1635
  772MPD2    C111391   3.135   1.589  13.767 -0.2272  0.1337 -0.0247
  772MPD2    C211392   3.029   1.500  13.781 -0.5036  0.0611 -0.5059
  772MPD2    C311393   2.899   1.541  13.793  0.7928  0.0564  0.4041
  772MPD2    C411394   2.880   1.682  13.798  0.6901  0.1182  0.0705
  772MPD2    C511395   2.983   1.773  13.796 -0.1195 -0.2258 -0.5354
  772MPD2     H11396   3.053   1.395  13.779 -1.2767 -0.1259  0.2390
  772MPD2    H111397   2.781   1.724  13.812  1.7272  2.7869 -0.7496
  772MPD2    H211398   3.176   1.808  13.766  0.5309 -0.8785 -3.5085
  772MPD2    H311399   2.957   1.878  13.800  0.3151 -0.0438 -2.2067
  772MPD2     N11400   2.785   1.458  13.809 -0.5260 -0.4227 -0.0655
  772MPD2    H511401   2.695   1.504  13.818 -0.8670 -1.0543 -0.2428
  772MPD2    N111402   3.267   1.531  13.773 -0.0853 -0.4790  0.4557
  772MPD2    H711403   3.273   1.431  13.793  2.1186 -0.1879  1.1702
  773MPD2     C11404   2.792   2.847   0.078 -0.7400 -0.3112 -0.9145
  773MPD2    C111405   2.698   2.753   0.068 -1.3115  0.0268  0.3142
  773MPD2    C211406   2.723   2.625   0.120 -0.0396 -0.3807  0.2629
  773MPD2    C311407   2.839   2.599   0.186 -0.2150 -0.7799 -0.6868
  773MPD2    C411408   2.935   2.693   0.201 -0.3726 -1.1711  0.1318
  773MPD2    C511409   2.908   2.818   0.147  0.3639 -0.2897  0.4791
  773MPD2     H11410   2.651   2.547   0.100 -0.3814  0.0526 -0.1948
  773MPD2    H111411   3.029   2.682   0.253  0.3664  1.4839 -0.6569
  773MPD2    H211412   2.784   2.948   0.039 -0.4638  0.3067  0.6276
  773MPD2    H311413   2.986   2.893   0.153  0.0018  0.1777 -0.5561
  773MPD2     N11414   2.850   2.468   0.222  0.1701  0.2015 -0.1697
  773MPD2    H511415   2.772   2.407   0.198 -3.0129  4.3401 -0.4274
  773MPD2    N111416   2.578   2.779   0.001  0.1584 -0.7260 -0.4539
  773MPD2    H711417   2.518   2.699  17.680 -0.6537 -0.3278  0.5787
  774MPD2     C11418   2.172   2.173  12.885  0.4829 -0.4347 -0.0420
  774MPD2    C111419   2.209   2.066  12.967 -0.3831  0.0249 -0.3286
  774MPD2    C211420   2.334   2.073  13.022  0.4358 -0.4032 -0.1415
  774MPD2    C311421   2.436   2.162  12.977 -0.2345 -0.0980  0.3009
  774MPD2    C411422   2.395   2.260  12.883  0.6031 -0.3230 -0.9162
  774MPD2    C511423   2.265   2.259  12.834 -1.0659 -0.0599 -0.5547
  774MPD2     H11424   2.357   2.002  13.101  1.2761  0.1234  0.0995
  774MPD2    H111425   2.447   2.347  12.845 -0.7193  0.3068 -1.2704
  774MPD2    H211426   2.067   2.182  12.858  0.3571 -0.9446  0.2741
  774MPD2    H311427   2.244   2.329  12.755  0.7680  0.3956 -0.6474
  774MPD2     N11428   2.560   2.167  13.044 -0.6759 -0.2107  0.4463
  774MPD2    H511429   2.575   2.093  13.112 -1.1762  0.9107  1.7708
  774MPD2    N111430   2.107   1.976  12.997 -0.3033 -0.5917  0.2754
  774MPD2    H711431   2.022   2.014  12.957 -0.4899 -0.6312  0.6463
  775MPD2     C11432   3.164   3.332  15.699 -0.1903  0.8938  0.0189
  775MPD2    C111433   3.167   3.410  15.814  0.4524 -0.2921 -0.2805
  775MPD2    C211434   3.284   3.480  15.836  0.7377 -0.4343 -0.0924
  775MPD2    C311435   3.395   3.465  15.759  0.2508 -0.8345  0.0074
  775MPD2    C411436   3.397   3.377  15.654 -0.3656 -0.5379  0.2948
  775MPD2    C511437   3.277   3.321  15.618 -0.4352  0.4833  0.2081
  775MPD2     H11438   3.280   3.563  15.906  1.4682  0.8896 -1.6156
  775MPD2    H111439   3.475   3.383  15.579  0.5856 -0.7518  1.2643
  775MPD2    H211440   3.070   3.291  15.663  0.6573 -1.9517  1.0459
  775MPD2    H311441   3.259   3.270  15.524 -0.0142 -0.9790  0.9248
  775MPD2     N11442   3.505   3.545  15.785  0.4180  0.1276 -0.2985
  775MPD2    H511443   3.579   3.559  15.718  1.1718  1.6458  0.8396
  775MPD2    N111444   3.050   3.432  15.894  0.0739 -0.5626 -0.2016
  775MPD2    H711445   2.965   3.377  15.884 -0.6330  0.9341 -2.3769
  776MPD2     C11446   3.549   3.259  11.718  0.7252  0.7310 -0.0536
  776MPD2    C111447   3.414   3.297  11.710  0.1744  0.1266 -0.9151
  776MPD2    C211448   3.389   3.431  11.721  0.0979 -0.3087  0.2089
  776MPD2    C311449   3.487   3.529  11.742 -0.9872  0.3758  0.0495
  776MPD2    C411450   3.619   3.480  11.743  0.4378  0.0405  0.3957
  776MPD2    C511451   3.649   3.350  11.730 -0.0692 -0.3822  0.1819
  776MPD2     H11452   3.285   3.459  11.731  0.2854  0.5532 -0.2034
  776MPD2    H111453   3.700   3.551  11.756  0.7458 -0.5239  1.5392
  776MPD2    H211454   3.584   3.158  11.700  0.2814  0.7257 -0.8832
  776MPD2    H311455   3.752   3.320  11.744  0.0926 -0.8173 -1.9928
  776MPD2     N11456   3.458   3.668  11.761 -0.0415  0.1015  0.0816
  776MPD2    H511457   3.532   3.737  11.767  2.2371 -2.1319 -1.9434
  776MPD2    N111458   3.314   3.201  11.696  0.0787  0.2161  0.0922
  776MPD2    H711459   3.341   3.103  11.697 -1.1071 -0.1438 -1.9051
  777MPD2     C11460   2.410   1.264   0.713 -0.1464  0.7996  0.2932
  777MPD2    C111461   2.500   1.217   0.804 -0.3329 -0.6546 -0.5595
  777MPD2    C211462   2.557   1.096   0.773  0.2190 -0.7051 -0.5730
  777MPD2    C311463   2.527   1.024   0.656 -0.2875  0.1692 -0.2193
  777MPD2    C411464   2.447   1.081   0.563 -0.1596  0.3393 -0.4428
  777MPD2    C511465   2.392   1.201   0.591  0.2557 -0.7151 -0.1181
  777MPD2     H11466   2.610   1.052   0.857  1.2078 -1.5736 -1.6465
  777MPD2    H111467   2.442   1.033   0.466  0.1674  0.0438 -0.3091
  777MPD2    H211468   2.362   1.360   0.730  0.4046  1.2502 -0.6936
  777MPD2    H311469   2.316   1.235   0.522  1.1248  0.8295 -0.3010
  777MPD2     N11470   2.574   0.896   0.639 -0.1190 -0.0022 -0.0954
  777MPD2    H511471   2.611   0.850   0.721  2.0489  3.1807  0.7052
  777MPD2    N111472   2.535   1.309   0.910 -0.1350  0.0718  0.6577
  777MPD2    H711473   2.480   1.395   0.914  1.0452  0.9210 -1.2066
  778MPD2     C11474   4.378   1.695  14.631 -0.2875  0.0416  0.6970
  778MPD2    C111475   4.346   1.560  14.604  0.1775 -0.7031  0.3690
  778MPD2    C211476   4.419   1.501  14.499 -0.1144  0.1805  0.2347
  778MPD2    C311477   4.519   1.565  14.432  0.4548 -0.1873  0.5913
  778MPD2    C411478   4.546   1.693  14.461 -0.1117  0.1809 -0.4758
  778MPD2    C511479   4.468   1.758  14.556  0.1263  0.4524  0.0793
  778MPD2     H11480   4.400   1.396  14.483 -1.0685  0.3292  0.3803
  778MPD2    H111481   4.625   1.756  14.421  0.7680  0.8533  2.3359
  778MPD2    H211482   4.326   1.752  14.706 -0.8974 -0.5711  0.7367
  778MPD2    H311483   4.491   1.861  14.579 -2.6613  1.4207 -1.4654
  778MPD2     N11484   4.591   1.494  14.338  0.2154 -0.2938  0.5825
  778MPD2    H511485   4.565   1.396  14.331  1.2921 -0.4672 -0.9495
  778MPD2    N111486   4.261   1.482  14.685  0.0770 -0.1321 -0.0773
  778MPD2    H711487   4.269   1.382  14.674 -1.1637 -0.3405  1.0079
  779MPD2     C11488   3.549   0.144  14.529  0.6642  0.0188  0.2710
  779MPD2    C111489   3.675   0.156  14.472  0.3133 -1.0948  0.1118
  779MPD2    C211490   3.705   0.276  14.410 -0.2738  0.8603  0.0802
  779MPD2    C311491   3.619   0.382  14.413  0.2259  0.2004 -0.3817
  779MPD2    C411492   3.496   0.373  14.483  0.1629 -0.2019 -0.1835
  779MPD2    C511493   3.466   0.252  14.537 -0.4733  0.0895  0.6005
  779MPD2     H11494   3.802   0.291  14.364  1.6489  0.6244  4.1252
  779MPD2    H111495   3.418   0.449  14.487  0.8320  0.4834 -0.0089
  779MPD2    H211496   3.518   0.055  14.582 -1.0809  0.5673  0.1939
  779MPD2    H311497   3.368   0.240  14.582 -1.9129  0.5325 -2.3896
  779MPD2     N11498   3.665   0.504  14.352  0.0801 -0.6916  0.0856
  779MPD2    H511499   3.757   0.504  14.310  0.4503 -1.7960  0.8854
  779MPD2    N111500   3.773   0.046  14.479 -0.3250 -0.8614 -0.1874
  779MPD2    H711501   3.865   0.062  14.438 -0.7555 -1.3508 -1.3322
  780MPD2     C11502   2.298   0.036   0.382  0.1487  0.0060  0.3964
  780MPD2    C111503   2.410   4.683   0.432 -1.0149 -0.0996  0.2120
  780MPD2    C211504   2.536   4.701   0.372  0.7500 -0.0037  0.1755
  780MPD2    C311505   2.549   0.069   0.269 -0.5716  0.3667  0.2447
  780MPD2    C411506   2.437   0.129   0.217  0.7277  0.0069 -0.3443
  780MPD2    C511507   2.317   0.122   0.274  0.1567 -0.7689 -0.5120
  780MPD2     H11508   2.623   4.652   0.412 -0.1421 -0.7010  1.2680
  780MPD2    H111509   2.450   0.181   0.123  0.2105  0.4389 -0.1801
  780MPD2    H211510   2.200   0.042   0.428  0.6255  1.4129  1.2031
  780MPD2    H311511   2.233   0.182   0.241 -0.3591 -1.9608 -1.3902
  780MPD2     N11512   2.676   0.091   0.218  0.2207  0.1329  0.1799
  780MPD2    H511513   2.747   0.042   0.271 -1.3829 -2.1522  0.2259
  780MPD2    N111514   2.393   4.609   0.551 -0.1810  0.0372 -0.6046
  780MPD2    H711515   2.301   4.624   0.593 -0.9781 -1.0650 -1.9585
  781MPD2     C11516   0.290   1.886  11.855 -0.1284  0.0471 -0.1710
  781MPD2    C111517   0.414   1.915  11.919  0.0093  0.7826  0.4197
  781MPD2    C211518   0.523   1.928  11.833  0.3679 -0.0363 -0.2253
  781MPD2    C311519   0.511   1.915  11.695  0.0884  0.4723 -0.3747
  781MPD2    C411520   0.387   1.898  11.635 -0.6063 -0.6241 -0.6517
  781MPD2    C511521   0.279   1.878  11.718  0.2282  0.5671 -0.3834
  781MPD2     H11522   0.623   1.941  11.875  0.1283  0.9353  0.0340
  781MPD2    H111523   0.368   1.899  11.529 -0.6894  0.1158 -0.6300
  781MPD2    H211524   0.201   1.864  11.913 -0.0660 -0.3387 -0.2211
  781MPD2    H311525   0.177   1.865  11.684 -0.2959  1.0736  0.9821
  781MPD2     N11526   0.635   1.922  11.621  0.2689 -0.8266 -0.1436
  781MPD2    H511527   0.720   1.938  11.674  0.5786 -1.1408 -0.5478
  781MPD2    N111528   0.431   1.919  12.058 -0.1603  0.5321  0.5920
  781MPD2    H711529   0.349   1.907  12.117 -1.1146  1.2573 -0.5868
  782MPD2     C11530   3.760   2.890  10.402 -0.0401  0.3399 -0.4495
  782MPD2    C111531   3.813   2.765  10.427  0.1870  0.0847  0.7732
  782MPD2    C211532   3.845   2.731  10.558  0.2748  0.2868  0.3421
  782MPD2    C311533   3.820   2.811  10.668  0.2740 -0.0134 -0.1427
  782MPD2    C411534   3.756   2.937  10.641  0.1679  0.5369  0.5444
  782MPD2    C511535   3.734   2.971  10.507 -0.7428  0.4467  0.6486
  782MPD2     H11536   3.881   2.629  10.557 -0.7721 -0.0741 -1.3409
  782MPD2    H111537   3.719   3.014  10.707  0.6305  0.8828  0.3968
  782MPD2    H211538   3.741   2.926  10.302 -0.6744  0.2172 -0.3730
  782MPD2    H311539   3.701   3.070  10.480  0.7889  0.6180 -0.5653
  782MPD2     N11540   3.861   2.777  10.792  0.0381  0.3844 -0.3557
  782MPD2    H511541   3.905   2.686  10.785 -0.9552 -0.0091 -1.5439
  782MPD2    N111542   3.847   2.675  10.322  0.0885  0.3918  0.2331
  782MPD2    H711543   3.892   2.587  10.343 -2.5147 -1.2959 -1.2138
  783MPD2     C11544   3.360   2.079  10.390 -0.1293 -0.7906  0.1315
  783MPD2    C111545   3.400   2.208  10.432  0.7904  0.1052  0.1549
  783MPD2    C211546   3.505   2.272  10.372  0.0679  0.1907 -0.2036
  783MPD2    C311547   3.556   2.206  10.255  0.2122 -0.4333 -0.2150
  783MPD2    C411548   3.526   2.071  10.219 -0.3498  0.5046 -0.8930
  783MPD2    C511549   3.424   2.014  10.289  0.8720 -0.4683 -0.0051
  783MPD2     H11550   3.544   2.367  10.406  1.2186 -0.8395  1.3402
  783MPD2    H111551   3.567   2.007  10.142 -1.7417  0.8849 -1.9352
  783MPD2    H211552   3.279   2.030  10.443 -0.6709  0.2273  0.2488
  783MPD2    H311553   3.384   1.917  10.260 -1.7353  0.8424 -0.8185
  783MPD2     N11554   3.651   2.283  10.192 -0.8963  0.1971  0.2710
  783MPD2    H511555   3.672   2.376  10.226  0.6128 -0.0305 -0.0467
  783MPD2    N111556   3.321   2.265  10.534  0.0512  0.0029 -0.2488
  783MPD2    H711557   3.253   2.203  10.577  0.9392 -0.5594  0.3254
  784MPD2     C11558   0.489   4.066   0.959  0.6946  0.3581  0.7661
  784MPD2    C111559   0.484   3.954   1.043  0.4211  0.2733 -0.0051
  784MPD2    C211560   0.376   3.878   1.050 -0.8098  0.5725  0.4127
  784MPD2    C311561   0.261   3.904   0.983 -0.2904  0.1732 -0.3646
  784MPD2    C411562   0.259   4.011   0.896 -0.6556  0.0189 -0.1896
  784MPD2    C511563   0.370   4.098   0.890  0.1158  0.5018  0.6449
  784MPD2     H11564   0.375   3.793   1.116 -0.8824  1.8264  2.0388
  784MPD2    H111565   0.174   4.045   0.838 -1.1583  0.8511  1.0400
  784MPD2    H211566   0.573   4.133   0.962  0.4662  0.6616  0.3658
  784MPD2    H311567   0.361   4.186   0.828 -1.9293  0.4626  0.8856
  784MPD2     N11568   0.142   3.829   0.992 -0.1664 -0.1117  0.1869
  784MPD2    H511569   0.142   3.760   1.066  1.8631  0.2807  0.5545
  784MPD2    N111570   0.595   3.932   1.137  0.6873  0.6102 -0.1188
  784MPD2    H711571   0.580   3.850   1.194  1.1896  1.1555  0.7858
  785MPD2     C11572   1.616   0.923  10.959  0.1398 -0.2090 -0.6103
  785MPD2    C111573   1.575   1.046  11.004  0.7917  0.1750  0.5230
  785MPD2    C211574   1.440   1.062  11.046 -0.4525 -0.1614  0.3504
  785MPD2    C311575   1.341   0.971  11.008 -0.0533 -0.8572 -0.1115
  785MPD2    C411576   1.388   0.850  10.954 -0.3310  0.0337  0.3410
  785MPD2    C511577   1.524   0.823  10.938 -0.0797  0.4463 -0.3780
  785MPD2     H11578   1.402   1.153  11.090 -1.1913 -1.0604  1.5551
  785MPD2    H111579   1.322   0.771  10.918  2.1076 -1.9579  0.2729
  785MPD2    H211580   1.718   0.899  10.930 -0.3061 -0.1713 -2.1645
  785MPD2    H311581   1.557   0.727  10.901 -1.5557  0.8116 -2.6606
  785MPD2     N11582   1.207   1.005  11.029 -0.1275 -0.5160 -0.5175
  785MPD2    H511583   1.190   1.091  11.080  2.0414  1.4651 -3.1777
  785MPD2    N111584   1.664   1.151  11.003 -0.8799 -0.1829  0.9660
  785MPD2    H711585   1.752   1.137  10.955 -2.4405 -1.0634 -1.6673
  786MPD2     C11586   3.829   4.272  14.684  0.3293  0.7230 -0.4068
  786MPD2    C111587   3.904   4.157  14.711 -0.0895 -0.1721 -0.1095
  786MPD2    C211588   3.941   4.127  14.842  0.0571 -0.5935 -0.4202
  786MPD2    C311589   3.900   4.207  14.944 -0.4786  0.1894  0.4032
  786MPD2    C411590   3.827   4.325  14.915 -0.4999 -0.0799  0.7629
  786MPD2    C511591   3.795   4.357  14.788 -0.1610  0.2468 -0.4428
  786MPD2     H11592   4.003   4.039  14.861  0.1560  0.2325  3.1166
  786MPD2    H111593   3.825   4.410  14.983  0.7466  0.3685  0.2305
  786MPD2    H211594   3.779   4.295  14.591  1.6957  0.6499 -1.1548
  786MPD2    H311595   3.744   4.449  14.764  0.6967  0.9293  0.3210
  786MPD2     N11596   3.957   4.186  15.069 -0.7600  0.1106  0.3325
  786MPD2    H511597   4.024   4.110  15.076 -0.9795  0.0508  1.7568
  786MPD2    N111598   3.950   4.072  14.604  0.5431 -0.1403  0.4918
  786MPD2    H711599   3.995   3.988  14.637  1.6331  0.2118 -0.0921
  787MPD2     C11600   4.546   3.882  14.545 -0.2852 -0.2531  0.3293
  787MPD2    C111601   4.486   3.791  14.467 -1.0227 -0.2383 -0.3781
  787MPD2    C211602   4.550   3.677  14.422 -0.0460 -0.2343 -0.0255
  787MPD2    C311603   4.686   3.659  14.453 -0.4599  0.0706  0.7318
  787MPD2    C411604   0.014   3.748  14.541  0.0419 -0.1838  0.0582
  787MPD2    C511605   4.668   3.852  14.592 -0.0253  0.2252 -0.2422
  787MPD2     H11606   4.484   3.606  14.373  0.0616 -1.1537  1.1671
  787MPD2    H111607   0.114   3.751  14.584  0.3562  0.5588 -0.7128
  787MPD2    H211608   4.490   3.970  14.575  1.8950  0.9999  0.7239
  787MPD2    H311609   4.712   3.909  14.674 -1.0246  2.6509 -1.3993
  787MPD2     N11610   0.037   3.548  14.409  0.1159  0.0393 -0.2711
  787MPD2    H511611   4.716   3.474  14.355 -0.7509 -0.0818  0.6197
  787MPD2    N111612   4.355   3.834  14.426 -0.0395  0.4146 -0.3233
  787MPD2    H711613   4.323   3.926  14.453 -0.3676  1.0688 -2.8742
  788MPD2     C11614   1.168   1.946   1.253  0.4053  0.5286 -0.4797
  788MPD2    C111615   1.095   1.965   1.141 -0.2341 -0.5051 -0.5504
  788MPD2    C211616   1.045   2.088   1.109  0.2142  0.0793 -0.1998
  788MPD2    C311617   1.069   2.193   1.192  0.0366 -0.0332 -0.1174
  788MPD2    C411618   1.140   2.180   1.314  0.4553  0.0808 -0.1757
  788MPD2    C511619   1.187   2.055   1.341  0.5296 -0.4331  0.4843
  788MPD2     H11620   0.999   2.099   1.011  1.0608 -0.6015 -0.6759
  788MPD2    H111621   1.168   2.274   1.360  1.2381 -0.5789  0.6788
  788MPD2    H211622   1.213   1.852   1.280  2.0352  1.7223  0.9555
  788MPD2    H311623   1.242   2.032   1.432  0.1114  0.2836  0.9168
  788MPD2     N11624   1.022   2.321   1.159  0.7879  0.6267  0.1525
  788MPD2    H511625   1.054   2.398   1.217  0.9323  0.4265  0.3386
  788MPD2    N111626   1.083   1.863   1.048 -0.7601 -0.5140  1.1679
  788MPD2    H711627   1.041   1.885   0.959 -1.6600 -1.2431  1.4133
  789MPD2     C11628   1.727   2.330  16.890  0.1395 -0.4283  1.0268
  789MPD2    C111629   1.646   2.272  16.791 -0.7969  0.3053 -0.2803
  789MPD2    C211630   1.511   2.305  16.794 -0.3926 -0.1279 -0.8616
  789MPD2    C311631   1.455   2.383  16.898 -0.2077 -1.0308 -0.3626
  789MPD2    C411632   1.539   2.422  17.000  0.4106 -0.2488  0.8078
  789MPD2    C511633   1.672   2.391  16.999 -0.6486  0.8435 -0.3617
  789MPD2     H11634   1.440   2.257  16.727 -0.7320 -2.1037  0.9164
  789MPD2    H111635   1.508   2.492  17.076 -2.2489  0.3576 -0.8451
  789MPD2    H211636   1.830   2.297  16.894  0.4005  0.3926  1.0922
  789MPD2    H311637   1.737   2.419  17.081 -0.2082  0.4236 -0.5720
  789MPD2     N11638   1.318   2.418  16.911 -0.2646 -0.0380 -0.0068
  789MPD2    H511639   1.302   2.462  17.001 -1.5653 -0.6804  0.0793
  789MPD2    N111640   1.698   2.190  16.689  0.2248  0.5264 -0.0608
  789MPD2    H711641   1.630   2.135  16.639  1.9622 -0.6349 -1.1468
  790MPD2     C11642   3.043   4.300  13.430  0.0633 -0.6552 -0.4115
  790MPD2    C111643   2.958   4.199  13.476 -0.0152 -0.0775  0.1857
  790MPD2    C211644   2.901   4.109  13.385  0.0974  0.0409 -0.8728
  790MPD2    C311645   2.940   4.111  13.249  0.2982 -0.2120 -0.6169
  790MPD2    C411646   3.039   4.208  13.214 -0.1022  0.4637  0.5304
  790MPD2    C511647   3.089   4.299  13.303  0.7927  0.5316 -0.0645
  790MPD2     H11648   2.824   4.040  13.416 -0.3345  0.7956 -0.2650
  790MPD2    H111649   3.072   4.228  13.113 -0.6878 -1.3884 -0.0293
  790MPD2    H211650   3.076   4.380  13.495 -1.5219 -0.4152  0.1009
  790MPD2    H311651   3.155   4.374  13.261  0.2758 -0.5784 -2.8994
  790MPD2     N11652   2.882   4.024  13.153  0.1095  0.3473  0.5397
  790MPD2    H511653   2.804   3.966  13.183 -1.7581  1.7535 -1.6297
  790MPD2    N111654   2.923   4.198  13.609 -0.2720  0.5331  0.4844
  790MPD2    H711655   2.954   4.274  13.670 -1.6272  0.0639  1.7635
  791MPD2     C11656   2.302   4.055  12.735  0.5419  0.2680 -0.2112
  791MPD2    C111657   2.333   3.937  12.784 -0.4177 -0.8300  0.0868
  791MPD2    C211658   2.250   3.826  12.767 -0.2281 -0.5817 -0.7863
  791MPD2    C311659   2.133   3.840  12.700 -0.3606 -0.2229 -0.2540
  791MPD2    C411660   2.106   3.960  12.644  0.4879  0.1077 -0.3560
  791MPD2    C511661   2.191   4.063  12.658 -0.4837 -0.1959  0.5129
  791MPD2     H11662   2.267   3.733  12.821 -1.5703  0.6186  1.7033
  791MPD2    H111663   2.024   3.972  12.574 -0.1432 -2.5128 -0.0560
  791MPD2    H211664   2.356   4.146  12.760  0.2670  0.4272 -0.1957
  791MPD2    H311665   2.171   4.156  12.606  2.5914 -0.0939 -0.4969
  791MPD2     N11666   2.060   3.715  12.691  0.0595  0.0095 -0.4768
  791MPD2    H511667   2.092   3.625  12.727  3.8924  1.5695 -0.0470
  791MPD2    N111668   2.466   3.922  12.845 -0.1477  0.4208 -0.2721
  791MPD2    H711669   2.525   4.005  12.852  0.7418 -0.3089  0.9370
  792MPD2     C11670   3.607   3.247  11.368  0.6088  0.7571  0.9944
  792MPD2    C111671   3.480   3.298  11.359 -0.3978 -0.0572 -0.2564
  792MPD2    C211672   3.377   3.217  11.311 -0.1831 -0.0806 -0.7377
  792MPD2    C311673   3.411   3.088  11.262  1.2194 -0.1739 -0.6279
  792MPD2    C411674   3.539   3.045  11.271 -0.2115  0.2155  0.9400
  792MPD2    C511675   3.638   3.122  11.324 -0.0834  0.6446  0.0118
  792MPD2     H11676   3.273   3.248  11.314  0.4647  1.8943  1.4631
  792MPD2    H111677   3.571   2.955  11.221 -1.7521  0.1563  0.0366
  792MPD2    H211678   3.692   3.308  11.397  2.1735 -1.4090  0.9734
  792MPD2    H311679   3.734   3.074  11.337 -0.1277  1.0104  1.7373
  792MPD2     N11680   3.314   3.007  11.198  0.3192  0.5936 -0.4688
  792MPD2    H511681   3.353   2.936  11.137  1.2345 -0.3359  1.2257
  792MPD2    N111682   3.468   3.435  11.375  0.2503 -1.3038 -0.4819
  792MPD2    H711683   3.545   3.500  11.388  0.7765 -2.4585  2.1415
  793MPD2     C11684   2.695   3.433  10.597 -0.8591  0.1321 -0.0388
  793MPD2    C111685   2.815   3.385  10.569 -0.6538  0.1033 -0.0303
  793MPD2    C211686   2.858   3.273  10.641 -0.5815 -0.4732 -0.7560
  793MPD2    C311687   2.782   3.218  10.736 -0.4340 -0.4816 -0.3241
  793MPD2    C411688   2.665   3.275  10.773  0.2197  0.1078 -0.3047
  793MPD2    C511689   2.616   3.379  10.696  0.4274 -0.1873 -0.0472
  793MPD2     H11690   2.953   3.225  10.617  0.3876  0.5637  1.0499
  793MPD2    H111691   2.600   3.242  10.853 -0.8228  3.8796  0.3845
  793MPD2    H211692   2.655   3.512  10.535  0.0267  0.1567 -0.5881
  793MPD2    H311693   2.522   3.419  10.732  0.2405  0.4766 -1.2752
  793MPD2     N11694   2.833   3.110  10.810 -0.1502 -0.0335  0.0534
  793MPD2    H511695   2.926   3.078  10.788 -0.9289 -1.9854 -0.4286
  793MPD2    N111696   2.907   3.429  10.475 -0.3020 -0.3520  0.1447
  793MPD2    H711697   2.989   3.372  10.456 -0.0697 -0.1050  0.3983
  794MPD2     C11698   2.037   3.392  17.326 -0.5030  0.4591  0.0922
  794MPD2    C111699   2.014   3.259  17.294  0.3855  0.5462 -0.1648
  794MPD2    C211700   1.928   3.229  17.188  1.3752  0.3759  0.4348
  794MPD2    C311701   1.850   3.329  17.126 -0.1358  0.1811  0.1664
  794MPD2    C411702   1.883   3.455  17.157  0.8117 -0.0865  0.1880
  794MPD2    C511703   1.976   3.491  17.252 -0.2061 -0.5969 -0.1389
  794MPD2     H11704   1.902   3.127  17.161  1.2154  0.0623  1.7732
  794MPD2    H111705   1.827   3.534  17.109  0.8731 -0.1193  0.0628
  794MPD2    H211706   2.099   3.417  17.411  1.2453  1.7847 -1.5866
  794MPD2    H311707   1.998   3.593  17.281 -0.4266 -0.7961  0.7050
  794MPD2     N11708   1.746   3.309  17.037  0.1707  0.0249  0.6822
  794MPD2    H511709   1.697   3.390  16.999 -1.7426 -0.7165  1.5560
  794MPD2    N111710   2.080   3.149  17.361  0.0572  0.5781  0.5060
  794MPD2    H711711   2.048   3.060  17.324  1.7237 -0.6371  2.0709
  795MPD2     C11712   0.199   0.470  13.811  0.2739 -0.2516  0.1101
  795MPD2    C111713   0.173   0.342  13.757 -0.1425  0.1485 -0.1850
  795MPD2    C211714   0.281   0.254  13.749 -0.0811  0.2693  0.3344
  795MPD2    C311715   0.400   0.284  13.811 -0.2085 -0.1030  0.5396
  795MPD2    C411716   0.417   0.408  13.869 -0.1862 -0.1993 -0.2096
  795MPD2    C511717   0.317   0.496  13.877  0.9086  0.7707  0.2758
  795MPD2     H11718   0.276   0.160  13.696 -1.7959  0.8111 -0.4753
  795MPD2    H111719   0.507   0.431  13.925 -0.2261  5.5549 -2.4840
  795MPD2    H211720   0.124   0.549  13.811 -1.5458 -1.9493  2.5172
  795MPD2    H311721   0.341   0.584  13.936 -0.3353  1.1975  0.1307
  795MPD2     N11722   0.501   0.182  13.821 -0.0240 -0.0320  0.1229
  795MPD2    H511723   0.468   0.093  13.786 -2.6501  0.6380  0.8736
  795MPD2    N111724   0.046   0.307  13.701  0.1527  0.1003  0.1175
  795MPD2    H711725   0.050   0.229  13.636 -0.5858 -1.5924  2.1230
  796MPD2     C11726   4.525   2.133  15.652 -0.5533  0.0994  1.0827
  796MPD2    C111727   4.576   2.167  15.776 -0.6171  0.2937  0.2698
  796MPD2    C211728   4.541   2.291  15.831  0.9436 -0.0332  0.5611
  796MPD2    C311729   4.447   2.374  15.769  1.1208 -0.1009 -0.0574
  796MPD2    C411730   4.394   2.335  15.645  0.2100  0.3166  0.4971
  796MPD2    C511731   4.434   2.218  15.583 -0.0410  0.1672  0.0679
  796MPD2     H11732   4.596   2.337  15.912  2.5259 -0.7291 -0.1018
  796MPD2    H111733   4.318   2.396  15.596 -1.6738 -1.6873  0.8881
  796MPD2    H211734   4.550   2.034  15.615 -1.0474  0.4017 -0.0310
  796MPD2    H311735   4.382   2.185  15.494  0.6287 -0.8798  0.0623
  796MPD2     N11736   4.413   2.487  15.842  0.1245  0.5962  0.0385
  796MPD2    H511737   4.447   2.504  15.936 -0.6003  0.9229  0.2393
  796MPD2    N111738   4.666   2.072  15.830 -0.5757  0.6307  0.4453
  796MPD2    H711739   4.675   1.982  15.784 -1.5324  1.0927 -0.6641
  797MPD2     C11740   0.980   1.273  16.973  0.5021 -0.6860 -0.2274
  797MPD2    C111741   1.007   1.362  17.071 -0.1850  0.7177 -0.1041
  797MPD2    C211742   0.926   1.477  17.080 -0.4909  0.2957 -0.2134
  797MPD2    C311743   0.818   1.497  16.990  0.2648  0.1330 -0.0561
  797MPD2    C411744   0.781   1.397  16.903 -0.1201 -0.3590  0.2998
  797MPD2    C511745   0.866   1.285  16.893 -0.0763  0.2012  0.2629
  797MPD2     H11746   0.952   1.557  17.149  0.6815 -0.2926  0.0331
  797MPD2    H111747   0.700   1.401  16.832  0.3324 -0.1093 -0.2028
  797MPD2    H211748   1.051   1.196  16.944 -2.2536 -3.3220 -0.0247
  797MPD2    H311749   0.850   1.212  16.814 -1.4612  1.1963 -0.3714
  797MPD2     N11750   0.745   1.613  17.008  0.4129 -0.5320 -0.5541
  797MPD2    H511751   0.771   1.676  17.083  1.0135 -0.9834 -0.3835
  797MPD2    N111752   1.131   1.367  17.144 -0.4291  0.5811 -0.4610
  797MPD2    H711753   1.150   1.447  17.204  0.9580 -0.5412  0.5957
  798MPD2     C11754   1.197   2.109  17.232 -0.2020  0.3955 -0.3133
  798MPD2    C111755   1.119   2.003  17.199 -0.1852 -0.5589 -0.4699
  798MPD2    C211756   1.170   1.876  17.219 -0.2289  0.2150 -0.1819
  798MPD2    C311757   1.299   1.854  17.266  0.0004  0.1977  0.9486
  798MPD2    C411758   1.370   1.962  17.304  0.2278 -0.4856 -0.0461
  798MPD2    C511759   1.326   2.086  17.275  0.3483  0.1826  0.0966
  798MPD2     H11760   1.117   1.797  17.167 -2.0660 -0.1947  2.2881
  798MPD2    H111761   1.460   1.939  17.360 -0.3085  1.5418  1.6285
  798MPD2    H211762   1.168   2.212  17.215  1.8561  0.9460 -0.4025
  798MPD2    H311763   1.393   2.165  17.308 -0.7950  0.8842  0.7575
  798MPD2     N11764   1.329   1.716  17.285  0.3985 -0.0019  0.9690
  798MPD2    H511765   1.255   1.652  17.256  0.3044  0.5833 -0.0707
  798MPD2    N111766   0.980   2.025  17.160 -0.1440 -0.5496 -0.4937
  798MPD2    H711767   0.959   2.125  17.156 -0.1682 -0.4431  2.1743
  799MPD2     C11768   4.506   3.297  14.304  0.1738 -0.2613  0.3832
  799MPD2    C111769   4.374   3.262  14.275  0.3696  0.7718 -0.6463
  799MPD2    C211770   4.309   3.324  14.168 -1.1587 -0.4151 -0.0395
  799MPD2    C311771   4.381   3.389  14.076  0.8019 -0.5909 -0.0214
  799MPD2    C411772   4.516   3.409  14.097 -0.7283 -0.1121 -0.0281
  799MPD2    C511773   4.578   3.361  14.208 -0.0440  0.4738  0.4723
  799MPD2     H11774   4.206   3.292  14.155 -1.3669 -0.2196  1.1711
  799MPD2    H111775   4.581   3.448  14.020  0.2250 -0.2496  0.7086
  799MPD2    H211776   4.556   3.251  14.388 -0.6170  2.1033  2.1479
  799MPD2    H311777   4.686   3.362  14.211 -0.0909  0.2525  2.1543
  799MPD2     N11778   4.331   3.433  13.952 -0.0865  0.4791  0.9321
  799MPD2    H511779   4.400   3.478  13.893  1.0045 -3.7795 -1.0606
  799MPD2    N111780   4.299   3.172  14.355 -0.2559 -0.0963 -0.3704
  799MPD2    H711781   4.201   3.160  14.331 -0.3635  0.5842 -0.2773
  800MPD2     C11782   4.317   3.765  13.837 -0.2064 -0.2530 -1.0661
  800MPD2    C111783   4.450   3.744  13.858  0.0030 -0.3208  0.1244
  800MPD2    C211784   4.530   3.759  13.750 -0.6150  0.1184 -0.3557
  800MPD2    C311785   4.484   3.784  13.624  0.6628 -0.6475 -0.2229
  800MPD2    C411786   4.353   3.807  13.602  0.4025 -0.4725 -0.5712
  800MPD2    C511787   4.267   3.789  13.711  0.3848  0.1661  0.7853
  800MPD2     H11788   4.638   3.758  13.760 -0.7676 -0.9300  1.0810
  800MPD2    H111789   4.311   3.838  13.507  0.3580  2.0575  0.2791
  800MPD2    H211790   4.249   3.755  13.920 -0.1777 -0.8155 -1.1101
  800MPD2    H311791   4.160   3.783  13.701  0.5119 -1.7799  0.6496
  800MPD2     N11792   4.582   3.805  13.520  0.5092 -0.1223 -0.2613
  800MPD2    H511793   4.673   3.777  13.555  0.5033  0.1973  0.0120
  800MPD2    N111794   4.495   3.710  13.993  0.1193 -0.2828 -0.4828
  800MPD2    H711795   4.431   3.723  14.071  0.5002 -0.0669 -0.2047
  801MPD2     C11796   4.629   4.409  14.018  0.7343 -0.1823 -0.6554
  801MPD2    C111797   4.629   4.384  14.151  0.5239 -0.3766  0.0540
  801MPD2    C211798   4.633   4.491  14.241 -0.1159 -0.2219  0.4391
  801MPD2    C311799   4.638   4.621  14.195 -0.0436  0.3350  0.0047
  801MPD2    C411800   4.641   4.643  14.062 -0.0004 -1.0905 -0.1169
  801MPD2    C511801   4.646   4.537  13.973  0.2597 -0.2966  0.0193
  801MPD2     H11802   4.609   4.465  14.344  2.1044  0.6490  1.1694
  801MPD2    H111803   4.628   0.020  14.023  1.4328 -1.5107 -1.7020
  801MPD2    H211804   4.641   4.330  13.945 -0.4686 -2.0629  1.1808
  801MPD2    H311805   4.661   4.553  13.867 -1.5317  3.2923  0.3125
  801MPD2     N11806   4.612   0.007  14.281  0.4380  1.0043  0.0959
  801MPD2    H511807   4.589   0.098  14.241  1.3612  1.0144 -0.4137
  801MPD2    N111808   4.621   4.255  14.206  0.2794 -0.5179 -0.0974
  801MPD2    H711809   4.629   4.249  14.307 -0.3265  3.4974  0.2093
  802MPD2     C11810   4.400   0.028  17.293  0.2099  0.1121 -0.0164
  802MPD2    C111811   4.399   0.118  17.399  0.2361  0.0437 -0.1291
  802MPD2    C211812   4.490   0.221  17.404  0.2006 -0.1665  0.3322
  802MPD2    C311813   4.573   0.250  17.300  0.3439  0.5584  0.3165
  802MPD2    C411814   4.554   0.180  17.183  0.5232  0.7120 -0.4381
  802MPD2    C511815   4.466   0.075  17.179 -0.2542  0.1003  0.5803
  802MPD2     H11816   4.503   0.275  17.498  2.1540 -0.6751  0.3591
  802MPD2    H111817   4.622   0.191  17.099  0.9395 -1.4906 -0.3927
  802MPD2    H211818   4.342   4.660  17.294 -0.6737  0.6480 -1.0641
  802MPD2    H311819   4.465   0.020  17.086 -0.9182  2.6689 -0.9455
  802MPD2     N11820   4.660   0.368  17.314  0.2668 -0.2686 -0.0450
  802MPD2    H511821   4.682   0.397  17.409 -1.7777  0.0772  0.3285
  802MPD2    N111822   4.316   0.098  17.517 -0.2858 -0.7050 -0.0775
  802MPD2    H711823   4.336   0.152  17.600 -0.3434 -2.8276  1.2911
  803MPD2     C11824   1.177   3.419  11.900 -0.3556  0.2017 -0.5107
  803MPD2    C111825   1.215   3.441  12.028  0.9110  0.3008  0.7275
  803MPD2    C211826   1.140   3.389  12.129 -0.2015 -0.0396  0.3190
  803MPD2    C311827   1.032   3.305  12.116  0.1376 -0.3090  0.9042
  803MPD2    C411828   0.991   3.267  11.990 -0.3783  0.5759  0.7910
  803MPD2    C511829   1.069   3.329  11.885 -0.1009  0.2153 -0.3864
  803MPD2     H11830   1.171   3.434  12.223 -1.8143 -2.9802  2.2962
  803MPD2    H111831   0.908   3.206  11.957  2.3604 -1.8451 -1.6247
  803MPD2    H211832   1.236   3.451  11.816 -1.3593  0.7123 -1.0231
  803MPD2    H311833   1.039   3.318  11.781  0.5849  0.3104 -0.5964
  803MPD2     N11834   0.971   3.256  12.232  0.2202 -0.5926  0.4205
  803MPD2    H511835   1.021   3.285  12.316 -0.5961  2.6023 -0.1939
  803MPD2    N111836   1.311   3.530  12.066 -0.2445 -0.5345 -0.2021
  803MPD2    H711837   1.335   3.531  12.165 -2.5908  1.9659  0.3346
  804MPD2     C11838   0.276   0.422  16.893 -0.0231  0.2870  0.2751
  804MPD2    C111839   0.352   0.367  16.999 -0.4317  0.0756  0.3758
  804MPD2    C211840   0.469   0.437  17.036  0.0692  0.0366  0.0002
  804MPD2    C311841   0.493   0.566  16.990  0.1866 -0.6600  0.6156
  804MPD2    C411842   0.408   0.619  16.896  0.2949  0.3176 -0.1533
  804MPD2    C511843   0.310   0.544  16.843  0.7096 -0.3766 -0.2120
  804MPD2     H11844   0.530   0.389  17.113 -0.1946 -0.9998 -0.4345
  804MPD2    H111845   0.420   0.722  16.865  1.1693  0.0672 -0.6626
  804MPD2    H211846   0.183   0.378  16.858  0.7195 -1.4168  0.4142
  804MPD2    H311847   0.243   0.588  16.770  0.2144 -0.7220  0.0414
  804MPD2     N11848   0.603   0.637  17.054  0.2144  0.1544  0.6020
  804MPD2    H511849   0.663   0.578  17.110 -0.1797 -0.7535  0.0758
  804MPD2    N111850   0.318   0.247  17.062  0.4664 -0.5547  0.5636
  804MPD2    H711851   0.374   0.214  17.139  0.4853 -0.4697  0.5870
  805MPD2     C11852   4.010   3.251  15.458 -0.3709 -0.2154 -0.6772
  805MPD2    C111853   4.110   3.327  15.399  0.2524 -0.6075  0.3893
  805MPD2    C211854   4.229   3.356  15.468 -0.8106  0.1185  0.1738
  805MPD2    C311855   4.243   3.307  15.599  0.2315  0.6303  0.6424
  805MPD2    C411856   4.139   3.234  15.655 -0.3592 -0.3602 -0.3753
  805MPD2    C511857   4.025   3.210  15.584  0.0551 -0.0040 -0.0947
  805MPD2     H11858   4.309   3.407  15.416 -0.9081 -0.1780 -0.2674
  805MPD2    H111859   4.146   3.188  15.753  1.1223  1.0579  0.1759
  805MPD2    H211860   3.925   3.212  15.404 -1.1058  0.4664 -0.0123
  805MPD2    H311861   3.953   3.143  15.630  0.2242 -0.0327  0.1313
  805MPD2     N11862   4.355   3.344  15.674 -1.0309 -0.0709 -0.7723
  805MPD2    H511863   4.423   3.407  15.633  1.7646 -2.1205  0.7417
  805MPD2    N111864   4.096   3.382  15.264 -0.5186 -0.2523  0.0379
  805MPD2    H711865   4.178   3.435  15.235 -0.5776 -0.9755 -1.4461
  806MPD2     C11866   0.643   3.522   1.006  0.0494 -0.3334 -0.9351
  806MPD2    C111867   0.510   3.532   0.974  0.8921  0.1753 -0.1794
  806MPD2    C211868   0.473   3.624   0.877  0.0205 -0.5513  0.1656
  806MPD2    C311869   0.565   3.709   0.820  0.4937  0.3613  0.7315
  806MPD2    C411870   0.701   3.693   0.854 -0.3878 -0.0177 -0.1832
  806MPD2    C511871   0.736   3.603   0.946  0.1944 -0.3585 -0.4768
  806MPD2     H11872   0.372   3.621   0.840  1.0188 -0.4372 -2.5926
  806MPD2    H111873   0.783   3.740   0.799 -0.0253 -2.7635 -2.0317
  806MPD2    H211874   0.679   3.452   1.081  0.1361  1.5309  0.7943
  806MPD2    H311875   0.840   3.585   0.972 -0.1932 -1.1960  0.5096
  806MPD2     N11876   0.528   3.800   0.717 -0.4499  0.4035 -0.8974
  806MPD2    H511877   0.430   3.803   0.689 -1.2928 -0.9955  1.8735
  806MPD2    N111878   0.417   3.456   1.052  0.0632 -0.1232 -0.1505
  806MPD2    H711879   0.452   3.391   1.122  1.4943 -1.3907 -2.0556
  807MPD2     C11880   4.461   3.411   1.597 -1.2242 -0.1883 -0.0299
  807MPD2    C111881   4.523   3.288   1.571 -0.4311 -0.1805 -0.1284
  807MPD2    C211882   4.465   3.173   1.620  0.0837  0.6374 -0.7295
  807MPD2    C311883   4.361   3.180   1.708 -0.3832  0.0105 -0.5842
  807MPD2    C411884   4.295   3.308   1.726  0.6696 -0.3338  0.4876
  807MPD2    C511885   4.346   3.421   1.669 -0.2086  0.3986 -0.2573
  807MPD2     H11886   4.518   3.083   1.590 -0.3124  0.6288 -1.3906
  807MPD2    H111887   4.202   3.307   1.781 -0.4889 -0.5384 -1.4920
  807MPD2    H211888   4.503   3.507   1.569  0.3473 -0.2096  2.2431
  807MPD2    H311889   4.314   3.520   1.697 -0.1314  0.3177  0.1056
  807MPD2     N11890   4.304   3.059   1.760  0.6916  0.6436  0.0774
  807MPD2    H511891   4.337   2.967   1.731  1.9896  1.1934 -0.1798
  807MPD2    N111892   4.631   3.269   1.483 -0.1983  0.2392  0.1819
  807MPD2    H711893   4.675   3.179   1.469 -2.4813 -0.9743  0.9575
  808MPD2     C11894   0.726   4.417   9.479 -0.1461 -0.1312  0.2439
  808MPD2    C111895   0.796   4.325   9.554  0.1238  0.1403  0.2219
  808MPD2    C211896   0.916   4.271   9.496 -0.3539  0.1749 -0.2901
  808MPD2    C311897   0.958   4.302   9.369  0.1980 -0.6235 -0.2794
  808MPD2    C411898   0.899   4.413   9.310  0.0537 -0.1211 -0.2199
  808MPD2    C511899   0.784   4.461   9.361  0.1611  0.5060  0.2170
  808MPD2     H11900   0.978   4.200   9.548  0.9429  0.4554 -1.4348
  808MPD2    H111901   0.922   4.448   9.210  2.4685 -2.8592 -0.6397
  808MPD2    H211902   0.632   4.460   9.512 -0.1573  0.7011 -0.8363
  808MPD2    H311903   0.737   4.544   9.309 -0.3346  0.6933  0.9634
  808MPD2     N11904   1.079   4.256   9.312 -0.3052 -0.2071  0.1758
  808MPD2    H511905   1.107   4.302   9.226 -0.2858 -0.5129  0.0193
  808MPD2    N111906   0.745   4.273   9.679  0.1806 -0.0513 -0.0952
  808MPD2    H711907   0.803   4.208   9.731 -0.7265 -0.2015  0.7439
  809MPD2     C11908   1.632   3.682   9.831 -0.6607 -0.3006 -0.2894
  809MPD2    C111909   1.716   3.764   9.762  0.0033 -0.8755  0.2571
  809MPD2    C211910   1.668   3.803   9.635  0.0892 -0.0674  0.1471
  809MPD2    C311911   1.541   3.770   9.585  0.3338  0.2809  0.2041
  809MPD2    C411912   1.463   3.675   9.657 -0.0508  0.6922  0.1794
  809MPD2    C511913   1.515   3.642   9.780 -0.4395 -0.0923 -0.0997
  809MPD2     H11914   1.729   3.877   9.583 -1.0788  0.1566 -0.8880
  809MPD2    H111915   1.365   3.645   9.620 -0.1023  0.7139  0.2994
  809MPD2    H211916   1.652   3.661   9.935  1.8547 -1.4616 -0.9986
  809MPD2    H311917   1.453   3.582   9.845  0.8399  0.8077  1.9472
  809MPD2     N11918   1.480   3.827   9.475 -0.3296 -0.5413  0.3198
  809MPD2    H511919   1.384   3.802   9.456 -0.3203 -0.3700  0.0550
  809MPD2    N111920   1.847   3.796   9.793 -0.1157  0.6114 -0.2757
  809MPD2    H711921   1.899   3.845   9.721  1.4158 -0.8251 -0.1687
  810MPD2     C11922   0.647   3.807  10.394  0.2297  0.2910 -0.3869
  810MPD2    C111923   0.660   3.694  10.467 -0.3504 -0.3315  0.4090
  810MPD2    C211924   0.750   3.686  10.573  0.4225  0.1518  0.2385
  810MPD2    C311925   0.818   3.801  10.615 -0.5105 -0.0980 -0.4683
  810MPD2    C411926   0.795   3.916  10.541  0.0055 -0.1569  0.6019
  810MPD2    C511927   0.717   3.916  10.432 -0.1497 -0.0048  0.7080
  810MPD2     H11928   0.768   3.594  10.628  0.2673 -0.5462 -0.8641
  810MPD2    H111929   0.855   4.003  10.565  2.5408 -1.4898 -0.9542
  810MPD2    H211930   0.592   3.815  10.301 -2.1771 -0.0948  1.0091
  810MPD2    H311931   0.720   4.007  10.374  1.3487  0.3971  1.4071
  810MPD2     N11932   0.904   3.802  10.723  0.1105 -0.0182 -0.7540
  810MPD2    H511933   0.959   3.887  10.727 -1.1356  0.7551 -0.0671
  810MPD2    N111934   0.594   3.572  10.430  0.1829 -0.3697 -0.2367
  810MPD2    H711935   0.536   3.570  10.348 -1.4155 -0.8084  0.9081
  811MPD2     C11936   0.102   3.261   9.884  0.2215 -0.5015  0.6590
  811MPD2    C111937   0.175   3.346   9.963  0.2865  0.0210  0.5417
  811MPD2    C211938   0.165   3.478   9.944  0.9225  0.0324 -0.2861
  811MPD2    C311939   0.091   3.531   9.832 -0.0185  0.1373  0.1047
  811MPD2    C411940   0.025   3.442   9.744 -1.0905 -0.3435  0.2950
  811MPD2    C511941   0.029   3.310   9.776 -0.0652  0.8579 -0.0937
  811MPD2     H11942   0.209   3.561   9.997 -1.3451 -0.7023  2.7337
  811MPD2    H111943   4.690   3.474   9.658 -1.5374 -0.2538  0.6294
  811MPD2    H211944   0.114   3.154   9.887  3.7528 -0.1044  0.9909
  811MPD2    H311945   4.708   3.253   9.695 -0.8198  1.4209 -0.0829
  811MPD2     N11946   0.080   3.672   9.807  0.1223 -0.4960  0.0366
  811MPD2    H511947   0.119   3.734   9.878  2.0044 -1.4487 -0.1663
  811MPD2    N111948   0.253   3.294  10.065 -0.0930 -0.5095 -0.0543
  811MPD2    H711949   0.250   3.193  10.079  0.5732 -0.5412 -0.1433
  812MPD2     C11950   3.825   3.375  12.068 -0.0785 -0.0729  0.0135
  812MPD2    C111951   3.726   3.455  12.105  0.1189  0.2752 -0.6920
  812MPD2    C211952   3.623   3.404  12.188  0.2117 -0.1918  0.1337
  812MPD2    C311953   3.637   3.271  12.240  0.3619  0.3884 -0.1537
  812MPD2    C411954   3.746   3.198  12.203  0.4585 -0.6187  0.2105
  812MPD2    C511955   3.842   3.247  12.121 -0.8089  0.5209 -0.2112
  812MPD2     H11956   3.538   3.462  12.222 -0.3551 -0.6324 -0.5406
  812MPD2    H111957   3.765   3.106  12.257  2.3504 -0.6831 -0.5592
  812MPD2    H211958   3.905   3.401  12.000 -0.8902  1.3979 -0.3666
  812MPD2    H311959   3.932   3.189  12.107 -0.1832  0.5431  3.7355
  812MPD2     N11960   3.545   3.221  12.334  1.1354 -0.1469  0.6237
  812MPD2    H511961   3.473   3.288  12.362  0.6539 -1.3330  2.2721
  812MPD2    N111962   3.724   3.587  12.058 -0.4718  0.1468 -0.9228
  812MPD2    H711963   3.804   3.621  12.006  1.0949 -1.1656  0.6402
  813MPD2     C11964   2.492   1.026  12.512  0.2618 -0.5018 -0.0103
  813MPD2    C111965   2.587   0.937  12.556 -0.6567  0.0878 -0.4226
  813MPD2    C211966   2.567   0.858  12.669  0.4806 -0.6845 -0.8521
  813MPD2    C311967   2.447   0.862  12.740 -1.1121 -0.0921 -0.4909
  813MPD2    C411968   2.359   0.967  12.703  0.1652  0.0472  0.0246
  813MPD2    C511969   2.383   1.044  12.594  0.7443  1.0137 -0.7675
  813MPD2     H11970   2.630   0.773  12.695  1.1976  0.1660  0.1734
  813MPD2    H111971   2.266   0.984  12.755 -0.5907 -2.4593 -0.5260
  813MPD2    H211972   2.507   1.097  12.431 -0.1963  3.7303  3.5986
  813MPD2    H311973   2.307   1.115  12.564 -0.5950  0.2835  0.8693
  813MPD2     N11974   2.435   0.779  12.853 -0.2070 -1.0047  0.5907
  813MPD2    H511975   2.521   0.726  12.866 -1.0908 -1.9797  2.4341
  813MPD2    N111976   2.706   0.935  12.470 -0.0539  0.5909 -0.2739
  813MPD2    H711977   2.718   0.985  12.382  2.4503 -1.1722 -0.9473
  814MPD2     C11978   3.362   1.896  12.283 -0.4822  0.3390 -0.6206
  814MPD2    C111979   3.372   1.973  12.168 -0.1208 -0.3099  0.0599
  814MPD2    C211980   3.460   2.081  12.185  0.3789  0.6850 -0.0977
  814MPD2    C311981   3.503   2.126  12.312  0.2694  0.4645  0.1316
  814MPD2    C411982   3.474   2.049  12.423 -0.0201 -0.2285 -0.4093
  814MPD2    C511983   3.404   1.932  12.407 -0.1924  0.0298 -0.4710
  814MPD2     H11984   3.464   2.160  12.111  0.8119  0.5039 -0.2652
  814MPD2    H111985   3.507   2.093  12.516  0.1864 -0.2027 -0.4949
  814MPD2    H211986   3.315   1.798  12.277 -0.0005  0.0413  0.6256
  814MPD2    H311987   3.378   1.875  12.496 -2.4105  0.5490 -0.7780
  814MPD2     N11988   3.572   2.240  12.342 -0.2089 -0.3290  0.4996
  814MPD2    H511989   3.597   2.246  12.440  3.4101 -3.5525 -0.2244
  814MPD2    N111990   3.321   1.952  12.032  0.4010 -0.4879 -0.0356
  814MPD2    H711991   3.340   2.018  11.958  1.2164 -0.7451 -0.0512
  815MPD2     C11992   3.876   0.291  11.966  1.0544  0.5341  0.3786
  815MPD2    C111993   3.831   0.329  11.837 -0.2676  0.0067  0.1854
  815MPD2    C211994   3.705   0.389  11.816  0.5297 -0.5636 -0.1176
  815MPD2    C311995   3.624   0.413  11.922 -0.1107 -0.0605  0.1123
  815MPD2    C411996   3.659   0.364  12.043 -0.6067  0.2938 -0.2444
  815MPD2    C511997   3.781   0.309  12.065 -0.6517 -0.1017 -0.0514
  815MPD2     H11998   3.674   0.421  11.717 -1.0174  0.4683  0.6921
  815MPD2    H111999   3.599   0.384  12.131 -0.2684 -1.6307  0.4330
  815MPD2    H212000   3.969   0.238  11.983  0.7741  0.3592  1.3667
  815MPD2    H312001   3.811   0.285  12.166 -2.1420  0.2249  0.4731
  815MPD2     N12002   3.497   0.465  11.896 -0.1570 -0.3274 -0.3377
  815MPD2    H512003   3.474   0.495  11.801  0.0287  1.4613  0.1847
  815MPD2    N112004   3.912   0.292  11.723 -0.2164 -0.5749  0.1558
  815MPD2    H712005   3.998   0.241  11.738  0.0815  0.0521  0.5548
  816MPD2     C12006   3.164   0.036  16.815  0.0587 -0.2168 -0.2168
  816MPD2    C112007   3.256   0.042  16.923 -0.1294  0.1709  0.2576
  816MPD2    C212008   3.383   4.703  16.907 -0.1195  0.2446 -0.4099
  816MPD2    C312009   3.415   4.644  16.786 -0.2836  0.3411  0.1682
  816MPD2    C412010   3.322   4.635  16.685 -0.0238  0.3256 -0.0205
  816MPD2    C512011   3.203   4.690  16.698 -0.1637 -1.0883 -0.3378
  816MPD2     H12012   3.463   4.708  16.980  0.1685  1.0932 -0.7847
  816MPD2    H112013   3.343   4.601  16.584 -1.3990 -1.3833  0.2821
  816MPD2    H212014   3.064   0.076  16.818  0.3183  0.3980  0.1927
  816MPD2    H312015   3.134   4.681  16.614 -1.7912 -0.7719  0.9537
  816MPD2     N12016   3.533   4.577  16.780 -0.1315  0.6237  0.6590
  816MPD2    H512017   3.588   4.597  16.864 -0.2610  3.8335 -0.0183
  816MPD2    N112018   3.224   0.117  17.040 -0.2312  0.4344 -0.0024
  816MPD2    H712019   3.152   0.188  17.031 -0.2779  0.4834  0.7959
  817MPD2     C12020   3.412   0.822   9.950  0.3219 -0.0392  0.8945
  817MPD2    C112021   3.513   0.838   9.863  0.3957  0.0357  0.0752
  817MPD2    C212022   3.540   0.969   9.833  0.1826 -0.5657  0.0591
  817MPD2    C312023   3.462   1.080   9.860  0.0997  0.0573 -0.3665
  817MPD2    C412024   3.358   1.061   9.942  0.4559 -0.3741  0.0644
  817MPD2    C512025   3.336   0.933   9.981 -0.5550  0.1976  0.0399
  817MPD2     H12026   3.628   0.979   9.771  0.5517 -1.3441  0.4576
  817MPD2    H112027   3.291   1.143   9.966 -1.1182 -1.3993 -0.8674
  817MPD2    H212028   3.383   0.722   9.980  2.7486 -0.7077  1.0379
  817MPD2    H312029   3.249   0.910  10.042  1.1267 -2.0426  1.5771
  817MPD2     N12030   3.509   1.199   9.813 -0.2238  0.2538  0.0924
  817MPD2    H512031   3.591   1.188   9.754 -0.7323  0.0468 -0.5652
  817MPD2    N112032   3.610   0.740   9.825  0.2540 -0.5505  0.3041
  817MPD2    H712033   3.691   0.766   9.769  0.7395  0.2185  1.3603
  818MPD2     C12034   2.548   1.052   9.892  1.0980  0.3329  0.6680
  818MPD2    C112035   2.440   1.006   9.966 -0.0584  0.5721 -0.8120
  818MPD2    C212036   2.433   0.870   9.994  0.7486 -0.5836 -0.2022
  818MPD2    C312037   2.539   0.780   9.954  0.2608 -0.2585  0.4447
  818MPD2    C412038   2.647   0.832   9.877 -0.8560 -0.6240  0.0239
  818MPD2    C512039   2.647   0.969   9.853 -0.6853  0.0048 -0.0615
  818MPD2     H12040   2.356   0.827  10.058  0.5896 -1.2334 -0.8273
  818MPD2    H112041   2.721   0.763   9.839  1.6982  2.5406 -0.6768
  818MPD2    H212042   2.561   1.158   9.875  2.0854 -0.0364 -0.9138
  818MPD2    H312043   2.726   1.019   9.798 -0.6674  2.2627  1.9947
  818MPD2     N12044   2.538   0.642   9.979 -0.1603 -0.1826  0.3460
  818MPD2    H512045   2.621   0.586   9.961  0.5027  0.2084  2.1007
  818MPD2    N112046   2.334   1.082  10.021 -0.0195 -0.5540  0.5736
  818MPD2    H712047   2.271   1.031  10.082  1.2485 -3.3230 -0.4232
  819MPD2     C12048   4.655   3.074  15.592  0.0072  0.1576  0.4477
  819MPD2    C112049   4.683   2.933  15.603 -0.1676  0.0685 -0.2549
  819MPD2    C212050   0.063   2.898  15.691  0.2410  0.0194 -0.8140
  819MPD2    C312051   0.156   2.988  15.745  0.9113  0.0888  0.0904
  819MPD2    C412052   0.130   3.119  15.722  0.5523  0.5487 -0.4967
  819MPD2    C512053   0.022   3.159  15.651  0.2558 -0.6666  0.2323
  819MPD2     H12054   0.084   2.794  15.712 -2.2937 -0.0229  1.5828
  819MPD2    H112055   0.200   3.194  15.758  0.1095  0.4984  0.4537
  819MPD2    H212056   4.577   3.111  15.526 -0.7060 -0.1432  1.1282
  819MPD2    H312057   0.009   3.264  15.627 -0.9114 -0.9197 -0.2483
  819MPD2     N12058   0.280   2.958  15.801  0.8307  0.2049 -0.1019
  819MPD2    H512059   0.341   3.036  15.824  0.8302  0.0725  0.3590
  819MPD2    N112060   4.594   2.846  15.540  0.0104  0.1682 -0.0491
  819MPD2    H712061   4.523   2.893  15.484 -0.6278 -1.6009 -0.7254
  820MPD2     C12062   3.941   2.887  14.867  0.3129 -0.0919  0.1519
  820MPD2    C112063   4.058   2.949  14.913  0.4007  0.5234  0.5959
  820MPD2    C212064   4.161   2.878  14.974  0.5259  0.2872 -0.1024
  820MPD2    C312065   4.136   2.748  15.013 -0.6461  0.4722 -0.3196
  820MPD2    C412066   4.023   2.688  14.979 -0.3735  0.7085  0.0106
  820MPD2    C512067   3.926   2.757  14.911 -0.3302  0.0740  0.2640
  820MPD2     H12068   4.252   2.928  15.005 -1.2073  3.4685 -0.1002
  820MPD2    H112069   4.007   2.585  15.011 -0.6186 -0.0011 -2.3413
  820MPD2    H212070   3.857   2.935  14.818 -0.5891 -0.2038  1.5732
  820MPD2    H312071   3.843   2.696  14.876 -0.5426  0.6583 -0.2638
  820MPD2     N12072   4.221   2.673  15.102 -0.5766 -0.1714  0.0717
  820MPD2    H512073   4.193   2.578  15.125 -0.1801 -0.5024 -0.8161
  820MPD2    N112074   4.071   3.089  14.889 -1.2752  0.1547  0.7785
  820MPD2    H712075   3.984   3.132  14.858  0.7093  1.8785 -2.3970
  821MPD2     C12076   0.237   4.178  12.816 -0.3251  0.2715 -0.4482
  821MPD2    C112077   0.312   4.160  12.930 -0.5260 -0.0868 -0.2334
  821MPD2    C212078   0.434   4.217  12.941  0.2492  0.2510 -0.6231
  821MPD2    C312079   0.502   4.275  12.833  0.0368 -0.1758  0.7491
  821MPD2    C412080   0.427   4.283  12.721  0.0491 -0.2007  0.0861
  821MPD2    C512081   0.302   4.229  12.709 -0.6559 -0.1278 -0.2927
  821MPD2     H12082   0.489   4.210  13.035  1.3911  1.7133 -1.1891
  821MPD2    H112083   0.464   4.323  12.627  0.6932 -0.1980  0.3434
  821MPD2    H212084   0.136   4.141  12.801 -0.5239 -0.1393  1.9451
  821MPD2    H312085   0.237   4.243  12.623  1.4776  0.4046 -1.8102
  821MPD2     N12086   0.632   4.329  12.827  0.1743  0.1173 -0.2464
  821MPD2    H512087   0.653   4.370  12.736  0.6515  0.3699 -0.0209
  821MPD2    N112088   0.271   4.089  13.048 -0.7478  0.1644 -0.5549
  821MPD2    H712089   0.336   4.077  13.124  0.1327  0.5315 -1.2403
  822MPD2     C12090   0.502   4.202  15.708 -0.6627 -0.3340  0.0470
  822MPD2    C112091   0.579   4.193  15.826 -0.6141  0.0004  0.2460
  822MPD2    C212092   0.541   4.270  15.935 -0.5187 -0.4957  0.0477
  822MPD2    C312093   0.430   4.347  15.929 -0.2291 -0.5677 -0.0309
  822MPD2    C412094   0.352   4.359  15.813  0.1601  0.3123  0.1458
  822MPD2    C512095   0.383   4.274  15.713 -0.7483  0.0570  0.0778
  822MPD2     H12096   0.596   4.264  16.028  2.8231 -1.1386 -1.9524
  822MPD2    H112097   0.262   4.420  15.807  1.1461  1.7589 -0.0383
  822MPD2    H212098   0.516   4.150  15.614  1.4596 -0.5324  0.4749
  822MPD2    H312099   0.321   4.277  15.625  0.4879 -0.6294 -0.8128
  822MPD2     N12100   0.394   4.421  16.043  0.6479 -0.0047  0.0055
  822MPD2    H512101   0.449   4.414  16.128 -0.8623  1.8603  1.1263
  822MPD2    N112102   0.690   4.110  15.841  0.2913  0.2107 -0.4866
  822MPD2    H712103   0.729   4.106  15.934 -1.3280  2.8618  0.2909
  823MPD2     C12104   0.403   0.068  16.723  0.1098 -0.3178 -0.3819
  823MPD2    C112105   0.316   4.689  16.698  0.1336  0.8199 -0.0731
  823MPD2    C212106   0.338   4.575  16.773  0.2550 -0.2025  0.2451
  823MPD2    C312107   0.432   4.562  16.866  0.0224  0.3331 -0.1583
  823MPD2    C412108   0.496   4.675  16.907 -0.9135  0.5757  0.1147
  823MPD2    C512109   0.494   0.061  16.821  0.0664  0.0657 -0.3721
  823MPD2     H12110   0.276   4.488  16.759  0.5285 -0.3421 -0.0915
  823MPD2    H112111   0.563   4.670  16.992  0.5829  0.5735 -1.0682
  823MPD2    H212112   0.411   0.141  16.643  1.5284 -0.4061 -0.3339
  823MPD2    H312113   0.560   0.146  16.834  1.4117 -0.6410 -2.7208
  823MPD2     N12114   0.445   4.438  16.938 -0.4498 -0.4296 -0.0233
  823MPD2    H512115   0.505   4.428  17.019  1.7908 -4.1618 -2.1196
  823MPD2    N112116   0.242   4.692  16.579  0.4697  0.3899  0.7062
  823MPD2    H712117   0.234   0.062  16.538  1.9492 -0.5986 -1.8248
  824MPD2     C12118   0.983   3.310  15.683  0.5731 -0.2047 -0.1661
  824MPD2    C112119   1.086   3.409  15.712 -0.1133  0.5852  0.2842
  824MPD2    C212120   1.223   3.383  15.690 -0.0921 -0.2543  0.4641
  824MPD2    C312121   1.255   3.271  15.623 -0.2700 -0.6846 -0.1470
  824MPD2    C412122   1.158   3.174  15.598  0.0368 -0.0196  0.1726
  824MPD2    C512123   1.024   3.188  15.639  0.3399  0.7104 -0.6277
  824MPD2     H12124   1.292   3.459  15.724 -0.9848  0.0661  1.5655
  824MPD2    H112125   1.178   3.089  15.533 -0.3553 -0.2382  0.3383
  824MPD2    H212126   0.876   3.326  15.690  0.5548 -1.4306  2.3179
  824MPD2    H312127   0.954   3.107  15.619  0.4830  1.5016 -4.3136
  824MPD2     N12128   1.396   3.256  15.585 -0.0576  0.6784  0.3098
  824MPD2    H512129   1.447   3.343  15.599 -0.5336  0.5191  3.1822
  824MPD2    N112130   1.059   3.534  15.769  0.0026 -0.4125 -0.5977
  824MPD2    H712131   1.140   3.594  15.779 -0.6691  0.6719 -1.5463
  825MPD2     C12132   2.034   3.410  15.004 -0.4173 -0.0891 -0.9005
  825MPD2    C112133   1.919   3.438  15.077 -0.4138 -0.4243  0.5232
  825MPD2    C212134   1.871   3.568  15.057  0.6426 -1.9790  0.3055
  825MPD2    C312135   1.922   3.652  14.960  0.1343  0.8742  0.3808
  825MPD2    C412136   2.034   3.608  14.887 -0.0576  0.4673 -0.4472
  825MPD2    C512137   2.092   3.493  14.915  0.1176 -0.0678 -0.1061
  825MPD2     H12138   1.781   3.597  15.110 -0.2731 -2.2748 -1.0816
  825MPD2    H112139   2.060   3.679  14.809 -0.8816 -0.3670 -1.4849
  825MPD2    H212140   2.093   3.323  15.034  1.0837  1.2034 -0.1193
  825MPD2    H312141   2.182   3.460  14.864  0.5511 -0.7029  1.0853
  825MPD2     N12142   1.855   3.770  14.906 -0.0055  0.5372 -0.0672
  825MPD2    H512143   1.897   3.811  14.823  0.9127  1.0841  0.6648
  825MPD2    N112144   1.871   3.342  15.166  0.0704  0.5671  0.1137
  825MPD2    H712145   1.930   3.261  15.180 -1.6845 -0.8716 -0.8133
  826MPD2     C12146   1.760   3.230  13.617 -0.3534 -0.0343  0.1414
  826MPD2    C112147   1.797   3.306  13.513 -0.2405 -0.2514  0.1100
  826MPD2    C212148   1.721   3.416  13.474  0.7525  0.0899  0.5266
  826MPD2    C312149   1.603   3.449  13.538  0.0714  0.3415  0.0490
  826MPD2    C412150   1.582   3.387  13.663  0.9287 -0.4431  0.0002
  826MPD2    C512151   1.655   3.275  13.692  0.0434  0.5024  0.0877
  826MPD2     H12152   1.745   3.463  13.379  0.7323 -0.7433  0.1162
  826MPD2    H112153   1.491   3.407  13.719 -0.2788 -3.5421 -0.8593
  826MPD2    H212154   1.811   3.137  13.640  1.1729  0.3793 -1.5179
  826MPD2    H312155   1.618   3.215  13.774  1.5682  0.4812  0.7655
  826MPD2     N12156   1.508   3.541  13.501  0.3142 -0.5729  0.0360
  826MPD2    H512157   1.432   3.565  13.563 -0.0398  3.7285 -2.0743
  826MPD2    N112158   1.912   3.268  13.427  0.7529  0.0122 -0.0165
  826MPD2    H712159   1.946   3.173  13.437  1.5231  0.1742 -1.0744
  827MPD2     C12160   2.969   4.065  10.135  0.0935  0.7020  0.0472
  827MPD2    C112161   2.931   4.033  10.262  0.2921  0.3906  0.0723
  827MPD2    C212162   2.833   3.936  10.272  0.3242 -0.4075 -1.0506
  827MPD2    C312163   2.771   3.886  10.157 -0.1870 -0.2144  0.6770
  827MPD2    C412164   2.818   3.920  10.029 -0.1604 -0.3301  0.1312
  827MPD2    C512165   2.922   4.008  10.021 -0.2749  0.0509  0.1544
  827MPD2     H12166   2.791   3.909  10.368 -0.1012 -0.9599 -1.3955
  827MPD2    H112167   2.785   3.876   9.935  0.7640 -0.3332 -0.1959
  827MPD2    H212168   3.047   4.139  10.122  0.2818  0.8684  2.0334
  827MPD2    H312169   2.976   4.019   9.928  1.0598 -0.0202  0.9199
  827MPD2     N12170   2.680   3.789  10.175 -0.3121 -0.3872  0.4111
  827MPD2    H512171   2.671   3.750  10.268 -2.1439  0.2314  0.4855
  827MPD2    N112172   3.004   4.088  10.369 -0.0068 -0.6800 -0.6566
  827MPD2    H712173   3.080   4.152  10.346  1.1466 -1.1597  1.7339
  828MPD2     C12174   0.985   4.288  12.614 -0.2841  0.4629 -0.1608
  828MPD2    C112175   1.007   4.368  12.508  0.1874 -0.4132 -0.6420
  828MPD2    C212176   1.133   4.378  12.456 -0.3468 -0.4260  0.7929
  828MPD2    C312177   1.247   4.317  12.515 -0.5801 -0.2996  0.0769
  828MPD2    C412178   1.217   4.245  12.623 -0.5102 -0.3913 -1.0462
  828MPD2    C512179   1.091   4.219  12.669 -0.8816  0.6315  0.8636
  828MPD2     H12180   1.142   4.434  12.364  1.9915 -0.5767  0.9300
  828MPD2    H112181   1.295   4.186  12.669 -1.4702 -0.0585  1.0062
  828MPD2    H212182   0.889   4.259  12.656 -1.4841  2.2833 -1.6607
  828MPD2    H312183   1.082   4.151  12.753 -0.7455  0.1857  0.5121
  828MPD2     N12184   1.378   4.311  12.456 -0.2244 -0.2993  0.3329
  828MPD2    H512185   1.436   4.232  12.482 -1.6779 -1.1051  1.1411
  828MPD2    N112186   0.899   4.441  12.446  1.1019  0.7686  0.2994
  828MPD2    H712187   0.934   4.489  12.363 -1.0139 -0.2602 -1.1867
  829MPD2     C12188   1.077   4.698  11.699  0.0860 -0.9421  0.6211
  829MPD2    C112189   0.940   4.713  11.677 -0.8719 -0.1202 -0.3550
  829MPD2    C212190   0.847   4.685  11.780 -0.4893  0.0588  0.8789
  829MPD2    C312191   0.898   4.642  11.902  0.3392 -0.3452 -0.4762
  829MPD2    C412192   1.033   4.623  11.915  0.0214 -0.4367 -0.1709
  829MPD2    C512193   1.129   4.658  11.818 -0.0853  0.7151  0.4474
  829MPD2     H12194   0.742   4.705  11.761  0.0402 -0.4604 -2.5883
  829MPD2    H112195   1.065   4.602  12.016 -1.8634  0.3451  0.5997
  829MPD2    H212196   1.144   4.708  11.613  0.0848 -5.4692  0.1007
  829MPD2    H312197   1.236   4.644  11.824 -0.2891 -1.9287 -2.1873
  829MPD2     N12198   0.818   4.605  12.015 -0.3142 -0.2372 -0.6342
  829MPD2    H512199   0.873   4.583  12.097 -1.2249  3.1820  0.8998
  829MPD2    N112200   0.900   0.024  11.543 -0.4794  0.4774  0.0742
  829MPD2    H712201   0.967   0.039  11.468 -1.7228  1.3861 -0.8473
  830MPD2     C12202   1.087   2.713  15.785 -0.1305  0.6392 -0.0465
  830MPD2    C112203   0.988   2.788  15.731  0.0709 -0.3867  0.1540
  830MPD2    C212204   1.000   2.830  15.604 -0.6042 -0.3231 -0.2001
  830MPD2    C312205   1.112   2.796  15.528  0.4369 -0.8101 -0.2573
  830MPD2    C412206   1.204   2.710  15.583  0.0768  0.8669 -0.4103
  830MPD2    C512207   1.195   2.669  15.712  0.8664 -0.2735 -0.5859
  830MPD2     H12208   0.921   2.896  15.569  1.4101  1.5667 -1.1478
  830MPD2    H112209   1.290   2.682  15.523  0.2946  0.6995 -0.0251
  830MPD2    H212210   1.078   2.673  15.886 -0.0128  0.1625 -0.2236
  830MPD2    H312211   1.245   2.587  15.763  1.8069 -0.1584 -1.3307
  830MPD2     N12212   1.141   2.835  15.394 -0.6998 -0.2262 -0.5356
  830MPD2    H512213   1.224   2.794  15.352 -0.6001 -0.5163 -0.0479
  830MPD2    N112214   0.875   2.813  15.811 -0.6680 -0.0491 -0.4550
  830MPD2    H712215   0.857   2.750  15.889 -2.9386  0.6816 -0.3870
  831MPD2     C12216   0.660   4.600  16.302  0.0540 -0.5458 -0.7446
  831MPD2    C112217   0.691   4.484  16.235 -0.4415 -0.1384  0.8286
  831MPD2    C212218   0.637   4.365  16.286  0.2536  0.5591  0.2078
  831MPD2    C312219   0.546   4.358  16.387  0.1034  0.3431 -0.4015
  831MPD2    C412220   0.523   4.473  16.456 -0.0903 -0.4609  0.6595
  831MPD2    C512221   0.580   4.595  16.413 -0.0826 -0.6813 -0.2125
  831MPD2     H12222   0.653   4.273  16.231 -0.7067 -0.2101  1.2158
  831MPD2    H112223   0.453   4.470  16.539  0.3164 -1.7976  0.9568
  831MPD2    H212224   0.705   4.693  16.268 -1.1351  0.2241 -0.2249
  831MPD2    H312225   0.554   4.692  16.456 -2.1270 -1.1349 -0.4065
  831MPD2     N12226   0.462   4.245  16.425  0.4477 -1.4827  0.7419
  831MPD2    H512227   0.398   4.260  16.502 -1.0672 -1.1838 -0.5754
  831MPD2    N112228   0.789   4.487  16.138  0.4032 -0.5260 -0.2874
  831MPD2    H712229   0.812   4.577  16.097 -0.4256 -0.2335 -0.1150
  832MPD2     C12230   4.029   0.906  17.255  0.2454 -0.1734  0.2556
  832MPD2    C112231   4.071   1.029  17.235  0.0205 -0.8983 -1.0120
  832MPD2    C212232   3.979   1.129  17.227 -0.3327 -0.7472 -0.6146
  832MPD2    C312233   3.842   1.104  17.242 -0.0796  0.2921  0.2617
  832MPD2    C412234   3.808   0.971  17.270 -0.6495  0.0768 -0.5286
  832MPD2    C512235   3.898   0.870  17.265  0.1369  0.0021  0.0252
  832MPD2     H12236   4.008   1.223  17.182 -3.2250 -0.5886 -2.1486
  832MPD2    H112237   3.702   0.949  17.285 -0.2483 -0.6974  1.2076
  832MPD2    H212238   4.105   0.832  17.279  0.6709 -0.0212 -0.6488
  832MPD2    H312239   3.869   0.768  17.291 -2.6159  0.6944 -0.3594
  832MPD2     N12240   3.741   1.190  17.224 -0.0531  0.0243  0.8026
  832MPD2    H512241   3.647   1.158  17.246 -0.6536  0.3300 -1.3160
  832MPD2    N112242   4.207   1.055  17.228 -0.2419  0.1534  0.0384
  832MPD2    H712243   4.266   0.973  17.223  0.5657  0.6032  2.3366
  833MPD2     C12244   1.616   2.224  12.501 -0.1946  0.5432 -0.5865
  833MPD2    C112245   1.607   2.346  12.425 -0.2455 -0.1322  1.0912
  833MPD2    C212246   1.612   2.341  12.286  0.1816  0.5997  0.3427
  833MPD2    C312247   1.635   2.221  12.225  0.7769 -0.0317  0.4534
  833MPD2    C412248   1.666   2.110  12.304 -0.4974  0.0542 -0.1102
  833MPD2    C512249   1.640   2.107  12.437  0.4181  0.2648  0.2753
  833MPD2     H12250   1.602   2.426  12.219 -0.6461  1.7447  1.9129
  833MPD2    H112251   1.699   2.020  12.253 -0.4401 -0.4393  0.8045
  833MPD2    H212252   1.597   2.228  12.607 -1.5345 -0.2352 -0.8065
  833MPD2    H312253   1.639   2.018  12.499 -2.4555 -0.3609 -0.6406
  833MPD2     N12254   1.641   2.239  12.086  0.3686  0.1781  1.0567
  833MPD2    H512255   1.611   2.325  12.042  1.0510 -0.6160 -0.9549
  833MPD2    N112256   1.594   2.465  12.491 -0.0516  0.0016  0.2537
  833MPD2    H712257   1.570   2.455  12.589  2.9995  1.8320  1.2043
  834MPD2     C12258   2.276   1.977  11.339 -0.1416 -0.2983  0.4278
  834MPD2    C112259   2.159   1.901  11.366 -0.3159 -0.1277 -0.1920
  834MPD2    C212260   2.071   1.954  11.458 -0.1196  0.1443 -0.2830
  834MPD2    C312261   2.090   2.081  11.517  0.3069 -0.3021 -0.1720
  834MPD2    C412262   2.200   2.155  11.476  0.6108  0.8272 -0.6305
  834MPD2    C512263   2.293   2.106  11.387 -0.0514  0.6843  0.4496
  834MPD2     H12264   1.980   1.901  11.486  0.7056 -1.3766 -0.4844
  834MPD2    H112265   2.210   2.255  11.517 -2.6499  1.1959 -0.7709
  834MPD2    H212266   2.347   1.941  11.265 -0.4341 -1.1189  0.5462
  834MPD2    H312267   2.376   2.167  11.352 -0.4376  1.4862  0.9417
  834MPD2     N12268   1.984   2.124  11.600 -0.6874 -0.2762 -0.4628
  834MPD2    H512269   1.909   2.059  11.624 -0.4863  0.0609  1.1146
  834MPD2    N112270   2.158   1.766  11.324 -0.5022  0.4663 -0.6315
  834MPD2    H712271   2.245   1.747  11.275 -0.4736  0.6051 -0.6336
  835MPD2     C12272   1.977   0.038  11.278 -0.3717  0.5757  0.2202
  835MPD2    C112273   1.844   0.010  11.254  0.5978  0.5894 -0.4753
  835MPD2    C212274   1.761   0.020  11.362  0.6179  1.0108  0.9674
  835MPD2    C312275   1.803   0.063  11.494  0.1222  0.5685  0.2780
  835MPD2    C412276   1.937   0.079  11.514  0.2437 -0.0306 -0.2449
  835MPD2    C512277   2.021   0.065  11.405 -0.8104 -0.1360  0.0913
  835MPD2     H12278   1.657   4.716  11.354  0.4428  2.4179 -1.4333
  835MPD2    H112279   1.976   0.101  11.612 -1.2747  2.3811 -0.1843
  835MPD2    H212280   2.047   0.038  11.196  0.3175  0.5273  0.8111
  835MPD2    H312281   2.127   0.060  11.427 -0.8898  1.7826  0.9277
  835MPD2     N12282   1.716   0.095  11.600 -0.1882 -0.3184  0.5035
  835MPD2    H512283   1.765   0.107  11.688  0.6340 -1.2728  0.1815
  835MPD2    N112284   1.797   0.005  11.120 -0.4626 -0.5675 -0.0963
  835MPD2    H712285   1.844   0.058  11.047 -3.5777  1.1239 -0.9237
  836MPD2     C12286   1.016   0.381  11.472 -0.7600  0.2904  0.5775
  836MPD2    C112287   1.036   0.350  11.605  0.5102  0.1199  0.2441
  836MPD2    C212288   0.924   0.349  11.688  0.4761  0.3747 -0.1977
  836MPD2    C312289   0.793   0.371  11.635 -0.1450 -0.1226 -0.8128
  836MPD2    C412290   0.778   0.414  11.502  0.5212  0.5501 -0.1246
  836MPD2    C512291   0.894   0.422  11.427  0.1904  1.0902  0.1819
  836MPD2     H12292   0.935   0.312  11.789 -0.4679 -0.6136 -0.4558
  836MPD2    H112293   0.679   0.428  11.461  0.0106  0.2749  1.0319
  836MPD2    H212294   1.099   0.388  11.402  0.1849 -1.2765  1.5686
  836MPD2    H312295   0.883   0.457  11.325  0.7007 -1.5488 -0.7830
  836MPD2     N12296   0.677   0.350  11.713  0.3523  0.0623  0.0532
  836MPD2    H512297   0.588   0.356  11.666 -0.4948 -2.5996  1.3599
  836MPD2    N112298   1.162   0.299  11.645 -0.0111 -0.4901  0.0353
  836MPD2    H712299   1.226   0.271  11.571  0.1467 -0.7414  0.2677
  837MPD2     C12300   4.645   4.429  10.072 -0.4479  0.1742  0.0477
  837MPD2    C112301   0.037   4.407   9.991  0.5700  0.1126 -0.1659
  837MPD2    C212302   0.113   4.512   9.951  0.0521  0.0174  0.3773
  837MPD2    C312303   0.073   4.644   9.981 -0.8020 -0.0961  0.6184
  837MPD2    C412304   4.685   4.663  10.059  0.4334  0.2455  0.3986
  837MPD2    C512305   4.605   4.557  10.091  0.5364  0.7517  0.4596
  837MPD2     H12306   0.195   4.486   9.886 -0.8425 -0.2408 -0.6458
  837MPD2    H112307   4.643   0.036  10.083 -0.9509 -0.2880  0.1787
  837MPD2    H212308   4.578   4.350  10.106 -0.9713  0.0432 -1.2727
  837MPD2    H312309   4.505   4.581  10.127 -0.2051 -2.7172  0.7563
  837MPD2     N12310   0.138   0.033   9.928 -0.0505 -0.4026  0.4175
  837MPD2    H512311   0.224   0.015   9.877  0.3677  1.7861  0.3566
  837MPD2    N112312   0.068   4.278   9.939 -0.2190 -0.1276 -0.4603
  837MPD2    H712313   0.144   4.272   9.873 -0.9302 -0.1983 -1.2772
  838MPD2     C12314   3.018   2.545  11.694  0.1443 -0.3722 -0.6007
  838MPD2    C112315   2.977   2.537  11.820 -0.5119  1.3148 -0.5324
  838MPD2    C212316   2.853   2.475  11.843 -0.3165 -0.5425  0.3066
  838MPD2    C312317   2.780   2.412  11.742 -0.5490 -0.5218 -0.0706
  838MPD2    C412318   2.816   2.431  11.609 -0.3807 -0.3363  0.3107
  838MPD2    C512319   2.939   2.498  11.590  0.1546 -0.1345  0.2070
  838MPD2     H12320   2.818   2.456  11.944 -0.6035 -0.0933  0.2900
  838MPD2    H112321   2.775   2.383  11.520 -0.7848  0.6889 -0.0579
  838MPD2    H212322   3.105   2.601  11.662  0.1402  0.4117  0.7455
  838MPD2    H312323   2.977   2.517  11.490 -0.8888 -0.6174 -0.2742
  838MPD2     N12324   2.676   2.331  11.799 -0.0214  0.0248 -0.4700
  838MPD2    H512325   2.675   2.314  11.899  2.1071  1.0948 -0.2568
  838MPD2    N112326   3.045   2.589  11.926  0.1129 -0.5013 -0.0248
  838MPD2    H712327   3.013   2.571  12.020  1.5542  1.8791  0.9142
  839MPD2     C12328   2.876   1.956  11.910 -0.4303  1.1060  0.9126
  839MPD2    C112329   2.932   2.031  11.805  0.1263  0.4795 -0.3071
  839MPD2    C212330   3.030   2.126  11.834 -0.3918 -0.0944 -0.0397
  839MPD2    C312331   3.065   2.148  11.963 -0.1325 -0.0482  0.1096
  839MPD2    C412332   3.003   2.092  12.071  0.0791 -0.3708  0.0900
  839MPD2    C512333   2.916   1.983  12.041  0.6021 -0.1930 -0.2246
  839MPD2     H12334   3.081   2.179  11.754 -0.1097  1.7593  1.3699
  839MPD2    H112335   3.023   2.112  12.175  0.1507  2.5024 -0.4721
  839MPD2    H212336   2.792   1.889  11.897  1.9661 -2.1104  2.0171
  839MPD2    H312337   2.862   1.945  12.126  0.5318 -1.3811 -0.7940
  839MPD2     N12338   3.173   2.237  12.003  0.4056 -0.6885  0.0004
  839MPD2    H512339   3.174   2.265  12.101 -1.7818  0.6099 -0.3505
  839MPD2    N112340   2.889   2.015  11.673  0.3307  0.4671  0.1307
  839MPD2    H712341   2.941   2.068  11.604 -2.8297  1.7487 -1.3072
  840MPD2     C12342   3.266   4.637  10.306 -0.5580  0.0209 -0.2118
  840MPD2    C112343   3.318   4.588  10.421 -0.1782 -0.5408  0.4897
  840MPD2    C212344   3.422   4.657  10.478 -0.1281  1.1608  0.3637
  840MPD2    C312345   3.475   0.050  10.422  0.3520  0.5342  0.0253
  840MPD2    C412346   3.420   0.097  10.312  0.3649 -0.0523  0.4343
  840MPD2    C512347   3.316   0.029  10.254  0.6515  0.1545  0.1233
  840MPD2     H12348   3.465   4.619  10.569 -0.5657 -0.4234 -0.0725
  840MPD2    H112349   3.445   0.190  10.262  0.0134  1.5406  3.2172
  840MPD2    H212350   3.182   4.596  10.250 -1.4043  1.4670  0.0100
  840MPD2    H312351   3.270   0.059  10.160  3.9354 -0.9410 -1.8443
  840MPD2     N12352   3.587   0.125  10.470  0.4858 -0.1311  0.0330
  840MPD2    H512353   3.617   0.207  10.418 -0.0069  0.0706  0.0740
  840MPD2    N112354   3.261   4.467  10.483  0.1020 -0.2779  0.1943
  840MPD2    H712355   3.187   4.421  10.430  1.6403 -0.6087 -1.6876
  841MPD2     C12356   2.731   0.423  15.287  0.5045  0.2912 -1.0412
  841MPD2    C112357   2.749   0.332  15.187  0.4174 -0.5980  0.0183
  841MPD2    C212358   2.802   0.372  15.066 -0.4740 -0.1769 -0.5710
  841MPD2    C312359   2.860   0.499  15.060  0.1844  0.3691 -0.3429
  841MPD2    C412360   2.832   0.592  15.157  0.2378 -0.0638  0.0787
  841MPD2    C512361   2.760   0.556  15.267  0.1542  0.0623  0.1163
  841MPD2     H12362   2.820   0.296  14.990 -0.4954 -1.6107  0.8585
  841MPD2    H112363   2.875   0.692  15.163  0.1839 -0.0108 -0.4373
  841MPD2    H212364   2.685   0.392  15.380  1.4181  0.8918 -0.3838
  841MPD2    H312365   2.742   0.634  15.340 -2.6141  2.4106 -3.0722
  841MPD2     N12366   2.934   0.530  14.949 -0.1461  0.5526 -0.4875
  841MPD2    H512367   2.956   0.451  14.890  0.0285 -1.5786  2.4458
  841MPD2    N112368   2.723   0.194  15.202  0.1985  0.1682  0.8392
  841MPD2    H712369   2.745   0.127  15.129  1.5843  0.0922  1.3218
  842MPD2     C12370   3.348   1.628  17.200  0.6541 -0.3362 -0.1497
  842MPD2    C112371   3.218   1.580  17.192 -0.3835 -0.4691  0.3785
  842MPD2    C212372   3.183   1.510  17.314  0.0861 -0.0058 -0.2350
  842MPD2    C312373   3.265   1.475  17.413  0.0382  0.0601  0.0089
  842MPD2    C412374   3.388   1.530  17.419 -0.5164 -0.4852  0.1381
  842MPD2    C512375   3.426   1.612  17.313 -0.1589  0.2740 -0.1381
  842MPD2     H12376   3.089   1.455  17.321 -0.5916  1.3902  1.5763
  842MPD2    H112377   3.459   1.513  17.499 -0.1428 -0.1977 -0.1284
  842MPD2    H212378   3.395   1.674  17.114  3.7286 -2.2630  0.4956
  842MPD2    H312379   3.528   1.650  17.310 -0.6635  1.8569  2.9260
  842MPD2     N12380   3.222   1.377  17.501 -0.4432  0.2507  0.3374
  842MPD2    H512381   3.127   1.347  17.482 -0.5714 -0.2953  1.8595
  842MPD2    N112382   3.155   1.572  17.067  0.6933 -0.1262  0.2919
  842MPD2    H712383   3.200   1.624  16.993 -0.0211 -1.6057 -1.1760
  843MPD2     C12384   4.706   1.699   0.115  0.0583  0.5831 -0.2274
  843MPD2    C112385   0.102   1.657   0.170  0.1060  0.6145 -0.2060
  843MPD2    C212386   0.211   1.737   0.149 -0.1470 -0.2340  0.1778
  843MPD2    C312387   0.213   1.845   0.062 -0.2324  0.3756 -0.0544
  843MPD2    C412388   0.096   1.876   0.006  0.2389 -0.0502  0.1172
  843MPD2    C512389   4.706   1.807   0.029  0.2518  0.5530 -0.0551
  843MPD2     H12390   0.306   1.713   0.194 -0.1816 -2.6435 -1.0693
  843MPD2    H112391   0.097   1.968  17.643 -0.4447  0.3896  0.8053
  843MPD2    H212392   4.611   1.647   0.126  0.1937  0.0266 -1.7296
  843MPD2    H312393   4.621   1.825  17.660  0.8345  2.9728 -0.1321
  843MPD2     N12394   0.324   1.926   0.038 -0.0495  0.5418  0.1793
  843MPD2    H512395   0.316   2.014  17.682 -0.6804 -0.7308 -1.9422
  843MPD2    N112396   0.111   1.518   0.208 -0.6791 -0.1879  0.2815
  843MPD2    H712397   0.019   1.474   0.214  0.0276 -1.6510  0.4425
  844MPD2     C12398   3.837   1.296  16.788  0.7866  0.3568 -0.2002
  844MPD2    C112399   3.927   1.201  16.813 -0.1466 -0.2599 -0.6309
  844MPD2    C212400   4.057   1.228  16.788 -0.1956 -0.4217  0.7031
  844MPD2    C312401   4.110   1.346  16.747 -0.4218  0.1866 -0.0246
  844MPD2    C412402   4.019   1.445  16.724 -0.7780 -0.5882  0.7815
  844MPD2    C512403   3.884   1.416  16.741  0.1538  0.4660  0.4825
  844MPD2     H12404   4.121   1.141  16.797  1.1584  0.1044 -3.8697
  844MPD2    H112405   4.050   1.545  16.696 -1.2736 -1.1118 -1.6970
  844MPD2    H212406   3.732   1.283  16.814  0.3432 -0.4611 -2.3558
  844MPD2    H312407   3.809   1.495  16.743  0.6219  0.9191 -0.2037
  844MPD2     N12408   4.251   1.366  16.734  0.0508 -0.1401 -0.2001
  844MPD2    H512409   4.307   1.291  16.773 -0.2076  1.3347  2.9831
  844MPD2    N112410   3.890   1.077  16.873  0.3198  0.3860  0.8322
  844MPD2    H712411   3.959   1.002  16.879 -1.8104 -1.5931  0.6465
  845MPD2     C12412   4.596   2.170  16.968  0.1073 -0.0054 -0.7077
  845MPD2    C112413   4.501   2.088  17.005  0.7845  0.5073  0.3098
  845MPD2    C212414   4.497   1.961  16.942 -0.3902  0.3044 -0.4206
  845MPD2    C312415   4.600   1.925  16.858 -0.4704  0.8113 -0.2684
  845MPD2    C412416   4.703   2.016  16.832  0.1367  0.2173 -0.4257
  845MPD2    C512417   4.690   2.138  16.874  0.4927 -0.2538  0.5732
  845MPD2     H12418   4.408   1.900  16.955  0.1718  0.1257  2.5085
  845MPD2    H112419   0.055   1.994  16.757  0.2744 -0.8140  0.0133
  845MPD2    H212420   4.606   2.269  17.010 -1.9583 -0.9908  2.1612
  845MPD2    H312421   0.037   2.215  16.843  0.6741  0.1751  2.0517
  845MPD2     N12422   4.583   1.803  16.784  0.2027  0.3152 -0.1840
  845MPD2    H512423   4.497   1.749  16.787 -0.3947  1.2688 -0.2670
  845MPD2    N112424   4.407   2.128  17.102  0.0382 -0.2947 -0.1408
  845MPD2    H712425   4.414   2.228  17.119  1.5265 -0.3996 -0.1354
  846MPD2     C12426   1.099   1.826  13.654 -0.1294 -0.7477 -0.1259
  846MPD2    C112427   0.979   1.894  13.671  0.0452 -0.2077 -0.2230
  846MPD2    C212428   0.910   1.878  13.792  0.0255 -0.2983  0.2347
  846MPD2    C312429   0.968   1.809  13.897 -0.8251  0.4229  0.1186
  846MPD2    C412430   1.087   1.742  13.879  0.7880  0.2470 -0.4398
  846MPD2    C512431   1.152   1.748  13.751 -0.4371 -0.6811 -0.1744
  846MPD2     H12432   0.812   1.922  13.806  0.8647  1.3226  1.0789
  846MPD2    H112433   1.126   1.680  13.959  0.3498 -2.7832 -2.5824
  846MPD2    H212434   1.154   1.835  13.561  1.6804  1.2814  1.1429
  846MPD2    H312435   1.243   1.694  13.728  0.3568  1.3634 -1.8322
  846MPD2     N12436   0.902   1.785  14.024  0.4523 -0.3071 -0.0781
  846MPD2    H512437   0.801   1.794  14.030  0.4020 -0.9432  0.0830
  846MPD2    N112438   0.920   1.968  13.568 -0.7823 -0.0556 -0.1726
  846MPD2    H712439   0.836   2.020  13.590 -1.0218 -0.2276 -0.6641
  847MPD2     C12440   1.078   2.958  14.170  0.7618 -0.5323  0.4446
  847MPD2    C112441   1.160   2.888  14.258 -0.3314 -0.8318 -0.5485
  847MPD2    C212442   1.139   2.755  14.273  0.4146 -0.2870  1.2453
  847MPD2    C312443   1.034   2.696  14.200  0.4149  0.2846 -0.4518
  847MPD2    C412444   0.956   2.760  14.111  0.5343  0.2509 -0.1304
  847MPD2    C512445   0.979   2.893  14.097 -0.1377  0.5132  0.3881
  847MPD2     H12446   1.200   2.697  14.342  3.2908  1.2374 -0.0501
  847MPD2    H112447   0.868   2.715  14.066  1.2182 -1.1709 -0.0579
  847MPD2    H212448   1.078   3.066  14.158  0.7747 -0.6841 -0.8759
  847MPD2    H312449   0.911   2.943  14.028  1.2767 -1.4571 -2.4331
  847MPD2     N12450   1.019   2.568  14.232  0.4338  0.3616  0.2244
  847MPD2    H512451   1.079   2.521  14.299  1.2407  1.3237  0.1660
  847MPD2    N112452   1.264   2.954  14.334 -0.2027 -0.7294 -0.7354
  847MPD2    H712453   1.304   2.897  14.408 -1.2075 -0.1019  0.2932
  848MPD2     C12454   3.519   1.456  16.526  0.3854  0.1695  0.6782
  848MPD2    C112455   3.529   1.544  16.629 -0.1900  0.3356  0.3097
  848MPD2    C212456   3.557   1.682  16.609  0.5203 -0.5340 -0.3750
  848MPD2    C312457   3.584   1.728  16.478 -0.3554 -0.4694  1.1319
  848MPD2    C412458   3.588   1.639  16.378 -0.4185 -0.0246  0.2129
  848MPD2    C512459   3.558   1.505  16.405 -0.6157 -0.0073  0.2802
  848MPD2     H12460   3.560   1.740  16.700  1.1973 -3.1112  1.2354
  848MPD2    H112461   3.594   1.673  16.275 -1.7133 -0.2106  0.0734
  848MPD2    H212462   3.495   1.350  16.533  0.7811 -0.1504 -2.7748
  848MPD2    H312463   3.540   1.437  16.322 -2.0586  0.4773  0.2078
  848MPD2     N12464   3.607   1.861  16.450  0.5266 -0.1279 -0.7208
  848MPD2    H512465   3.632   1.884  16.354 -0.7299 -0.1073 -1.0428
  848MPD2    N112466   3.514   1.505  16.764 -0.3906 -0.6168 -0.0228
  848MPD2    H712467   3.546   1.567  16.838  0.3781  0.0320 -0.9008
  849MPD2     C12468   2.913   0.914  13.623  0.0635 -0.4927  0.0127
  849MPD2    C112469   3.033   0.908  13.692  0.0718  0.1395  0.1882
  849MPD2    C212470   3.036   0.864  13.823 -0.3282  0.1262  0.3343
  849MPD2    C312471   2.920   0.838  13.889  0.6108 -0.1611 -0.1318
  849MPD2    C412472   2.795   0.852  13.825 -0.1573 -0.4546 -0.6923
  849MPD2    C512473   2.795   0.888  13.689  0.0374  0.1448  0.3069
  849MPD2     H12474   3.127   0.847  13.879 -1.0883 -1.8952  0.9834
  849MPD2    H112475   2.704   0.833  13.879  0.2400  1.9994  0.8422
  849MPD2    H212476   2.900   0.954  13.523  0.1330 -1.8299 -0.5424
  849MPD2    H312477   2.706   0.915  13.633  0.6571  2.3079  0.3823
  849MPD2     N12478   2.935   0.800  14.022 -0.0426 -0.2516  0.5449
  849MPD2    H512479   3.029   0.770  14.046 -0.0313 -2.4972 -2.3293
  849MPD2    N112480   3.160   0.932  13.642  0.1912  0.3925  0.5685
  849MPD2    H712481   3.232   0.915  13.711 -0.4254  1.1551  1.3892
  850MPD2     C12482   0.382   3.398  14.746  0.2207 -0.5092  0.0024
  850MPD2    C112483   0.350   3.516  14.804 -0.0597 -0.7057 -0.1433
  850MPD2    C212484   0.454   3.598  14.845  0.3491 -0.1097  0.1017
  850MPD2    C312485   0.588   3.566  14.814 -0.1133 -0.2126 -0.0049
  850MPD2    C412486   0.618   3.449  14.741 -0.2116  0.2147  0.9265
  850MPD2    C512487   0.512   3.364  14.722 -0.3900 -0.3739  0.0877
  850MPD2     H12488   0.431   3.697  14.883  1.0483 -0.1928  0.7366
  850MPD2    H112489   0.721   3.418  14.726  0.0839 -0.6611  4.6733
  850MPD2    H212490   0.306   3.328  14.714 -0.5142  0.3988 -0.2328
  850MPD2    H312491   0.535   3.261  14.698  1.0378 -0.8774  3.4561
  850MPD2     N12492   0.703   3.631  14.866 -0.3249  0.0051 -0.4056
  850MPD2    H512493   0.793   3.587  14.850 -0.1266  0.4931 -0.6156
  850MPD2    N112494   0.210   3.548  14.825 -0.2131  0.3147  0.3535
  850MPD2    H712495   0.142   3.503  14.765  0.5013 -0.0160 -0.2172
  851MPD2     C12496   0.738   3.540  15.446 -0.1898 -0.9027 -0.8065
  851MPD2    C112497   0.671   3.480  15.345  0.2224  0.0307 -0.5325
  851MPD2    C212498   0.740   3.390  15.263 -0.4327  0.4394  0.3188
  851MPD2    C312499   0.872   3.370  15.280  0.4411 -0.1275  0.2882
  851MPD2    C412500   0.939   3.431  15.380 -0.2641 -0.1991 -0.0169
  851MPD2    C512501   0.870   3.511  15.468 -0.4395 -0.2153  0.9576
  851MPD2     H12502   0.685   3.349  15.179 -1.7026  0.7770  0.9969
  851MPD2    H112503   1.044   3.423  15.406 -0.2899  0.3227  0.2649
  851MPD2    H212504   0.690   3.615  15.508  0.2725 -0.1010 -1.4250
  851MPD2    H312505   0.936   3.567  15.533 -0.6494  2.0929 -0.8020
  851MPD2     N12506   0.940   3.292  15.182 -0.1380  0.0114  0.0324
  851MPD2    H512507   0.886   3.232  15.121 -1.8579 -0.5951  2.1464
  851MPD2    N112508   0.549   3.537  15.327  0.8375 -0.7284 -0.0473
  851MPD2    H712509   0.528   3.621  15.380  0.2286 -1.9148  1.5627
  852MPD2     C12510   0.809   1.293  10.453  1.1830 -0.3654  0.2231
  852MPD2    C112511   0.895   1.360  10.539  0.1306  0.0176  0.2823
  852MPD2    C212512   0.980   1.457  10.487 -0.1768  0.2693  0.3788
  852MPD2    C312513   0.978   1.488  10.352 -0.0125 -0.1992  0.4946
  852MPD2    C412514   0.893   1.428  10.269  0.4006 -0.5514 -0.2233
  852MPD2    C512515   0.807   1.330  10.323  0.4300 -0.6235  1.0137
  852MPD2     H12516   1.050   1.500  10.557 -0.3140 -1.5560  1.6375
  852MPD2    H112517   0.885   1.449  10.163  2.5662  0.1975 -0.2380
  852MPD2    H212518   0.745   1.214  10.490  2.3524 -0.5839  1.7988
  852MPD2    H312519   0.742   1.278  10.253  0.8879 -0.0832  0.1826
  852MPD2     N12520   1.061   1.595  10.306  0.4204 -0.6340 -0.5883
  852MPD2    H512521   1.111   1.646  10.378  0.5851  0.8449 -1.7741
  852MPD2    N112522   0.931   1.313  10.666  0.1478 -0.3494  0.4529
  852MPD2    H712523   1.008   1.356  10.716 -0.8237 -1.2708  2.7859
  853MPD2     C12524   2.444   1.050  12.015  0.4059 -0.5010  0.0828
  853MPD2    C112525   2.551   1.139  12.048 -0.3808  0.3573 -0.6813
  853MPD2    C212526   2.652   1.167  11.956 -0.0134 -0.5131  0.8655
  853MPD2    C312527   2.636   1.126  11.824 -0.1378 -0.2280  0.2732
  853MPD2    C412528   2.537   1.038  11.787 -0.8622 -0.2437  0.1156
  853MPD2    C512529   2.442   0.999  11.887 -0.2244  0.1634  0.4099
  853MPD2     H12530   2.741   1.214  11.997 -0.4173 -1.0716  2.3891
  853MPD2    H112531   2.525   0.999  11.687 -0.8472  1.2803 -0.4829
  853MPD2    H212532   2.362   1.032  12.084 -0.8883 -3.7882 -2.3357
  853MPD2    H312533   2.364   0.925  11.874 -0.6629  0.7281 -0.2278
  853MPD2     N12534   2.717   1.151  11.718 -0.3548  0.1786 -0.3244
  853MPD2    H512535   2.691   1.110  11.629  2.7023 -3.3344  0.3982
  853MPD2    N112536   2.555   1.193  12.182  0.5300  0.1260  0.1799
  853MPD2    H712537   2.463   1.184  12.224  0.6152 -1.7823 -0.0094
  854MPD2     C12538   3.900   1.278  12.431  0.0697  0.2698  0.3139
  854MPD2    C112539   3.949   1.358  12.534 -0.2493 -0.2307 -0.0035
  854MPD2    C212540   3.992   1.295  12.654 -0.2177 -0.0451  0.4361
  854MPD2    C312541   3.960   1.164  12.671  0.6344 -0.2089  0.5068
  854MPD2    C412542   3.906   1.095  12.564  0.2399 -0.7035 -0.2114
  854MPD2    C512543   3.873   1.147  12.447 -0.3447 -0.0469  0.1985
  854MPD2     H12544   4.052   1.353  12.724 -0.0502  0.5084 -0.1603
  854MPD2    H112545   3.881   0.990  12.578 -1.5571 -0.0007  1.8470
  854MPD2    H212546   3.884   1.315  12.331  0.5096 -0.5483 -0.0588
  854MPD2    H312547   3.829   1.084  12.371  1.9966 -2.0897  0.5244
  854MPD2     N12548   3.995   1.090  12.784 -0.7072 -0.3263 -0.3011
  854MPD2    H512549   4.001   0.988  12.787 -1.5878 -0.3209  1.2160
  854MPD2    N112550   3.971   1.493  12.509  0.2896  0.1092 -0.1992
  854MPD2    H712551   3.954   1.531  12.416 -1.3973  3.0842  1.3423
  855MPD2     C12552   4.109   1.026  13.748  0.1617 -0.2039 -0.1150
  855MPD2    C112553   4.171   0.930  13.670  0.6570  0.7570 -0.2484
  855MPD2    C212554   4.217   0.968  13.546  0.2571 -0.2720 -0.0561
  855MPD2    C312555   4.186   1.093  13.495  0.1687  0.0628  0.4993
  855MPD2    C412556   4.110   1.175  13.573  0.2950  0.3846 -0.8140
  855MPD2    C512557   4.072   1.146  13.697  0.5348 -0.4992 -0.2479
  855MPD2     H12558   4.269   0.894  13.486  0.4584  1.9203 -2.5672
  855MPD2    H112559   4.080   1.270  13.532 -0.3285  0.1981 -0.7986
  855MPD2    H212560   4.078   1.004  13.849  0.7558  1.0115  0.3287
  855MPD2    H312561   4.021   1.212  13.768  1.9107  1.5273 -1.1431
  855MPD2     N12562   4.211   1.123  13.361 -0.0986 -0.2233  0.1325
  855MPD2    H512563   4.144   1.183  13.314 -1.3713 -1.2051  0.6869
  855MPD2    N112564   4.196   0.797  13.714  0.0590  0.2094  0.5638
  855MPD2    H712565   4.239   0.727  13.654  0.1645 -0.6464  1.6291
  856MPD2     C12566   1.639   2.185  14.489 -0.2617 -1.0610 -0.0729
  856MPD2    C112567   1.674   2.208  14.361 -0.3601  0.5833  0.5882
  856MPD2    C212568   1.605   2.295  14.280 -0.0192 -0.1091  0.0815
  856MPD2    C312569   1.508   2.378  14.334 -0.7596 -0.3342  0.2467
  856MPD2    C412570   1.480   2.362  14.469  0.3471  0.8131 -0.4998
  856MPD2    C512571   1.544   2.261  14.546 -1.1727 -0.2809 -0.2955
  856MPD2     H12572   1.632   2.302  14.175  0.7385 -0.4149  0.2550
  856MPD2    H112573   1.407   2.416  14.528 -0.6324 -1.2689  0.2218
  856MPD2    H212574   1.686   2.105  14.546  1.3774 -0.3070 -0.3501
  856MPD2    H312575   1.512   2.235  14.647 -1.4069  0.4274 -0.1919
  856MPD2     N12576   1.438   2.482  14.266  0.1480  0.2479 -0.1297
  856MPD2    H512577   1.385   2.552  14.317  0.7002  1.8987 -1.8154
  856MPD2    N112578   1.786   2.141  14.299  0.3486  0.4711  0.3107
  856MPD2    H712579   1.804   2.176  14.206  0.5601 -1.5586 -0.3956
  857MPD2     C12580   3.543   4.105  12.498  0.0084 -0.1998 -0.5674
  857MPD2    C112581   3.678   4.086  12.525  0.4036 -0.8693  0.7370
  857MPD2    C212582   3.758   4.192  12.566 -0.4553  0.2910  0.1211
  857MPD2    C312583   3.700   4.314  12.583  0.1895  0.0328  0.6682
  857MPD2    C412584   3.565   4.336  12.574  0.2859 -0.7411 -0.2824
  857MPD2    C512585   3.486   4.223  12.541 -0.2125  0.2760 -0.0045
  857MPD2     H12586   3.866   4.182  12.573 -0.2739  3.4012  1.8379
  857MPD2    H112587   3.516   4.430  12.594  1.8769  0.2340 -0.9798
  857MPD2    H212588   3.489   4.018  12.462  2.3239 -1.7722 -0.2862
  857MPD2    H312589   3.378   4.225  12.540 -0.2590 -2.1593  1.3311
  857MPD2     N12590   3.782   4.423  12.617 -0.1661  0.4329 -0.3261
  857MPD2    H512591   3.876   4.409  12.651 -0.4033  0.8866  0.5249
  857MPD2    N112592   3.731   3.961  12.485 -0.1558 -0.0607 -0.1035
  857MPD2    H712593   3.660   3.890  12.475  1.4144 -1.5956 -0.4619
  858MPD2     C12594   3.621   3.556  16.392  0.5146  0.4155 -0.3207
  858MPD2    C112595   3.753   3.520  16.383 -0.2706  0.4056  0.0110
  858MPD2    C212596   3.852   3.611  16.421 -0.2005 -0.4806 -0.2102
  858MPD2    C312597   3.822   3.737  16.465 -0.2732  0.1841  0.0902
  858MPD2    C412598   3.689   3.770  16.476 -0.8752  0.4906  0.8058
  858MPD2    C512599   3.591   3.680  16.439 -0.1418 -0.6904  0.3535
  858MPD2     H12600   3.955   3.579  16.429 -0.3990 -1.2353 -0.6685
  858MPD2    H112601   3.648   3.868  16.497 -1.3908  0.1342  1.4842
  858MPD2    H212602   3.541   3.487  16.370 -0.2755  1.1073  0.3512
  858MPD2    H312603   3.487   3.698  16.461  0.2483  1.0173  0.8088
  858MPD2     N12604   3.908   3.833  16.517  0.7498 -0.2366 -0.3704
  858MPD2    H512605   3.864   3.924  16.525 -0.9822 -1.3295  2.3718
  858MPD2    N112606   3.783   3.386  16.349 -0.0933 -0.0294 -0.2914
  858MPD2    H712607   3.705   3.326  16.369  0.5932 -0.8822 -0.1671
  859MPD2     C12608   2.923   0.608  15.847  0.7015  0.6729  0.2534
  859MPD2    C112609   2.956   0.607  15.713  0.2222  0.1463  0.0634
  859MPD2    C212610   2.979   0.489  15.645 -0.0629  0.6845 -0.0719
  859MPD2    C312611   2.976   0.374  15.717 -0.5800  0.1792 -0.1720
  859MPD2    C412612   2.969   0.383  15.853 -0.2514  0.6736 -0.4692
  859MPD2    C512613   2.934   0.495  15.917 -0.2558 -0.4590  0.0801
  859MPD2     H12614   3.001   0.498  15.540  0.3433  0.4197 -0.0100
  859MPD2    H112615   2.987   0.295  15.915  1.7436  0.4813 -1.3175
  859MPD2    H212616   2.907   0.704  15.894  0.1903  0.0994  1.2551
  859MPD2    H312617   2.928   0.503  16.025  2.8451  0.7326  0.1673
  859MPD2     N12618   2.992   0.247  15.658 -0.1283 -0.2714 -0.6924
  859MPD2    H512619   2.995   0.164  15.716  2.2174  0.0048 -0.4183
  859MPD2    N112620   2.978   0.735  15.653  0.7578 -0.2933  0.0361
  859MPD2    H712621   2.974   0.816  15.714 -0.5445 -0.5405  0.2775
  860MPD2     C12622   0.355   0.754  11.362  0.5838  0.0490 -0.3865
  860MPD2    C112623   0.425   0.829  11.460 -0.0332  0.8053 -0.3515
  860MPD2    C212624   0.356   0.889  11.561 -0.0338 -0.5868 -0.0946
  860MPD2    C312625   0.225   0.860  11.584 -0.3185 -0.9363  0.1366
  860MPD2    C412626   0.159   0.789  11.493  0.0403 -0.0601  0.2466
  860MPD2    C512627   0.223   0.736  11.384 -0.3517 -0.4309  0.3510
  860MPD2     H12628   0.415   0.937  11.638 -0.5135  0.4504 -0.3659
  860MPD2    H112629   0.053   0.776  11.507 -0.1123  1.2977  0.3066
  860MPD2    H212630   0.396   0.710  11.272  2.0707  1.0860 -0.2254
  860MPD2    H312631   0.171   0.672  11.313 -0.0492  1.3047 -1.4154
  860MPD2     N12632   0.158   0.908  11.698 -0.3479  0.8019  0.8242
  860MPD2    H512633   0.210   0.968  11.761 -3.1783  2.3823  1.6297
  860MPD2    N112634   0.569   0.835  11.464  0.5303  0.3595  0.5640
  860MPD2    H712635   0.606   0.901  11.532 -2.9887  0.7346  2.1534
  861MPD2     C12636   4.306   3.701  11.013  0.3238 -0.0304 -0.1734
  861MPD2    C112637   4.286   3.823  11.084 -0.4090 -0.0899 -0.3345
  861MPD2    C212638   4.183   3.902  11.026 -0.1321  0.5324 -0.2860
  861MPD2    C312639   4.119   3.866  10.905  0.1196  0.8998  0.5586
  861MPD2    C412640   4.139   3.745  10.850  0.4049 -0.6806 -0.1595
  861MPD2    C512641   4.231   3.660  10.904  0.5947  0.0690  0.1538
  861MPD2     H12642   4.154   3.990  11.082  1.1424  0.3279  0.7033
  861MPD2    H112643   4.092   3.707  10.760 -0.0789  1.3399 -0.7644
  861MPD2    H212644   4.388   3.637  11.042 -0.7793 -0.8277  1.2119
  861MPD2    H312645   4.269   3.572  10.854  0.8389  0.1085  0.2735
  861MPD2     N12646   4.030   3.949  10.836 -0.1742 -0.4912  0.0002
  861MPD2    H512647   3.979   3.897  10.765 -1.1574  0.7768 -0.2090
  861MPD2    N112648   4.358   3.864  11.197 -0.8611  0.6416  0.7062
  861MPD2    H712649   4.329   3.950  11.243 -0.1031  1.7645 -0.9074
  862MPD2     C12650   3.937   4.031  10.150 -0.5123  0.2343  0.5826
  862MPD2    C112651   3.973   3.973  10.271  0.2137  0.2181  0.2779
  862MPD2    C212652   4.036   3.846  10.265  0.2209  0.2101 -0.3321
  862MPD2    C312653   4.048   3.772  10.149  0.2598 -0.2793  0.0697
  862MPD2    C412654   4.001   3.829  10.033  0.5141  0.5323  0.0647
  862MPD2    C512655   3.942   3.956  10.039 -0.3094  0.4537 -0.2066
  862MPD2     H12656   4.063   3.804  10.361  1.6961  1.1442 -0.3543
  862MPD2    H112657   3.997   3.770   9.942  0.5168  0.6184  0.0080
  862MPD2    H212658   3.884   4.125  10.139 -2.4520 -0.8913  0.3262
  862MPD2    H312659   3.909   4.006   9.949 -0.2468 -2.1454 -1.6806
  862MPD2     N12660   4.108   3.647  10.141  0.1082  0.1194  0.3536
  862MPD2    H512661   4.106   3.605  10.049  0.9737 -3.9029  2.1995
  862MPD2    N112662   3.969   4.038  10.389  0.1330  0.7435 -0.3888
  862MPD2    H712663   3.971   3.983  10.474  0.6105 -1.4375 -1.8106
  863MPD2     C12664   1.977   2.907  16.931 -0.3346 -0.8331 -0.1962
  863MPD2    C112665   1.988   2.788  16.869  0.0335 -0.1404 -0.1662
  863MPD2    C212666   2.085   2.698  16.907 -0.7794 -0.5388  0.1467
  863MPD2    C312667   2.177   2.726  17.010 -0.0882 -0.1722  0.8461
  863MPD2    C412668   2.171   2.851  17.067 -0.0627 -0.0217 -0.4707
  863MPD2    C512669   2.073   2.939  17.027  0.0843 -0.3144  0.5133
  863MPD2     H12670   2.083   2.599  16.862 -0.1775  0.5594 -2.3080
  863MPD2    H112671   2.252   2.886  17.130 -0.3307 -2.1746  1.0687
  863MPD2    H212672   1.907   2.984  16.902 -0.7457 -0.4013  1.9426
  863MPD2    H312673   2.079   3.042  17.059  0.5044 -0.3072  0.4096
  863MPD2     N12674   2.281   2.639  17.044  0.6804 -0.3619 -0.4208
  863MPD2    H512675   2.341   2.681  17.115  0.1525 -3.1646  1.6589
  863MPD2    N112676   1.890   2.755  16.768  0.1517 -1.1508 -0.4987
  863MPD2    H712677   1.798   2.794  16.787  1.3605  2.2668 -1.7294
  864MPD2     C12678   2.339   3.847  17.290  0.4609 -0.0593  0.5362
  864MPD2    C112679   2.347   3.748  17.190 -0.3270 -0.4993  0.0026
  864MPD2    C212680   2.384   3.789  17.067  0.9694 -0.4443 -0.7081
  864MPD2    C312681   2.432   3.917  17.034 -0.0680  0.2595  0.5155
  864MPD2    C412682   2.408   4.015  17.132 -0.9277 -0.0023  0.6410
  864MPD2    C512683   2.367   3.978  17.257 -0.3734 -0.2735 -0.6290
  864MPD2     H12684   2.387   3.714  16.990 -2.3509 -1.8420  0.5512
  864MPD2    H112685   2.422   4.120  17.111 -2.2405  0.3441  1.4493
  864MPD2    H212686   2.316   3.826  17.393 -3.0607  2.6751  0.2887
  864MPD2    H312687   2.371   4.049  17.339  0.3770 -1.3992  0.3046
  864MPD2     N12688   2.497   3.955  16.910 -0.0145  0.1589 -0.0286
  864MPD2    H512689   2.512   4.052  16.887  2.8863 -0.7759 -2.0447
  864MPD2    N112690   2.323   3.615  17.220  0.2240 -0.3067 -0.0563
  864MPD2    H712691   2.315   3.600  17.320 -0.8057 -0.8406 -0.2160
  865MPD2     C12692   2.851   4.135  16.104 -0.0066 -0.4561  0.3783
  865MPD2    C112693   2.799   4.052  16.195  0.3538 -0.5013  0.0456
  865MPD2    C212694   2.704   4.097  16.283  0.5118 -0.3098 -0.3587
  865MPD2    C312695   2.700   4.233  16.308 -0.4591 -0.2761  0.2688
  865MPD2    C412696   2.766   4.321  16.219 -0.1382  0.3812 -0.8791
  865MPD2    C512697   2.827   4.264  16.113 -0.1892  0.8095  1.2252
  865MPD2     H12698   2.644   4.034  16.349  1.3835  0.6084  1.3128
  865MPD2    H112699   2.770   4.428  16.232 -0.4838  0.4499 -1.3432
  865MPD2    H212700   2.897   4.088  16.019  0.2305  0.6615 -0.1148
  865MPD2    H312701   2.855   4.330  16.031  1.4754 -1.2112  0.1646
  865MPD2     N12702   2.641   4.295  16.417  0.3434  0.1134  0.3275
  865MPD2    H512703   2.632   4.396  16.417 -0.3453  0.0508  1.5869
  865MPD2    N112704   2.825   3.913  16.176 -0.6074 -0.2911  0.3297
  865MPD2    H712705   2.881   3.885  16.096  0.9943 -0.0719  1.3812
  866MPD2     C12706   0.433   4.459  11.214 -0.4096  0.0667  0.1130
  866MPD2    C112707   0.394   4.454  11.083  0.7751 -0.4044 -0.3120
  866MPD2    C212708   0.264   4.431  11.051  0.5822  0.2584  0.1952
  866MPD2    C312709   0.173   4.409  11.150  0.4212  0.8507 -0.2630
  866MPD2    C412710   0.214   4.426  11.279 -0.5187  0.5261  0.2103
  866MPD2    C512711   0.340   4.456  11.311  0.1878  0.7873 -0.0177
  866MPD2     H12712   0.235   4.426  10.947  1.0198 -3.0330  0.2230
  866MPD2    H112713   0.150   4.413  11.365  0.0542 -1.2183  0.3652
  866MPD2    H212714   0.533   4.491  11.243 -0.5971 -0.2875  1.1630
  866MPD2    H312715   0.375   4.464  11.413 -1.3341 -1.6373  0.6896
  866MPD2     N12716   0.033   4.375  11.131 -0.2371  0.3944  0.1869
  866MPD2    H512717   4.691   4.400  11.204  0.3900  0.7890  0.6117
  866MPD2    N112718   0.485   4.482  10.980 -0.1049  1.0215  0.1645
  866MPD2    H712719   0.449   4.490  10.886  0.5572 -1.1966 -0.2588
  867MPD2     C12720   1.322   3.771  16.607 -1.2830  0.7085  0.3088
  867MPD2    C112721   1.344   3.727  16.737 -0.6715  0.2243 -0.5188
  867MPD2    C212722   1.392   3.817  16.828  0.5159  0.0472  0.0739
  867MPD2    C312723   1.400   3.954  16.794 -0.8980 -0.0576 -0.2906
  867MPD2    C412724   1.388   3.993  16.665  0.4413  1.0486  0.6789
  867MPD2    C512725   1.350   3.898  16.568  0.3319  0.8269  0.5658
  867MPD2     H12726   1.419   3.786  16.928 -1.0817  3.1217  1.4912
  867MPD2    H112727   1.400   4.094  16.627  1.5728  0.7170  0.1592
  867MPD2    H212728   1.292   3.701  16.529  1.5831 -1.3948  1.0576
  867MPD2    H312729   1.333   3.936  16.468  1.3940 -0.8662 -0.2437
  867MPD2     N12730   1.440   4.056  16.880 -0.4547 -0.5622 -0.2105
  867MPD2    H512731   1.434   4.152  16.850 -0.2136 -0.4896 -0.0264
  867MPD2    N112732   1.337   3.585  16.766  0.0425 -0.4975 -0.4362
  867MPD2    H712733   1.295   3.535  16.688  1.3690  0.0547 -1.4790
  868MPD2     C12734   4.008   2.900  13.259 -0.1315  0.8038  0.0518
  868MPD2    C112735   3.967   2.817  13.356  0.4944  0.6729  0.2620
  868MPD2    C212736   3.905   2.870  13.467  0.0317  0.3970  0.2750
  868MPD2    C312737   3.894   3.004  13.485  0.2886  0.1871  0.2876
  868MPD2    C412738   3.948   3.089  13.389 -0.2254 -0.2471  0.1947
  868MPD2    C512739   4.008   3.034  13.279 -0.2791  0.5389  0.3490
  868MPD2     H12740   3.879   2.806  13.550  0.3132  1.3996  1.1418
  868MPD2    H112741   3.947   3.198  13.394  2.2527 -0.2295  0.4772
  868MPD2    H212742   4.055   2.868  13.166 -1.0072 -0.0043 -0.1143
  868MPD2    H312743   4.048   3.103  13.205  0.5817 -1.0960 -0.7198
  868MPD2     N12744   3.827   3.056  13.594  0.4657 -0.2499 -0.7417
  868MPD2    H512745   3.805   2.991  13.669 -1.2527  0.4789 -0.6084
  868MPD2    N112746   3.990   2.677  13.339 -0.2142  0.5116  0.1140
  868MPD2    H712747   4.042   2.646  13.257  0.2633 -0.9001  0.9449
  869MPD2     C12748   0.141   0.699   1.874 -0.5603  0.2241  0.2639
  869MPD2    C112749   0.011   0.652   1.859  0.2592  0.1614 -0.2733
  869MPD2    C212750   4.658   0.701   1.754 -0.1378  0.4324  0.2343
  869MPD2    C312751   4.710   0.795   1.665  0.7535 -0.0332 -0.0146
  869MPD2    C412752   0.110   0.848   1.688 -0.4861  0.0710  0.5228
  869MPD2    C512753   0.185   0.812   1.801  0.0359 -0.0427  0.1103
  869MPD2     H12754   4.567   0.652   1.724  1.2066 -2.0608  0.2640
  869MPD2    H112755   0.139   0.934   1.629 -1.3115 -0.0668 -0.0900
  869MPD2    H212756   0.212   0.657   1.945  2.4140  3.0323 -1.1085
  869MPD2    H312757   0.279   0.854   1.833  0.0921 -0.5296  0.5938
  869MPD2     N12758   4.638   0.845   1.548  0.4795  0.6471  0.0303
  869MPD2    H512759   4.690   0.901   1.480  1.6131 -2.5844 -1.7639
  869MPD2    N112760   4.690   0.549   1.946  0.9137 -0.3704 -0.4221
  869MPD2    H712761   0.044   0.512   2.001  0.0689 -4.2385 -1.8421
  870MPD2     C12762   3.659   4.332   1.772  0.5841  0.4557  0.1934
  870MPD2    C112763   3.754   4.361   1.681  0.4646  0.2439 -0.1663
  870MPD2    C212764   3.708   4.425   1.562 -0.4029 -0.4409 -0.4696
  870MPD2    C312765   3.574   4.461   1.544  0.4790 -0.8316 -0.4369
  870MPD2    C412766   3.486   4.441   1.653 -1.1881  0.2256  0.6489
  870MPD2    C512767   3.531   4.377   1.763  0.0699 -0.2916 -0.3280
  870MPD2     H12768   3.782   4.424   1.482 -0.5161 -1.6640 -0.5537
  870MPD2    H112769   3.382   4.468   1.640 -0.9628  1.6429  1.7663
  870MPD2    H212770   3.694   4.291   1.866 -0.3772 -0.9129 -0.0506
  870MPD2    H312771   3.469   4.364   1.851  1.5527 -0.0212  0.7682
  870MPD2     N12772   3.529   4.513   1.424 -0.4475 -0.1169 -0.3256
  870MPD2    H512773   3.593   4.517   1.345  0.3590 -0.1087  0.3301
  870MPD2    N112774   3.883   4.312   1.705  0.4524 -0.2158  0.6601
  870MPD2    H712775   3.900   4.244   1.778 -1.3133  0.3204  1.5839
  871MPD2     C12776   0.637   3.785  16.541 -0.4853 -0.1004 -0.2219
  871MPD2    C112777   0.561   3.774  16.654 -0.5648 -0.2349  0.2142
  871MPD2    C212778   0.475   3.666  16.665 -0.0356  0.6700 -0.2054
  871MPD2    C312779   0.475   3.567  16.567  0.0477  0.4013 -0.4643
  871MPD2    C412780   0.538   3.582  16.450  0.8091 -0.2457  0.0647
  871MPD2    C512781   0.628   3.689  16.444  0.4087 -0.4812  0.2472
  871MPD2     H12782   0.407   3.663  16.749 -0.0019 -3.2982 -0.3106
  871MPD2    H112783   0.516   3.522  16.362 -0.4730 -0.6658  0.6600
  871MPD2    H212784   0.707   3.865  16.521 -0.5438 -0.7089 -2.7978
  871MPD2    H312785   0.690   3.697  16.356  0.7586 -1.1123  0.4362
  871MPD2     N12786   0.386   3.460  16.592 -0.0928 -0.3290 -0.6160
  871MPD2    H512787   0.324   3.478  16.670  0.4139 -0.9823 -0.0717
  871MPD2    N112788   0.570   3.878  16.753 -0.0713 -0.3161 -0.0484
  871MPD2    H712789   0.630   3.956  16.729  0.2203 -0.4910  0.1084
  872MPD2     C12790   1.551   1.918  13.536 -0.0482  0.8201  1.0968
  872MPD2    C112791   1.625   1.803  13.523 -0.1077  0.0759 -0.0882
  872MPD2    C212792   1.614   1.710  13.618  0.1047  0.0178  0.7251
  872MPD2    C312793   1.537   1.731  13.732  0.4230 -0.0160 -0.2468
  872MPD2    C412794   1.467   1.849  13.747  0.1575 -0.4184  0.0712
  872MPD2    C512795   1.474   1.942  13.646  0.5362 -0.2530  0.1416
  872MPD2     H12796   1.677   1.623  13.603  0.7460  0.6210 -0.0478
  872MPD2    H112797   1.408   1.868  13.836  1.0587 -1.0046  0.7996
  872MPD2    H212798   1.553   1.995  13.459 -0.2918  0.0266  0.2880
  872MPD2    H312799   1.406   2.026  13.642 -1.4050 -1.7906  1.2265
  872MPD2     N12800   1.528   1.636  13.837  0.0287 -0.2224  0.6013
  872MPD2    H512801   1.458   1.651  13.909  0.2018 -1.5201  1.0371
  872MPD2    N112802   1.696   1.764  13.406 -0.7973 -0.6158 -0.7792
  872MPD2    H712803   1.762   1.688  13.414  0.2839  0.6347  2.2746
  873MPD2     C12804   2.497   1.986   0.856 -0.0325  0.0780 -0.1921
  873MPD2    C112805   2.603   1.919   0.917 -0.6812  0.0301  0.7058
  873MPD2    C212806   2.646   1.797   0.870 -0.5881  1.2412 -0.2589
  873MPD2    C312807   2.587   1.743   0.759  0.4580 -1.0013 -0.5427
  873MPD2    C412808   2.476   1.807   0.705  0.3992  0.2982  0.0701
  873MPD2    C512809   2.440   1.934   0.749 -0.3546  0.1040  0.0081
  873MPD2     H12810   2.738   1.756   0.911 -0.6605  0.2194 -1.0991
  873MPD2    H112811   2.429   1.788   0.609  0.8239 -0.5905  0.0357
  873MPD2    H212812   2.457   2.081   0.889  2.5322  1.0356  0.1820
  873MPD2    H312813   2.368   1.986   0.687 -0.3368  0.8588  0.6284
  873MPD2     N12814   2.635   1.615   0.698  0.1640  0.0775  0.0558
  873MPD2    H512815   2.592   1.585   0.612 -1.5296 -1.1883  1.3580
  873MPD2    N112816   2.665   1.988   1.023  0.2341  0.0452 -0.6142
  873MPD2    H712817   2.619   2.063   1.075 -0.8721 -0.3139 -1.0731
  874MPD2     C12818   2.909   1.919  16.331 -0.1651  0.6311  0.6640
  874MPD2    C112819   3.002   1.869  16.425  0.4147 -0.1891 -0.2186
  874MPD2    C212820   3.124   1.926  16.425 -0.1431 -0.4473  0.5397
  874MPD2    C312821   3.154   2.042  16.356 -0.2544  0.1847 -0.3173
  874MPD2    C412822   3.066   2.091  16.262  0.0378  0.1838 -0.7028
  874MPD2    C512823   2.944   2.030  16.256  0.1660 -0.0896  0.1332
  874MPD2     H12824   3.205   1.888  16.486  0.0288 -0.3643  0.3634
  874MPD2    H112825   3.081   2.182  16.205  0.8960 -1.3153 -2.8571
  874MPD2    H212826   2.818   1.864  16.309 -0.2979  1.1544 -0.0563
  874MPD2    H312827   2.866   2.075  16.195  0.4056  0.3608  0.1563
  874MPD2     N12828   3.276   2.097  16.379  0.4894  0.6008 -0.1912
  874MPD2    H512829   3.332   2.055  16.452  2.0965  0.2950 -1.5949
  874MPD2    N112830   2.974   1.758  16.509 -0.4755 -0.0591 -0.4848
  874MPD2    H712831   2.884   1.711  16.500 -2.5700  3.8282 -0.1979
  875MPD2     C12832   4.254   4.462  15.022  0.0265  0.3335 -0.2375
  875MPD2    C112833   4.155   4.559  14.995  0.2149 -0.0636 -0.0141
  875MPD2    C212834   4.092   4.628  15.097  0.1700 -0.3998 -0.1079
  875MPD2    C312835   4.121   4.598  15.226 -0.4011 -0.0556  0.4677
  875MPD2    C412836   4.203   4.491  15.255 -0.9615 -0.2508 -0.0361
  875MPD2    C512837   4.275   4.430  15.154  0.0443  0.5574 -0.3052
  875MPD2     H12838   4.025   4.713  15.084  1.4042  0.9154  1.9951
  875MPD2    H112839   4.229   4.468  15.357 -1.6468  0.4865  0.3050
  875MPD2    H212840   4.315   4.408  14.951 -1.7148 -2.0436  0.0802
  875MPD2    H312841   4.336   4.344  15.178  0.8553  0.9624 -0.9218
  875MPD2     N12842   4.066   4.682  15.330  0.3669 -0.3112 -0.6684
  875MPD2    H512843   4.000   0.029  15.296  1.1414  0.5467 -0.4105
  875MPD2    N112844   4.101   4.577  14.865  0.7948  0.7495 -0.2288
  875MPD2    H712845   4.015   4.631  14.862  0.9147  0.8450 -1.8915
  876MPD2     C12846   3.182   1.554  16.345  0.3666 -0.0063  0.3885
  876MPD2    C112847   3.132   1.487  16.233  0.9828 -0.2263 -0.4601
  876MPD2    C212848   3.119   1.350  16.234 -0.0065 -0.9543  0.6296
  876MPD2    C312849   3.135   1.283  16.347 -0.4809 -0.3672 -0.4663
  876MPD2    C412850   3.189   1.347  16.459  0.4106 -0.3216 -0.0918
  876MPD2    C512851   3.214   1.483  16.461  0.4480 -0.4050 -0.1524
  876MPD2     H12852   3.089   1.294  16.146 -3.3943  4.0056 -1.3619
  876MPD2    H112853   3.218   1.290  16.546 -0.9927 -3.0939 -1.4271
  876MPD2    H212854   3.213   1.658  16.338  0.3276  0.0691  1.3666
  876MPD2    H312855   3.268   1.540  16.536  0.4685  1.5575 -1.6697
  876MPD2     N12856   3.117   1.144  16.334  0.5782  0.1314  0.2017
  876MPD2    H512857   3.088   1.112  16.242 -0.0165 -0.8643  0.7313
  876MPD2    N112858   3.139   1.555  16.107 -0.1043 -0.6054  0.0792
  876MPD2    H712859   3.186   1.645  16.104  0.5921 -0.9918 -0.5172
  877MPD2     C12860   2.888   1.517  15.298 -0.0741 -0.1574 -0.1945
  877MPD2    C112861   3.008   1.591  15.306 -0.4387 -0.4677 -0.3344
  877MPD2    C212862   3.062   1.648  15.186  0.7023 -0.0366  0.7049
  877MPD2    C312863   2.997   1.624  15.067 -0.0506 -0.0360 -0.2717
  877MPD2    C412864   2.874   1.560  15.068 -0.3469 -0.4431 -0.8230
  877MPD2    C512865   2.824   1.500  15.175 -0.1737 -0.2841 -0.5287
  877MPD2     H12866   3.153   1.704  15.200  0.5246 -0.1546  2.4363
  877MPD2    H112867   2.833   1.536  14.970 -2.1530 -1.1475  0.1147
  877MPD2    H212868   2.843   1.472  15.386  2.9652  0.1097  1.4978
  877MPD2    H312869   2.738   1.434  15.172  1.2160 -1.9596 -3.2172
  877MPD2     N12870   3.048   1.663  14.937  0.5029 -0.2342  0.0404
  877MPD2    H512871   2.999   1.620  14.859 -1.1724 -1.3922  1.7453
  877MPD2    N112872   3.076   1.621  15.427 -0.2190  0.4155 -0.1073
  877MPD2    H712873   3.160   1.678  15.414 -0.2845  0.1380 -1.7737
  878MPD2     C12874   3.434   0.633  12.739  0.2448  0.1205  0.4256
  878MPD2    C112875   3.357   0.743  12.783  0.0270 -0.3917  0.1986
  878MPD2    C212876   3.357   0.777  12.918  0.5085  0.1428  0.6357
  878MPD2    C312877   3.428   0.709  13.008 -0.2728 -0.6847 -0.4349
  878MPD2    C412878   3.495   0.593  12.971  0.0947  0.4103  0.3932
  878MPD2    C512879   3.495   0.562  12.839  0.2399 -0.3325  0.5023
  878MPD2     H12880   3.298   0.857  12.961  1.7803  0.8991  1.0013
  878MPD2    H112881   3.562   0.543  13.040 -0.6148  0.2920  0.9988
  878MPD2    H212882   3.445   0.601  12.636  0.3694  0.4334  0.3421
  878MPD2    H312883   3.560   0.479  12.811 -1.9431 -1.2780 -1.7548
  878MPD2     N12884   3.425   0.749  13.142  0.3857  0.3742  0.2510
  878MPD2    H512885   3.386   0.841  13.154 -0.2765  0.4069 -2.1714
  878MPD2    N112886   3.280   0.819  12.692 -0.0540 -0.2115  0.1015
  878MPD2    H712887   3.257   0.914  12.720  1.1777  0.3550 -0.8294
  879MPD2     C12888   2.804   2.303  16.974  0.7670  0.6497  0.0160
  879MPD2    C112889   2.873   2.202  17.038 -0.0188  0.1868  0.5962
  879MPD2    C212890   2.846   2.073  17.004  0.0999 -0.4497  0.4382
  879MPD2    C312891   2.733   2.045  16.917  0.1099  0.6572  0.3370
  879MPD2    C412892   2.669   2.148  16.852 -0.4890  1.0823 -0.1100
  879MPD2    C512893   2.707   2.280  16.881 -0.0279 -0.4342  0.2039
  879MPD2     H12894   2.896   1.987  17.047 -0.2487 -1.2338 -0.7368
  879MPD2    H112895   2.594   2.116  16.781 -3.8483  3.3753  2.4149
  879MPD2    H212896   2.820   2.409  16.988  2.8944  0.7508 -3.0183
  879MPD2    H312897   2.653   2.361  16.834  0.7733  0.5545  1.0135
  879MPD2     N12898   2.694   1.916  16.878 -0.5304 -0.2410  0.2903
  879MPD2    H512899   2.607   1.912  16.826  0.5159  1.5180 -1.5970
  879MPD2    N112900   2.967   2.238  17.130  0.9882  0.2602  0.3568
  879MPD2    H712901   2.982   2.338  17.138 -1.1590  0.5127  1.3386
  880MPD2     C12902   4.021   4.137   0.615 -0.1378 -0.9356 -0.0812
  880MPD2    C112903   4.142   4.188   0.645  0.4513  0.1695 -0.7596
  880MPD2    C212904   4.243   4.111   0.702 -0.6828  0.4895  0.1032
  880MPD2    C312905   4.215   3.990   0.741 -0.7981  0.2477 -0.2396
  880MPD2    C412906   4.085   3.938   0.720 -0.1408 -0.4199 -0.6785
  880MPD2    C512907   3.991   4.010   0.650  0.0989  0.3471  0.0083
  880MPD2     H12908   4.344   4.145   0.722 -0.3665 -0.7979  0.7295
  880MPD2    H112909   4.054   3.840   0.756 -2.1373  1.1565  1.8596
  880MPD2    H212910   3.948   4.194   0.559 -0.2636 -0.8885  0.1310
  880MPD2    H312911   3.894   3.970   0.625 -0.4106  0.9438  1.0589
  880MPD2     N12912   4.316   3.911   0.812 -0.3318 -0.3814 -0.3214
  880MPD2    H512913   4.412   3.946   0.817  0.1630 -1.9329  0.8536
  880MPD2    N112914   4.162   4.312   0.593  0.3072 -0.4277  0.3111
  880MPD2    H712915   4.084   4.359   0.548  0.4639 -0.5312 -0.0618
  881MPD2     C12916   0.137   0.220   0.085 -0.4016 -0.1635 -0.2718
  881MPD2    C112917   0.040   0.134   0.026 -0.5815  0.5325  0.3340
  881MPD2    C212918   4.668   0.080   0.112  0.4482 -0.0089 -0.5970
  881MPD2    C312919   4.650   0.132   0.241  0.0303  0.7666 -0.2023
  881MPD2    C412920   4.720   0.246   0.276  0.2642  0.1042 -0.5950
  881MPD2    C512921   0.103   0.288   0.196 -0.0759 -0.5036  0.5238
  881MPD2     H12922   4.610   4.723   0.069 -0.4226  0.7840 -0.9174
  881MPD2    H112923   4.704   0.300   0.369  0.0108 -1.6370  0.3733
  881MPD2    H212924   0.228   0.256   0.037 -1.8399 -1.3162 -3.9090
  881MPD2    H312925   0.169   0.361   0.241  0.2541  0.6411 -1.7765
  881MPD2     N12926   4.560   0.084   0.332 -0.6923  0.0408 -0.2695
  881MPD2    H512927   4.549   0.138   0.417  1.0134  1.6967 -1.0833
  881MPD2    N112928   0.065   0.069  17.595  0.1994  0.8448 -0.5494
  881MPD2    H712929   4.722   4.720  17.570  1.1372 -0.7431  1.4937
  882MPD2     C12930   2.794   1.668  14.262  0.2521  0.3787 -0.2168
  882MPD2    C112931   2.858   1.558  14.312  0.2618 -0.1234 -0.3722
  882MPD2    C212932   2.816   1.432  14.270 -0.0456  0.0872  0.7988
  882MPD2    C312933   2.696   1.417  14.196  0.1184  0.3120  0.3771
  882MPD2    C412934   2.631   1.528  14.141 -0.4218 -0.0573 -0.5316
  882MPD2    C512935   2.687   1.653  14.173  0.5258  0.2723  0.0821
  882MPD2     H12936   2.875   1.347  14.303  1.1419  0.6476  0.1090
  882MPD2    H112937   2.538   1.525  14.086 -0.0202 -0.2640 -1.1941
  882MPD2    H212938   2.822   1.768  14.292 -0.3134  0.4600  0.0552
  882MPD2    H312939   2.630   1.740  14.142  1.9674  0.0680 -3.1447
  882MPD2     N12940   2.635   1.287  14.194  0.0027  0.3136 -0.2291
  882MPD2    H512941   2.545   1.283  14.147 -0.0037  0.1778 -0.2051
  882MPD2    N112942   2.959   1.570  14.409 -0.0466  0.2667 -0.2516
  882MPD2    H712943   3.012   1.486  14.431 -0.6767 -0.1509 -0.3010
  883MPD2     C12944   0.334   1.364  15.808 -0.1958 -0.2640 -0.0473
  883MPD2    C112945   0.468   1.332  15.786  0.1683  0.6112  0.1852
  883MPD2    C212946   0.566   1.385  15.871  0.6839  0.1274  0.3171
  883MPD2    C312947   0.528   1.470  15.966  0.0999 -0.1264 -0.4804
  883MPD2    C412948   0.391   1.490  16.003  0.5195  0.4538 -0.3717
  883MPD2    C512949   0.303   1.429  15.920 -0.2850 -0.0956  0.6367
  883MPD2     H12950   0.667   1.359  15.842  0.0623 -0.1635 -1.5960
  883MPD2    H112951   0.356   1.553  16.085 -1.6178  0.6004 -1.4217
  883MPD2    H212952   0.250   1.318  15.757  1.9933 -1.3257 -2.7042
  883MPD2    H312953   0.197   1.443  15.940 -0.3582 -0.9837  0.8871
  883MPD2     N12954   0.632   1.535  16.038  0.2997 -0.4857  0.1375
  883MPD2    H512955   0.729   1.512  16.018  1.8779  2.2652  4.4914
  883MPD2    N112956   0.508   1.233  15.694  0.1174 -0.6254 -0.1836
  883MPD2    H712957   0.609   1.218  15.687  0.3717 -0.2459  2.5608
  884MPD2     C12958   2.210   2.144  15.254 -0.4489  0.2465 -0.4105
  884MPD2    C112959   2.202   2.268  15.197  0.6398  0.1450  0.1104
  884MPD2    C212960   2.073   2.310  15.165 -0.3921  0.0111 -0.1234
  884MPD2    C312961   1.961   2.235  15.190 -0.2227  0.0508 -0.3971
  884MPD2    C412962   1.975   2.106  15.232 -0.7897  0.0033  0.4002
  884MPD2    C512963   2.099   2.061  15.264  0.3295  0.4526  0.6644
  884MPD2     H12964   2.068   2.417  15.149 -0.5112  0.1864  1.1398
  884MPD2    H112965   1.889   2.042  15.243  0.3104 -2.0524 -3.1012
  884MPD2    H212966   2.300   2.108  15.302 -0.7368  1.6561  1.1914
  884MPD2    H312967   2.116   1.962  15.304  1.1096  0.7573  1.1058
  884MPD2     N12968   1.832   2.293  15.186  0.6004  0.1452 -0.4931
  884MPD2    H512969   1.813   2.384  15.146 -1.5991 -0.0456  0.1086
  884MPD2    N112970   2.321   2.345  15.181 -0.4798  0.2613 -0.0423
  884MPD2    H712971   2.398   2.302  15.230 -1.3153 -1.0848  0.0884
  885MPD2     C12972   4.689   2.799   0.441 -0.5543  0.5508 -0.1918
  885MPD2    C112973   0.027   2.691   0.384  0.6694 -1.0086  0.3500
  885MPD2    C212974   0.026   2.686   0.245  0.4550 -0.1681  0.1910
  885MPD2    C312975   4.703   2.785   0.170 -0.1855 -0.3876 -0.6297
  885MPD2    C412976   4.653   2.907   0.233  0.0237  0.0500  0.2850
  885MPD2    C512977   4.638   2.901   0.370  0.7507  0.0150  0.1079
  885MPD2     H12978   0.043   2.596   0.187 -2.3477 -0.7293  0.2342
  885MPD2    H112979   4.619   2.993   0.176  1.7840  0.5065 -0.0566
  885MPD2    H212980   4.673   2.805   0.548  0.4898  1.2363 -0.0849
  885MPD2    H312981   4.585   2.981   0.419 -1.6427 -0.9088 -0.9464
  885MPD2     N12982   0.006   2.767   0.029 -0.5532 -0.4271 -0.4399
  885MPD2    H512983   0.074   2.699  17.691  0.8440  0.4361  0.6488
  885MPD2    N112984   0.085   2.587   0.465  0.4499  0.5401  0.3229
  885MPD2    H712985   0.074   2.589   0.566 -1.4917 -0.4150  0.1239
  886MPD2     C12986   1.741   0.685  15.177  0.5678 -0.5521  0.3588
  886MPD2    C112987   1.844   0.735  15.260  0.3185  0.0974 -0.2677
  886MPD2    C212988   1.861   0.874  15.273  0.2747  0.7710  0.0072
  886MPD2    C312989   1.774   0.962  15.201 -0.0653 -0.2912  0.0149
  886MPD2    C412990   1.662   0.904  15.134  0.3928  0.0714 -0.3415
  886MPD2    C512991   1.642   0.771  15.125 -0.3989  0.0566 -0.6040
  886MPD2     H12992   1.953   0.913  15.315  2.2943 -2.0451 -1.7946
  886MPD2    H112993   1.582   0.964  15.093  0.5750 -1.1605 -2.5063
  886MPD2    H212994   1.712   0.581  15.186 -0.6205 -0.2156  0.3635
  886MPD2    H312995   1.560   0.731  15.067 -0.3884 -1.5078  0.4586
  886MPD2     N12996   1.788   1.100  15.193  0.2010 -0.2665  0.1759
  886MPD2    H512997   1.742   1.150  15.118  0.8526  1.1272  0.6917
  886MPD2    N112998   1.946   0.651  15.307 -0.0016 -0.7320 -0.1671
  886MPD2    H712999   1.998   0.690  15.385 -0.4272  1.3954 -0.9356
  887MPD2     C13000   2.580   0.769  15.609  0.1278  0.3185 -0.0092
  887MPD2    C113001   2.499   0.786  15.496 -0.7403 -0.2881 -0.1180
  887MPD2    C213002   2.497   0.913  15.446 -0.6832  0.2776  0.8573
  887MPD2    C313003   2.551   1.022  15.510 -0.3293 -0.0894  0.2603
  887MPD2    C413004   2.618   0.998  15.623  0.1761 -0.2003 -0.2298
  887MPD2    C513005   2.648   0.875  15.660 -0.4925 -0.0215 -0.1250
  887MPD2     H13006   2.443   0.949  15.359  0.6030  0.2000  0.0288
  887MPD2    H113007   2.675   1.076  15.672  2.1337 -1.8033  0.0067
  887MPD2    H213008   2.603   0.672  15.652 -1.0400 -0.6665 -1.6417
  887MPD2    H313009   2.698   0.858  15.755 -1.2033 -2.3383 -0.1681
  887MPD2     N13010   2.529   1.153  15.460 -0.0151 -0.1362 -0.0674
  887MPD2    H513011   2.475   1.159  15.374  0.4804  0.5321 -0.3278
  887MPD2    N113012   2.417   0.690  15.442  1.0081 -0.3440 -0.0217
  887MPD2    H713013   2.367   0.725  15.361  0.9173  1.6352  0.8771
  888MPD2     C13014   4.251   0.880  14.827 -0.3736 -0.0789 -0.7037
  888MPD2    C113015   4.236   0.950  14.942 -0.0466  0.3932 -0.3283
  888MPD2    C213016   4.294   1.078  14.951  0.1679  0.8382  0.9730
  888MPD2    C313017   4.388   1.127  14.860  0.1989  0.9796  0.2590
  888MPD2    C413018   4.397   1.056  14.739 -0.3440 -0.1027 -0.1258
  888MPD2    C513019   4.324   0.936  14.725  0.0815  0.4672 -0.2541
  888MPD2     H13020   4.285   1.143  15.037  1.2905  1.5794  0.5386
  888MPD2    H113021   4.465   1.086  14.661 -0.3330  0.6819  0.1870
  888MPD2    H213022   4.194   0.787  14.824  1.1829 -1.0216 -0.8623
  888MPD2    H313023   4.327   0.886  14.628 -0.2350 -0.2607  0.1105
  888MPD2     N13024   4.452   1.246  14.892 -0.4608  0.0818  0.0533
  888MPD2    H513025   4.442   1.283  14.987 -0.7978 -0.3941  0.2023
  888MPD2    N113026   4.152   0.899  15.046 -0.2749  0.8970  0.1783
  888MPD2    H713027   4.110   0.810  15.024 -2.0938  1.5089  1.2177
  889MPD2     C13028   3.837   0.520  12.383  0.4561  0.5497 -0.5541
  889MPD2    C113029   3.830   0.476  12.516  0.8118  0.1847 -0.0508
  889MPD2    C213030   3.802   0.579  12.609 -0.6628  0.8605  0.4602
  889MPD2    C313031   3.756   0.698  12.571 -0.1326  0.1470 -1.0823
  889MPD2    C413032   3.743   0.732  12.439 -0.0691 -0.2605  0.1533
  889MPD2    C513033   3.789   0.642  12.349  0.5620  0.7111 -0.9823
  889MPD2     H13034   3.798   0.561  12.715  1.1350 -1.6396  0.0996
  889MPD2    H113035   3.703   0.824  12.399  1.2601  0.4760  0.5058
  889MPD2    H213036   3.857   0.448  12.304 -0.0493  1.2712 -1.3430
  889MPD2    H313037   3.781   0.663  12.243 -2.5103  0.8975 -0.7091
  889MPD2     N13038   3.716   0.781  12.677  0.0257  0.1266 -0.1526
  889MPD2    H513039   3.749   0.760  12.771  0.9342 -0.1277 -0.5284
  889MPD2    N113040   3.882   0.363  12.566 -0.5430 -0.2621 -0.7798
  889MPD2    H713041   3.888   0.360  12.667  2.1983  0.1443 -0.9306
  890MPD2     C13042   3.017   2.410  14.549  0.5169 -0.4451 -0.1382
  890MPD2    C113043   3.092   2.514  14.597 -0.2393  0.3169 -0.5325
  890MPD2    C213044   3.092   2.533  14.737  1.1124  0.0687 -0.1463
  890MPD2    C313045   3.057   2.428  14.820 -0.6551 -0.6545 -0.9671
  890MPD2    C413046   2.976   2.327  14.767 -0.0243  0.2341  0.5147
  890MPD2    C513047   2.961   2.319  14.628  0.4671 -0.1595 -0.0307
  890MPD2     H13048   3.141   2.618  14.783  0.4677  1.6040 -2.3016
  890MPD2    H113049   2.932   2.250  14.829 -2.1583  1.7852  0.9758
  890MPD2    H213050   3.010   2.410  14.441  0.7105 -1.7327 -0.1483
  890MPD2    H313051   2.911   2.233  14.585  1.6548 -0.5417 -0.6521
  890MPD2     N13052   3.086   2.439  14.955 -0.0472 -0.6222 -0.0156
  890MPD2    H513053   3.129   2.522  14.995  0.9348 -2.2280  2.2740
  890MPD2    N113054   3.148   2.609  14.504 -1.1348  0.1038  0.0514
  890MPD2    H713055   3.123   2.594  14.407 -0.8238  0.8282 -0.1462
  891MPD2     C13056   1.401   0.469  16.166  0.7124 -0.1985 -0.8177
  891MPD2    C113057   1.353   0.526  16.280 -0.5135  0.3746 -0.5746
  891MPD2    C213058   1.392   0.479  16.406 -0.5089 -0.7276  0.6394
  891MPD2    C313059   1.489   0.383  16.416  0.0036  0.6885 -0.1206
  891MPD2    C413060   1.542   0.329  16.300  0.2643  0.2036 -0.7439
  891MPD2    C513061   1.500   0.374  16.175 -0.3214  0.2546  0.0559
  891MPD2     H13062   1.356   0.515  16.502  0.3848 -0.1417  0.7537
  891MPD2    H113063   1.610   0.245  16.306  1.3117  1.1551  0.6308
  891MPD2    H213064   1.370   0.508  16.069  0.9846  0.4872 -0.6295
  891MPD2    H313065   1.533   0.326  16.084 -1.4587 -0.4071 -0.0196
  891MPD2     N13066   1.526   0.341  16.545  0.6074  0.1760 -0.0064
  891MPD2    H513067   1.484   0.384  16.627 -0.3965  2.0098 -1.4933
  891MPD2    N113068   1.255   0.624  16.262  0.5494 -0.4654  0.5301
  891MPD2    H713069   1.220   0.634  16.167 -0.1131  3.6533  1.2267
  892MPD2     C13070   2.504   1.394  14.885  0.3650 -0.3543 -0.5174
  892MPD2    C113071   2.411   1.393  14.782  0.0506  0.2291  0.2212
  892MPD2    C213072   2.413   1.291  14.692 -0.2311  0.1803 -0.0977
  892MPD2    C313073   2.510   1.187  14.699  0.3319 -0.0189  0.5988
  892MPD2    C413074   2.608   1.203  14.789 -0.8945  0.1048  0.8799
  892MPD2    C513075   2.604   1.301  14.889 -0.4543  0.1455  0.4615
  892MPD2     H13076   2.333   1.280  14.620 -0.2639 -1.4981  0.1772
  892MPD2    H113077   2.690   1.133  14.801 -1.2928 -0.5763 -0.3884
  892MPD2    H213078   2.498   1.464  14.967  1.4572 -0.5572 -0.2681
  892MPD2    H313079   2.681   1.290  14.965 -1.3902 -3.4326  0.9195
  892MPD2     N13080   2.510   1.072  14.618 -0.6711  0.1827  0.4479
  892MPD2    H513081   2.594   1.016  14.612  0.8690  2.2935  2.0060
  892MPD2    N113082   2.316   1.495  14.772 -0.6350 -0.5355  0.4860
  892MPD2    H713083   2.264   1.518  14.688  2.0776 -1.1529 -1.3766
  893MPD2     C13084   3.360   0.205   1.753  0.3639  0.2020  0.1615
  893MPD2    C113085   3.368   0.168   1.621  0.1557 -0.6708  1.0731
  893MPD2    C213086   3.255   0.151   1.546 -0.0442  0.4529 -0.0651
  893MPD2    C313087   3.125   0.180   1.600  0.1635 -0.0968 -0.1828
  893MPD2    C413088   3.123   0.226   1.731  0.3719  0.3886 -0.2995
  893MPD2    C513089   3.241   0.241   1.804  0.7024 -0.0942 -0.0460
  893MPD2     H13090   3.262   0.114   1.444 -0.0274  1.2344 -0.3506
  893MPD2    H113091   3.035   0.256   1.787  0.9645  1.2764  0.1520
  893MPD2    H213092   3.449   0.219   1.813  0.0065 -1.8613  1.1846
  893MPD2    H313093   3.241   0.281   1.904 -1.2348 -1.7776  0.6158
  893MPD2     N13094   3.004   0.156   1.523 -0.5989 -0.5459 -0.7974
  893MPD2    H513095   2.915   0.178   1.566 -0.5088 -1.4363 -0.1469
  893MPD2    N113096   3.499   0.144   1.573  0.0390 -0.3240  0.6092
  893MPD2    H713097   3.579   0.164   1.632  0.3667  0.3419 -0.0660
  894MPD2     C13098   1.381   3.209   1.057 -0.6032  0.6196 -0.3563
  894MPD2    C113099   1.406   3.089   1.117  0.3179 -0.5495 -0.1764
  894MPD2    C213100   1.522   3.021   1.090  0.0382 -0.4257 -0.0854
  894MPD2    C313101   1.616   3.075   1.010  0.2994 -0.5054  0.4572
  894MPD2    C413102   1.591   3.201   0.960 -0.1708 -0.1979 -0.2231
  894MPD2    C513103   1.473   3.268   0.978  0.7470  0.1566  0.4943
  894MPD2     H13104   1.538   2.925   1.137 -1.6960 -1.5305 -1.7427
  894MPD2    H113105   1.663   3.252   0.897 -1.4719  0.7724 -0.9295
  894MPD2    H213106   1.290   3.267   1.066 -0.8613  0.1623 -0.0630
  894MPD2    H313107   1.445   3.368   0.946  1.3676  0.3991  0.7046
  894MPD2     N13108   1.739   3.005   0.984  0.0892 -0.0252 -0.0439
  894MPD2    H513109   1.747   2.912   1.025  0.4234  0.2253  0.4583
  894MPD2    N113110   1.300   3.025   1.194  0.4104 -0.5065 -0.2755
  894MPD2    H713111   1.326   2.938   1.238 -0.5852  0.8751  3.0432
  895MPD2     C13112   1.588   0.991  13.479 -0.2974  0.7193 -0.3233
  895MPD2    C113113   1.518   0.967  13.361 -0.8574 -0.4193  0.1718
  895MPD2    C213114   1.533   0.846  13.294 -0.8757  0.5327 -0.8801
  895MPD2    C313115   1.606   0.747  13.345 -0.0714 -0.4844  0.0185
  895MPD2    C413116   1.684   0.776  13.460  0.3860  0.3347 -0.2810
  895MPD2    C513117   1.677   0.900  13.517  1.2308 -0.3315  0.6655
  895MPD2     H13118   1.469   0.827  13.209  1.1522  0.5653 -2.4077
  895MPD2    H113119   1.749   0.698  13.499  0.2233  0.2113 -0.2580
  895MPD2    H213120   1.577   1.078  13.544  1.2278 -0.0883  1.0268
  895MPD2    H313121   1.732   0.913  13.609 -1.0594  0.4013  1.9424
  895MPD2     N13122   1.605   0.620  13.292 -0.2214 -0.3563 -0.8506
  895MPD2    H513123   1.524   0.599  13.234 -0.4901  1.1314 -1.0174
  895MPD2    N113124   1.427   1.053  13.298 -0.0916  0.3249  0.2352
  895MPD2    H713125   1.374   1.020  13.218  1.0882 -0.4992 -0.1934
  896MPD2     C13126   3.411   3.147   1.688 -0.0481  0.5221  0.1694
  896MPD2    C113127   3.412   3.160   1.555  0.2563 -0.2133  0.2100
  896MPD2    C213128   3.306   3.118   1.479  0.1866  0.0017  0.2074
  896MPD2    C313129   3.213   3.044   1.531  0.1362 -0.1042 -0.4891
  896MPD2    C413130   3.231   3.004   1.661 -0.0234 -0.2346  0.5473
  896MPD2    C513131   3.329   3.053   1.744 -0.7067  0.2396  0.4595
  896MPD2     H13132   3.300   3.151   1.376 -0.4512  1.2201  0.6332
  896MPD2    H113133   3.163   2.943   1.720 -1.2808  0.7704  0.1611
  896MPD2    H213134   3.494   3.180   1.748  0.5784 -0.3095 -0.2338
  896MPD2    H313135   3.329   3.037   1.851 -0.2576  2.2777  0.7638
  896MPD2     N13136   3.118   2.983   1.444 -0.0505  0.6324 -0.1658
  896MPD2    H513137   3.141   2.995   1.345  1.0395 -0.5041 -0.0505
  896MPD2    N113138   3.522   3.225   1.499 -0.4005 -0.5661  0.2495
  896MPD2    H713139   3.595   3.265   1.557  1.6995 -0.0976 -2.6829
  897MPD2     C13140   0.484   0.307   9.930 -0.1414 -0.3557 -0.1430
  897MPD2    C113141   0.404   0.406   9.984 -0.1214  0.3400  0.3275
  897MPD2    C213142   0.329   0.382  10.102  0.1800 -0.1164  0.5055
  897MPD2    C313143   0.324   0.252  10.150  0.1648 -0.3739 -0.0414
  897MPD2    C413144   0.404   0.152  10.092 -0.0612 -0.3761  0.4109
  897MPD2    C513145   0.486   0.182   9.986 -0.0141 -0.4499  0.5054
  897MPD2     H13146   0.253   0.451  10.135  1.3776  1.5976 -0.3446
  897MPD2    H113147   0.390   0.050  10.126 -2.0227 -0.2200  0.0971
  897MPD2    H213148   0.546   0.330   9.844 -1.6689  1.8973 -0.6451
  897MPD2    H313149   0.541   0.100   9.943  0.1067  0.8143 -1.7115
  897MPD2     N13150   0.226   0.216  10.244 -0.0824  0.0871 -0.0862
  897MPD2    H513151   0.169   0.292  10.280  0.5081 -1.1798  3.6013
  897MPD2    N113152   0.424   0.533   9.920  0.5421  0.5091 -0.2873
  897MPD2    H713153   0.497   0.544   9.851  0.4935  0.1604 -0.3930
  898MPD2     C13154   1.588   1.091   0.486 -1.2266  0.9401 -0.0154
  898MPD2    C113155   1.711   1.127   0.445 -0.5731 -0.3992 -0.2930
  898MPD2    C213156   1.729   1.198   0.327  0.2047 -0.0683 -0.1647
  898MPD2    C313157   1.622   1.234   0.253 -0.2875 -0.3178  0.3328
  898MPD2    C413158   1.493   1.191   0.291 -0.4752  0.6791 -1.3409
  898MPD2    C513159   1.479   1.123   0.413  0.2771 -0.5499  0.4245
  898MPD2     H13160   1.829   1.223   0.294 -0.6431  0.7713 -2.0855
  898MPD2    H113161   1.405   1.220   0.235 -1.9470 -0.4704  0.3834
  898MPD2    H213162   1.571   1.042   0.581  0.2116 -1.7869 -1.1333
  898MPD2    H313163   1.378   1.109   0.451 -0.5843 -2.5840 -2.6557
  898MPD2     N13164   1.631   1.329   0.141 -0.1951 -0.1154 -0.2534
  898MPD2    H513165   1.725   1.359   0.118  0.7989 -1.0445  2.5920
  898MPD2    N113166   1.825   1.087   0.518 -1.0280 -0.5635  0.2999
  898MPD2    H713167   1.918   1.102   0.480 -0.8793  0.7197  1.1732
  899MPD2     C13168   2.336   1.825  17.035 -0.7409  0.1100 -0.2621
  899MPD2    C113169   2.418   1.889  17.128  0.3600  0.9387 -0.8156
  899MPD2    C213170   2.471   1.812  17.228  0.0308 -0.7080  0.4860
  899MPD2    C313171   2.446   1.675  17.247  0.1119  0.8361 -0.1400
  899MPD2    C413172   2.361   1.621  17.148  0.2925 -0.4899  0.4585
  899MPD2    C513173   2.301   1.698  17.052 -0.6962 -0.4996 -0.4315
  899MPD2     H13174   2.536   1.859  17.301  0.2367 -1.3180  0.6964
  899MPD2    H113175   2.327   1.518  17.146 -0.3166 -0.2741 -0.4006
  899MPD2    H213176   2.303   1.870  16.943 -2.1015  0.1504  0.2360
  899MPD2    H313177   2.224   1.656  16.989  0.3507 -1.1796 -1.2469
  899MPD2     N13178   2.484   1.598  17.360 -0.0933 -0.1872 -0.3575
  899MPD2    H513179   2.457   1.500  17.357  1.8264 -0.7549  0.5581
  899MPD2    N113180   2.439   2.029  17.113  0.7237 -0.3437 -0.3599
  899MPD2    H713181   2.403   2.084  17.036  0.0968  0.7102  0.6705
  900MPD2     C13182   2.794   3.537  12.452  0.0614 -0.1115  0.4411
  900MPD2    C113183   2.683   3.459  12.437  0.3824  0.3748 -0.2747
  900MPD2    C213184   2.562   3.516  12.414 -0.2179  0.1532 -0.7357
  900MPD2    C313185   2.553   3.657  12.408  0.0588  0.0918  0.6297
  900MPD2    C413186   2.667   3.732  12.433 -0.5809 -0.0708  0.0460
  900MPD2    C513187   2.790   3.673  12.447 -0.2072  0.1614  0.9745
  900MPD2     H13188   2.481   3.450  12.384 -0.2273 -0.7294  1.2413
  900MPD2    H113189   2.654   3.839  12.442 -1.1951 -0.3966  2.8464
  900MPD2    H213190   2.889   3.490  12.477  0.7079  1.7819  1.5293
  900MPD2    H313191   2.879   3.734  12.457 -0.2937  0.3595  0.5369
  900MPD2     N13192   2.423   3.710  12.357 -0.7894  0.7054 -0.3123
  900MPD2    H513193   2.343   3.649  12.342 -1.3238  0.9664  1.4342
  900MPD2    N113194   2.712   3.319  12.439 -0.0891  0.5998 -0.1301
  900MPD2    H713195   2.808   3.293  12.461  0.0395 -0.4347 -1.8844
  901MPD2     C13196   2.431   2.259  12.484  0.3522  0.1324  0.3516
  901MPD2    C113197   2.554   2.276  12.546  0.3289 -0.2584 -0.6962
  901MPD2    C213198   2.609   2.404  12.549 -0.3589  0.4791 -0.0848
  901MPD2    C313199   2.541   2.511  12.498  0.4078  0.1345 -0.5188
  901MPD2    C413200   2.421   2.496  12.432  0.2698 -0.2451 -0.3614
  901MPD2    C513201   2.367   2.373  12.430  0.9841 -0.8528  0.0683
  901MPD2     H13202   2.690   2.430  12.616  1.4213 -2.1642 -1.1795
  901MPD2    H113203   2.364   2.577  12.389  2.3895  1.1753 -0.4751
  901MPD2    H213204   2.371   2.168  12.484 -0.2338  0.5172  0.1122
  901MPD2    H313205   2.269   2.358  12.387  0.1853  0.3809  1.4731
  901MPD2     N13206   2.607   2.641  12.496 -0.5164 -0.3522 -0.2195
  901MPD2    H513207   2.703   2.648  12.527 -0.3697  1.4583 -1.1071
  901MPD2    N113208   2.598   2.160  12.624  0.0420  0.0819 -0.1504
  901MPD2    H713209   2.531   2.087  12.646  1.3941 -1.8798 -2.6383
  902MPD2     C13210   1.290   1.368  12.599  0.1600 -0.5830  0.6881
  902MPD2    C113211   1.420   1.388  12.595 -0.7321  0.5036 -0.1608
  902MPD2    C213212   1.496   1.319  12.505 -0.0425 -0.6245  0.3443
  902MPD2    C313213   1.441   1.209  12.435 -0.0045 -0.5126  0.3518
  902MPD2    C413214   1.303   1.184  12.453  0.1624  0.2493 -0.2952
  902MPD2    C513215   1.225   1.263  12.532 -0.3269  0.2095 -0.5763
  902MPD2     H13216   1.603   1.337  12.500 -0.5251  1.6447 -1.8207
  902MPD2    H113217   1.255   1.104  12.399 -1.4211  1.1833 -0.2636
  902MPD2    H213218   1.233   1.430  12.668  0.2363  0.7943 -0.4933
  902MPD2    H313219   1.120   1.243  12.551 -0.1603 -0.1107  0.0234
  902MPD2     N13220   1.513   1.139  12.339  0.0433  0.4059  0.0520
  902MPD2    H513221   1.472   1.066  12.281 -0.2322  0.3909  0.2667
  902MPD2    N113222   1.459   1.508  12.654  1.0353  0.3527  0.2966
  902MPD2    H713223   1.383   1.567  12.687  0.1866 -0.2936 -0.4958
  903MPD2     C13224   1.579   1.025  11.516 -0.3201 -0.4937 -0.3225
  903MPD2    C113225   1.525   1.003  11.642  0.6261 -0.2041  0.4368
  903MPD2    C213226   1.397   0.960  11.650  0.3972  0.8742 -0.4330
  903MPD2    C313227   1.314   0.951  11.542  0.0375 -0.2784 -0.0847
  903MPD2    C413228   1.363   0.991  11.421 -0.2436 -0.5202 -0.9059
  903MPD2    C513229   1.493   1.032  11.410 -0.1331  0.1294  0.5780
  903MPD2     H13230   1.341   0.933  11.739 -0.1903  2.8798 -0.1839
  903MPD2    H113231   1.302   0.995  11.331 -0.0169 -1.8507 -1.1230
  903MPD2    H213232   1.682   1.053  11.497 -1.0142  0.6887 -2.3695
  903MPD2    H313233   1.528   1.062  11.312 -1.7104 -2.4803 -0.7871
  903MPD2     N13234   1.184   0.904  11.562  0.3016 -0.1568  0.5516
  903MPD2    H513235   1.154   0.887  11.658 -0.0587 -0.6876  0.3434
  903MPD2    N113236   1.609   1.020  11.756 -0.2915 -0.2442 -0.0140
  903MPD2    H713237   1.702   1.058  11.740  1.0413 -2.3719  2.7433
  904MPD2     C13238   1.197   0.408  13.520  0.1695 -0.8225  0.8604
  904MPD2    C113239   1.173   0.366  13.647  0.5173 -1.0252 -0.1264
  904MPD2    C213240   1.283   0.351  13.732  0.6030  0.4509 -0.0107
  904MPD2    C313241   1.412   0.374  13.685  0.2715 -0.4301 -0.0473
  904MPD2    C413242   1.427   0.421  13.556 -0.2725 -0.5487  0.2748
  904MPD2    C513243   1.318   0.436  13.475  0.4447  0.6084 -0.1651
  904MPD2     H13244   1.267   0.331  13.837 -0.2366  0.6023 -0.1084
  904MPD2    H113245   1.523   0.444  13.513 -1.3761  3.7354  0.1231
  904MPD2    H213246   1.111   0.447  13.466  0.3300 -0.9158  0.5373
  904MPD2    H313247   1.329   0.480  13.376  7.8675  1.1406  0.9413
  904MPD2     N13248   1.522   0.360  13.772 -0.5217 -0.1102  0.5431
  904MPD2    H513249   1.508   0.308  13.858 -0.1746  0.9039  1.2149
  904MPD2    N113250   1.041   0.350  13.690  0.2269 -0.2811 -0.2217
  904MPD2    H713251   1.024   0.351  13.790  2.5698  2.4522  0.1465
  905MPD2     C13252   0.851   0.345  13.018 -0.1443 -0.2507 -0.7264
  905MPD2    C113253   0.916   0.428  13.104 -0.0293 -0.0458  1.0146
  905MPD2    C213254   1.059   0.437  13.097  1.1924  0.4727  0.8546
  905MPD2    C313255   1.127   0.336  13.027  0.2461  0.0050  0.6073
  905MPD2    C413256   1.056   0.250  12.938  0.3351  0.2378  1.0353
  905MPD2    C513257   0.920   0.267  12.933 -0.2927  0.2093  0.1931
  905MPD2     H13258   1.115   0.495  13.170  0.8652  0.6994  0.9283
  905MPD2    H113259   1.108   0.182  12.872  2.8717  3.6765 -0.4859
  905MPD2    H213260   0.742   0.349  13.016 -0.0710  1.8793 -0.7641
  905MPD2    H313261   0.863   0.207  12.862  0.0856 -0.2362  0.2673
  905MPD2     N13262   1.263   0.312  13.035 -0.0177  0.6725  0.0092
  905MPD2    H513263   1.302   0.230  12.991  0.6587  2.0081 -1.8829
  905MPD2    N113264   0.841   0.498  13.196  0.3272 -0.3819  0.3266
  905MPD2    H713265   0.747   0.464  13.213 -0.5730  1.1390 -1.5409
  906MPD2     C13266   3.660   0.566  11.134  0.6879 -0.4430 -0.7354
  906MPD2    C113267   3.699   0.442  11.110  0.3355  0.0768 -0.2760
  906MPD2    C213268   3.676   0.344  11.205 -0.2386  0.2632 -0.3402
  906MPD2    C313269   3.612   0.367  11.330  0.3499  0.0915 -0.2399
  906MPD2    C413270   3.570   0.495  11.351 -0.1718 -0.0889 -0.4687
  906MPD2    C513271   3.597   0.598  11.255  0.7810 -0.4182 -0.0601
  906MPD2     H13272   3.717   0.247  11.178  0.5307  0.6510 -0.5719
  906MPD2    H113273   3.525   0.518  11.447  2.7598  2.1815  0.3541
  906MPD2    H213274   3.687   0.651  11.072  1.0352 -2.1207 -2.8578
  906MPD2    H313275   3.566   0.700  11.272  2.2199 -0.2164  1.2885
  906MPD2     N13276   3.583   0.266  11.423  0.1812 -0.2099 -0.4451
  906MPD2    H513277   3.503   0.275  11.483  2.3317 -0.3135  2.4217
  906MPD2    N113278   3.753   0.393  10.986 -0.3536 -0.6777 -0.7762
  906MPD2    H713279   3.744   0.293  10.972  0.9925 -0.9084 -0.0024
  907MPD2     C13280   1.781   4.434  15.278 -0.4281 -0.3071  0.0963
  907MPD2    C113281   1.833   4.310  15.232  0.3929  0.3431  0.0830
  907MPD2    C213282   1.902   4.233  15.327 -0.1791 -0.7039  0.0110
  907MPD2    C313283   1.900   4.257  15.468  0.1498 -0.1586  0.9261
  907MPD2    C413284   1.836   4.371  15.507 -0.0546  0.8334  0.1546
  907MPD2    C513285   1.791   4.460  15.412  0.6225 -0.2152 -0.0524
  907MPD2     H13286   1.953   4.145  15.291 -1.8280 -1.4248 -0.5864
  907MPD2    H113287   1.823   4.405  15.609  0.6649 -3.4254  1.6747
  907MPD2    H213288   1.727   4.507  15.220 -1.8628 -1.3599  0.1101
  907MPD2    H313289   1.738   4.549  15.444  1.3001  0.0485  0.3432
  907MPD2     N13290   1.944   4.156  15.557  0.0948 -0.1950  0.3087
  907MPD2    H513291   1.980   4.071  15.517 -0.3166 -1.2040  2.0843
  907MPD2    N113292   1.811   4.260  15.102  0.0625  0.1419 -0.1070
  907MPD2    H713293   1.849   4.170  15.075 -1.8886 -1.0989  1.3569
  908MPD2     C13294   0.658   0.677   9.127  0.4172 -0.6654 -0.3695
  908MPD2    C113295   0.716   0.596   9.216 -0.0271 -0.1566  0.1831
  908MPD2    C213296   0.690   0.619   9.351  0.6507  0.6136 -0.2497
  908MPD2    C313297   0.602   0.725   9.387 -0.0071 -0.5204  0.6363
  908MPD2    C413298   0.543   0.802   9.289  0.2234  0.3481  0.1811
  908MPD2    C513299   0.574   0.777   9.160  0.7022 -0.2699  0.3522
  908MPD2     H13300   0.739   0.553   9.422 -0.6823  0.6693  0.7269
  908MPD2    H113301   0.474   0.882   9.315 -0.5985 -0.6042  0.9117
  908MPD2    H213302   0.681   0.662   9.022  0.0800 -1.8805 -0.2731
  908MPD2    H313303   0.525   0.834   9.081  0.8546 -1.7439 -0.8206
  908MPD2     N13304   0.588   0.750   9.524  0.1250  0.0144  0.3496
  908MPD2    H513305   0.618   0.680   9.592 -1.7878  0.4746  1.6603
  908MPD2    N113306   0.819   0.500   9.182  0.0250 -0.4298  0.1589
  908MPD2    H713307   0.864   0.457   9.262 -1.1514 -0.2058  0.9422
  909MPD2     C13308   0.700   2.780  11.583  0.1117  0.5724 -0.2770
  909MPD2    C113309   0.718   2.920  11.571 -0.1846  0.4467 -0.7882
  909MPD2    C213310   0.691   3.004  11.679 -0.1405  0.3450 -0.2008
  909MPD2    C313311   0.624   2.950  11.792 -0.2620 -0.0998  0.0141
  909MPD2    C413312   0.619   2.815  11.806 -0.1243 -0.1933 -0.3478
  909MPD2    C513313   0.656   2.729  11.700  0.0041 -0.1874  0.1169
  909MPD2     H13314   0.693   3.111  11.661  1.5687  0.1779 -1.0029
  909MPD2    H113315   0.580   2.759  11.890  0.2175 -0.0797 -0.1155
  909MPD2    H213316   0.723   2.709  11.504 -0.8139 -1.5380  1.3465
  909MPD2    H313317   0.643   2.623  11.688  3.4481 -0.5905 -0.0413
  909MPD2     N13318   0.581   3.046  11.893  0.0136 -1.1001  0.4890
  909MPD2    H513319   0.612   3.141  11.881 -0.6722 -0.9504 -0.0961
  909MPD2    N113320   0.766   2.975  11.452  0.1101 -0.3262 -0.3253
  909MPD2    H713321   0.815   3.064  11.455 -0.4188 -0.0051 -1.3412
  910MPD2     C13322   1.368   4.528  15.754 -0.8712 -0.0793  0.0098
  910MPD2    C113323   1.431   4.427  15.678 -0.7171 -0.0985  0.2893
  910MPD2    C213324   1.390   4.408  15.548  0.1926  0.0538 -0.4543
  910MPD2    C313325   1.306   4.507  15.492 -0.1793 -0.6017  0.1727
  910MPD2    C413326   1.256   4.607  15.568 -0.2506  0.4777 -0.3378
  910MPD2    C513327   1.278   4.612  15.699 -0.7831 -0.4107 -0.0779
  910MPD2     H13328   1.435   4.325  15.496 -3.3500 -2.0139 -0.1967
  910MPD2    H113329   1.194   4.677  15.513 -2.7996 -1.3273  0.2810
  910MPD2    H213330   1.393   4.538  15.859 -2.0183  2.9442 -0.0030
  910MPD2    H313331   1.240   4.691  15.762 -1.1794  0.9339 -2.0261
  910MPD2     N13332   1.268   4.495  15.353  0.4773  0.3167  0.0324
  910MPD2    H513333   1.211   4.566  15.310  0.1533 -0.5847 -1.0405
  910MPD2    N113334   1.521   4.331  15.738  0.5428 -0.0989 -0.2505
  910MPD2    H713335   1.535   4.246  15.684  0.0914 -1.6459  2.0967
  911MPD2     C13336   4.132   0.808  16.600 -0.4795 -0.4925  0.1788
  911MPD2    C113337   4.216   0.911  16.559  0.0309 -0.5419  0.2034
  911MPD2    C213338   4.162   1.025  16.512 -0.2825  0.0331  0.4613
  911MPD2    C313339   4.025   1.037  16.500  0.7103  0.0170 -0.2656
  911MPD2    C413340   3.943   0.937  16.533 -0.8727  0.2458 -0.3525
  911MPD2    C513341   3.993   0.823  16.582  0.3499 -0.0536  0.4642
  911MPD2     H13342   4.218   1.113  16.483  0.5098 -0.3672  0.7635
  911MPD2    H113343   3.835   0.941  16.521 -0.7135  2.5191 -1.0397
  911MPD2    H213344   4.161   0.714  16.645 -0.0545 -0.0215  0.9149
  911MPD2    H313345   3.919   0.749  16.608 -1.1880  1.2441 -0.2105
  911MPD2     N13346   3.960   1.145  16.441  0.3039  0.3632 -0.3407
  911MPD2    H513347   3.859   1.143  16.441  0.2938  0.7958  0.0075
  911MPD2    N113348   4.356   0.885  16.572  0.0736  0.3718  0.2786
  911MPD2    H713349   4.383   0.795  16.610 -0.0977  0.7063  1.1824
  912MPD2     C13350   3.513   0.768  16.287  0.4145 -0.6061  0.3590
  912MPD2    C113351   3.534   0.880  16.359 -0.4117 -1.1465  0.1892
  912MPD2    C213352   3.509   0.881  16.492  0.1294 -0.1819  0.4010
  912MPD2    C313353   3.460   0.768  16.556 -0.1424  0.2156 -0.3838
  912MPD2    C413354   3.430   0.653  16.485 -0.0548  0.0273  0.4001
  912MPD2    C513355   3.459   0.660  16.354 -0.6711  0.6455 -0.0410
  912MPD2     H13356   3.519   0.970  16.553 -0.0439 -0.9260  1.5133
  912MPD2    H113357   3.381   0.571  16.536 -1.4473  0.8610  0.4098
  912MPD2    H213358   3.503   0.769  16.179  3.1298  1.6490  0.1393
  912MPD2    H313359   3.429   0.574  16.295 -2.3461  1.7158 -0.7595
  912MPD2     N13360   3.474   0.770  16.691  0.0458  0.3709  1.1337
  912MPD2    H513361   3.496   0.861  16.730  0.7098 -0.3617  2.5017
  912MPD2    N113362   3.583   0.999  16.296 -0.0268  0.4017 -0.2002
  912MPD2    H713363   3.602   0.983  16.197  2.5756 -0.1181  0.3908
  913MPD2     C13364   0.425   1.760  10.540 -0.3289  0.6699  0.7421
  913MPD2    C113365   0.471   1.887  10.578  0.0288  0.1984  0.8750
  913MPD2    C213366   0.477   1.989  10.483  0.0988 -0.9798  0.4237
  913MPD2    C313367   0.416   1.962  10.362  0.4281  0.7940 -0.2855
  913MPD2    C413368   0.372   1.834  10.325 -0.1522  0.2076 -0.7949
  913MPD2    C513369   0.374   1.737  10.415  0.1808 -0.3335 -0.1521
  913MPD2     H13370   0.509   2.087  10.517  0.2082 -1.3503  1.3944
  913MPD2    H113371   0.321   1.821  10.230 -1.7905 -1.4026  0.3066
  913MPD2    H213372   0.415   1.676  10.609 -1.5961 -0.4696 -0.8036
  913MPD2    H313373   0.331   1.642  10.387  0.7406  0.1490 -2.6492
  913MPD2     N13374   0.401   2.070  10.269  0.1104  0.5056  0.0618
  913MPD2    H513375   0.360   2.043  10.181  2.0274 -1.4016 -0.2472
  913MPD2    N113376   0.504   1.900  10.712 -0.0302 -0.0311  1.2082
  913MPD2    H713377   0.485   1.818  10.768  0.5305  0.4806  2.1446
  914MPD2     C13378   2.655   1.740  12.153 -0.7439  0.1926  0.1790
  914MPD2    C113379   2.577   1.843  12.196  0.7917  0.0422 -0.3358
  914MPD2    C213380   2.558   1.847  12.334 -0.7276  0.9632  0.2518
  914MPD2    C313381   2.622   1.761  12.425 -0.3094  0.3956  0.6857
  914MPD2    C413382   2.700   1.660  12.370  0.0558  0.5379 -0.2592
  914MPD2    C513383   2.711   1.654  12.238  0.0936  0.2974  0.2069
  914MPD2     H13384   2.526   1.944  12.372 -1.5081  0.8265 -0.0611
  914MPD2    H113385   2.767   1.590  12.419 -0.0354  1.2879  0.9551
  914MPD2    H213386   2.678   1.729  12.047  1.9479 -1.4037  0.9367
  914MPD2    H313387   2.775   1.572  12.207 -1.1418 -1.0578  1.2037
  914MPD2     N13388   2.615   1.784  12.564 -0.7463  0.2938  0.0777
  914MPD2    H513389   2.574   1.874  12.584 -0.5322  0.4894 -0.3791
  914MPD2    N113390   2.514   1.934  12.102 -0.0992  0.5808 -0.3755
  914MPD2    H713391   2.530   1.919  12.002 -0.2359 -1.3062 -0.1219
  915MPD2     C13392   0.649   2.555  15.661  0.4062 -0.1211 -0.3598
  915MPD2    C113393   0.522   2.594  15.618  0.5720  0.0293  0.1450
  915MPD2    C213394   0.411   2.566  15.701  0.1766 -0.1295  0.2061
  915MPD2    C313395   0.429   2.479  15.812  0.2946  0.0541  0.5141
  915MPD2    C413396   0.554   2.424  15.840  0.2985  0.0699 -0.0361
  915MPD2    C513397   0.663   2.467  15.766 -0.1851  0.4480  0.5027
  915MPD2     H13398   0.311   2.604  15.688 -0.2232 -0.0908  3.4536
  915MPD2    H113399   0.572   2.346  15.913 -0.0514 -1.7393 -1.8910
  915MPD2    H213400   0.733   2.580  15.596 -0.6779  3.0330 -0.5342
  915MPD2    H313401   0.763   2.428  15.781 -0.8380 -1.0286  1.0151
  915MPD2     N13402   0.336   2.472  15.909  0.2801 -0.0307  0.2731
  915MPD2    H513403   0.266   2.544  15.896  0.3862 -0.4016 -2.2316
  915MPD2    N113404   0.511   2.657  15.489  0.2612  0.3073  1.4340
  915MPD2    H713405   0.596   2.666  15.434 -0.6579  0.7853  0.0880
  916MPD2     C13406   3.304   0.841  15.814 -0.5407 -0.0235  0.1525
  916MPD2    C113407   3.266   0.744  15.901 -0.1667  0.1498  0.2245
  916MPD2    C213408   3.271   0.613  15.854 -0.5548  0.0382  0.4448
  916MPD2    C313409   3.307   0.578  15.727 -0.4752  0.4453  0.0635
  916MPD2    C413410   3.352   0.681  15.644  0.7145 -0.1020 -0.5195
  916MPD2    C513411   3.342   0.807  15.687  0.3499  0.2348 -0.7524
  916MPD2     H13412   3.244   0.529  15.917  0.8742 -0.3897  0.4855
  916MPD2    H113413   3.387   0.662  15.544  0.9823 -0.7101 -0.3095
  916MPD2    H213414   3.321   0.943  15.847  0.3725  0.9183 -3.2870
  916MPD2    H313415   3.385   0.883  15.623 -1.5420  2.1850  0.2724
  916MPD2     N13416   3.320   0.437  15.695  0.2058  0.0716 -0.5080
  916MPD2    H513417   3.272   0.371  15.756  2.9156 -0.4911  0.9872
  916MPD2    N113418   3.212   0.776  16.032 -0.3392 -0.1879 -0.4507
  916MPD2    H713419   3.192   0.872  16.056 -0.8364 -0.0289 -1.4945
  917MPD2     C13420   4.183   3.090  11.851  0.0824  0.1570 -0.1466
  917MPD2    C113421   4.167   2.993  11.754  0.1309 -1.0049  0.8734
  917MPD2    C213422   4.215   3.016  11.628  0.7673  1.1880 -0.6084
  917MPD2    C313423   4.289   3.133  11.597  0.8503 -0.1839 -0.7793
  917MPD2    C413424   4.301   3.226  11.698 -0.0645  0.0181  0.2257
  917MPD2    C513425   4.254   3.199  11.824 -0.1010  0.0327  0.0071
  917MPD2     H13426   4.203   2.937  11.555 -1.0963 -0.2329  1.2396
  917MPD2    H113427   4.358   3.318  11.686  1.9977 -1.2506  0.2250
  917MPD2    H213428   4.157   3.072  11.955 -2.3776  1.1586 -0.6033
  917MPD2    H313429   4.278   3.276  11.897 -0.0296  0.9809 -1.0143
  917MPD2     N13430   4.364   3.150  11.480 -0.3593 -0.4642  0.3837
  917MPD2    H513431   4.415   3.237  11.467 -0.1103 -0.5894  0.5282
  917MPD2    N113432   4.107   2.869  11.794 -0.2731 -0.3003  0.1264
  917MPD2    H713433   4.072   2.878  11.889 -1.9601 -0.2571 -0.4923
  918MPD2     C13434   4.351   2.298  12.463  0.2937 -0.3034  0.3270
  918MPD2    C113435   4.371   2.237  12.340 -0.6173  0.0762  0.2606
  918MPD2    C213436   4.282   2.273  12.237 -0.1789  0.0395 -0.1795
  918MPD2    C313437   4.190   2.370  12.256  0.7055 -0.9404 -0.3223
  918MPD2    C413438   4.179   2.431  12.385 -0.4659 -0.0843  0.5042
  918MPD2    C513439   4.256   2.389  12.489 -0.3454  0.2555  0.1106
  918MPD2     H13440   4.294   2.226  12.140  1.5557 -2.4393  1.2351
  918MPD2    H113441   4.111   2.514  12.394 -0.2959  0.1571 -0.4526
  918MPD2    H213442   4.419   2.270  12.543  0.3581 -1.4033 -0.1168
  918MPD2    H313443   4.235   2.426  12.589 -0.3400  1.3839 -0.3090
  918MPD2     N13444   4.104   2.401  12.150 -0.2205 -0.2171 -0.1436
  918MPD2    H513445   4.120   2.346  12.066  0.1706  0.3698 -0.4532
  918MPD2    N113446   4.468   2.141  12.316 -0.2467 -0.1040 -0.2760
  918MPD2    H713447   4.423   2.076  12.252 -0.0019 -2.0220  1.5222
  919MPD2     C13448   4.315   1.725  11.314  0.1950  0.4726  0.0125
  919MPD2    C113449   4.384   1.609  11.319 -0.1728  0.9225 -0.3326
  919MPD2    C213450   4.500   1.598  11.253 -0.6074  0.6123  0.9004
  919MPD2    C313451   4.537   1.692  11.159  0.3736 -0.2051 -0.2632
  919MPD2    C413452   4.462   1.806  11.152  0.7484 -0.0148  0.8821
  919MPD2    C513453   4.356   1.830  11.234 -1.4050  0.1037  0.6037
  919MPD2     H13454   4.567   1.514  11.267 -1.3104  0.0988  1.2167
  919MPD2    H113455   4.487   1.886  11.083  2.0787 -0.7118  0.5666
  919MPD2    H213456   4.213   1.730  11.351  1.0743  0.1230  2.4956
  919MPD2    H313457   4.292   1.912  11.205  0.5463  0.8652 -1.4973
  919MPD2     N13458   4.657   1.690  11.088  0.0624 -0.2533 -0.2849
  919MPD2    H513459   4.674   1.763  11.019 -2.3272  0.7542  0.1993
  919MPD2    N113460   4.355   1.494  11.391 -0.4690  0.4666 -0.2495
  919MPD2    H713461   4.424   1.421  11.380 -1.1631  0.0571 -1.8423
  920MPD2     C13462   0.109   2.249  10.412 -0.4272 -0.2807 -0.5644
  920MPD2    C113463   0.049   2.146  10.345  0.1066  0.5554 -0.4995
  920MPD2    C213464   0.050   2.020  10.408  0.8192 -0.4698  0.2592
  920MPD2    C313465   0.122   2.007  10.521 -0.4459  0.6660 -0.9946
  920MPD2    C413466   0.198   2.112  10.574  0.0195  0.4724 -0.8174
  920MPD2    C513467   0.184   2.237  10.523  0.1855 -0.7632  0.7900
  920MPD2     H13468   4.709   1.939  10.373  1.2357 -0.7498  0.1470
  920MPD2    H113469   0.262   2.103  10.660 -2.4729 -0.0656  0.9824
  920MPD2    H213470   0.111   2.345  10.362 -1.6444  0.8725  1.6086
  920MPD2    H313471   0.242   2.320  10.561  2.0377 -2.0104  0.6765
  920MPD2     N13472   0.110   1.883  10.597 -0.4350  0.0788 -0.6656
  920MPD2    H513473   0.058   1.811  10.547 -2.3000  1.0823 -0.1893
  920MPD2    N113474   4.679   2.170  10.234  0.1251 -0.5009  0.1858
  920MPD2    H713475   4.627   2.088  10.205 -1.4198  0.4657  0.2351
  921MPD2     C13476   0.622   1.131  16.638 -0.0649 -0.0265  0.6059
  921MPD2    C113477   0.596   1.023  16.554  0.0114 -0.8989  0.2421
  921MPD2    C213478   0.461   0.983  16.538 -0.2910 -0.8726 -0.3550
  921MPD2    C313479   0.364   1.026  16.632  0.4640 -0.3019  0.0774
  921MPD2    C413480   0.384   1.141  16.701  0.4868 -0.4540 -0.2351
  921MPD2    C513481   0.516   1.192  16.701  0.4170  0.1710  0.0787
  921MPD2     H13482   0.457   0.903  16.466  2.1791  0.7258 -2.2560
  921MPD2    H113483   0.308   1.182  16.766 -0.3901 -0.6676 -1.1253
  921MPD2    H213484   0.721   1.170  16.657 -0.2968  0.9132 -0.1261
  921MPD2    H313485   0.530   1.283  16.757 -2.3953  1.8473 -1.8930
  921MPD2     N13486   0.240   0.960  16.642 -0.1041 -0.2730  0.6886
  921MPD2    H513487   0.176   1.004  16.708  0.7939  0.5381  1.0109
  921MPD2    N113488   0.705   0.960  16.478  0.0287 -0.3636  0.5072
  921MPD2    H713489   0.676   0.895  16.406 -2.0942 -0.4235  1.4202
  922MPD2     C13490   0.617   3.383  16.972  0.0581  0.6155  0.5916
  922MPD2    C113491   0.688   3.444  17.083 -0.0738  0.1803  0.2495
  922MPD2    C213492   0.655   3.401  17.212 -0.0743 -0.1104  0.2295
  922MPD2    C313493   0.548   3.315  17.229  0.4035  0.5817  0.1145
  922MPD2    C413494   0.479   3.260  17.123 -0.3681 -0.4223 -0.6573
  922MPD2    C513495   0.514   3.295  16.995 -0.9357 -0.5027 -0.4185
  922MPD2     H13496   0.700   3.453  17.295  3.0674 -1.5743 -0.5613
  922MPD2    H113497   0.390   3.199  17.137 -0.4151 -0.3468 -0.6242
  922MPD2    H213498   0.630   3.427  16.874  1.7714  0.2972  0.6707
  922MPD2    H313499   0.457   3.244  16.918 -1.6536 -1.2719  0.6154
  922MPD2     N13500   0.529   3.265  17.359 -0.2000  0.2440 -0.8589
  922MPD2    H513501   0.567   3.326  17.430 -1.0728  1.0589 -1.0940
  922MPD2    N113502   0.805   3.520  17.072 -0.3943  0.2221  0.1525
  922MPD2    H713503   0.848   3.551  17.158 -2.9161  0.6552  1.2610
  923MPD2     C13504   3.775   0.494   9.116  0.2368  0.0514 -0.3787
  923MPD2    C113505   3.661   0.548   9.184 -0.3339 -0.4009 -0.4672
  923MPD2    C213506   3.624   0.479   9.301 -0.0858  0.1830  0.4153
  923MPD2    C313507   3.684   0.363   9.345 -0.5668 -0.3227  0.0485
  923MPD2    C413508   3.780   0.306   9.263  0.3104 -0.0598  0.0326
  923MPD2    C513509   3.833   0.372   9.154 -0.1725  1.1485 -0.1245
  923MPD2     H13510   3.525   0.504   9.336  0.7693  0.8840  2.3328
  923MPD2    H113511   3.835   0.218   9.296  1.7200  1.0422  0.6035
  923MPD2    H213512   3.814   0.559   9.039  0.0645 -0.3630 -0.8135
  923MPD2    H313513   3.908   0.321   9.094  0.6134  0.0444  1.7955
  923MPD2     N13514   3.638   0.305   9.465  0.3270  0.5721 -0.0529
  923MPD2    H513515   3.667   0.209   9.481  2.1955  0.9708 -1.0968
  923MPD2    N113516   3.593   0.660   9.133 -0.4587  0.5348 -0.0722
  923MPD2    H713517   3.649   0.720   9.074  0.0988 -1.5337 -1.6229
  924MPD2     C13518   2.061   3.276  15.522  0.4165 -0.1039  0.1523
  924MPD2    C113519   2.056   3.313  15.653 -0.2329 -0.3243  0.9144
  924MPD2    C213520   2.064   3.444  15.676 -0.3338  0.1763 -0.4862
  924MPD2    C313521   2.098   3.540  15.584  0.0954  0.3097 -0.2851
  924MPD2    C413522   2.088   3.506  15.452  0.3955 -0.7796 -0.9964
  924MPD2    C513523   2.069   3.373  15.426 -0.2414  0.4558 -0.4145
  924MPD2     H13524   2.062   3.474  15.781 -1.9526 -2.6679  0.2918
  924MPD2    H113525   2.100   3.569  15.364  1.1790 -2.7197 -2.2969
  924MPD2    H213526   2.064   3.174  15.486  2.8288  0.8184 -2.2065
  924MPD2    H313527   2.088   3.346  15.323 -0.4066 -3.7214  0.6697
  924MPD2     N13528   2.127   3.680  15.614 -0.4161 -0.0749 -0.2339
  924MPD2    H513529   2.120   3.748  15.539 -0.0247  0.3395  0.1070
  924MPD2    N113530   2.035   3.228  15.764  0.9283  0.2191  0.6680
  924MPD2    H713531   2.049   3.270  15.855  1.6349 -0.9184  1.0902
  925MPD2     C13532   1.856   1.001  14.348  0.3099  0.0711 -0.7850
  925MPD2    C113533   1.721   1.000  14.326 -0.6325  0.0431 -0.8851
  925MPD2    C213534   1.645   0.911  14.393  0.2982 -0.2747  0.4118
  925MPD2    C313535   1.694   0.826  14.490  0.4168  0.3838 -0.3306
  925MPD2    C413536   1.830   0.836  14.523  0.4661 -0.6002 -0.3397
  925MPD2    C513537   1.910   0.919  14.444 -0.0782  0.5653  0.3959
  925MPD2     H13538   1.540   0.932  14.380 -0.0882 -2.4184  0.1909
  925MPD2    H113539   1.868   0.773  14.602  1.4058 -0.5551 -0.7519
  925MPD2    H213540   1.925   1.057  14.286 -1.9671  3.2823 -0.3891
  925MPD2    H313541   2.017   0.908  14.449 -0.1414  0.7419  2.1538
  925MPD2     N13542   1.619   0.738  14.570  0.0594 -0.5468  0.2213
  925MPD2    H513543   1.664   0.699  14.653 -0.5252  0.3341  0.9480
  925MPD2    N113544   1.655   1.091  14.245 -0.3887  0.1805  0.5682
  925MPD2    H713545   1.553   1.089  14.244 -0.3369 -1.6320 -0.3585
  926MPD2     C13546   4.616   4.326  13.585 -0.1669 -0.3618  0.4830
  926MPD2    C113547   4.535   4.281  13.482  0.6113 -0.0900 -0.2062
  926MPD2    C213548   4.593   4.294  13.354 -0.2800  0.2140 -0.1440
  926MPD2    C313549   4.717   4.349  13.333  0.3484 -0.5066 -0.4840
  926MPD2    C413550   0.065   4.398  13.438  0.2881 -0.3161 -0.0452
  926MPD2    C513551   0.011   4.384  13.565  0.0484  0.2685 -0.0389
  926MPD2     H13552   4.535   4.275  13.265 -0.1803  1.1094 -0.3945
  926MPD2    H113553   0.163   4.443  13.424  0.9235 -0.4464  3.9314
  926MPD2    H213554   4.582   4.318  13.687 -0.1126  0.8084  0.5936
  926MPD2    H313555   0.060   4.426  13.651 -0.1312  1.5697 -0.5731
  926MPD2     N13556   0.054   4.362  13.211 -1.1421  0.4812 -0.1614
  926MPD2    H513557   0.154   4.379  13.216 -0.8607 -1.7392  1.9766
  926MPD2    N113558   4.405   4.239  13.502 -0.6059 -0.0698  0.1204
  926MPD2    H713559   4.361   4.212  13.415  0.5882 -1.7759  0.0556
  927MPD2     C13560   4.355   1.777  17.488 -0.4262 -0.6891 -0.1719
  927MPD2    C113561   4.381   1.902  17.518 -0.0991  0.6430 -0.8153
  927MPD2    C213562   4.482   1.969  17.454  0.8692  0.3520 -0.3221
  927MPD2    C313563   4.559   1.904  17.352  0.1224  0.1298  0.3085
  927MPD2    C413564   4.529   1.776  17.316  0.2605  0.0335 -0.7312
  927MPD2    C513565   4.426   1.717  17.388 -0.3292 -0.4195 -0.4560
  927MPD2     H13566   4.506   2.073  17.475  0.4498  0.2668  0.5703
  927MPD2    H113567   4.581   1.713  17.245 -1.9991 -1.6803 -0.8891
  927MPD2    H213568   4.279   1.722  17.542 -0.4678  1.7475  2.2823
  927MPD2    H313569   4.411   1.611  17.368 -1.2176 -0.7363  1.9214
  927MPD2     N13570   4.662   1.985  17.288  0.1832 -0.1187  0.6337
  927MPD2    H513571   4.669   2.083  17.316 -0.2185 -0.1119  0.7238
  927MPD2    N113572   4.295   1.965  17.613 -0.8461  0.3634  0.7888
  927MPD2    H713573   4.232   1.898  17.655  1.6428 -2.4478  0.0128
  928MPD2     C13574   2.246   0.332   1.160  0.0153 -0.5515  0.6091
  928MPD2    C113575   2.208   0.454   1.104 -0.2150  0.2815  0.0734
  928MPD2    C213576   2.265   0.483   0.978  0.4016 -0.6208  0.4816
  928MPD2    C313577   2.368   0.416   0.925  0.0016 -0.0622  0.2448
  928MPD2    C413578   2.402   0.294   0.985 -0.8237 -0.0842  0.4265
  928MPD2    C513579   2.343   0.250   1.099  0.5996  0.3690  0.2579
  928MPD2     H13580   2.261   0.582   0.934 -1.5179 -1.5064 -1.3437
  928MPD2    H113581   2.495   0.245   0.956 -1.2543 -0.4534 -0.3111
  928MPD2    H213582   2.208   0.313   1.260  0.1111 -4.4387 -0.1121
  928MPD2    H313583   2.367   0.159   1.153  4.4305  0.7643 -0.7446
  928MPD2     N13584   2.444   0.487   0.827  0.2628  0.2269 -0.3879
  928MPD2    H513585   2.427   0.585   0.809  0.1614  0.6313  1.9794
  928MPD2    N113586   2.126   0.538   1.175 -0.2905 -0.0433  0.0379
  928MPD2    H713587   2.111   0.523   1.274  1.9943 -0.1012  0.3554
  929MPD2     C13588   3.056   0.186  10.512 -0.8432  0.9403  0.6650
  929MPD2    C113589   2.934   0.190  10.572  0.6094  0.4293 -0.1733
  929MPD2    C213590   2.821   0.222  10.491  0.3795 -0.3256 -0.1581
  929MPD2    C313591   2.841   0.264  10.365 -0.5199  0.2929  0.7663
  929MPD2    C413592   2.965   0.268  10.306  0.3099 -0.9380 -0.1763
  929MPD2    C513593   3.071   0.231  10.384  0.0568 -0.1639 -0.0956
  929MPD2     H13594   2.723   0.236  10.535  1.0054 -2.1425  1.7814
  929MPD2    H113595   2.982   0.298  10.203 -3.0877  1.3794 -0.0534
  929MPD2    H213596   3.147   0.157  10.564  0.1852  0.4784 -1.4140
  929MPD2    H313597   3.171   0.231  10.343  1.2194 -3.8874  2.7009
  929MPD2     N13598   2.732   0.284  10.280  0.1360 -0.0189  0.4731
  929MPD2    H513599   2.751   0.317  10.186  0.7902  0.8604  0.9205
  929MPD2    N113600   2.927   0.171  10.712  0.3872 -0.6078  0.5986
  929MPD2    H713601   3.007   0.150  10.771 -0.6569 -1.5303  1.6757
  930MPD2     C13602   4.615   2.809  14.409  0.5364  0.2766  0.1655
  930MPD2    C113603   4.546   2.842  14.290  0.3062  0.0801 -0.5371
  930MPD2    C213604   4.434   2.764  14.251  0.3469  0.0661 -0.1738
  930MPD2    C313605   4.403   2.649  14.325 -0.0119 -0.0359  0.0292
  930MPD2    C413606   4.481   2.614  14.432  0.1078 -0.2139  0.2744
  930MPD2    C513607   4.578   2.701  14.476 -0.0885  0.9133  0.5263
  930MPD2     H13608   4.379   2.806  14.168  0.8752 -1.1566 -1.1445
  930MPD2    H113609   4.442   2.536  14.495  0.7717 -1.9655 -1.4756
  930MPD2    H213610   4.688   2.876  14.453  0.6546  2.1199 -2.8439
  930MPD2    H313611   4.624   2.682  14.572  1.8382  0.0539 -0.5812
  930MPD2     N13612   4.295   2.563  14.282 -0.0766 -0.3314  0.2426
  930MPD2    H513613   4.289   2.472  14.326  1.7736 -0.4475  0.2553
  930MPD2    N113614   4.601   2.950  14.210  0.0801  0.1615  0.5082
  930MPD2    H713615   4.687   2.995  14.241  0.2299 -0.4050  0.8995
  931MPD2     C13616   3.902   1.670   0.297 -0.4280 -0.2089  0.6076
  931MPD2    C113617   3.914   1.789   0.366  0.2919 -0.1450 -0.2503
  931MPD2    C213618   3.897   1.791   0.501 -0.8711 -0.0496 -0.3001
  931MPD2    C313619   3.883   1.675   0.572 -0.1335 -0.7489  0.7982
  931MPD2    C413620   3.887   1.556   0.501 -0.0029 -0.0643  0.5127
  931MPD2    C513621   3.887   1.552   0.363 -0.7595 -0.4179  0.5050
  931MPD2     H13622   3.921   1.883   0.553  1.4372 -0.2750 -0.9877
  931MPD2    H113623   3.873   1.461   0.551  0.6598 -0.7329 -0.5756
  931MPD2    H213624   3.909   1.672   0.189 -0.1017 -0.8803  0.6221
  931MPD2    H313625   3.896   1.459   0.309  3.2339 -0.3286  1.0410
  931MPD2     N13626   3.884   1.660   0.711 -0.0303  0.3409  0.2467
  931MPD2    H513627   3.876   1.568   0.753  0.7726 -1.2304 -3.0392
  931MPD2    N113628   3.964   1.901   0.288  0.2080  0.4752  0.0081
  931MPD2    H713629   3.958   1.887   0.187 -2.6745 -0.5223  0.2952
  932MPD2     C13630   1.813   0.971  11.283 -0.3929 -0.0166 -0.0926
  932MPD2    C113631   1.946   0.961  11.270 -0.1461  0.2545 -0.3387
  932MPD2    C213632   2.008   0.837  11.260 -0.3130  0.0994  0.2170
  932MPD2    C313633   1.937   0.724  11.295 -0.4058  0.1932 -0.3568
  932MPD2    C413634   1.805   0.736  11.296 -0.1608  0.5575  0.3306
  932MPD2    C513635   1.742   0.854  11.284 -0.3554 -0.0221  0.5197
  932MPD2     H13636   2.115   0.832  11.244 -0.4282  1.8217 -1.0661
  932MPD2    H113637   1.738   0.651  11.306 -1.4344  1.4601 -0.5334
  932MPD2    H213638   1.760   1.065  11.276 -0.0665  0.3360  1.9867
  932MPD2    H313639   1.636   0.872  11.299 -1.1103 -2.3891 -2.0480
  932MPD2     N13640   1.991   0.591  11.322 -0.2795  0.2910 -0.0620
  932MPD2    H513641   1.923   0.518  11.342 -1.1798  0.4830 -2.3705
  932MPD2    N113642   2.023   1.080  11.254 -0.6181  0.3635  0.3344
  932MPD2    H713643   2.115   1.071  11.212  0.0810  1.4233  1.6264
  933MPD2     C13644   1.453   0.860   1.307 -0.9433  0.2111 -0.1470
  933MPD2    C113645   1.548   0.961   1.328 -0.2396 -0.4102 -0.3283
  933MPD2    C213646   1.502   1.090   1.350  0.3804  0.8194 -0.2583
  933MPD2    C313647   1.367   1.125   1.349 -0.1612 -0.4160 -0.3535
  933MPD2    C413648   1.273   1.028   1.313  0.5134  0.2256  0.3316
  933MPD2    C513649   1.318   0.894   1.303  0.4003 -0.5079 -0.0363
  933MPD2     H13650   1.570   1.174   1.359 -0.3700  1.6979 -2.6898
  933MPD2    H113651   1.166   1.042   1.313  0.3456 -1.1181 -3.7222
  933MPD2    H213652   1.487   0.757   1.300 -0.0386  0.6174 -1.7291
  933MPD2    H313653   1.245   0.816   1.289 -0.3114  0.1877 -0.2290
  933MPD2     N13654   1.323   1.265   1.380  0.9049  0.1229 -0.4084
  933MPD2    H513655   1.396   1.335   1.382  1.2608 -0.2635  0.3527
  933MPD2    N113656   1.680   0.924   1.311 -0.1500 -0.5398 -0.0081
  933MPD2    H713657   1.693   0.827   1.286  0.9617 -0.6792  1.0778
  934MPD2     C13658   3.156   2.675   1.944  0.0302  0.7694  0.6681
  934MPD2    C113659   3.262   2.662   1.858  0.8543  0.2314 -0.4281
  934MPD2    C213660   3.232   2.622   1.725  0.0008  0.3556  0.4499
  934MPD2    C313661   3.109   2.574   1.689  0.3506 -0.3035  0.3716
  934MPD2    C413662   3.006   2.594   1.777  0.1461  0.1095 -0.1009
  934MPD2    C513663   3.034   2.639   1.898 -0.2118 -0.1092 -0.3750
  934MPD2     H13664   3.312   2.612   1.652 -1.3588 -0.5617 -0.9029
  934MPD2    H113665   2.901   2.575   1.759  0.2000  0.0650 -0.3812
  934MPD2    H213666   3.169   2.705   2.047 -0.7812  2.7858  0.1696
  934MPD2    H313667   2.957   2.659   1.972 -0.5649 -0.4233 -0.6628
  934MPD2     N13668   3.066   2.529   1.564 -0.6710  0.1303 -0.1255
  934MPD2    H513669   2.989   2.463   1.554 -0.0288 -0.7366  0.6785
  934MPD2    N113670   3.395   2.706   1.880 -0.6632  0.0394 -0.1183
  934MPD2    H713671   3.463   2.684   1.808  0.6321 -1.2383  1.4670
  935MPD2     C13672   3.480   1.915   0.930  0.4077  0.0627 -0.4326
  935MPD2    C113673   3.345   1.906   0.929 -0.2416  0.1130 -0.0938
  935MPD2    C213674   3.277   2.012   0.984 -0.3028 -0.7324 -0.0558
  935MPD2    C313675   3.334   2.131   1.033  0.9491  0.3456  0.6336
  935MPD2    C413676   3.471   2.135   1.038 -0.1387  0.0509  0.3898
  935MPD2    C513677   3.540   2.030   0.977 -0.4739 -0.3938  0.5128
  935MPD2     H13678   3.168   2.005   0.980 -0.3669 -0.0623  0.4635
  935MPD2    H113679   3.525   2.214   1.088  1.2600 -0.8910  0.3480
  935MPD2    H213680   3.540   1.838   0.882  0.2093  0.4859 -1.3544
  935MPD2    H313681   3.648   2.036   0.986 -0.5126 -1.4229  1.7097
  935MPD2     N13682   3.260   2.242   1.084 -0.5308  0.2969 -0.1566
  935MPD2    H513683   3.310   2.314   1.134  1.5714 -1.8589  0.8431
  935MPD2    N113684   3.277   1.805   0.856  0.0211 -0.2380 -0.1476
  935MPD2    H713685   3.176   1.814   0.861  0.0819  0.9763 -1.3333
  936MPD2     C13686   2.049   0.104  12.473  0.0622  0.2185 -0.4360
  936MPD2    C113687   2.130   0.008  12.531 -0.4180 -0.3380  0.2583
  936MPD2    C213688   2.262   4.715  12.483  0.4354 -1.0819  0.1162
  936MPD2    C313689   2.315   0.062  12.378 -0.8225  0.0562  0.7880
  936MPD2    C413690   2.229   0.151  12.316 -0.2880  0.1570  0.1721
  936MPD2    C513691   2.099   0.171  12.365 -0.4455  0.1164  1.0226
  936MPD2     H13692   2.322   4.635  12.526  1.1271 -0.7001 -0.1398
  936MPD2    H113693   2.271   0.203  12.231 -3.3060 -1.0812 -2.0641
  936MPD2    H213694   1.949   0.127  12.506  0.0017 -0.9950  0.2365
  936MPD2    H313695   2.036   0.243  12.314  1.0728  1.5125  1.0892
  936MPD2     N13696   2.450   0.058  12.340 -0.8104  0.9734 -1.1212
  936MPD2    H513697   2.486   0.133  12.280  2.4993 -0.1975 -0.5998
  936MPD2    N113698   2.093   4.661  12.650 -0.4570 -0.2955 -0.3898
  936MPD2    H713699   2.170   4.606  12.688  0.3325  2.7065  2.4281
  937MPD2     C13700   4.500   0.821  11.272  0.4485 -0.1941 -0.0467
  937MPD2    C113701   4.541   0.950  11.317 -0.0197  0.6795  0.4687
  937MPD2    C213702   4.651   1.008  11.250 -1.3260  0.0332 -0.5840
  937MPD2    C313703   0.012   0.931  11.171  0.4460 -0.7570 -0.3000
  937MPD2    C413704   4.697   0.800  11.148 -0.0756 -0.0059 -0.1834
  937MPD2    C513705   4.587   0.748  11.200 -0.8590  0.1719  0.0728
  937MPD2     H13706   4.675   1.113  11.247  1.7827 -0.6788 -0.1001
  937MPD2    H113707   0.033   0.748  11.074 -1.2520 -1.2396 -0.2659
  937MPD2    H213708   4.416   0.764  11.310 -0.3722  0.4284 -0.9333
  937MPD2    H313709   4.560   0.645  11.181 -0.5975  0.4014 -1.4986
  937MPD2     N13710   0.121   0.988  11.106  0.5277 -0.6234  0.1236
  937MPD2    H513711   0.143   1.081  11.139  1.3308 -0.3879 -1.0831
  937MPD2    N113712   4.452   1.037  11.379  0.0196 -0.3020  0.6607
  937MPD2    H713713   4.485   1.132  11.393 -1.9227  0.5164 -0.3150
  938MPD2     C13714   1.848   2.557   0.748  0.4777  0.0201 -0.0089
  938MPD2    C113715   1.916   2.439   0.734 -0.1855  0.0542  0.0057
  938MPD2    C213716   1.896   2.345   0.831 -0.3281 -0.0491  0.4979
  938MPD2    C313717   1.799   2.361   0.931  0.0627  0.9782  0.3500
  938MPD2    C413718   1.727   2.477   0.937  0.8064 -0.4142  0.2800
  938MPD2    C513719   1.750   2.576   0.844  0.3714  0.4319 -0.7249
  938MPD2     H13720   1.968   2.265   0.836  1.4498  1.2854 -3.5266
  938MPD2    H113721   1.645   2.489   1.007  0.6833  1.5536 -0.2109
  938MPD2    H213722   1.870   2.645   0.690 -2.7043  0.2596 -0.8659
  938MPD2    H313723   1.712   2.674   0.870  0.6586  0.0803  1.0394
  938MPD2     N13724   1.782   2.268   1.039 -0.2222  0.5742  0.2074
  938MPD2    H513725   1.709   2.288   1.107 -1.9117 -0.0577 -1.3993
  938MPD2    N113726   2.024   2.421   0.649 -0.1518 -0.1777  0.1426
  938MPD2    H713727   2.078   2.335   0.647  0.6930  0.3751 -0.5540
  939MPD2     C13728   3.524   3.230   0.748 -0.1363  0.6194  1.0220
  939MPD2    C113729   3.450   3.321   0.674 -0.4295 -0.0231  0.4155
  939MPD2    C213730   3.501   3.355   0.548 -0.1728  0.4326  0.2134
  939MPD2    C313731   3.623   3.310   0.498 -0.5786  0.0382  0.4792
  939MPD2    C413732   3.698   3.228   0.578  0.5785  0.4044 -0.5220
  939MPD2    C513733   3.649   3.200   0.703  0.3228  0.1670  0.8122
  939MPD2     H13734   3.459   3.438   0.493 -0.3065  0.8049  0.8751
  939MPD2    H113735   3.793   3.185   0.549  0.9376 -0.0421  1.2765
  939MPD2    H213736   3.495   3.188   0.844  0.4882  0.2003  1.0282
  939MPD2    H313737   3.715   3.141   0.765 -0.7219 -0.4424  1.3555
  939MPD2     N13738   3.656   3.336   0.367  0.2152  1.1744 -0.1531
  939MPD2    H513739   3.588   3.383   0.307 -1.3371 -3.3006 -1.9622
  939MPD2    N113740   3.331   3.367   0.725 -0.2507 -0.1131  0.5302
  939MPD2    H713741   3.298   3.320   0.809 -1.2673  0.5515  0.5009
  940MPD2     C13742   2.308   4.078  13.753 -0.7451 -0.0035  0.9151
  940MPD2    C113743   2.397   4.177  13.777 -0.1977 -0.1613 -0.3181
  940MPD2    C213744   2.466   4.234  13.667  0.2659  0.1035  0.0335
  940MPD2    C313745   2.440   4.191  13.538 -0.1083  0.7115  0.3302
  940MPD2    C413746   2.353   4.085  13.520  0.4069  0.1188 -0.5627
  940MPD2    C513747   2.294   4.025  13.624 -0.0129 -0.1465 -0.2025
  940MPD2     H13748   2.545   4.306  13.683  0.4294  0.5348 -2.7090
  940MPD2    H113749   2.318   4.058  13.421 -3.2603  1.6334  0.3151
  940MPD2    H213750   2.258   4.023  13.832  0.1890 -0.8045  0.9381
  940MPD2    H313751   2.233   3.938  13.603  1.8341 -0.9910 -2.0060
  940MPD2     N13752   2.499   4.253  13.423 -0.4573  0.2225 -0.0535
  940MPD2    H513753   2.477   4.209  13.335 -1.3336  1.3781 -0.4139
  940MPD2    N113754   2.418   4.236  13.905 -0.0979 -0.5281 -0.3169
  940MPD2    H713755   2.477   4.319  13.912 -1.8828  0.5689  2.0044
  941MPD2     C13756   2.362   3.619   8.965 -0.8031 -0.4378 -1.1447
  941MPD2    C113757   2.447   3.630   9.068 -0.0558  0.3092 -0.3659
  941MPD2    C213758   2.419   3.573   9.191  0.6372  0.1578  0.0108
  941MPD2    C313759   2.311   3.485   9.205  0.0649 -0.0594 -0.1149
  941MPD2    C413760   2.232   3.471   9.095  0.2534 -0.1154  0.2701
  941MPD2    C513761   2.251   3.543   8.979  0.0514  0.3748  0.4906
  941MPD2     H13762   2.492   3.569   9.270  0.8342 -0.2912 -0.1920
  941MPD2    H113763   2.148   3.402   9.097 -0.3377  0.5812 -0.8138
  941MPD2    H213764   2.376   3.670   8.870 -0.0562  3.5461  1.1052
  941MPD2    H313765   2.189   3.529   8.892 -0.6477 -0.5487  1.1362
  941MPD2     N13766   2.287   3.401   9.315 -0.3883  0.3913 -0.6704
  941MPD2    H513767   2.200   3.348   9.313  0.2310 -0.6980  0.5909
  941MPD2    N113768   2.579   3.694   9.058  0.4870 -0.3817 -0.2871
  941MPD2    H713769   2.629   3.703   9.146  1.2969  0.4916 -0.8347
  942MPD2     C13770   3.244   0.846   8.721  0.2059  0.5032  0.3806
  942MPD2    C113771   3.365   0.788   8.678  0.5500  0.7299  0.3085
  942MPD2    C213772   3.410   0.670   8.737  0.4072  0.5851  0.5679
  942MPD2    C313773   3.332   0.613   8.842 -0.0364  0.0775  0.0470
  942MPD2    C413774   3.218   0.672   8.878 -0.1913 -0.4247  0.4002
  942MPD2    C513775   3.175   0.785   8.821 -0.2043  0.4074 -0.7134
  942MPD2     H13776   3.507   0.633   8.704  0.3454  2.2619 -1.4925
  942MPD2    H113777   3.155   0.620   8.949 -0.7596  0.0023  0.2055
  942MPD2    H213778   3.213   0.944   8.686 -0.3005  0.4724  0.7454
  942MPD2    H313779   3.077   0.824   8.844 -0.1046  0.3571 -0.1928
  942MPD2     N13780   3.367   0.492   8.904 -0.4236 -0.6616  0.3370
  942MPD2    H513781   3.308   0.462   8.981 -1.0011 -0.0834  0.1211
  942MPD2    N113782   3.452   0.838   8.577 -0.4342 -0.0573 -0.2964
  942MPD2    H713783   3.532   0.782   8.550 -1.3926 -1.2948 -0.5709
  943MPD2     C13784   0.803   3.726   9.450  0.1580  0.2786  0.1203
  943MPD2    C113785   0.829   3.637   9.559  0.0745 -0.4375 -0.0428
  943MPD2    C213786   0.869   3.694   9.684  0.1423 -0.2925 -0.1450
  943MPD2    C313787   0.899   3.831   9.694 -0.1754  0.9298 -0.0632
  943MPD2    C413788   0.880   3.906   9.581 -0.6310  0.6547  0.5918
  943MPD2    C513789   0.843   3.857   9.465 -0.6009 -0.1284 -0.2264
  943MPD2     H13790   0.883   3.629   9.769  0.4162  1.8453  1.4494
  943MPD2    H113791   0.904   4.012   9.581 -0.8882  0.7085 -0.3194
  943MPD2    H213792   0.782   3.683   9.352 -0.2013 -1.2976  0.8798
  943MPD2    H313793   0.831   3.932   9.388  4.3242  1.2326  0.3621
  943MPD2     N13794   0.952   3.876   9.820 -0.1247  0.5515 -0.1900
  943MPD2    H513795   0.960   3.811   9.898  3.0833 -0.1422 -1.0845
  943MPD2    N113796   0.805   3.498   9.541 -1.2254  0.3116 -0.3333
  943MPD2    H713797   0.768   3.476   9.450  1.0641  0.7751 -1.3719
  944MPD2     C13798   0.641   2.438  10.939  0.0940  0.5248  0.5160
  944MPD2    C113799   0.728   2.510  11.017 -0.1922 -0.5008  0.2426
  944MPD2    C213800   0.686   2.572  11.136  0.1047  0.0618 -0.0576
  944MPD2    C313801   0.555   2.550  11.184  0.0893  0.0369 -0.1016
  944MPD2    C413802   0.473   2.464  11.114  0.6734 -0.4942  0.2051
  944MPD2    C513803   0.522   2.406  10.998 -0.1372 -0.2787  0.2531
  944MPD2     H13804   0.759   2.622  11.198  0.4513  1.0058 -1.2437
  944MPD2    H113805   0.378   2.432  11.156  1.2197  0.6511  2.2919
  944MPD2    H213806   0.676   2.372  10.861 -1.4312 -0.0443  0.3020
  944MPD2    H313807   0.458   2.340  10.941  0.3386 -2.3610  2.1245
  944MPD2     N13808   0.509   2.605  11.303 -0.3103 -0.3523  0.7419
  944MPD2    H513809   0.558   2.686  11.339  2.3741 -1.1535 -1.1887
  944MPD2    N113810   0.860   2.521  10.956 -0.2510 -0.2323 -0.2039
  944MPD2    H713811   0.865   2.468  10.870  0.2553 -2.2015  1.0295
    1TCq1    O113812   2.706   3.255  14.256 -0.3760  0.0308  0.5602
    1TCq1    C113813   2.840   3.262  14.223  0.8713  0.8088  0.2125
    1TCq1    O213814   2.928   3.192  14.277  0.2717 -0.5634  0.7149
    1TCq1    C213815   2.872   3.402  14.214  0.0510 -0.3577  0.3716
    1TCq1    C313816   2.812   3.467  14.108  0.5726  1.2249  0.1321
    1TCq1    C413817   2.808   3.604  14.116 -0.0421  0.2566 -0.0115
    1TCq1    C513818   2.849   3.669  14.232 -0.6779 -0.7507  0.0962
    1TCq1    C613819   2.899   3.594  14.337  0.5111 -0.5493  0.3595
    1TCq1    C713820   2.916   3.456  14.325 -0.1793  0.5546 -0.2546
    1TCq1    C813821   2.951   3.653  14.463  0.9153 -0.0936  0.8339
    1TCq1    O413822   3.019   3.579  14.534  0.2715  0.1750  0.1715
    1TCq1    C913823   2.746   3.672  14.007 -0.1859 -0.1133  0.1395
    1TCq1    O513824   2.665   3.760  14.038 -0.1875  0.1697 -0.2193
    1TCq1    O613825   2.724   3.604  13.903 -0.4125  0.1761  0.4765
    1TCq1    H113826   2.666   3.343  14.238 -2.1668 -1.0938 -0.9399
    1TCq1    H213827   2.762   3.421  14.023  0.6966 -0.5089  1.0064
    1TCq1    H313828   2.845   3.777  14.231 -0.8897 -0.7614 -1.1637
    1TCq1    H413829   2.975   3.401  14.397 -2.2154  3.5137  3.6900
    2MPD2     C13830   3.124   4.011  14.784  0.1869 -0.8579 -0.1119
    2MPD2    C113831   3.061   4.076  14.677  0.7937 -0.3235  0.2307
    2MPD2    C213832   2.995   4.001  14.581  0.7390 -0.1149  0.3587
    2MPD2    C313833   2.999   3.864  14.585 -0.0617  0.1258 -0.7426
    2MPD2    C413834   3.055   3.801  14.699 -0.3898  0.0555  0.4554
    2MPD2    C513835   3.113   3.878  14.796  0.1658 -0.9557  0.6991
    2MPD2     H13836   2.957   4.049  14.491  1.2920  1.2499  0.8399
    2MPD2    H113837   3.047   3.696  14.727  2.2165 -0.6742 -1.5270
    2MPD2    H213838   3.174   4.059  14.867 -2.4897  0.1146  0.9519
    2MPD2    H313839   3.165   3.827  14.877  0.9668  0.1285  0.8639
    2MPD2     N13840   2.951   3.791  14.474 -0.1281 -0.0917  0.3470
    2MPD2    H513841   2.906   3.843  14.399 -0.6109 -1.3509 -0.2461
    2MPD2    N113842   3.068   4.212  14.678 -0.4574  0.8079 -0.0844
    2MPD2    H713843   3.140   4.259  14.731 -0.3003 -0.2164  0.6031
    3TMC2    C113844   3.047   4.432  14.603  1.2208 -0.3390 -0.5473
    3TMC2    C213845   3.133   4.469  14.699  0.1460 -0.1978  0.0778
    3TMC2    C313846   3.210   4.587  14.677 -0.7923  0.6155 -0.3753
    3TMC2    C413847   3.036   4.508  14.486  0.3528 -0.0841  0.0490
    3TMC2    C513848   3.123   4.609  14.461 -0.2106 -0.2728  0.0803
    3TMC2    C613849   3.199   4.661  14.564 -0.5699 -0.1817 -0.1487
    3TMC2     C13850   2.997   4.293  14.590  0.4201  0.2879 -0.9442
    3TMC2     O13851   2.905   4.265  14.512  0.5436 -0.4233 -0.2927
    3TMC2     H13852   3.121   4.433  14.801 -2.3924 -1.4129 -0.6643
    3TMC2    H113853   2.967   4.477  14.409  1.5397 -1.5334 -0.4326
    3TMC2    H213854   3.263   0.023  14.545 -2.2042  0.7964 -1.2615
    3TMC2    C713855   3.117   4.678  14.330 -0.4726 -0.2066  0.9668
    3TMC2    C813856   3.298   4.635  14.782 -0.8204  0.8863  0.3981
    3TMC2    O113857   3.009   4.678  14.273 -0.6565  0.3037 -0.4829
    3TMC2    O213858   3.343   0.023  14.758  0.1263  0.1896  0.0863
    3TMC2    O513859   3.366   4.523  14.802  0.6817  0.1267 -0.0446
    3TMC2    H513860   3.335   4.433  14.778 -0.5115  0.7807 -0.9359
    4MPD2     C13861   2.323   0.405  13.419  0.3201  0.3968 -0.0711
    4MPD2    C113862   2.426   0.386  13.329 -0.4636  0.1903  0.4813
    4MPD2    C213863   2.555   0.406  13.372  0.1513 -0.0061  0.3466
    4MPD2    C313864   2.584   0.462  13.501 -0.5362 -0.0548 -0.5104
    4MPD2    C413865   2.473   0.505  13.575  0.5262  0.4365  0.1527
    4MPD2    C513866   2.348   0.470  13.535  0.1072  0.4251 -0.0727
    4MPD2     H13867   2.635   0.370  13.309 -2.3746 -0.8789 -2.3850
    4MPD2    H113868   2.487   0.560  13.668 -1.8995  0.2820  0.5964
    4MPD2    H213869   2.218   0.393  13.394  0.3419 -0.6352  0.3258
    4MPD2    H313870   2.267   0.506  13.597 -0.1958 -0.9711  0.3585
    4MPD2     N13871   2.721   0.476  13.536 -0.4223  0.3991 -0.0347
    4MPD2    H513872   2.795   0.443  13.475  0.0776 -1.7228  1.7145
    4MPD2    N113873   2.396   0.343  13.198 -0.1558 -0.2296  0.0585
    4MPD2    H713874   2.297   0.332  13.179 -0.0917 -0.6726 -0.0375
    5TCq2    C113875   2.761   0.529  13.657 -0.1352  0.1903 -0.0080
    5TCq2    O213876   2.694   0.539  13.762  0.2838  0.3317  0.1779
    5TCq2    C213877   2.902   0.529  13.676  0.4843  0.4084  0.0910
    5TCq2    C313878   2.976   0.513  13.564 -0.1830 -0.2718  0.2132
    5TCq2    C413879   3.098   0.456  13.569  0.0895 -0.4470 -0.5889
    5TCq2    C513880   3.141   0.410  13.689  0.2888 -0.4002  0.3606
    5TCq2    C613881   3.062   0.411  13.801  0.4638 -0.0730  0.5686
    5TCq2    C713882   2.942   0.474  13.797  0.3250 -0.3739 -0.6751
    5TCq2    C813883   3.082   0.301  13.902 -0.6165 -0.4361 -0.1349
    5TCq2    O413884   3.020   0.303  14.007  0.0251  0.0441 -0.1306
    5TCq2    C913885   3.170   0.429  13.451 -0.7731 -1.0134  0.2030
    5TCq2    O513886   3.286   0.386  13.463 -0.1428  0.0852  0.0680
    5TCq2    O613887   3.105   0.431  13.344  0.2742 -0.2933 -0.0210
    5TCq2    H213888   2.948   0.554  13.468 -0.9864  0.6295  0.8256
    5TCq2    H313889   3.237   0.358  13.690  0.5314 -0.0041 -4.0239
    5TCq2    H413890   2.876   0.460  13.882  0.6389  1.8916 -0.0393
    6MPD1     C13891   1.342   1.614  13.289 -0.0898 -0.0704  0.1257
    6MPD1    C113892   1.335   1.580  13.152  0.1265  0.6913 -0.0971
    6MPD1    C213893   1.436   1.506  13.099 -0.4033  0.3689  0.3024
    6MPD1    C313894   1.522   1.433  13.183 -0.5992  0.2205 -0.3010
    6MPD1    C413895   1.519   1.451  13.316  0.0299  0.0060  0.1647
    6MPD1    C513896   1.427   1.538  13.371  0.0141  0.4551 -0.1199
    6MPD1     H13897   1.455   1.497  12.992 -1.5727  0.2786  0.1098
    6MPD1    H113898   1.577   1.391  13.385  0.5649 -2.3585 -2.3095
    6MPD1    H213899   1.279   1.692  13.330  1.5078  2.3563 -2.0279
    6MPD1    H313900   1.422   1.554  13.478  1.6308  0.4931 -0.0624
    6MPD1     N13901   1.615   1.329  13.142 -0.1219  0.1655 -0.6588
    6MPD1    H513902   1.685   1.295  13.206 -0.1080 -1.6749 -1.6644
    6MPD1    N113903   1.258   1.660  13.067 -0.2020  0.0367  0.3069
    6MPD1    H613904   1.179   1.705  13.112  0.2562  0.7818  0.3555
    6MPD1    H713905   1.233   1.609  12.982 -0.1468  0.5882 -0.0345
    7MPD2     C13906   1.779   0.735  13.025  0.1055  0.2617  0.2245
    7MPD2    C113907   1.893   0.718  13.097  0.2002 -0.1953 -0.3093
    7MPD2    C213908   1.950   0.589  13.079  0.1652  0.5670 -0.0558
    7MPD2    C313909   1.917   0.514  12.967  0.6640  0.0047  0.3044
    7MPD2    C413910   1.814   0.549  12.888 -0.5358  0.8443  0.8541
    7MPD2    C513911   1.743   0.660  12.920 -0.1409  0.0188 -0.6014
    7MPD2     H13912   2.036   0.564  13.138 -0.3059 -2.1753 -0.5579
    7MPD2    H113913   1.775   0.488  12.807  1.2076 -0.6961  1.1754
    7MPD2    H213914   1.715   0.821  13.043 -0.3120  0.4672 -2.2167
    7MPD2    H313915   1.656   0.688  12.863  0.2915  2.1103 -0.2050
    7MPD2     N13916   1.988   0.394  12.930 -0.3328 -0.4137  0.7545
    7MPD2    H513917   1.959   0.348  12.845  0.3125  0.0334  0.2939
    7MPD2    N113918   1.939   0.808  13.202  0.1097 -0.3108  0.3666
    7MPD2    H713919   2.005   0.776  13.272 -0.1798 -1.2034  0.2377
    8TMC3    C113920   2.166   0.252  12.927 -0.0296 -0.2229 -0.1829
    8TMC3    C213921   2.280   0.224  13.008  0.0221 -0.1519 -0.2017
    8TMC3    C313922   2.406   0.269  12.974  0.5435 -0.0880  0.0382
    8TMC3    C413923   2.196   0.285  12.796  0.0317  0.9226 -0.7462
    8TMC3    C513924   2.325   0.316  12.765 -0.8515 -0.5792 -1.1997
    8TMC3    C613925   2.429   0.320  12.851  0.4379  0.9564 -0.5837
    8TMC3     C13926   2.095   0.345  13.000  0.3193  0.1641  0.0852
    8TMC3     O13927   2.146   0.373  13.108 -0.7412  0.7268 -0.2029
    8TMC3     H13928   2.265   0.171  13.101  0.6178  0.0686  0.0163
    8TMC3    H113929   2.112   0.274  12.727  1.9570 -1.2395 -2.7234
    8TMC3    H213930   2.529   0.354  12.828  2.4136 -2.8196  2.4098
    8TMC3    C713931   2.332   0.430  12.671 -0.4957  0.2063 -0.4966
    8TMC3    C813932   2.479   0.326  13.089 -0.6113 -0.0680 -0.0637
    8TMC3    O113933   2.428   0.437  12.593  0.1151 -0.2996  0.2888
    8TMC3    O213934   2.595   0.364  13.069  0.1762  0.1904  0.1180
    9TMC3    C113935   1.722   1.182  13.005  0.4165 -0.0019 -0.1018
    9TMC3    C213936   1.784   1.170  12.890 -0.9644 -0.0249 -0.0545
    9TMC3    C313937   1.891   1.081  12.880 -0.0517  0.4604 -0.1949
    9TMC3    C413938   1.767   1.117  13.123 -0.5475  0.1516  0.2666
    9TMC3    C513939   1.856   1.010  13.105 -0.2202 -0.6163  0.3284
    9TMC3    C613940   1.926   0.997  12.987  0.2258 -0.2186  0.4232
    9TMC3     C13941   1.626   1.283  13.013  0.0303 -0.1921  0.0428
    9TMC3     O13942   1.539   1.298  12.925 -0.2672 -0.4208  0.0942
    9TMC3     H13943   1.761   1.239  12.809 -0.3738 -1.2446 -1.2737
    9TMC3    H113944   1.727   1.135  13.222 -0.1906  1.2766  0.2090
    9TMC3    H213945   2.023   0.948  12.994  0.3025 -0.1670 -0.2446
    9TMC3    C713946   1.905   0.940  13.225  0.3777 -0.2020 -0.2359
    9TMC3    C813947   1.941   1.042  12.751 -0.0670  0.0446  0.4309
    9TMC3    O113948   1.902   0.998  13.335  0.5419  0.2028  0.2954
    9TMC3    O213949   1.956   1.118  12.660  0.1639 -0.2116 -0.2891
   10MPD2     C13950   2.208   0.668  12.523  0.0082  0.1145 -0.2750
   10MPD2    C113951   2.163   0.615  12.638 -0.5695  0.0024  0.5260
   10MPD2    C213952   2.084   0.697  12.712 -0.3375 -0.5554  0.7883
   10MPD2    C313953   2.041   0.819  12.671  0.3116 -0.2527  0.4174
   10MPD2    C413954   2.069   0.861  12.542  0.1354 -0.4613  0.2102
   10MPD2    C513955   2.167   0.790  12.479 -0.8100 -0.6644  0.3758
   10MPD2     H13956   2.066   0.667  12.814  1.8097 -2.0976  0.7255
   10MPD2    H113957   2.040   0.955  12.496  0.0299 -0.8770 -0.5544
   10MPD2    H213958   2.268   0.621  12.445  0.8047 -0.5051  0.7193
   10MPD2    H313959   2.202   0.822  12.382 -2.4610 -1.2834 -0.4329
   10MPD2     N13960   1.976   0.906  12.764  0.3780  0.4326 -0.0689
   10MPD2    H513961   1.978   0.882  12.863  2.7413 -0.5968 -0.3735
   10MPD2    N113962   2.210   0.500  12.700 -0.4089  0.6541 -0.0566
   10MPD2    H713963   2.162   0.462  12.781  0.4921  1.7267  0.9648
   11MPD2     C13964   3.387   4.658  14.089  0.1116  0.0663 -0.3714
   11MPD2    C113965   3.274   4.713  14.142 -0.0985 -0.2430 -0.8974
   11MPD2    C213966   3.205   0.085  14.070  0.2805 -0.0025  0.4656
   11MPD2    C313967   3.236   0.109  13.943  1.4729 -0.2357  0.0455
   11MPD2    C413968   3.340   0.042  13.887 -0.4679 -0.4805  0.0969
   11MPD2    C513969   3.413   4.674  13.957 -0.1437  0.7752 -1.0151
   11MPD2     H13970   3.120   0.132  14.118 -0.7342 -3.1719  1.7677
   11MPD2    H113971   3.367   0.058  13.783 -1.6329 -2.0665 -0.4432
   11MPD2    H213972   3.447   4.582  14.137  0.1020  0.5300  0.3772
   11MPD2    H313973   3.492   4.616  13.910 -0.3266 -0.5633  0.3291
   11MPD2     N13974   3.178   0.210  13.866 -0.9140 -0.1349  0.3923
   11MPD2    H513975   3.218   0.207  13.773  0.1587 -1.3834  0.8855
   11MPD2    N113976   3.240   4.676  14.270  0.1102 -0.6138  0.6908
   11MPD2    H713977   3.316   4.642  14.327 -0.0341 -0.1771  1.1407
    1MPD1     C13978   0.627   1.171  16.120 -0.4631  0.2003  0.3803
    1MPD1    C113979   0.602   1.219  16.243  1.0331 -0.6160  0.3164
    1MPD1    C213980   0.707   1.267  16.317  0.2428  0.2257 -0.0586
    1MPD1    C313981   0.835   1.253  16.265 -0.8632 -0.5975 -0.2845
    1MPD1    C413982   0.856   1.205  16.138 -0.2168  0.1661 -0.0437
    1MPD1    C513983   0.751   1.175  16.059 -0.3809  0.6334  0.3789
    1MPD1     H13984   0.694   1.313  16.414  1.6275  2.4703 -0.9398
    1MPD1    H113985   0.955   1.185  16.097  1.0504  3.9800  1.2289
    1MPD1    H213986   0.544   1.144  16.056 -1.4452  0.7471  1.4307
    1MPD1    H313987   0.765   1.149  15.955 -1.7213 -0.1354  0.3900
    1MPD1     N13988   0.953   1.257  16.341 -0.2489 -0.1315  0.4310
    1MPD1    H513989   1.040   1.224  16.299  0.8798  0.3807  2.3700
    1MPD1    N113990   0.475   1.234  16.309 -0.1541 -0.1518 -0.0016
    1MPD1    H613991   0.479   1.241  16.411  2.7973 -1.7964 -0.0014
    1MPD1    H713992   0.401   1.170  16.283 -0.4647  0.8104 -1.4589
    2MPD1     C13993   1.470   1.856  16.963  1.0555 -0.6245  0.6276
    2MPD1    C113994   1.343   1.865  16.904  0.1632 -0.3604 -0.2230
    2MPD1    C213995   1.302   1.752  16.840  0.0914 -0.0857 -1.0323
    2MPD1    C313996   1.361   1.621  16.855  0.1583  0.9903  0.1415
    2MPD1    C413997   1.490   1.624  16.906 -0.5218 -0.0475  0.3133
    2MPD1    C513998   1.538   1.740  16.962 -0.3109 -0.0414  0.2640
    2MPD1     H13999   1.213   1.760  16.778 -0.0610 -2.2217 -1.1105
    2MPD1    H114000   1.551   1.536  16.921 -0.3963 -0.3847 -2.1874
    2MPD1    H214001   1.512   1.946  17.007  0.5819 -0.7401  1.3176
    2MPD1    H314002   1.641   1.745  16.997  0.5037  1.9500 -2.3782
    2MPD1     N14003   1.292   1.505  16.804  0.5156  0.8030  0.2512
    2MPD1    H514004   1.194   1.512  16.777  0.1169  2.1034  2.0767
    2MPD1    N114005   1.289   1.993  16.881  0.5223  0.6078  0.5506
    2MPD1    H614006   1.190   2.002  16.857  0.8798 -1.5601 -1.8232
    2MPD1    H714007   1.333   2.063  16.940 -0.9736  0.5992  1.6680
    3TMC3    C114008   1.262   1.302  16.696 -0.4492  0.3768 -0.0437
    3TMC3    C214009   1.334   1.192  16.654 -0.1813  0.4372  0.6631
    3TMC3    C314010   1.279   1.120  16.547 -0.9560 -0.0981 -0.1089
    3TMC3    C414011   1.142   1.339  16.637 -0.2446  0.5234 -0.3759
    3TMC3    C514012   1.092   1.269  16.529  0.3093 -0.2804  0.4837
    3TMC3    C614013   1.167   1.163  16.480 -0.0099  0.4159  0.2889
    3TMC3     C14014   1.333   1.378  16.790  0.0678 -0.1896 -0.2432
    3TMC3     O14015   1.432   1.325  16.840 -0.6515  0.2402 -0.6295
    3TMC3     H14016   1.428   1.158  16.696 -0.9220 -1.6629  0.6423
    3TMC3    H114017   1.090   1.427  16.674 -0.5469 -0.0902  0.6580
    3TMC3    H214018   1.118   1.097  16.410  1.3617 -0.3535  0.0683
    3TMC3    C714019   0.972   1.316  16.466 -0.1421  0.9147 -0.1777
    3TMC3    C814020   1.353   1.009  16.492 -0.3047  0.6541  0.2543
    3TMC3    O114021   0.891   1.375  16.540 -0.2066 -0.5251  0.3254
    3TMC3    O214022   1.322   0.987  16.375  0.2001  0.4641 -0.1839
    4MPD1     C14023   1.721   0.651  16.511 -0.0043 -0.4570  0.0563
    4MPD1    C114024   1.704   0.712  16.635  0.2247  0.1036 -0.4995
    4MPD1    C214025   1.606   0.806  16.647  0.0297  0.1262 -0.0061
    4MPD1    C314026   1.536   0.852  16.547  0.7565  0.1234  0.3015
    4MPD1    C414027   1.548   0.789  16.422 -0.4364 -0.4670 -0.6097
    4MPD1    C514028   1.644   0.692  16.406 -0.1708 -0.0057 -0.3989
    4MPD1     H14029   1.590   0.849  16.745 -0.9942  0.4703 -0.3273
    4MPD1    H114030   1.494   0.822  16.334  2.1570  0.6777 -1.7972
    4MPD1    H214031   1.793   0.570  16.509  0.8934  0.3289  0.3234
    4MPD1    H314032   1.662   0.651  16.307  1.2419 -1.1652  0.3227
    4MPD1     N14033   1.448   0.957  16.574 -0.0805  0.0297  0.3383
    4MPD1    H514034   1.456   0.994  16.668  1.4496  1.2461 -0.2632
    4MPD1    N114035   1.791   0.690  16.740 -0.0769 -0.7701  0.1608
    4MPD1    H614036   1.836   0.600  16.750  1.3534  0.1874  2.2291
    4MPD1    H714037   1.749   0.713  16.830 -2.5765 -1.5274 -0.8137
    1TCq1    O114038   2.215   0.783  11.686  0.2501  0.8493  0.0274
    1TCq1    C114039   2.128   0.864  11.612 -0.0949  0.0849  0.3591
    1TCq1    O214040   2.012   0.897  11.639  0.6148 -0.2107  0.1169
    1TCq1    C214041   2.204   0.953  11.532  0.4287  0.9077 -0.2447
    1TCq1    C314042   2.326   0.921  11.481 -0.2447 -0.3089  0.4799
    1TCq1    C414043   2.404   1.016  11.429  0.2512  0.9297 -0.1331
    1TCq1    C514044   2.378   1.147  11.456 -0.8568  0.0309  0.4086
    1TCq1    C614045   2.259   1.181  11.516 -0.4464 -0.2342 -0.5992
    1TCq1    C714046   2.172   1.084  11.560  0.0134 -0.2510 -0.0999
    1TCq1    C814047   2.253   1.318  11.546 -0.2154  0.5354 -0.0716
    1TCq1    O414048   2.313   1.393  11.467  0.0093  0.2687 -0.5301
    1TCq1    C914049   2.541   0.975  11.427 -0.0354  0.3582 -0.3993
    1TCq1    O514050   2.627   1.070  11.423  0.4613  0.4545 -0.2535
    1TCq1    O614051   2.566   0.860  11.467  0.2368  0.0557 -0.3397
    1TCq1    H114052   2.310   0.786  11.662  0.2375  0.1768 -0.0945
    1TCq1    H214053   2.358   0.819  11.461  1.9966  0.3492  0.7161
    1TCq1    H314054   2.460   1.216  11.442  1.9061 -3.3920 -0.3054
    1TCq1    H414055   2.072   1.115  11.590 -0.5703 -0.8042 -1.4706
    2MPD1     C14056   2.069   1.697  11.832  0.2499  0.4973  0.3290
    2MPD1    C114057   2.044   1.573  11.895 -0.2961 -0.2177 -0.2027
    2MPD1    C214058   2.076   1.456  11.832 -0.2238 -0.2643  0.0105
    2MPD1    C314059   2.140   1.459  11.710 -0.1524 -0.3552 -0.1857
    2MPD1    C414060   2.172   1.581  11.647  0.2969 -0.6810  0.3062
    2MPD1    C514061   2.134   1.699  11.708 -0.2437 -0.1356 -0.4965
    2MPD1     H14062   2.058   1.358  11.875  0.2334  0.0035  0.7911
    2MPD1    H114063   2.219   1.589  11.550  1.4361  1.8306  1.0930
    2MPD1    H214064   2.059   1.792  11.885 -1.7728  0.7651 -0.5324
    2MPD1    H314065   2.160   1.797  11.672  1.9694  0.3909  2.5408
    2MPD1     N14066   2.176   1.336  11.661  0.0270  0.0005 -0.1380
    2MPD1    H514067   2.150   1.253  11.712  2.1258 -0.9125 -0.5477
    2MPD1    N114068   1.972   1.573  12.009  0.1942  0.0039  0.6599
    2MPD1    H614069   1.986   1.656  12.066 -1.7759 -1.6336  3.4953
    2MPD1    H714070   1.974   1.488  12.064 -3.4172 -0.7074 -0.2793
    1TCq1    O114071   0.455   3.783   1.564  0.1005  0.2309  0.5225
    1TCq1    C114072   0.410   3.720   1.459 -0.3098 -0.3811  0.0299
    1TCq1    O214073   0.436   3.754   1.340 -0.3024 -0.5153  0.3793
    1TCq1    C214074   0.409   3.577   1.505  0.4616  0.7104 -0.7762
    1TCq1    C314075   0.361   3.549   1.630  0.4104 -0.2779 -0.0258
    1TCq1    C414076   0.350   3.417   1.664  1.0164 -0.8039  0.2275
    1TCq1    C514077   0.388   3.319   1.573  0.0532  0.5119  0.8745
    1TCq1    C614078   0.443   3.357   1.457 -0.1402  0.1267  0.4912
    1TCq1    C714079   0.455   3.486   1.419 -0.1224 -0.2688  0.3953
    1TCq1    C814080   0.511   3.253   1.376  0.7152 -0.0992  0.2652
    1TCq1    O414081   0.547   3.299   1.266 -0.4152  0.0366 -0.0819
    1TCq1    C914082   0.263   3.382   1.778 -0.2492 -0.0537 -0.2113
    1TCq1    O514083   0.227   3.480   1.846 -0.2006 -0.3117 -0.0314
    1TCq1    O614084   0.248   3.257   1.811 -0.0022 -0.2750  0.5852
    1TCq1    H114085   0.448   3.735   1.649 -2.5207  0.6699  0.5514
    1TCq1    H214086   0.315   3.622   1.695  0.5559  0.5672 -0.8875
    1TCq1    H314087   0.363   3.216   1.599 -1.5911  0.5006 -0.7174
    1TCq1    H414088   0.506   3.521   1.330 -0.0081 -2.2668 -0.3306
    2MPD1     C14089   0.718   2.791   1.283  0.9399  0.1396  0.7089
    2MPD1    C114090   0.656   2.788   1.404  0.5341  0.1651  0.2106
    2MPD1    C214091   0.600   2.905   1.451 -0.1205  0.0825  0.2781
    2MPD1    C314092   0.583   3.018   1.373 -0.1621 -0.7748  0.3212
    2MPD1    C414093   0.638   3.019   1.246  0.6915 -0.3040 -1.0567
    2MPD1    C514094   0.693   2.898   1.198 -0.1317  0.1441  0.0739
    2MPD1     H14095   0.553   2.901   1.549 -0.2908 -0.8515  0.1657
    2MPD1    H114096   0.619   3.101   1.177  0.5035  1.4267  1.0368
    2MPD1    H214097   0.758   2.705   1.230 -0.4329 -0.1916  0.1887
    2MPD1    H314098   0.731   2.895   1.097 -0.1617 -1.6706  0.1096
    2MPD1     N14099   0.518   3.133   1.430 -0.1237 -0.1673 -0.4672
    2MPD1    H514100   0.476   3.105   1.518  3.8485  1.1038  1.8090
    2MPD1    N114101   0.689   2.684   1.488  0.3502 -0.0213 -0.4304
    2MPD1    H614102   0.680   2.590   1.449  0.3915 -0.0822 -0.2938
    2MPD1    H714103   0.620   2.674   1.562  0.6230  0.5151 -0.1058
    1MPD1     C14104   4.304   0.522  11.980 -0.0027  0.7513  0.0729
    1MPD1    C114105   4.173   0.527  11.976  0.2404 -0.8582  0.3402
    1MPD1    C214106   4.113   0.550  11.851 -0.0006 -0.1071  0.3233
    1MPD1    C314107   4.194   0.555  11.740  0.1653 -0.1052  0.4641
    1MPD1    C414108   4.330   0.530  11.749  0.1752  0.1771  0.1604
    1MPD1    C514109   4.382   0.517  11.873 -0.3519  0.0688 -0.1625
    1MPD1     H14110   4.005   0.553  11.838  0.3119  2.5274 -1.6178
    1MPD1    H114111   4.395   0.543  11.662 -0.5691  1.6954 -0.1718
    1MPD1    H214112   4.353   0.491  12.071  1.1227  0.8610 -0.4907
    1MPD1    H314113   4.489   0.509  11.888 -0.5471  0.0159  1.2016
    1MPD1     N14114   4.126   0.590  11.620 -0.0743  0.1590 -0.2748
    1MPD1    H514115   4.025   0.595  11.631  0.2151  0.5620  2.0266
    1MPD1    N114116   4.097   0.517  12.095 -0.2292 -0.4240  0.4652
    1MPD1    H614117   3.998   0.510  12.073  0.1640  0.5385 -1.5728
    1MPD1    H714118   4.131   0.447  12.162  3.2166 -1.1079 -2.0129
    2MPD1     C14119   3.704   1.333  11.175  0.0975 -0.3759 -0.3215
    2MPD1    C114120   3.728   1.408  11.066  0.1056  0.0518  0.6953
    2MPD1    C214121   3.712   1.348  10.941  0.0626  0.1187  0.1468
    2MPD1    C314122   3.686   1.211  10.932 -0.8065  0.1148 -0.5341
    2MPD1    C414123   3.659   1.134  11.044  0.1248  0.5516 -0.4176
    2MPD1    C514124   3.670   1.202  11.160  0.1295  0.1179  0.3658
    2MPD1     H14125   3.717   1.406  10.850  0.0445  0.9796  0.6898
    2MPD1    H114126   3.632   1.030  11.037  0.7315  0.4642 -1.6246
    2MPD1    H214127   3.688   1.368  11.276  1.1634  0.7206 -0.5376
    2MPD1    H314128   3.645   1.144  11.248 -1.8690  1.5647  0.7590
    2MPD1     N14129   3.683   1.143  10.804  0.7661 -0.3194 -0.2446
    2MPD1    H514130   3.670   1.042  10.806 -1.6547 -0.0572 -2.2748
    2MPD1    N114131   3.741   1.548  11.073 -0.4991 -0.0697  0.2568
    2MPD1    H614132   3.790   1.573  11.159 -0.1000  0.4442 -0.1145
    2MPD1    H714133   3.796   1.582  10.994  1.1958 -0.4773  1.2462
    3MPD1     C14134   3.392   0.346  10.696  0.1607 -0.2615 -0.1951
    3MPD1    C114135   3.458   0.401  10.805 -0.0460  0.5098 -0.3728
    3MPD1    C214136   3.498   0.535  10.793  0.3832  0.2650  0.0757
    3MPD1    C314137   3.518   0.590  10.665  0.6397  0.6482  0.3124
    3MPD1    C414138   3.459   0.527  10.556  0.0966 -0.2513  0.1408
    3MPD1    C514139   3.386   0.407  10.572 -0.1402 -0.1646  0.3176
    3MPD1     H14140   3.547   0.587  10.875  1.0290 -0.2477  0.0195
    3MPD1    H114141   3.465   0.547  10.450 -0.4673  0.6735  0.2816
    3MPD1    H214142   3.329   0.259  10.711  1.1181 -0.8055  0.6424
    3MPD1    H314143   3.357   0.351  10.484 -0.7022 -0.4020  0.6536
    3MPD1     N14144   3.593   0.707  10.653  0.1628 -0.2681 -0.1636
    3MPD1    H514145   3.626   0.755  10.736  1.3636 -0.5158 -0.4845
    3MPD1    N114146   3.445   0.332  10.928  0.9192 -0.4990 -0.4277
    3MPD1    H614147   3.506   0.385  10.990 -0.3537  1.3104 -0.7025
    3MPD1    H714148   3.462   0.232  10.919  0.8772 -0.3250 -2.4524
    4MPD2     C14149   4.047   1.258  11.238  0.0428  0.1062 -0.9355
    4MPD2    C114150   4.102   1.137  11.201 -0.6282 -0.4064 -0.0587
    4MPD2    C214151   4.215   1.140  11.123 -0.1686  0.1104 -0.3635
    4MPD2    C314152   4.270   1.254  11.076  1.0459  0.6258  0.1972
    4MPD2    C414153   4.209   1.372  11.106 -0.2165  0.0184  0.0860
    4MPD2    C514154   4.098   1.366  11.189  0.2078 -0.2769  0.3288
    4MPD2     H14155   4.264   1.043  11.113 -0.9553 -0.2926 -0.3113
    4MPD2    H114156   4.235   1.468  11.062  0.0857  0.0114  0.2521
    4MPD2    H214157   3.960   1.270  11.301  1.4610  0.0884  0.9915
    4MPD2    H314158   4.047   1.459  11.208 -1.5778 -1.2237  0.1739
    4MPD2     N14159   4.377   1.236  10.986 -0.0937  0.3180 -0.1464
    4MPD2    H514160   4.396   1.138  10.966  1.2555  0.9035 -1.7579
    4MPD2    N114161   4.053   1.006  11.230 -0.1938 -0.0131 -0.1927
    4MPD2    H714162   4.086   0.927  11.175 -0.7200  0.3295 -0.9927
    5TMC3    C114163   3.953   0.834  11.324  0.1711 -0.4121  0.5357
    5TMC3    C214164   4.020   0.770  11.430 -0.6066  0.1689 -0.4753
    5TMC3    C314165   4.089   0.656  11.399  0.4606  0.9598 -0.2800
    5TMC3    C414166   3.949   0.781  11.198  0.1347  0.1111 -0.0603
    5TMC3    C514167   4.036   0.667  11.175 -0.1848  0.7292  0.5274
    5TMC3    C614168   4.114   0.611  11.271  0.0793  0.0752  0.4192
    5TMC3     C14169   3.953   0.976  11.319 -0.7079 -0.7780 -0.3754
    5TMC3     O14170   3.906   1.036  11.416  0.2086 -0.0892 -0.2896
    5TMC3     H14171   4.030   0.817  11.527 -3.7846 -1.5436  0.7104
    5TMC3    H114172   3.919   0.839  11.111 -3.8458  0.5231  1.6074
    5TMC3    H214173   4.179   0.524  11.258  0.9662  0.8847 -0.5975
    5TMC3    C714174   4.108   0.692  11.052  0.3986  0.3188  0.0208
    5TMC3    C814175   4.185   0.609  11.499  1.0515 -0.2880  0.0370
    5TMC3    O114176   4.119   0.810  11.016 -0.2674 -0.3484  0.6888
    5TMC3    O214177   4.288   0.562  11.459  0.5886 -0.0464  0.3143
    6TMC3    C114178   3.681   1.104  10.573 -1.1256  0.5014 -0.5493
    6TMC3    C214179   3.638   0.975  10.597 -0.3689  0.3079 -0.0502
    6TMC3    C314180   3.704   0.876  10.527 -0.2409  0.2597  0.1175
    6TMC3    C414181   3.782   1.126  10.479 -0.0887  0.0229 -0.1592
    6TMC3    C514182   3.847   1.022  10.416  0.2182  0.2108  0.2058
    6TMC3    C614183   3.800   0.896  10.436  0.7155  0.0684  0.1707
    6TMC3     C14184   3.683   1.200  10.679  0.1249 -0.1614 -0.5580
    6TMC3     O14185   3.676   1.321  10.648  0.1400  0.2878 -0.0932
    6TMC3     H14186   3.553   0.947  10.657 -0.7983 -0.0273 -0.8080
    6TMC3    H114187   3.821   1.226  10.466  0.7572  0.1503  3.1360
    6TMC3    H214188   3.851   0.813  10.389 -0.8383 -0.6563 -0.2498
    6TMC3    C714189   3.979   1.044  10.378 -0.7730 -0.0328  0.4895
    6TMC3    C814190   3.642   0.745  10.524  0.0156 -0.7670  0.0348
    6TMC3    O114191   4.034   1.145  10.425 -0.1121 -0.4096 -0.6215
    6TMC3    O214192   3.651   0.673  10.425  0.2727 -0.0274  0.8183
    7MPD2     C14193   4.505   0.567  10.767  0.3307  0.2809 -0.1532
    7MPD2    C114194   4.480   0.690  10.819  0.5251 -0.6341  0.3789
    7MPD2    C214195   4.371   0.703  10.909  0.2564 -0.2059 -0.2560
    7MPD2    C314196   4.292   0.587  10.921 -0.8164 -0.7601 -0.2367
    7MPD2    C414197   4.326   0.462  10.878 -0.2144 -0.3378  0.2023
    7MPD2    C514198   4.426   0.459  10.785 -0.4536  0.9134 -0.6441
    7MPD2     H14199   4.349   0.794  10.962 -0.0109 -0.2423 -0.3056
    7MPD2    H114200   4.263   0.374  10.885 -0.1860 -0.5247 -1.9538
    7MPD2    H214201   4.580   0.558  10.690  1.1199 -1.4357  0.8048
    7MPD2    H314202   4.438   0.374  10.719 -2.8208  0.0106  0.1049
    7MPD2     N14203   4.181   0.582  11.013 -0.5166 -0.1121 -0.4990
    7MPD2    H514204   4.142   0.493  11.044 -0.4195  0.0996  0.2300
    7MPD2    N114205   4.562   0.802  10.789  0.0796 -0.8769 -0.5670
    7MPD2    H714206   4.640   0.796  10.724 -0.4754 -0.0184 -1.3000
    8TMC3    C114207   4.629   1.038  10.790 -0.3389  0.2013  0.3793
    8TMC3    C214208   4.612   1.058  10.654  0.4822  0.3968  0.0108
    8TMC3    C314209   4.548   1.170  10.606 -0.8893 -0.8987  0.4140
    8TMC3    C414210   4.604   1.144  10.875 -0.1625  0.1120  0.5080
    8TMC3    C514211   4.546   1.259  10.824  0.2246 -0.1069  0.3086
    8TMC3    C614212   4.506   1.266  10.697 -0.3348  0.0836 -0.0379
    8TMC3     C14213   4.548   0.926  10.848  0.1362 -0.4831  0.5968
    8TMC3     O14214   4.463   0.976  10.917 -0.3363 -0.3423 -0.2312
    8TMC3     H14215   4.649   0.988  10.580  1.7407  1.7617 -0.6453
    8TMC3    H114216   4.617   1.146  10.983 -1.9943 -1.8691  0.7624
    8TMC3    H214217   4.456   1.358  10.671 -1.0662 -0.5852 -1.0205
    8TMC3    C714218   4.455   1.326  10.912  0.0086  0.5138 -0.1105
    8TMC3    C814219   4.462   1.158  10.495  0.3200  0.0530 -1.2486
    8TMC3    O114220   4.443   1.445  10.898  0.1971  0.1532 -0.5969
    8TMC3    O214221   4.361   1.228  10.492 -0.0674  0.7349 -0.0517
    9MPD2     C14222   4.433   0.947  10.191  0.1936 -0.0962  0.3639
    9MPD2    C114223   4.389   1.006  10.310 -0.5196 -0.4544 -0.1211
    9MPD2    C214224   4.254   1.007  10.336 -0.1740  0.3827  0.8539
    9MPD2    C314225   4.160   0.954  10.254 -1.1399 -0.0892  0.4797
    9MPD2    C414226   4.201   0.907  10.136 -1.5661 -0.2827  0.7107
    9MPD2    C514227   4.333   0.903  10.106 -0.6013  0.0862  0.2848
    9MPD2     H14228   4.223   1.045  10.432 -0.2774  0.9005  0.6166
    9MPD2    H114229   4.131   0.870  10.063 -1.0799  0.5538 -0.1728
    9MPD2    H214230   4.534   0.949  10.152 -0.0791  0.3277 -0.3177
    9MPD2    H314231   4.366   0.868  10.008 -4.5402 -2.6932 -0.0544
    9MPD2     N14232   4.028   0.960  10.284 -0.3841 -0.0432 -0.1888
    9MPD2    H514233   3.959   0.900  10.240  0.1036 -0.3231 -0.5691
    9MPD2    N114234   4.485   1.055  10.407 -0.0268  0.0239 -0.6444
    9MPD2    H714235   4.577   1.013  10.407  1.3603  3.0257  0.2593
    1MPD1     C14236   1.075   0.391   0.335  0.3089  0.4992 -0.0554
    1MPD1    C114237   1.165   0.488   0.305 -0.2399  0.6804  0.4206
    1MPD1    C214238   1.297   0.466   0.288  0.4344 -0.5454 -0.1597
    1MPD1    C314239   1.343   0.334   0.282 -0.2465 -0.1910 -0.4553
    1MPD1    C414240   1.251   0.236   0.321  0.2386 -0.7523  0.5318
    1MPD1    C514241   1.123   0.265   0.359  0.6817 -0.0905 -0.4059
    1MPD1     H14242   1.366   0.550   0.279  1.0814 -1.3570 -2.8089
    1MPD1    H114243   1.284   0.133   0.332 -1.0371 -1.0413  1.6313
    1MPD1    H214244   0.968   0.404   0.347  0.3674 -0.0534  1.0646
    1MPD1    H314245   1.058   0.183   0.389  1.6920 -0.3882  0.9396
    1MPD1     N14246   1.470   0.286   0.257 -0.3107 -0.5125 -0.4555
    1MPD1    H514247   1.494   0.190   0.277  1.3073 -0.0708 -0.2875
    1MPD1    N114248   1.127   0.618   0.310  0.2823 -0.4869  0.0082
    1MPD1    H614249   1.183   0.683   0.254 -1.7038 -0.4619 -1.9472
    1MPD1    H714250   1.029   0.636   0.288  0.3323  0.0968  0.2447
    2MPD1     C14251   1.719   4.232   0.473  0.9179 -0.1734  0.2053
    2MPD1    C114252   1.604   4.267   0.396  0.2139  0.0814  0.3486
    2MPD1    C214253   1.613   4.387   0.325 -0.4106  0.0193  0.4788
    2MPD1    C314254   1.726   4.469   0.329 -0.4524 -0.9164  0.3050
    2MPD1    C414255   1.840   4.424   0.397  0.5054  0.9959 -0.2143
    2MPD1    C514256   1.831   4.309   0.480  1.2471 -0.3347 -0.2458
    2MPD1     H14257   1.535   4.413   0.254  1.2749  1.6634 -0.7726
    2MPD1    H114258   1.935   4.476   0.394 -0.4242  2.8174  1.6324
    2MPD1    H214259   1.711   4.139   0.529  1.1520  0.9882  2.1702
    2MPD1    H314260   1.913   4.271   0.540 -0.1448 -0.9182  1.2744
    2MPD1     N14261   1.714   4.596   0.261  0.0923 -0.5196  0.3594
    2MPD1    H514262   1.625   4.620   0.219  1.2170 -1.9551 -2.8455
    2MPD1    N114263   1.487   4.192   0.413  0.1840 -0.1300  0.4691
    2MPD1    H614264   1.414   4.213   0.346  0.0225  1.7755  1.2655
    2MPD1    H714265   1.495   4.092   0.431  1.1957  0.0286  0.9082
    3TCq2    C114266   1.821   4.681   0.239 -0.2820  0.2486 -0.9879
    3TCq2    O214267   1.937   4.658   0.266  0.7562 -0.0760 -0.1748
    3TCq2    C214268   1.799   0.082   0.174 -0.5538 -0.0305  0.5625
    3TCq2    C314269   1.894   0.134   0.100 -0.9518 -0.2560  0.3878
    3TCq2    C414270   1.889   0.266   0.053 -0.0045  0.3415  0.1458
    3TCq2    C514271   1.776   0.338   0.086  0.9133 -0.4239 -1.0677
    3TCq2    C614272   1.689   0.290   0.181 -0.4720  0.5271  0.2043
    3TCq2    C714273   1.699   0.160   0.229 -0.1543  0.0196  0.1761
    3TCq2    C814274   1.567   0.367   0.202  0.2419 -1.2081  0.1223
    3TCq2    O414275   1.560   0.482   0.164  0.6100 -0.1407  0.1512
    3TCq2    C914276   1.991   0.320  17.660 -0.1565 -0.3705 -0.0205
    3TCq2    O514277   1.973   0.439  17.619  0.1243  0.0263  0.0626
    3TCq2    O614278   2.084   0.241  17.623 -0.4365  0.4237  0.1617
    3TCq2    H214279   1.976   0.070   0.069  0.6081  1.4574  0.9487
    3TCq2    H314280   1.758   0.438   0.048 -2.0212 -0.8633 -0.7718
    3TCq2    H414281   1.630   0.116   0.301 -0.0678 -1.8678 -0.8959
    1TCq1    O114282   0.790   3.090  13.248  0.5415  0.2186  0.0619
    1TCq1    C114283   0.862   3.202  13.251 -0.5973 -0.4487 -0.3300
    1TCq1    O214284   0.845   3.293  13.326  0.0055  0.0465  0.0868
    1TCq1    C214285   0.982   3.175  13.174  0.5887  0.5369 -0.0426
    1TCq1    C314286   1.025   3.051  13.160 -0.6187  0.2320  0.5006
    1TCq1    C414287   1.155   3.031  13.120 -0.1431  0.0272  0.3673
    1TCq1    C514288   1.228   3.138  13.080 -0.3078  0.0186 -0.2663
    1TCq1    C614289   1.176   3.263  13.079 -0.5132 -0.4607  0.2834
    1TCq1    C714290   1.047   3.285  13.126  0.1372 -0.6900  0.0574
    1TCq1    C814291   1.234   3.364  12.989  0.7881  0.0443 -0.5171
    1TCq1    O414292   1.164   3.401  12.894 -0.1477  0.0219  0.2053
    1TCq1    C914293   1.194   2.894  13.109  1.0741  0.7424  0.4259
    1TCq1    O514294   1.290   2.845  13.171 -0.3253 -0.1596 -0.0644
    1TCq1    O614295   1.109   2.825  13.046 -0.2292 -0.5974  0.0440
    1TCq1    H114296   0.786   3.048  13.159 -1.2835 -0.0881  0.2764
    1TCq1    H214297   0.964   2.965  13.186  0.3243 -0.5450  0.1415
    1TCq1    H314298   1.322   3.119  13.030 -0.5937  0.7928 -1.0833
    1TCq1    H414299   0.999   3.382  13.132 -0.0184 -0.7555 -0.1315
    2MPD2     C14300   1.407   3.563  12.842 -0.6103  0.1641 -0.0743
    2MPD2    C114301   1.427   3.512  12.973 -0.1042 -0.1837  0.2345
    2MPD2    C214302   1.538   3.560  13.040 -0.6491  0.3300 -0.6120
    2MPD2    C314303   1.622   3.664  13.003  0.1820  0.7532  0.2302
    2MPD2    C414304   1.599   3.708  12.872  0.4762  0.6240  0.7891
    2MPD2    C514305   1.496   3.659  12.793 -0.8894  0.2270  0.9679
    2MPD2     H14306   1.559   3.512  13.135 -0.4888  0.2107 -0.7066
    2MPD2    H114307   1.661   3.789  12.835 -0.1183 -0.4246 -2.4797
    2MPD2    H214308   1.336   3.518  12.774  1.1357 -2.3489 -0.2431
    2MPD2    H314309   1.476   3.705  12.696 -1.8564  2.2809  2.1477
    2MPD2     N14310   1.728   3.710  13.087 -0.0770  0.0793 -0.8406
    2MPD2    H514311   1.745   3.655  13.171 -1.9643 -0.8694 -1.0681
    2MPD2    N114312   1.351   3.411  13.031  0.0274  1.0623  0.6713
    2MPD2    H714313   1.393   3.363  13.110  0.1012 -0.0331 -0.0305
    3TCq1    O114314   2.184   4.205  13.303  0.7854 -0.1681 -0.8935
    3TCq1    C114315   2.062   4.143  13.316  0.5280  0.4971 -0.3363
    3TCq1    O214316   1.988   4.159  13.415 -0.4963 -0.4639  0.2648
    3TCq1    C214317   2.057   4.016  13.246  0.2597  0.2561  0.2108
    3TCq1    C314318   2.169   3.938  13.236 -0.2200  0.2819  1.0485
    3TCq1    C414319   2.147   3.818  13.175 -0.0373 -0.2360  0.1434
    3TCq1    C514320   2.024   3.769  13.146  0.3381 -0.3625  0.4130
    3TCq1    C614321   1.914   3.849  13.163 -0.7722 -0.1677  0.1697
    3TCq1    C714322   1.933   3.977  13.205  0.1969 -0.3812 -0.4317
    3TCq1    C814323   1.799   3.825  13.070 -0.1074  0.4162 -0.4885
    3TCq1    O414324   1.781   3.909  12.985  0.2143 -0.5440 -0.0034
    3TCq1    C914325   2.261   3.730  13.160  0.2132 -0.3304 -0.2528
    3TCq1    O514326   2.234   3.614  13.128 -0.2599  0.2232  0.3093
    3TCq1    O614327   2.369   3.773  13.203  0.1285  0.6953  0.0514
    3TCq1    H114328   2.230   4.179  13.220  0.1439 -2.4018 -0.5617
    3TCq1    H214329   2.265   3.970  13.275  0.5597 -0.7915 -0.0117
    3TCq1    H314330   1.998   3.672  13.107  2.0051 -1.0298  0.9840
    3TCq1    H414331   1.844   4.036  13.225 -0.2609 -0.3424 -2.5856
    1MPD2     C14332   1.040   4.127  15.210  0.1663  0.3425  0.2222
    1MPD2    C114333   0.941   4.163  15.113  0.6224 -0.2487  0.0398
    1MPD2    C214334   0.983   4.175  14.980  0.3179 -0.1086  0.4475
    1MPD2    C314335   1.115   4.147  14.946  0.1039 -0.3525 -0.5352
    1MPD2    C414336   1.205   4.109  15.038 -0.6459 -0.3804 -0.3545
    1MPD2    C514337   1.166   4.097  15.166 -0.8956  0.2931  0.3159
    1MPD2     H14338   0.910   4.205  14.905 -0.0683 -0.0250  0.8542
    1MPD2    H114339   1.307   4.088  15.008 -0.2469  0.7653  0.1876
    1MPD2    H214340   1.023   4.122  15.317 -0.3813 -1.0779  0.0598
    1MPD2    H314341   1.239   4.066  15.239  0.0581  1.0968 -0.3025
    1MPD2     N14342   1.162   4.170  14.815  0.2201  0.1733 -0.0405
    1MPD2    H514343   1.259   4.142  14.807 -0.0702 -0.9567  0.3687
    1MPD2    N114344   0.804   4.187  15.151 -0.0869 -0.5036  0.1382
    1MPD2    H714345   0.772   4.147  15.238  0.3538 -0.3697  0.3679
    2TMC3    C114346   0.587   4.237  15.125 -0.7163  0.6283  0.3948
    2TMC3    C214347   0.544   4.109  15.095  0.0357  0.4985 -0.4394
    2TMC3    C314348   0.413   4.084  15.040  0.3119  1.1341  0.5153
    2TMC3    C414349   0.497   4.339  15.114  0.0963  0.7064 -0.6396
    2TMC3    C514350   0.369   4.314  15.078 -0.6818  0.1708  0.1678
    2TMC3    C614351   0.323   4.184  15.043  0.7359 -0.7261  0.7199
    2TMC3     C14352   0.717   4.256  15.075 -0.1104  0.1894 -0.2326
    2TMC3     O14353   0.719   4.314  14.971  0.3142  0.0304  0.5780
    2TMC3     H14354   0.621   4.033  15.099 -0.0846  0.3986 -0.0609
    2TMC3    H114355   0.536   4.436  15.140 -3.0055  0.9771  2.9775
    2TMC3    H214356   0.218   4.178  15.020  0.4436  0.3321  1.8098
    2TMC3    C714357   0.276   4.420  15.075 -0.5369 -0.0411  0.4984
    2TMC3    C814358   0.423   4.018  14.912 -0.0143  0.0229 -0.0544
    2TMC3    O114359   0.157   4.384  15.074  0.1078 -0.2118  0.3656
    2TMC3    O214360   0.318   3.977  14.869 -0.7379 -0.1957  0.6075
    3TCq1    O114361   0.402   0.796  14.584 -0.2042 -0.1909  0.0872
    3TCq1    C114362   0.471   0.742  14.484  0.3959  0.2007 -0.0767
    3TCq1    O214363   0.518   0.801  14.393 -0.2148  0.2713 -0.1558
    3TCq1    C214364   0.493   0.604  14.515  0.1044 -0.6879  0.4847
    3TCq1    C314365   0.610   0.541  14.475  0.1192 -0.2281  0.1219
    3TCq1    C414366   0.631   0.412  14.511 -0.2638  0.3755 -0.1347
    3TCq1    C514367   0.542   0.341  14.589 -0.5178 -0.7595 -0.6513
    3TCq1    C614368   0.433   0.406  14.632  0.4312 -0.0291  0.1348
    3TCq1    C714369   0.403   0.534  14.597 -0.0494  0.7071  0.1452
    3TCq1    C814370   0.325   0.329  14.692  0.2563 -0.7342 -0.5133
    3TCq1    O414371   0.210   0.355  14.660  0.4910  0.1435 -0.0134
    3TCq1    C914372   0.752   0.347  14.476 -0.1615 -0.0524 -0.2793
    3TCq1    O514373   0.758   0.224  14.507 -0.0065  0.1773  0.4957
    3TCq1    O614374   0.820   0.394  14.383  0.4982 -0.4735  0.3410
    3TCq1    H114375   0.413   0.745  14.667  1.3910 -0.2194 -0.1485
    3TCq1    H214376   0.678   0.589  14.406  0.1125  0.9718  0.9604
    3TCq1    H314377   0.551   0.235  14.613 -0.0301 -0.4880  0.3357
    3TCq1    H414378   0.310   0.579  14.631  0.3278  1.1470  0.5935
    4MPD2     C14379   0.136   0.155  14.857  0.3670 -0.6646 -0.6471
    4MPD2    C114380   0.272   0.134  14.841  0.6255  0.3185 -0.7320
    4MPD2    C214381   0.331   0.018  14.891 -0.0260  0.2153  0.2391
    4MPD2    C314382   0.264   4.651  14.968 -0.2450  0.6248  0.0217
    4MPD2    C414383   0.128   4.675  14.988  0.3749  0.5396 -0.8680
    4MPD2    C514384   0.070   0.063  14.925 -0.1186 -0.2258 -0.1176
    4MPD2     H14385   0.436   4.716  14.875 -0.1139  0.2049 -0.3291
    4MPD2    H114386   0.078   4.602  15.051  3.2712  0.6755  1.5737
    4MPD2    H214387   0.081   0.241  14.820  0.3712  0.7273  2.5283
    4MPD2    H314388   4.687   0.083  14.938  0.7216  5.4430 -2.0215
    4MPD2     N14389   0.337   4.536  15.016  0.5547  0.1114  0.5019
    4MPD2    H514390   0.436   4.530  15.000  0.6951 -1.5923  1.9407
    4MPD2    N114391   0.362   0.224  14.770 -0.3459  0.1924 -0.3346
    4MPD2    H714392   0.462   0.207  14.770 -0.0670  1.8228  0.1893
    5TMC2    C114393   1.050   4.130  14.383  0.9123  0.4943  0.1106
    5TMC2    C214394   1.137   4.024  14.370  0.2322  0.2102 -0.4738
    5TMC2    C314395   1.231   4.014  14.467 -0.4825 -0.2785 -0.3658
    5TMC2    C414396   1.056   4.216  14.487  0.3357  0.2403 -0.5516
    5TMC2    C514397   1.150   4.196  14.581 -0.6089  0.5296  0.4777
    5TMC2    C614398   1.247   4.101  14.574 -0.3596 -0.3032 -0.3479
    5TMC2     C14399   0.912   4.092  14.383 -0.8681 -0.1336 -0.7010
    5TMC2     O14400   0.887   4.025  14.285  0.4870  0.0976 -0.0098
    5TMC2     H14401   1.113   3.950  14.295  1.7670  0.4878 -1.2519
    5TMC2    H114402   1.000   4.309  14.481  0.0437 -0.0278 -2.1509
    5TMC2    H214403   1.330   4.095  14.643 -0.4510  2.3626 -0.0145
    5TMC2    C714404   1.094   4.232  14.712 -0.0746  0.4457 -0.2742
    5TMC2    C814405   1.312   3.895  14.460 -0.1209 -0.2428 -0.2526
    5TMC2    O114406   0.991   4.298  14.713  0.1478  0.3025 -0.3663
    5TMC2    O214407   1.391   3.862  14.546  0.0790  0.7956  0.4209
    5TMC2    O514408   1.305   3.837  14.338 -0.3207  0.4282  0.7094
    5TMC2    H514409   1.273   3.895  14.266  0.8017  1.4998  1.0709
    6MPD2     C14410   0.498   3.944  14.639 -0.6986  0.4761  0.1348
    6MPD2    C114411   0.569   4.032  14.719 -0.2838 -0.2971  0.2070
    6MPD2    C214412   0.690   4.087  14.669  0.1628  0.2107  0.4091
    6MPD2    C314413   0.731   4.063  14.540  0.4114  0.7598  0.5562
    6MPD2    C414414   0.655   3.988  14.456  0.3027  0.3426  1.1741
    6MPD2    C514415   0.537   3.935  14.508 -0.5970  0.3216  0.8652
    6MPD2     H14416   0.755   4.145  14.733 -0.2944 -1.8527  2.7402
    6MPD2    H114417   0.686   3.960  14.356 -0.3806 -1.1748  1.3972
    6MPD2    H214418   0.403   3.902  14.669 -0.4918 -0.0242  0.0877
    6MPD2    H314419   0.479   3.879  14.435 -0.8024 -0.2982  1.5063
    6MPD2     N14420   0.855   4.119  14.502 -0.3779 -0.2893  0.6517
    6MPD2    H514421   0.901   4.177  14.572  0.7219  0.7320 -0.9349
    6MPD2    N114422   0.539   4.049  14.858  0.0815  0.4536 -0.1418
    6MPD2    H714423   0.595   4.113  14.914  0.9626  0.0799 -0.6170
  945NH3     N114424   3.719   3.297   7.403  0.1383 -0.0602  0.4481
  945NH3     H214425   3.645   3.245   7.358  1.2737 -0.1296 -1.3021
  945NH3     H314426   3.684   3.390   7.383  0.2272  0.1750  1.3882
  945NH3     H414427   3.799   3.286   7.342  0.9442 -1.8177  1.8135
  946SOD     NA14428   0.951   0.148  14.486 -0.2589  0.4178 -0.5538
  947SOD     NA14429   0.633   2.472   2.681 -0.2205  0.3564 -0.7954
  948SOD     NA14430   3.330   3.632   0.112  0.0258  0.0372 -0.3416
  949SOD     NA14431   2.132   4.084  11.617  0.0773  0.8531 -0.6548
  950SOD     NA14432   4.614   0.977   4.909 -0.0492  0.0509 -0.1435
  951SOD     NA14433   4.569   3.493   2.820  0.0955  0.4433 -0.7109
  952SOD     NA14434   3.445   3.865  16.893 -0.4030  0.4857 -0.2535
  953SOD     NA14435   0.330   1.392   2.179  0.2387  0.1756  0.3993
  954SOD     NA14436   1.039   3.376   1.146  0.5884  0.0726 -0.4668
  955SOD     NA14437   3.734   2.925  15.824  0.4334  0.0358  0.1593
  956SOD     NA14438   0.703   4.468  10.254 -0.0396  0.3351 -0.1265
  957SOD     NA14439   0.481   4.256  10.498  0.1710  0.0567 -0.1942
  958SOD     NA14440   1.562   3.048   9.984  0.6895 -0.0491  0.2474
  959SOD     NA14441   2.578   3.449  13.816  0.6360 -0.3994 -0.3706
  960SOD     NA14442   1.879   4.085  11.856  0.2062 -0.3805 -0.5521
  961SOD     NA14443   2.154   3.128  12.121 -0.1089  0.2208  0.4840
  962SOD     NA14444   1.378   2.624  11.303 -0.1154  0.2525 -0.2193
  963SOD     NA14445   2.014   2.590   0.002 -0.6831  0.2147 -0.1537
  964SOD     NA14446   2.661   4.289  11.776  0.3295 -0.2354  0.4320
  965SOD     NA14447   0.996   4.199  10.967  0.4367 -0.4064 -0.0098
  966SOD     NA14448   0.602   0.059  14.444  0.0236  0.2745 -0.1319
  967SOD     NA14449   0.405   4.532  10.272 -0.0483 -0.0260  0.0154
  968SOD     NA14450   2.625   4.375  17.285 -0.5840  0.6808  0.0171
  969SOD     NA14451   2.772   3.501   2.113 -0.1076 -0.0332  0.0083
  970SOD     NA14452   2.377   3.241  12.626  0.8150 -0.2281 -0.0067
  971SOD     NA14453   3.970   2.962  14.053 -0.3275 -0.4846 -0.7063
  972SOD     NA14454   3.035   0.557  13.165  0.4134  0.4991  0.0790
  973SOD     NA14455   1.764   1.336  13.672  0.2911  0.3738  0.1208
  974SOD     NA14456   1.112   2.610  13.016 -0.0209  0.2417  0.0500
  975SOD     NA14457   2.225   4.460   5.517  0.0917 -0.0949 -0.4489
  976SOD     NA14458   2.789   4.650  14.239  0.0745 -0.5012 -0.1095
  977SOD     NA14459   1.196   1.681  15.517 -0.5473 -0.1029  0.3704
  978SOD     NA14460   2.638   4.650  15.789  0.2971 -0.2032 -0.3192
  979SOD     NA14461   0.918   2.844  12.937 -0.1970  0.2292 -1.1184
  980SOD     NA14462   3.663   4.501  15.205  0.1622  0.6030  0.6869
  981SOD     NA14463   3.457   3.173   9.493 -0.2426  0.3990 -0.2111
  982SOD     NA14464   2.228   2.679  11.151 -0.5114  0.4561  0.2483
  983SOD     NA14465   3.324   2.777   0.622 -0.5470  0.3457 -0.1013
  984SOD     NA14466   1.060   0.754  12.047 -0.0778  0.6932 -0.4531
  985SOD     NA14467   4.468   3.065  10.735 -0.0366 -0.1687 -0.0676
  986SOD     NA14468   0.513   2.405   9.443  0.1101  0.4645  0.3465
  987SOD     NA14469   3.483   1.231   3.631  0.0302  0.1172 -0.0711
  988SOD     NA14470   4.535   0.887   0.104  0.2067  0.0755  0.1326
  989SOD     NA14471   2.958   0.748  16.810 -0.0363 -0.1212  0.5182
  990SOD     NA14472   1.842   0.822   6.357  0.1983 -0.4836  0.3595
  991SOD     NA14473   2.695   4.332  15.721 -0.4564 -0.0705  0.4685
  992SOD     NA14474   0.734   4.718  14.989 -0.3433  0.1265 -0.1764
  993SOD     NA14475   4.400   1.545  15.658 -0.3763 -0.2084 -0.5837
  994SOD     NA14476   1.981   0.698   9.752 -0.2787  0.0272  0.5810
  995SOD     NA14477   2.277   0.170  13.846 -0.1580  0.3699  0.1510
  996SOD     NA14478   2.932   3.651   4.387  0.3725  0.3267 -0.5631
  997SOD     NA14479   1.894   3.028  10.020  0.1821  0.0567 -0.0145
  998SOD     NA14480   3.841   2.598   2.360  0.1300 -0.0210  0.2605
  999SOD     NA14481   1.811   2.857   9.611 -0.8834  0.1009 -0.2610
 1000SOD     NA14482   1.330   0.957   0.874  0.2983 -0.3867 -0.3546
 1001SOD     NA14483   2.043   4.102   9.523 -0.0222 -0.0339  0.1624
 1002SOD     NA14484   2.762   0.758  11.466 -0.4430  0.1298 -0.2389
 1003SOD     NA14485   2.804   3.907  11.933 -0.1176 -0.6020 -0.0242
 1004SOD     NA14486   2.524   3.771  13.883  0.1208  0.2236 -0.0189
 1005SOD     NA14487   2.167   1.528  13.964 -0.0464  0.0424  0.1746
 1006SOD     NA14488   1.303   1.570   3.054 -0.4439 -0.0184 -0.5347
 1007SOD     NA14489   3.782   4.495  13.119 -0.1705 -0.0480 -0.1721
 1008SOD     NA14490   0.082   2.572  14.362  0.0537 -0.2821 -0.4602
 1009SOD     NA14491   3.957   0.767   6.873 -0.3864 -0.0905 -0.2475
 1010SOD     NA14492   3.150   2.975   0.868  0.3333 -0.0406  0.1643
 1011SOD     NA14493   1.690   2.509  11.051  0.0113 -0.2863  0.4081
 1012SOL     OW14494   0.356   0.734   5.314  0.0032 -0.0113 -0.2118
 1012SOL    HW114495   0.452   0.735   5.315  0.0113 -0.3315 -0.6536
 1012SOL    HW214496   0.336   0.823   5.343 -3.1028 -2.2573  4.4700
 1013SOL     OW14497   2.083   4.388   3.465 -0.1920 -0.1627 -0.1628
 1013SOL    HW114498   2.006   4.406   3.412  0.8962  2.6261 -0.8231
 1013SOL    HW214499   2.095   4.293   3.461  1.1115 -0.1211  2.6271
 1014SOL     OW14500   3.001   1.629   5.061  0.5459 -0.1151  0.0741
 1014SOL    HW114501   2.953   1.640   5.142  1.3600  0.7464  0.4383
 1014SOL    HW214502   3.056   1.553   5.080 -0.2284 -0.5099  0.6906
 1015SOL     OW14503   0.033   0.577   7.757  0.0676  0.5266 -0.6889
 1015SOL    HW114504   0.003   0.668   7.764 -0.3094  0.4125 -0.7986
 1015SOL    HW214505   0.096   0.572   7.686 -1.7282  1.9143 -2.3779
 1016SOL     OW14506   4.137   4.058   6.315 -0.1950 -0.4907 -0.2644
 1016SOL    HW114507   4.056   4.021   6.279  0.0839 -0.1880 -1.1947
 1016SOL    HW214508   4.197   4.040   6.243  0.0034  1.2851 -0.5332
 1017SOL     OW14509   1.072   2.871   7.290 -0.2058 -0.5251 -0.3324
 1017SOL    HW114510   1.024   2.903   7.367  1.6929 -1.1407  1.1012
 1017SOL    HW214511   1.006   2.874   7.221 -1.1122 -1.5607  0.4816
 1018SOL     OW14512   3.210   3.390   1.665 -0.0564 -0.1275  0.1779
 1018SOL    HW114513   3.255   3.309   1.688  0.1605 -0.9092 -2.9534
 1018SOL    HW214514   3.275   3.454   1.691  1.1024  0.3025 -3.7052
 1019SOL     OW14515   2.613   3.425   4.062  0.2475  0.6257 -0.3782
 1019SOL    HW114516   2.704   3.420   4.035  0.3657  2.7333 -0.4256
 1019SOL    HW214517   2.592   3.337   4.091  2.6462  0.2911  0.3259
 1020SOL     OW14518   1.796   2.372   7.772 -0.0238 -0.0694 -0.0421
 1020SOL    HW114519   1.851   2.297   7.750  0.9149  0.7382 -0.4598
 1020SOL    HW214520   1.728   2.370   7.705 -0.7181  0.0441  0.6505
 1021SOL     OW14521   3.318   3.858   7.620 -0.2275  0.4753  0.7324
 1021SOL    HW114522   3.395   3.903   7.654  0.9119 -2.5344  2.1735
 1021SOL    HW214523   3.340   3.774   7.661 -1.7232 -1.7304 -2.9596
 1022SOL     OW14524   2.659   4.614   3.569 -0.2034 -0.4077  0.1853
 1022SOL    HW114525   2.726   4.678   3.545  1.2994 -2.5399 -1.3370
 1022SOL    HW214526   2.695   4.530   3.541 -0.8963 -1.0399  1.1952
 1023SOL     OW14527   4.493   3.020  10.351 -0.1397  0.1555  0.0014
 1023SOL    HW114528   4.567   2.960  10.356 -1.1109 -0.8989  1.8629
 1023SOL    HW214529   4.449   2.994  10.432 -1.3268 -0.0843 -0.7152
 1024SOL     OW14530   1.065   0.673   9.332  0.4294  0.0286  0.3491
 1024SOL    HW114531   0.994   0.704   9.388  1.1216  0.0679  1.2127
 1024SOL    HW214532   1.116   0.751   9.310  0.2619  0.1434  0.3711
 1025SOL     OW14533   4.178   1.269   8.692  0.3318 -1.1431 -0.6151
 1025SOL    HW114534   4.146   1.276   8.602  0.2538 -1.2514 -0.5967
 1025SOL    HW214535   4.253   1.211   8.679  0.5824 -1.4741  2.3114
 1026SOL     OW14536   0.765   2.297   8.083 -0.3705  0.3897  0.0428
 1026SOL    HW114537   0.726   2.212   8.064 -1.3330  0.5317  1.4836
 1026SOL    HW214538   0.783   2.327   7.994 -0.8209  0.0906 -0.1509
 1027SOL     OW14539   2.509   3.525   8.247  0.1463  0.2023  0.2414
 1027SOL    HW114540   2.473   3.516   8.159  0.3947  0.6132  0.0993
 1027SOL    HW214541   2.451   3.588   8.290 -0.5399 -0.6415  0.5340
 1028SOL     OW14542   0.399   0.299   5.972  0.5721  0.2447 -0.5136
 1028SOL    HW114543   0.389   0.214   6.015  1.1251 -0.0769 -1.0109
 1028SOL    HW214544   0.439   0.279   5.887 -1.5208 -4.2373 -0.4147
 1029SOL     OW14545   1.904   3.570   3.412  0.1541 -0.4387 -0.4927
 1029SOL    HW114546   1.824   3.541   3.368 -0.2575  1.6384 -1.1204
 1029SOL    HW214547   1.875   3.596   3.499  1.6242  0.5889 -0.3113
 1030SOL     OW14548   2.609   1.856   7.718  0.4791 -0.1552 -0.1625
 1030SOL    HW114549   2.561   1.917   7.662 -0.1908 -1.2239 -0.7680
 1030SOL    HW214550   2.538   1.792   7.727  0.4816  0.0527  1.2450
 1031SOL     OW14551   0.424   2.631  12.065  0.5748 -0.4816  0.2912
 1031SOL    HW114552   0.438   2.725  12.063 -1.0146 -0.2862 -1.4246
 1031SOL    HW214553   0.377   2.609  11.985  0.4675  0.5326  0.0808
 1032SOL     OW14554   2.040   2.867   7.569  0.0346  0.2325 -0.1019
 1032SOL    HW114555   2.062   2.790   7.622 -5.4303 -1.0839  0.1953
 1032SOL    HW214556   2.096   2.852   7.492 -0.1107 -0.0449 -0.1537
 1033SOL     OW14557   0.690   3.640  12.443 -0.3163 -0.0555  0.3488
 1033SOL    HW114558   0.611   3.687  12.418 -0.8976 -2.2007 -1.8993
 1033SOL    HW214559   0.728   3.617  12.357 -0.2473  1.5667 -0.0421
 1034SOL     OW14560   4.268   1.654   8.715  0.3231 -0.7701 -0.6052
 1034SOL    HW114561   4.311   1.679   8.632  0.5666 -1.9270 -0.8179
 1034SOL    HW214562   4.180   1.637   8.681 -0.5407  1.8997  0.3214
 1035SOL     OW14563   2.631   3.442  12.918  0.1956 -0.1492 -0.2498
 1035SOL    HW114564   2.622   3.521  12.864 -0.8381  1.0376  1.6447
 1035SOL    HW214565   2.608   3.474  13.005  2.0796 -0.7851  0.4798
 1036SOL     OW14566   1.738   4.208  13.728  0.4947  0.8700 -0.3761
 1036SOL    HW114567   1.703   4.127  13.765  2.9583 -0.5781 -1.1778
 1036SOL    HW214568   1.654   4.244  13.701  0.5826  0.8566 -0.6616
 1037SOL     OW14569   4.028   0.823   6.666  0.4537  0.0009  0.0657
 1037SOL    HW114570   4.102   0.831   6.606  0.8415  1.0936  0.7005
 1037SOL    HW214571   3.974   0.761   6.616 -0.0298 -2.0555  3.1338
 1038SOL     OW14572   2.721   1.442   2.044  0.1829  0.7650  0.1760
 1038SOL    HW114573   2.726   1.357   1.999  1.0228  0.2151  1.3144
 1038SOL    HW214574   2.815   1.450   2.057  0.2752 -1.4720  0.8312
 1039SOL     OW14575   1.109   0.377   5.355  0.9473 -0.1823 -0.0784
 1039SOL    HW114576   1.040   0.398   5.418 -0.3051  0.5521 -1.6903
 1039SOL    HW214577   1.056   0.372   5.275  1.2383 -0.3885 -0.2610
 1040SOL     OW14578   2.026   0.884   6.497 -0.1863 -0.5835 -0.1302
 1040SOL    HW114579   2.117   0.862   6.477  0.1730 -1.3599  2.3572
 1040SOL    HW214580   2.016   0.852   6.587  0.8571  0.6828  0.4448
 1041SOL     OW14581   4.576   2.660   6.291 -0.0338  0.0459 -0.6865
 1041SOL    HW114582   4.589   2.642   6.198 -0.5386 -1.4110 -0.4713
 1041SOL    HW214583   4.482   2.678   6.287  0.1923  1.4882  0.8233
 1042SOL     OW14584   3.130   2.801   5.357  0.2305  0.0425 -0.2902
 1042SOL    HW114585   3.225   2.795   5.358  0.2498  0.5022  1.6890
 1042SOL    HW214586   3.105   2.873   5.416  0.8576 -1.3978  1.7543
 1043SOL     OW14587   0.465   0.425   4.521  0.0279  0.5405  0.1827
 1043SOL    HW114588   0.523   0.469   4.460 -0.4799  2.3072  0.9815
 1043SOL    HW214589   0.408   0.381   4.458 -2.1107  0.5521  2.0964
 1044SOL     OW14590   0.227   0.678   0.285 -0.3065 -0.2153 -0.5009
 1044SOL    HW114591   0.170   0.645   0.355  0.1983 -0.5355 -0.2414
 1044SOL    HW214592   0.175   0.755   0.260  0.9660  0.5577 -0.7960
 1045SOL     OW14593   4.257   3.004  10.856 -0.6372  0.2772 -0.6107
 1045SOL    HW114594   4.181   3.006  10.798  0.0510 -1.2142 -1.5569
 1045SOL    HW214595   4.247   2.920  10.902  1.2330  0.9759  1.0854
 1046SOL     OW14596   0.641   2.701  13.324  0.1611 -0.7203  0.2765
 1046SOL    HW114597   0.665   2.774  13.381  2.3920 -1.1355 -0.1255
 1046SOL    HW214598   0.546   2.709  13.311  0.0781  0.0292  1.3820
 1047SOL     OW14599   4.492   2.821   1.754  0.9453  0.6189 -0.4043
 1047SOL    HW114600   4.531   2.797   1.670 -2.2395  0.5175 -1.8691
 1047SOL    HW214601   4.453   2.740   1.786 -0.3449  1.1301 -0.6350
 1048SOL     OW14602   4.540   1.908  15.358 -0.1640 -0.2335 -0.7959
 1048SOL    HW114603   4.612   1.860  15.318  0.4582 -1.6564  2.0035
 1048SOL    HW214604   4.481   1.907  15.282  0.7464  0.4514 -1.5009
 1049SOL     OW14605   1.881   1.900   8.493  0.4874  0.2566 -0.2845
 1049SOL    HW114606   1.795   1.895   8.451 -1.0284  0.9972  2.7275
 1049SOL    HW214607   1.870   1.919   8.586  3.4435 -0.9069  0.2952
 1050SOL     OW14608   1.041   1.279   7.205  0.5040 -0.1828 -0.2431
 1050SOL    HW114609   1.002   1.356   7.247  1.8747  0.9537 -1.0728
 1050SOL    HW214610   0.999   1.214   7.261  0.2834  0.4812  0.3649
 1051SOL     OW14611   2.820   4.287   4.846  0.2560  0.4048  0.0691
 1051SOL    HW114612   2.742   4.341   4.832  0.1292  0.3201  0.4486
 1051SOL    HW214613   2.797   4.201   4.812  0.7901  0.0227  0.6848
 1052SOL     OW14614   4.083   1.910   5.728 -0.2729 -0.3309  0.3262
 1052SOL    HW114615   4.080   1.975   5.657  1.0902 -0.3307  0.2573
 1052SOL    HW214616   3.996   1.913   5.766 -0.0552 -0.0725  0.8005
 1053SOL     OW14617   0.770   3.413   3.254 -0.6593  0.0742  0.6878
 1053SOL    HW114618   0.790   3.340   3.195 -1.3547  0.0893  0.4350
 1053SOL    HW214619   0.853   3.461   3.251 -0.3983 -0.3305  1.4820
 1054SOL     OW14620   4.085   2.423  15.200  0.0088 -0.1800  0.5654
 1054SOL    HW114621   4.029   2.436  15.276  0.5466 -0.0760  0.9451
 1054SOL    HW214622   4.069   2.333  15.169  1.3394 -0.1976 -0.1194
 1055SOL     OW14623   2.017   2.406  13.013 -0.2312 -0.0061  0.0009
 1055SOL    HW114624   2.001   2.331  13.070  0.0885  1.3003  1.8067
 1055SOL    HW214625   2.112   2.411  13.012  0.0116 -3.8331  1.7099
 1056SOL     OW14626   1.836   2.710   2.287  0.2503 -0.6682 -0.9732
 1056SOL    HW114627   1.902   2.655   2.329  1.1902  0.9339 -0.3459
 1056SOL    HW214628   1.757   2.695   2.339  0.4774  2.0452  0.1415
 1057SOL     OW14629   4.163   4.462   7.901 -0.0089 -0.4854 -0.1091
 1057SOL    HW114630   4.162   4.393   7.834 -0.1934 -1.1195  0.5539
 1057SOL    HW214631   4.178   4.537   7.844  2.0094 -1.6853 -1.1798
 1058SOL     OW14632   2.409   2.056   8.379 -0.0540  0.0450 -0.3390
 1058SOL    HW114633   2.477   1.992   8.399  0.0164  0.7427  1.6228
 1058SOL    HW214634   2.332   2.015   8.418 -1.0376  0.8858 -1.4050
 1059SOL     OW14635   3.139   3.042   6.268 -0.5272 -0.1886  0.7067
 1059SOL    HW114636   3.084   2.971   6.236 -0.1340  0.0818 -0.6019
 1059SOL    HW214637   3.126   3.109   6.200 -2.1107 -1.2595 -0.0252
 1060SOL     OW14638   4.374   0.776  17.653 -0.2040 -0.1133 -0.0800
 1060SOL    HW114639   4.339   0.779  17.564  0.5794  1.7635 -0.3184
 1060SOL    HW214640   4.360   0.683  17.674 -2.1065  0.6922  2.0682
 1061SOL     OW14641   0.054   1.347   6.230  0.3089 -0.5233 -0.5196
 1061SOL    HW114642   4.719   1.304   6.292 -0.2186 -0.0862 -0.7124
 1061SOL    HW214643   0.111   1.274   6.207  2.2245  0.4978  1.0177
 1062SOL     OW14644   4.457   1.663   7.903 -0.6428  0.4860 -0.4504
 1062SOL    HW114645   4.532   1.712   7.938  0.5905 -1.0894 -0.8382
 1062SOL    HW214646   4.400   1.677   7.979  0.3493  1.1933  0.1667
 1063SOL     OW14647   2.786   2.293  12.339  0.4306 -0.2469 -0.2585
 1063SOL    HW114648   2.881   2.299  12.351  0.1782  0.0106  1.4893
 1063SOL    HW214649   2.753   2.252  12.418 -2.2118 -0.6882 -1.5848
 1064SOL     OW14650   1.691   2.319   4.631 -0.3735  0.6745 -0.3778
 1064SOL    HW114651   1.751   2.276   4.570  0.4484  1.3874 -0.0794
 1064SOL    HW214652   1.681   2.251   4.698 -1.3701  2.5617  1.4187
 1065SOL     OW14653   1.495   3.751   0.588  0.3438  0.6540 -0.0267
 1065SOL    HW114654   1.447   3.808   0.529 -0.9777 -1.4139 -0.9660
 1065SOL    HW214655   1.542   3.688   0.531 -0.2889 -0.9921  1.2700
 1066SOL     OW14656   2.346   0.249  15.072 -0.2553 -0.2725 -0.1886
 1066SOL    HW114657   2.271   0.247  15.012  0.7517 -0.9225 -1.4307
 1066SOL    HW214658   2.337   0.162  15.109  0.4679 -0.2400  0.0737
 1067SOL     OW14659   0.090   0.299   2.891 -0.0453  0.5935 -0.5021
 1067SOL    HW114660   0.076   0.249   2.972 -0.5452  1.6545  0.0645
 1067SOL    HW214661   0.049   0.383   2.911  0.1880  0.5007  0.3696
 1068SOL     OW14662   2.381   4.679   8.427  0.2131 -0.4009  0.6170
 1068SOL    HW114663   2.433   0.017   8.375  2.5756 -0.5919  2.7303
 1068SOL    HW214664   2.311   0.014   8.456  1.7277  1.1768  1.1387
 1069SOL     OW14665   0.372   0.224   8.747  0.2376 -0.5177  0.2695
 1069SOL    HW114666   0.418   0.170   8.683 -0.1591  1.2330 -1.4811
 1069SOL    HW214667   0.316   0.264   8.681 -0.6721  1.3438  2.1816
 1070SOL     OW14668   4.143   0.834   9.122  0.0855  0.7071 -0.7466
 1070SOL    HW114669   4.205   0.778   9.168 -1.2012  0.0726  0.2471
 1070SOL    HW214670   4.061   0.804   9.162  0.5261 -0.2583 -0.5696
 1071SOL     OW14671   3.566   2.151   8.771  0.2354  0.2659  0.2697
 1071SOL    HW114672   3.619   2.213   8.821  0.8683 -1.0429  1.2319
 1071SOL    HW214673   3.601   2.169   8.684  0.6190  2.2130  0.8212
 1072SOL     OW14674   4.712   3.772   2.070 -0.1715 -0.0135  0.3221
 1072SOL    HW114675   0.008   3.778   1.977  2.0181  2.2923  0.9357
 1072SOL    HW214676   4.617   3.781   2.073 -0.0680  0.4504  2.1423
 1073SOL     OW14677   0.697   4.307   4.830  1.2924 -0.2761  0.0536
 1073SOL    HW114678   0.632   4.348   4.774  1.5890  1.4187  0.9605
 1073SOL    HW214679   0.663   4.218   4.839 -1.3937  0.7115 -0.4702
 1074SOL     OW14680   1.551   1.432   0.895 -0.2171 -0.1043 -0.2117
 1074SOL    HW114681   1.583   1.460   0.809 -3.2982  0.0120 -1.3088
 1074SOL    HW214682   1.621   1.371   0.918 -1.0536 -1.1893 -0.5890
 1075SOL     OW14683   3.072   0.068   7.196 -0.2790  0.1658  0.0854
 1075SOL    HW114684   2.999   0.127   7.179  0.8337  1.3664 -0.5638
 1075SOL    HW214685   3.138   0.112   7.142  1.5241  1.6520  3.4330
 1076SOL     OW14686   3.723   2.762  15.979  0.3210 -0.9395  0.3263
 1076SOL    HW114687   3.806   2.759  16.026  0.4845 -0.8801  0.0435
 1076SOL    HW214688   3.663   2.716  16.037 -1.9740  0.6798 -0.7549
 1077SOL     OW14689   1.019   0.643   6.481 -0.2964  0.4489 -0.5196
 1077SOL    HW114690   1.039   0.707   6.550 -1.3880 -1.1076  1.2512
 1077SOL    HW214691   1.104   0.632   6.437  0.0542 -1.5710  0.6782
 1078SOL     OW14692   2.021   0.658   5.377  0.8384  0.0407  0.0575
 1078SOL    HW114693   2.116   0.671   5.376  0.8356  0.1910  2.4704
 1078SOL    HW214694   2.013   0.563   5.381 -1.5894  0.3161  1.6618
 1079SOL     OW14695   0.522   0.322   1.913 -0.9399  0.4304 -0.5058
 1079SOL    HW114696   0.464   0.387   1.874 -1.2689  0.8398  0.6702
 1079SOL    HW214697   0.562   0.377   1.980 -0.8656  0.9024 -0.9358
 1080SOL     OW14698   1.557   4.506   7.653  0.5362  0.9436  0.3142
 1080SOL    HW114699   1.616   4.515   7.728  1.9075  1.6966 -0.8716
 1080SOL    HW214700   1.610   4.475   7.580 -0.9663 -1.3586  0.1718
 1081SOL     OW14701   0.874   0.399   1.462  0.2285 -0.1889  0.2915
 1081SOL    HW114702   0.943   0.452   1.502 -0.3595 -0.0518  1.1306
 1081SOL    HW214703   0.859   0.343   1.538 -0.7984 -0.7811 -0.3573
 1082SOL     OW14704   3.238   0.354   6.367  0.7918  0.0884 -0.1987
 1082SOL    HW114705   3.146   0.377   6.372  0.3415 -1.9019  0.6952
 1082SOL    HW214706   3.236   0.261   6.391 -1.1125  0.5985  1.5113
 1083SOL     OW14707   0.183   1.006   2.740  0.3179 -0.0864 -0.8235
 1083SOL    HW114708   0.097   1.041   2.766  0.4245 -1.0858  0.8984
 1083SOL    HW214709   0.158   0.941   2.675 -0.3871 -0.0968 -0.5417
 1084SOL     OW14710   4.440   0.294   3.938 -0.0607 -0.3685 -0.2529
 1084SOL    HW114711   4.485   0.257   3.862  0.0454  0.2823 -0.5052
 1084SOL    HW214712   4.499   0.363   3.966 -0.8872  0.2769 -0.0949
 1085SOL     OW14713   0.631   0.706   5.091 -0.4150  0.1462 -0.5156
 1085SOL    HW114714   0.633   0.738   5.182 -0.7010 -0.3187 -0.3466
 1085SOL    HW214715   0.610   0.781   5.035 -0.8248  1.1272  0.9294
 1086SOL     OW14716   0.744   2.029   7.972  0.3146  0.2536 -0.5360
 1086SOL    HW114717   0.839   2.025   7.978  0.3757  1.7622 -0.4830
 1086SOL    HW214718   0.713   1.938   7.973 -1.0984  0.7384 -0.3756
 1087SOL     OW14719   0.831   2.358   5.018  0.2556  0.3382 -0.6857
 1087SOL    HW114720   0.844   2.415   4.943  1.9670 -0.2846 -0.8484
 1087SOL    HW214721   0.861   2.415   5.089  0.7518 -2.1922  1.1528
 1088SOL     OW14722   0.093   1.359   4.283 -0.1893 -0.5999 -0.7282
 1088SOL    HW114723   0.106   1.264   4.285  1.9315 -0.2691  1.5787
 1088SOL    HW214724   0.104   1.372   4.377 -2.9642  1.2912 -0.6761
 1089SOL     OW14725   3.920   2.101  16.839 -0.1694 -0.0055 -0.3225
 1089SOL    HW114726   3.877   2.087  16.923  0.0478  1.2432 -0.0009
 1089SOL    HW214727   3.908   2.016  16.797 -0.1158 -0.0253 -0.2978
 1090SOL     OW14728   0.873   3.892   7.295  0.0726 -0.4502  0.4704
 1090SOL    HW114729   0.887   3.936   7.212  0.1197  2.5470  2.0742
 1090SOL    HW214730   0.859   3.961   7.360  1.0884 -1.2552  1.5487
 1091SOL     OW14731   2.496   3.503   7.836 -0.6939 -0.2822 -0.5443
 1091SOL    HW114732   2.442   3.438   7.792  1.1747 -1.4437 -1.1041
 1091SOL    HW214733   2.560   3.444   7.876 -0.0373  1.6959  1.3314
 1092SOL     OW14734   2.082   4.660   2.499  0.0783 -0.1487 -0.1348
 1092SOL    HW114735   1.999   4.673   2.453  0.0610  1.6825  0.4300
 1092SOL    HW214736   2.139   4.616   2.435  3.0805  1.9967  1.0721
 1093SOL     OW14737   3.809   4.062   5.344  0.2820 -0.4044  0.3714
 1093SOL    HW114738   3.720   4.052   5.311  0.9504 -0.2515 -1.4391
 1093SOL    HW214739   3.794   4.142   5.394  1.1374  0.7889 -1.3150
 1094SOL     OW14740   3.195   2.946   2.839  0.2857 -0.1002 -0.4153
 1094SOL    HW114741   3.230   2.857   2.841  0.9282  0.1863  0.6321
 1094SOL    HW214742   3.191   2.978   2.748  0.3181  0.4716 -0.2132
 1095SOL     OW14743   3.761   4.488   4.847  0.5124 -0.0285 -0.1894
 1095SOL    HW114744   3.760   4.572   4.799  1.3012  0.5758  0.8713
 1095SOL    HW214745   3.749   4.528   4.933 -1.9313  1.5180 -1.2348
 1096SOL     OW14746   1.648   4.325   2.602 -0.0197  0.1422 -0.3253
 1096SOL    HW114747   1.736   4.290   2.584 -0.7815 -1.8625 -0.1560
 1096SOL    HW214748   1.669   4.403   2.653  0.0904  0.5043 -0.9172
 1097SOL     OW14749   0.804   0.354   1.177 -0.4443 -0.3776 -0.0581
 1097SOL    HW114750   0.808   0.258   1.175 -1.8657 -0.4432 -0.6691
 1097SOL    HW214751   0.807   0.367   1.271  1.0389 -0.5675 -0.0894
 1098SOL     OW14752   3.253   4.616   4.728  0.1793 -0.1757 -0.4976
 1098SOL    HW114753   3.336   4.635   4.771 -0.5681 -0.0301  0.8860
 1098SOL    HW214754   3.210   4.563   4.795 -0.4733  0.3443 -0.5061
 1099SOL     OW14755   1.153   4.355   5.179  0.8999  0.0131 -0.7767
 1099SOL    HW114756   1.127   4.265   5.159  4.0706 -1.4492  1.5233
 1099SOL    HW214757   1.223   4.345   5.244  0.7860  0.6720 -0.5494
 1100SOL     OW14758   3.365   3.135   9.082 -0.1917 -0.3683  0.3161
 1100SOL    HW114759   3.306   3.161   9.153  0.1075  0.6793  0.1859
 1100SOL    HW214760   3.434   3.090   9.130 -2.5477 -1.5861  2.6057
 1101SOL     OW14761   4.699   0.485   4.661  0.2743 -0.4678  0.4846
 1101SOL    HW114762   0.051   0.533   4.628 -0.8863  1.4231  0.5770
 1101SOL    HW214763   4.680   0.525   4.746  2.1628  0.5623  0.4226
 1102SOL     OW14764   3.076   3.597   7.029  0.4177 -0.1521  0.1396
 1102SOL    HW114765   3.046   3.598   7.120  2.4413 -1.9375  0.8155
 1102SOL    HW214766   3.170   3.611   7.044  0.3771  1.7362 -1.3472
 1103SOL     OW14767   1.645   3.866   4.216  0.0113  0.4608 -0.0797
 1103SOL    HW114768   1.730   3.835   4.183 -1.0875 -1.2726 -1.2564
 1103SOL    HW214769   1.591   3.787   4.212 -0.1221  0.3423  4.6353
 1104SOL     OW14770   1.296   3.955  17.565 -0.6243 -0.2570 -0.0861
 1104SOL    HW114771   1.310   4.016  17.492  2.5712 -2.8331 -1.6399
 1104SOL    HW214772   1.381   3.956  17.609 -1.2401  0.2035  1.0789
 1105SOL     OW14773   4.515   2.095   8.462 -0.1928 -0.0427 -0.0099
 1105SOL    HW114774   4.568   2.082   8.541 -1.8385  1.4953  1.3634
 1105SOL    HW214775   4.578   2.125   8.398  1.4444 -2.1726  0.6081
 1106SOL     OW14776   3.678   3.574  15.499 -0.4678  0.3752 -0.7528
 1106SOL    HW114777   3.734   3.631  15.446  1.6122  0.6305  1.7834
 1106SOL    HW214778   3.589   3.592  15.467 -0.6756  0.5343 -0.0659
 1107SOL     OW14779   3.534   0.990   7.818  0.6153 -0.3167  0.0657
 1107SOL    HW114780   3.592   1.023   7.886  0.7818  2.0392 -1.1792
 1107SOL    HW214781   3.540   0.897   7.838 -0.3782 -0.2868  0.4978
 1108SOL     OW14782   2.364   2.202   6.993 -0.4328  0.0343 -0.2773
 1108SOL    HW114783   2.321   2.152   6.924 -0.4593 -1.9166  1.1645
 1108SOL    HW214784   2.454   2.207   6.961  0.3839  0.1330  2.0366
 1109SOL     OW14785   3.136   1.577   5.910  0.1121 -0.0783  0.6727
 1109SOL    HW114786   3.120   1.604   6.000  0.6456  1.4757  0.3038
 1109SOL    HW214787   3.048   1.598   5.878  0.8223  0.8798 -0.6914
 1110SOL     OW14788   3.489   4.406   2.226  0.1349  0.2470  0.0018
 1110SOL    HW114789   3.454   4.440   2.308 -2.4082 -1.9217 -0.1778
 1110SOL    HW214790   3.409   4.396   2.175  0.9672 -1.4879 -0.9874
 1111SOL     OW14791   1.342   2.069   0.415  0.1760 -0.3088 -0.0273
 1111SOL    HW114792   1.328   2.116   0.332 -1.1643  0.8074  0.8340
 1111SOL    HW214793   1.299   1.984   0.404  1.7349 -1.3119  1.6541
 1112SOL     OW14794   1.469   3.937   3.747 -0.0222 -0.6489 -0.5311
 1112SOL    HW114795   1.429   3.950   3.661 -1.5938 -0.6925  0.1819
 1112SOL    HW214796   1.467   4.020   3.793  1.3256 -1.6227  1.2757
 1113SOL     OW14797   0.926   4.539   3.492  0.2173  0.6075 -0.0272
 1113SOL    HW114798   1.011   4.546   3.537 -0.4392  0.6121  1.2009
 1113SOL    HW214799   0.911   4.633   3.495  0.2367  0.6448 -1.3330
 1114SOL     OW14800   1.319   0.450   4.605  0.1919 -0.3933 -0.6042
 1114SOL    HW114801   1.227   0.459   4.629  0.4016 -1.0204  0.4178
 1114SOL    HW214802   1.325   0.370   4.553 -1.1075 -0.9005  0.0386
 1115SOL     OW14803   3.172   1.251   6.193 -0.0853  0.0703 -0.7966
 1115SOL    HW114804   3.085   1.288   6.179  0.5035  2.2469  1.2932
 1115SOL    HW214805   3.205   1.316   6.255  0.4859 -0.5191 -0.4788
 1116SOL     OW14806   2.647   3.456  13.583  0.2893 -0.2487 -0.3368
 1116SOL    HW114807   2.553   3.473  13.572 -0.2396 -2.3373  0.8705
 1116SOL    HW214808   2.664   3.443  13.489 -1.8570  0.6074 -0.8459
 1117SOL     OW14809   3.993   4.512   5.494  0.5666  0.4060 -0.2673
 1117SOL    HW114810   4.025   4.507   5.404  0.8469 -1.1012 -0.0827
 1117SOL    HW214811   3.930   4.584   5.492  1.2421  0.9897 -0.4973
 1118SOL     OW14812   3.490   4.354  14.534 -0.1579 -0.0423 -0.5069
 1118SOL    HW114813   3.442   4.319  14.609  2.6834 -1.6912  0.5347
 1118SOL    HW214814   3.561   4.398  14.581 -0.6933 -0.7244  0.9201
 1119SOL     OW14815   3.394   2.132   2.317  0.1190 -0.4102 -0.3193
 1119SOL    HW114816   3.400   2.128   2.221 -0.6705 -3.0449 -0.2738
 1119SOL    HW214817   3.328   2.067   2.342 -1.9208  2.1996  1.0171
 1120SOL     OW14818   2.386   0.544  15.884 -0.3829 -0.1176  0.2368
 1120SOL    HW114819   2.291   0.534  15.884 -0.4237  0.3461 -0.7992
 1120SOL    HW214820   2.399   0.638  15.869 -0.5421 -0.0404  0.5785
 1121SOL     OW14821   1.542   3.275   2.938  0.3660  0.2007 -0.5401
 1121SOL    HW114822   1.491   3.257   2.859 -0.9971  0.3083  0.3298
 1121SOL    HW214823   1.630   3.256   2.905  0.9074  1.9612 -0.0857
 1122SOL     OW14824   2.523   1.563   8.814 -0.4487 -0.1207 -0.2261
 1122SOL    HW114825   2.451   1.509   8.779 -1.3315  0.5725  0.5265
 1122SOL    HW214826   2.595   1.514   8.775  0.0361  1.3189 -1.1225
 1123SOL     OW14827   3.771   0.928   2.440  0.1242  0.3058 -0.2995
 1123SOL    HW114828   3.853   0.896   2.403 -0.3178 -1.3576  0.1598
 1123SOL    HW214829   3.708   0.934   2.368  1.7100 -0.3112 -1.7217
 1124SOL     OW14830   1.015   2.314   7.127 -0.1819  0.7215  0.4696
 1124SOL    HW114831   0.948   2.371   7.088  1.5104  0.9396 -2.0758
 1124SOL    HW214832   0.961   2.235   7.128  0.2468  0.4432  1.3386
 1125SOL     OW14833   4.290   3.189   2.413 -0.0280 -0.6587  0.8382
 1125SOL    HW114834   4.216   3.132   2.390  0.4208 -1.3092  0.9991
 1125SOL    HW214835   4.300   3.236   2.330 -3.0307 -0.9564  0.3058
 1126SOL     OW14836   1.475   1.591   2.178  0.3350 -0.5887  0.2068
 1126SOL    HW114837   1.425   1.512   2.158  1.2276 -0.9437 -0.6608
 1126SOL    HW214838   1.492   1.619   2.088  1.4219 -0.7129  0.3767
 1127SOL     OW14839   3.024   3.191   2.392 -0.1995 -0.0578  0.0319
 1127SOL    HW114840   3.076   3.111   2.392 -2.0458 -1.2615  1.6800
 1127SOL    HW214841   3.092   3.254   2.414 -0.5855  0.2909  0.2365
 1128SOL     OW14842   3.629   4.031  14.088  0.5237 -0.5534  0.9044
 1128SOL    HW114843   3.581   4.065  14.164  0.5742 -0.4425  0.8860
 1128SOL    HW214844   3.626   3.935  14.098 -0.0365 -0.7764 -1.5604
 1129SOL     OW14845   0.675   1.499   3.980  0.0525  0.3349 -0.6083
 1129SOL    HW114846   0.765   1.530   3.987 -0.2577  1.1132 -0.1906
 1129SOL    HW214847   0.625   1.577   4.003 -0.5433 -0.5614  1.1877
 1130SOL     OW14848   2.823   1.520   5.435  0.3665  0.9519  0.3042
 1130SOL    HW114849   2.784   1.456   5.376  2.2163  0.2600 -0.1782
 1130SOL    HW214850   2.916   1.499   5.423  0.3975  2.2225 -1.6039
 1131SOL     OW14851   4.266   2.929   4.992  0.1321  0.2964  0.0967
 1131SOL    HW114852   4.305   2.884   4.916 -0.3779  1.4724 -0.8501
 1131SOL    HW214853   4.237   3.009   4.950 -0.5805  0.9782  1.9026
 1132SOL     OW14854   1.612   0.534   6.651  0.3353  0.0642  0.5747
 1132SOL    HW114855   1.539   0.519   6.711 -0.4411 -1.9730 -0.8787
 1132SOL    HW214856   1.674   0.473   6.691  0.3825  0.2504  0.7829
 1133SOL     OW14857   0.298   2.786   8.763 -0.4614 -0.1258 -0.0119
 1133SOL    HW114858   0.207   2.795   8.736 -0.5940 -1.3711  0.0502
 1133SOL    HW214859   0.311   2.692   8.753 -0.9661 -0.1766 -0.1656
 1134SOL     OW14860   3.629   4.690   1.802  0.6394 -0.5071 -0.4169
 1134SOL    HW114861   3.582   4.676   1.884  0.4866 -0.6343 -0.5276
 1134SOL    HW214862   3.617   4.609   1.752 -0.0079 -1.5271  1.3712
 1135SOL     OW14863   1.209   4.416   4.544  0.0177 -0.1635 -0.0621
 1135SOL    HW114864   1.148   4.469   4.594  0.6010 -0.8056  1.3110
 1135SOL    HW214865   1.294   4.452   4.569  0.1120 -0.1406 -0.4045
 1136SOL     OW14866   1.987   2.920   8.698 -0.3381  0.2493  0.0398
 1136SOL    HW114867   1.968   2.882   8.784 -1.2258  1.4920  0.3986
 1136SOL    HW214868   2.081   2.905   8.689 -0.4213 -0.8023  0.9478
 1137SOL     OW14869   1.494   1.419   3.094  0.1292 -0.1966 -0.0735
 1137SOL    HW114870   1.537   1.374   3.167 -2.1294  0.1165  1.4221
 1137SOL    HW214871   1.553   1.389   3.024 -1.8246  0.2677 -1.9420
 1138SOL     OW14872   1.088   2.915   3.906 -0.2896  0.1954  0.0048
 1138SOL    HW114873   0.996   2.911   3.881 -0.5113  0.3966  0.7685
 1138SOL    HW214874   1.087   2.995   3.959 -0.9604 -0.0953  0.4275
 1139SOL     OW14875   3.487   3.172   7.832  0.0017  0.1333  0.4730
 1139SOL    HW114876   3.527   3.109   7.893 -0.0916 -1.0841 -0.7111
 1139SOL    HW214877   3.562   3.197   7.778 -2.0815  1.1652 -1.8788
 1140SOL     OW14878   4.153   3.714   7.124 -0.0831 -0.0457  0.3170
 1140SOL    HW114879   4.166   3.716   7.219 -1.2573  0.4772  0.4667
 1140SOL    HW214880   4.147   3.805   7.097  1.4830 -0.1689 -0.4706
 1141SOL     OW14881   1.133   2.166   2.928 -0.2214  0.4600 -0.4333
 1141SOL    HW114882   1.110   2.168   2.835  0.7666  1.1965 -0.6546
 1141SOL    HW214883   1.222   2.131   2.923 -0.5970 -0.5983  0.2036
 1142SOL     OW14884   1.514   2.711  17.582  0.3309  0.3041  0.2793
 1142SOL    HW114885   1.530   2.692  17.675 -0.8299  0.2963  0.4822
 1142SOL    HW214886   1.487   2.628  17.542 -0.2771  1.4971 -1.7347
 1143SOL     OW14887   3.802   1.461  11.903 -0.3770  0.3744  0.3231
 1143SOL    HW114888   3.848   1.381  11.876  2.0303  2.3461 -1.3595
 1143SOL    HW214889   3.712   1.429  11.890 -0.3593 -0.3649  1.9082
 1144SOL     OW14890   3.776   2.443  15.058  1.0706  0.5980 -0.0046
 1144SOL    HW114891   3.783   2.351  15.083 -2.0393  0.9000  2.0097
 1144SOL    HW214892   3.842   2.443  14.989 -0.6866  0.0225 -1.6785
 1145SOL     OW14893   0.430   2.649   2.031  0.2616  0.1819  0.2950
 1145SOL    HW114894   0.410   2.608   1.946  0.1729 -0.7843  0.7752
 1145SOL    HW214895   0.460   2.575   2.084 -1.9123 -0.8714  0.0902
 1146SOL     OW14896   4.342   4.232  16.126  0.8315 -0.2768 -0.0243
 1146SOL    HW114897   4.434   4.251  16.111  0.2128  2.2034 -0.6892
 1146SOL    HW214898   4.307   4.310  16.170 -1.1559 -1.7815  1.1235
 1147SOL     OW14899   2.560   0.648   2.770  0.2709  0.2750 -0.2721
 1147SOL    HW114900   2.512   0.582   2.820  0.2366  2.5010  2.6521
 1147SOL    HW214901   2.554   0.614   2.680  1.1079 -0.5029 -0.0417
 1148SOL     OW14902   1.512   2.051   7.366  0.0869  0.0832  0.1976
 1148SOL    HW114903   1.431   2.073   7.320 -0.2657  0.5492  1.0372
 1148SOL    HW214904   1.519   1.956   7.358  1.3214  0.1066  1.0252
 1149SOL     OW14905   4.318   1.723  16.371  0.5875  0.2637  0.0842
 1149SOL    HW114906   4.234   1.683  16.349  0.2196  1.2143 -0.2267
 1149SOL    HW214907   4.380   1.651  16.361 -0.6012 -0.9175  1.1632
 1150SOL     OW14908   3.381   3.188   6.022 -0.7151 -0.0692 -0.2938
 1150SOL    HW114909   3.397   3.096   6.002 -0.6292  0.2180 -1.5094
 1150SOL    HW214910   3.469   3.210   6.053 -0.6472  1.3948 -1.5116
 1151SOL     OW14911   3.387   4.629  13.249 -0.1028  0.3769  0.6399
 1151SOL    HW114912   3.345   4.702  13.204  0.3321 -0.8100 -1.6763
 1151SOL    HW214913   3.355   4.552  13.203 -1.4182  0.9751  0.5628
 1152SOL     OW14914   0.461   0.019   7.502  0.2746 -0.2580 -0.4076
 1152SOL    HW114915   0.493   0.017   7.592 -0.6434 -2.0432 -0.1215
 1152SOL    HW214916   0.391   0.084   7.500  0.8776  0.4076  0.1461
 1153SOL     OW14917   3.720   4.670   2.190 -0.1068 -0.2457 -0.3950
 1153SOL    HW114918   3.721   4.575   2.195 -0.2590 -0.2487 -0.4235
 1153SOL    HW214919   3.646   4.674   2.130 -1.0074  1.4925  0.8192
 1154SOL     OW14920   2.011   2.292   3.349 -0.1067  0.3570  0.4894
 1154SOL    HW114921   1.985   2.316   3.260 -1.0792  2.3628  1.2939
 1154SOL    HW214922   2.020   2.199   3.329  0.5189  0.6229 -0.4528
 1155SOL     OW14923   4.558   2.402   9.037 -0.0280 -0.2199  0.1004
 1155SOL    HW114924   4.618   2.348   8.986 -1.1138 -0.2251 -1.1516
 1155SOL    HW214925   4.490   2.341   9.065 -0.6851  0.7127  0.5432
 1156SOL     OW14926   3.253   2.258   1.767 -0.0499 -0.1628 -0.6721
 1156SOL    HW114927   3.207   2.257   1.683  1.8282 -0.9709 -1.6995
 1156SOL    HW214928   3.212   2.184   1.811 -2.6240  0.7198 -1.5754
 1157SOL     OW14929   2.008   3.476   4.419 -0.0452 -0.0641 -0.5442
 1157SOL    HW114930   1.943   3.489   4.488  4.0210  0.3860  3.2190
 1157SOL    HW214931   1.962   3.503   4.340 -1.7144 -0.3737  0.3283
 1158SOL     OW14932   0.911   2.590   6.797 -0.1582  0.1942  0.1901
 1158SOL    HW114933   0.955   2.600   6.882  0.5845  1.3708 -0.3205
 1158SOL    HW214934   0.825   2.621   6.824  1.2190  1.9287  2.6024
 1159SOL     OW14935   3.431   1.950   5.861 -0.6134 -0.0691  0.7240
 1159SOL    HW114936   3.413   2.034   5.817  1.8123  0.2148  0.2818
 1159SOL    HW214937   3.373   1.957   5.937 -2.9773 -0.4305 -1.0415
 1160SOL     OW14938   2.368   3.346   3.786 -0.0087 -0.3232 -0.3890
 1160SOL    HW114939   2.399   3.434   3.811 -0.8573 -0.0566 -0.2888
 1160SOL    HW214940   2.357   3.360   3.692 -3.6301  1.5507  0.3125
 1161SOL     OW14941   1.929   1.976   4.321 -0.0279 -0.4323 -0.6160
 1161SOL    HW114942   1.986   2.025   4.262 -0.8872  1.3616  0.0479
 1161SOL    HW214943   1.944   1.892   4.278  2.5250  0.9144 -2.3623
 1162SOL     OW14944   0.966   3.326   4.275  0.2254 -0.6007 -0.0870
 1162SOL    HW114945   1.025   3.400   4.289  0.3672 -0.4718 -1.3313
 1162SOL    HW214946   0.971   3.296   4.366 -2.9507 -0.6569  0.0569
 1163SOL     OW14947   3.941   3.836   6.661  0.5843 -0.3754  0.6939
 1163SOL    HW114948   3.883   3.908   6.687  1.5998  1.7343 -2.8477
 1163SOL    HW214949   3.884   3.763   6.683  0.3927 -0.5140 -0.2756
 1164SOL     OW14950   1.661   3.950   3.121  0.1051  0.2819  0.0703
 1164SOL    HW114951   1.660   3.889   3.195 -1.6333 -0.7519 -0.8280
 1164SOL    HW214952   1.617   3.900   3.053  2.0001 -2.1394  0.6172
 1165SOL     OW14953   2.996   2.129   7.213 -0.0492 -0.2526  0.0371
 1165SOL    HW114954   2.935   2.063   7.245  0.6477 -0.6824  0.4673
 1165SOL    HW214955   2.978   2.126   7.119 -1.5031  0.5054  0.2937
 1166SOL     OW14956   0.456   1.874   1.201  0.0585  0.3327 -0.0977
 1166SOL    HW114957   0.361   1.864   1.203  0.1249 -0.8033 -2.7997
 1166SOL    HW214958   0.467   1.962   1.164 -0.2469 -0.2956 -1.6862
 1167SOL     OW14959   0.789   3.694   0.015 -0.2653 -0.3751  0.4452
 1167SOL    HW114960   0.781   3.759  17.640 -1.1101 -1.3822 -0.4049
 1167SOL    HW214961   0.851   3.740   0.071  1.3419 -2.6647  0.5723
 1168SOL     OW14962   0.968   4.603   7.315 -0.3614 -0.4061 -0.1092
 1168SOL    HW114963   1.035   4.563   7.371 -0.2482 -0.7486 -0.4869
 1168SOL    HW214964   0.985   4.696   7.329  2.2070 -0.8441 -0.3540
 1169SOL     OW14965   4.449   1.265   8.423  0.0520 -0.0899 -0.3728
 1169SOL    HW114966   4.445   1.262   8.518 -2.5363 -1.7443 -0.5291
 1169SOL    HW214967   4.531   1.310   8.403 -0.6997  0.6714 -1.8280
 1170SOL     OW14968   2.801   0.164  12.128 -0.2916 -0.6941 -0.1148
 1170SOL    HW114969   2.867   0.161  12.197 -0.9859  0.3943  0.6017
 1170SOL    HW214970   2.774   0.072  12.128  1.2686 -1.1604  1.2341
 1171SOL     OW14971   2.669   0.820  16.071 -0.5836 -0.0328 -0.2292
 1171SOL    HW114972   2.607   0.803  16.142  0.3849  0.6203  0.7689
 1171SOL    HW214973   2.606   0.867  16.016 -1.3114 -0.4593  0.2385
 1172SOL     OW14974   3.843   1.620   2.713  0.4306  0.3724  0.3590
 1172SOL    HW114975   3.764   1.637   2.764  1.3605  0.6292  1.7419
 1172SOL    HW214976   3.812   1.536   2.679  2.8520 -1.8409  3.5864
 1173SOL     OW14977   3.276   0.199  12.043 -0.0857  0.2104 -0.3381
 1173SOL    HW114978   3.362   0.188  12.001 -0.1312 -2.4050  0.2925
 1173SOL    HW214979   3.308   0.174  12.129 -0.1612  0.8787 -0.1105
 1174SOL     OW14980   1.324   2.238   7.087 -0.0767 -0.3059 -0.5558
 1174SOL    HW114981   1.322   2.149   7.054 -1.3289 -0.2697 -0.5749
 1174SOL    HW214982   1.237   2.249   7.126  1.1029  0.3604  1.8865
 1175SOL     OW14983   0.497   4.589  10.061 -0.5472 -0.3702  0.0635
 1175SOL    HW114984   0.459   4.602   9.974 -2.4065 -0.1578  0.9018
 1175SOL    HW214985   0.588   4.581  10.031 -0.6277  1.5170 -0.6852
 1176SOL     OW14986   3.254   0.135   5.506  0.0002  0.0126  0.1085
 1176SOL    HW114987   3.179   0.173   5.460 -0.3637 -0.4080  0.3593
 1176SOL    HW214988   3.287   0.211   5.555 -0.5908 -0.4492  1.2089
 1177SOL     OW14989   2.558   3.245   0.689  0.0628 -0.3873  0.6348
 1177SOL    HW114990   2.630   3.182   0.684 -1.5936 -2.4056  2.0659
 1177SOL    HW214991   2.504   3.196   0.751 -2.3203 -1.8611 -2.5919
 1178SOL     OW14992   1.041   0.563   4.160 -0.7774  0.1893  0.7328
 1178SOL    HW114993   1.122   0.554   4.209  0.1480  0.3305 -0.7598
 1178SOL    HW214994   1.057   0.510   4.081 -0.3811  1.8142 -0.2755
 1179SOL     OW14995   2.513   0.173   2.803  0.0160  0.1032 -0.3431
 1179SOL    HW114996   2.472   0.156   2.719  0.6433  2.7909 -1.1713
 1179SOL    HW214997   2.461   0.244   2.840  2.9213  1.3180  1.3894
 1180SOL     OW14998   1.848   3.541   5.421 -0.1370 -0.0327 -0.1421
 1180SOL    HW114999   1.886   3.627   5.405 -0.9314  0.4876  0.7575
 1180SOL    HW215000   1.905   3.497   5.485 -0.9959 -0.5505  0.2775
 1181SOL     OW15001   0.173   0.721   7.482  0.1794 -0.4259 -0.3882
 1181SOL    HW115002   0.194   0.815   7.480  1.7656 -0.7717  0.3996
 1181SOL    HW215003   0.219   0.697   7.401  0.3812  1.5767 -0.8900
 1182SOL     OW15004   2.138   0.579   3.088  0.5040 -0.5921  0.0520
 1182SOL    HW115005   2.223   0.572   3.131  1.9901 -0.9467 -2.9377
 1182SOL    HW215006   2.161   0.632   3.011 -1.1222 -0.7433 -0.5293
 1183SOL     OW15007   4.200   3.183  11.035 -0.0675 -0.5953 -0.2118
 1183SOL    HW115008   4.106   3.190  11.019  0.2358  0.5118 -1.4919
 1183SOL    HW215009   4.236   3.132  10.962  0.2446  0.5138 -0.8312
 1184SOL     OW15010   2.678   4.061  14.399  0.1872 -0.5254  0.3276
 1184SOL    HW115011   2.603   4.037  14.344 -0.3665 -0.8637  1.2246
 1184SOL    HW215012   2.754   4.033  14.349  0.8519  0.1966  0.9347
 1185SOL     OW15013   4.281   1.607  14.241  0.1827  0.1325 -0.2302
 1185SOL    HW115014   4.321   1.588  14.326  2.2294 -0.0543 -1.2296
 1185SOL    HW215015   4.293   1.702  14.238 -0.6521  0.2090 -1.0512
 1186SOL     OW15016   3.670   3.335   2.636  0.0954  0.4820 -0.8856
 1186SOL    HW115017   3.704   3.254   2.599 -1.9491  0.5255 -2.8782
 1186SOL    HW215018   3.756   3.355   2.672  0.4513 -0.6356 -1.1160
 1187SOL     OW15019   2.017   1.384   6.835 -0.3106 -0.1307  0.2084
 1187SOL    HW115020   2.042   1.350   6.921 -1.7296 -1.6411  0.0330
 1187SOL    HW215021   1.940   1.433   6.863 -2.6543 -2.9616 -1.2218
 1188SOL     OW15022   3.279   3.350   7.239 -0.0253 -0.3129  0.0446
 1188SOL    HW115023   3.271   3.267   7.192  1.1115 -2.2487  3.2781
 1188SOL    HW215024   3.187   3.365   7.260  0.2485 -0.2209  1.1796
 1189SOL     OW15025   3.014   3.213  15.084 -0.1692  0.0482  0.0813
 1189SOL    HW115026   2.972   3.131  15.059  2.7083 -1.6171  0.7541
 1189SOL    HW215027   3.105   3.209  15.054 -0.3077 -0.3687 -0.2833
 1190SOL     OW15028   1.493   2.952   3.948 -0.3132  0.1492  0.1142
 1190SOL    HW115029   1.427   2.887   3.923 -0.2007 -0.0489  0.3368
 1190SOL    HW215030   1.562   2.903   3.992  0.0729 -0.0596 -0.7189
 1191SOL     OW15031   3.761   1.717   9.351 -0.4578 -0.1560 -0.2982
 1191SOL    HW115032   3.805   1.676   9.276  3.2282  0.7819  1.3254
 1191SOL    HW215033   3.675   1.732   9.312 -0.4421  0.1937 -0.1986
 1192SOL     OW15034   2.027   3.214   5.690  0.1861  0.5139 -0.3408
 1192SOL    HW115035   1.995   3.279   5.752  0.6808 -0.4136  0.8954
 1192SOL    HW215036   1.952   3.154   5.688  0.7730 -0.2340  0.2488
 1193SOL     OW15037   3.901   3.117   6.464  0.2599  0.0685  0.1775
 1193SOL    HW115038   3.904   3.075   6.550 -0.2787 -0.2066  0.0632
 1193SOL    HW215039   3.933   3.205   6.483  0.4538  0.4794 -2.0412
 1194SOL     OW15040   3.520   3.071  14.874  0.2840  0.3626  0.2871
 1194SOL    HW115041   3.567   3.111  14.948  0.6633 -1.8151  1.2111
 1194SOL    HW215042   3.552   3.128  14.804  0.3449 -0.4490 -0.3447
 1195SOL     OW15043   4.570   1.938   7.498 -0.0067  0.0194  0.0801
 1195SOL    HW115044   4.578   2.033   7.501 -0.8641  0.0738  0.7132
 1195SOL    HW215045   4.632   1.918   7.428  2.1337 -1.6611  2.4591
 1196SOL     OW15046   2.147   4.023  15.396  0.5693 -0.4901 -0.4179
 1196SOL    HW115047   2.204   4.088  15.353 -0.6920  0.1165 -1.1615
 1196SOL    HW215048   2.197   3.941  15.394  1.1859 -0.1004 -0.9182
 1197SOL     OW15049   0.029   0.150   4.348 -0.2556  0.3765 -0.1318
 1197SOL    HW115050   0.087   0.074   4.361 -0.1605  0.3006 -1.0385
 1197SOL    HW215051   4.689   0.104   4.294 -0.0075 -0.8188  0.5858
 1198SOL     OW15052   1.264   0.627   5.965 -0.3724  0.5732  0.1447
 1198SOL    HW115053   1.211   0.623   5.885 -0.3134  0.7775  0.0961
 1198SOL    HW215054   1.217   0.560   6.014 -1.2205  2.6695  2.2157
 1199SOL     OW15055   3.728   3.959   1.215  0.3238  0.7775  0.6581
 1199SOL    HW115056   3.798   4.001   1.265 -0.3506  0.5713  1.7465
 1199SOL    HW215057   3.748   3.865   1.212 -0.1724  0.6869  0.1797
 1200SOL     OW15058   1.583   0.761   0.524  0.1130 -0.1453  0.0456
 1200SOL    HW115059   1.590   0.666   0.533  0.4452 -0.1028  0.2625
 1200SOL    HW215060   1.628   0.782   0.443  1.5138 -1.1028  0.5841
 1201SOL     OW15061   3.386   0.798   2.676 -0.4617  0.0236  0.6398
 1201SOL    HW115062   3.345   0.796   2.589 -0.0302 -0.5185  0.4474
 1201SOL    HW215063   3.344   0.728   2.725 -0.5671 -0.4596 -0.1289
 1202SOL     OW15064   3.816   0.577  12.995  0.0902 -0.0707 -0.1423
 1202SOL    HW115065   3.868   0.649  13.030  1.0511 -0.0518 -1.6294
 1202SOL    HW215066   3.769   0.561  13.077 -0.0346  1.6872  0.1168
 1203SOL     OW15067   2.030   4.296   8.606  0.6628  0.0708  0.1481
 1203SOL    HW115068   2.008   4.256   8.690  0.0756 -1.6373 -0.8296
 1203SOL    HW215069   1.943   4.311   8.570  0.7363  0.3000  0.0650
 1204SOL     OW15070   1.495   2.433   7.060  0.0885 -0.7193  0.0874
 1204SOL    HW115071   1.475   2.480   7.141  1.7721  1.3873 -0.7341
 1204SOL    HW215072   1.428   2.365   7.069 -2.2942  1.7065  0.3921
 1205SOL     OW15073   3.179   1.510   3.965 -0.1313  0.4178  0.1501
 1205SOL    HW115074   3.190   1.597   4.004 -1.6389  1.3448 -1.4867
 1205SOL    HW215075   3.165   1.533   3.873 -1.3046 -0.2086  0.1676
 1206SOL     OW15076   3.514   3.943   4.731  0.2441 -0.3513  0.0210
 1206SOL    HW115077   3.557   4.015   4.685 -0.1397  0.8329  1.5339
 1206SOL    HW215078   3.433   3.924   4.685 -0.5159 -3.2422  2.5835
 1207SOL     OW15079   2.760   1.361   7.921 -0.4997  0.4166 -0.2135
 1207SOL    HW115080   2.730   1.350   7.831  3.6422  0.5900 -1.6231
 1207SOL    HW215081   2.783   1.453   7.932  3.5191 -0.4508 -1.5674
 1208SOL     OW15082   0.837   2.140   5.944 -0.1318  0.3801 -0.2020
 1208SOL    HW115083   0.742   2.145   5.932 -0.0561  0.4811 -0.7597
 1208SOL    HW215084   0.861   2.104   5.858 -2.5375  0.1210 -0.7571
 1209SOL     OW15085   0.830   1.649  11.039  0.2688  0.0495 -0.1757
 1209SOL    HW115086   0.782   1.632  10.958  1.1494  1.7791 -1.0538
 1209SOL    HW215087   0.851   1.742  11.046 -0.3540  0.1642  0.1665
 1210SOL     OW15088   0.549   3.817  15.473  0.3831 -0.1747  0.5388
 1210SOL    HW115089   0.461   3.853  15.460  0.5156  0.1702  0.6050
 1210SOL    HW215090   0.581   3.864  15.550  4.2905 -1.0497 -0.5406
 1211SOL     OW15091   2.657   1.864   2.903  0.3786 -0.3578  0.2937
 1211SOL    HW115092   2.737   1.911   2.881  1.4674 -2.0891  0.6194
 1211SOL    HW215093   2.597   1.903   2.839 -0.3659 -1.3344  0.4012
 1212SOL     OW15094   2.507   2.588  15.783 -0.0288  0.0808 -0.1477
 1212SOL    HW115095   2.544   2.502  15.766  0.0532  0.0941 -0.0337
 1212SOL    HW215096   2.491   2.604  15.690 -0.7194  1.4361  0.2077
 1213SOL     OW15097   4.389   3.256   3.171 -0.8076 -0.0186 -0.0924
 1213SOL    HW115098   4.429   3.187   3.224  2.1488  1.5127 -0.3274
 1213SOL    HW215099   4.303   3.213   3.165  0.5791 -2.6211 -0.9698
 1214SOL     OW15100   2.840   3.443   7.789 -0.1448 -0.0523  0.3492
 1214SOL    HW115101   2.847   3.536   7.813  1.0608 -0.6000  2.1054
 1214SOL    HW215102   2.806   3.442   7.699  2.0089  0.1219 -0.4814
 1215SOL     OW15103   3.803   3.712   4.524  0.8717 -0.1940 -0.1130
 1215SOL    HW115104   3.818   3.625   4.486 -0.5593 -0.4777 -0.0162
 1215SOL    HW215105   3.761   3.760   4.452 -0.3860  1.9923  2.0897
 1216SOL     OW15106   0.340   3.995   4.242 -0.5207  0.3539  0.3245
 1216SOL    HW115107   0.435   3.989   4.256 -0.7081  1.4102  1.9893
 1216SOL    HW215108   0.327   4.068   4.302  0.2360  0.2269  0.6485
 1217SOL     OW15109   2.807   3.297   2.220 -0.4083 -0.0853 -0.0866
 1217SOL    HW115110   2.740   3.337   2.276  1.5040  0.5376  1.7531
 1217SOL    HW215111   2.880   3.261   2.271 -1.0807 -2.2556 -0.6418
 1218SOL     OW15112   1.747   4.062   7.757 -0.7927 -0.0002 -0.3698
 1218SOL    HW115113   1.707   4.064   7.670  1.0456  1.3028 -1.1708
 1218SOL    HW215114   1.834   4.097   7.737 -0.0134 -1.3241  0.6837
 1219SOL     OW15115   1.156   3.659  17.590 -0.3571  0.6779  0.1047
 1219SOL    HW115116   1.174   3.616  17.507 -1.7316  1.5576 -0.6542
 1219SOL    HW215117   1.157   3.752  17.564  0.9813  0.5381 -0.3139
 1220SOL     OW15118   1.360   2.341   8.146 -0.3424 -0.3144 -0.0529
 1220SOL    HW115119   1.446   2.314   8.181 -0.7316 -0.2424  0.9506
 1220SOL    HW215120   1.347   2.424   8.191  1.2403  0.7887 -1.6551
 1221SOL     OW15121   3.654   1.510   7.211 -0.1351  0.7843 -0.0955
 1221SOL    HW115122   3.684   1.571   7.143 -3.3142  1.8541 -0.5153
 1221SOL    HW215123   3.578   1.473   7.166  0.1148 -0.6499  0.6645
 1222SOL     OW15124   4.569   0.174   1.336 -0.2659  0.2378 -0.2843
 1222SOL    HW115125   4.658   0.186   1.303  0.5744  0.1605  2.0051
 1222SOL    HW215126   4.579   0.188   1.430 -1.9716 -0.4164  0.0071
 1223SOL     OW15127   1.474   0.975   9.859 -0.3775 -0.3625 -0.2647
 1223SOL    HW115128   1.518   0.971   9.944  1.6592 -2.7796 -1.4498
 1223SOL    HW215129   1.389   0.948   9.893 -0.0283 -0.1499  0.7775
 1224SOL     OW15130   4.344   2.035   2.102 -0.2743 -0.4293 -0.0595
 1224SOL    HW115131   4.431   2.011   2.069 -0.0369 -1.0793  1.0050
 1224SOL    HW215132   4.359   2.129   2.108 -0.0532 -0.3972 -1.1549
 1225SOL     OW15133   0.810   2.492   3.359  0.0868 -0.0657 -0.4419
 1225SOL    HW115134   0.832   2.458   3.272  1.7564 -0.1964  0.0420
 1225SOL    HW215135   0.716   2.474   3.364  0.0135  1.5231  3.6026
 1226SOL     OW15136   2.103   1.573   2.934 -0.3318  0.0913 -0.1167
 1226SOL    HW115137   2.158   1.613   2.867  1.4543 -1.3989  0.4574
 1226SOL    HW215138   2.057   1.511   2.876 -0.5449  0.3064 -0.1807
 1227SOL     OW15139   3.167   0.171   0.557  0.1390 -0.7708 -0.1812
 1227SOL    HW115140   3.142   0.119   0.480 -2.1633  0.7099 -0.4247
 1227SOL    HW215141   3.251   0.206   0.527 -0.5296  0.8837 -0.0901
 1228SOL     OW15142   4.307   1.188   2.767  0.1269 -0.1398 -0.0278
 1228SOL    HW115143   4.320   1.283   2.772  1.9213 -0.2636 -2.6812
 1228SOL    HW215144   4.212   1.187   2.751 -0.0023 -1.3621  0.7811
 1229SOL     OW15145   0.110   0.931   3.158  0.2038  0.2819 -0.1115
 1229SOL    HW115146   0.073   0.854   3.202  0.6064  1.0577  1.5947
 1229SOL    HW215147   0.075   0.912   3.071  0.3274 -2.5939  0.4609
 1230SOL     OW15148   4.126   4.469   3.771 -0.1262 -0.2024  0.5902
 1230SOL    HW115149   4.155   4.379   3.761 -1.6669 -1.0357  3.5348
 1230SOL    HW215150   4.117   4.488   3.677  0.0878 -0.5836  0.4970
 1231SOL     OW15151   2.235   2.722   4.558 -0.9116 -0.0108  0.0968
 1231SOL    HW115152   2.156   2.706   4.506 -1.1652 -2.4402  1.2375
 1231SOL    HW215153   2.245   2.815   4.537  2.7716 -0.5911 -0.6605
 1232SOL     OW15154   2.304   2.666  11.373  0.2083  0.3501 -0.3162
 1232SOL    HW115155   2.345   2.743  11.413  0.1343  0.8746 -1.2594
 1232SOL    HW215156   2.368   2.597  11.389  0.6037  0.4031 -1.6723
 1233SOL     OW15157   3.131   0.113   6.787  0.1557 -0.1488 -0.0034
 1233SOL    HW115158   3.161   0.151   6.870  0.9668 -0.4760 -0.1423
 1233SOL    HW215159   3.202   0.142   6.730 -0.6683  0.4440 -0.7192
 1234SOL     OW15160   0.051   1.905   1.417  0.6279 -0.0812  0.7369
 1234SOL    HW115161   0.102   1.903   1.337 -1.0350  0.8443 -0.3498
 1234SOL    HW215162   0.115   1.901   1.488  0.4252 -0.4281  0.9048
 1235SOL     OW15163   1.071   0.671   5.690  0.3525 -0.0871 -0.2756
 1235SOL    HW115164   1.030   0.730   5.754 -0.3653  1.4789 -2.1991
 1235SOL    HW215165   0.996   0.616   5.665 -0.2598  1.3262 -1.5434
 1236SOL     OW15166   1.367   3.021   8.994 -0.2954 -0.5103 -0.2910
 1236SOL    HW115167   1.274   3.021   8.972 -1.0639  1.0856  3.0254
 1236SOL    HW215168   1.356   3.001   9.086  0.1504 -1.3403 -0.4177
 1237SOL     OW15169   1.021   0.776  12.262  0.4717 -0.0712 -0.1312
 1237SOL    HW115170   1.110   0.750  12.285 -0.0316 -0.4094  1.4090
 1237SOL    HW215171   1.004   0.839  12.332 -1.1482  1.8084 -2.1951
 1238SOL     OW15172   2.130   2.912   4.015  0.4319 -0.2806 -0.2500
 1238SOL    HW115173   2.157   3.004   4.005  0.8144 -0.6341 -2.5880
 1238SOL    HW215174   2.209   2.874   3.976  1.3638 -1.3659  2.7774
 1239SOL     OW15175   3.318   3.118   5.086  0.0336 -0.0649 -0.2817
 1239SOL    HW115176   3.387   3.112   5.020  0.3528 -2.6623  0.2936
 1239SOL    HW215177   3.329   3.202   5.132 -1.8905  0.4561 -0.7788
 1240SOL     OW15178   4.326   3.842  15.607 -0.3487  0.7756 -0.0226
 1240SOL    HW115179   4.343   3.881  15.693 -1.2191 -0.3989  0.6800
 1240SOL    HW215180   4.287   3.761  15.640  1.3164 -0.4025 -0.9034
 1241SOL     OW15181   4.235   4.395   7.473  0.0722 -0.1765 -0.1828
 1241SOL    HW115182   4.215   4.321   7.531 -1.6678 -0.7383 -1.4948
 1241SOL    HW215183   4.262   4.464   7.533 -0.5900 -0.7007  0.7294
 1242SOL     OW15184   0.027   4.186   8.711  0.6151 -0.0558 -0.1224
 1242SOL    HW115185   4.697   4.263   8.732  2.7933  1.3994  0.0595
 1242SOL    HW215186   4.696   4.135   8.652  2.2880 -0.3080 -1.4474
 1243SOL     OW15187   3.134   2.496   3.937  0.2171 -0.5458 -0.2284
 1243SOL    HW115188   3.168   2.434   3.871  2.4989  1.2772 -0.7636
 1243SOL    HW215189   3.106   2.446   4.014 -0.5742 -0.6986 -0.6124
 1244SOL     OW15190   0.011   4.277  10.318 -0.3731 -0.2497  0.1557
 1244SOL    HW115191   4.683   4.219  10.262 -0.8102  0.7392 -0.4755
 1244SOL    HW215192   4.668   4.320  10.373 -0.2936 -1.4896  1.2126
 1245SOL     OW15193   3.905   2.404   9.404 -0.1084  0.1677 -0.3259
 1245SOL    HW115194   3.810   2.404   9.418 -0.1323  0.3970 -0.4826
 1245SOL    HW215195   3.923   2.388   9.496  1.6103 -1.7315 -0.9797
 1246SOL     OW15196   1.216   4.464   9.038  0.2241  0.0246  0.3036
 1246SOL    HW115197   1.146   4.524   9.016  1.2734  0.3967 -2.0143
 1246SOL    HW215198   1.185   4.378   9.010 -2.1926  0.8540  0.4698
 1247SOL     OW15199   3.454   3.734   8.409  0.6448  0.1635  0.0169
 1247SOL    HW115200   3.546   3.730   8.435 -0.1028 -1.4083  2.5174
 1247SOL    HW215201   3.416   3.678   8.477  0.9562 -0.7155 -0.5376
 1248SOL     OW15202   4.118   4.491  10.480 -0.2198  0.2921 -0.0011
 1248SOL    HW115203   4.152   4.476  10.392 -1.3292 -1.3822 -0.1301
 1248SOL    HW215204   4.194   4.453  10.524 -0.2191 -0.0276 -0.2830
 1249SOL     OW15205   2.238   2.976   2.406 -0.0498 -0.1164 -0.2777
 1249SOL    HW115206   2.155   2.939   2.436 -0.8223  1.4158 -0.5343
 1249SOL    HW215207   2.261   2.916   2.335  2.3137 -0.8042  1.0941
 1250SOL     OW15208   3.043   2.569   8.797  0.5187 -0.6103 -0.0827
 1250SOL    HW115209   3.099   2.628   8.847  0.2776 -0.5015  0.0570
 1250SOL    HW215210   3.100   2.574   8.720  1.1163 -0.7940  0.3547
 1251SOL     OW15211   0.324   0.658   3.642  0.5576 -0.2305  0.0091
 1251SOL    HW115212   0.287   0.620   3.722 -2.0350  0.3510 -0.9429
 1251SOL    HW215213   0.412   0.671   3.679  1.4702 -1.8784 -1.5721
 1252SOL     OW15214   1.255   4.187   1.795  0.5118  0.1979 -0.1612
 1252SOL    HW115215   1.329   4.166   1.739  0.5268  1.9812 -0.8141
 1252SOL    HW215216   1.191   4.157   1.730  0.0781 -2.4208  1.4678
 1253SOL     OW15217   1.484   3.918   0.359  0.3423 -0.0739  0.2035
 1253SOL    HW115218   1.391   3.934   0.341  0.1590 -0.5473  0.7214
 1253SOL    HW215219   1.519   3.878   0.279  1.8808  0.3335  0.6834
 1254SOL     OW15220   1.567   0.368   1.188 -0.4577  0.0565  0.1444
 1254SOL    HW115221   1.570   0.274   1.170 -1.2761  0.2968 -1.3317
 1254SOL    HW215222   1.472   0.380   1.179 -0.8410 -2.9836  0.1329
 1255SOL     OW15223   1.670   1.468   4.613 -0.1595  0.4221  0.4254
 1255SOL    HW115224   1.669   1.394   4.553  2.0628  1.3055 -0.6803
 1255SOL    HW215225   1.692   1.536   4.549  0.1169 -0.2014 -0.1454
 1256SOL     OW15226   3.022   3.946  12.206 -0.5610  0.6599  0.2676
 1256SOL    HW115227   2.938   3.901  12.216  0.5726 -1.2469  1.2786
 1256SOL    HW215228   3.014   3.971  12.114  0.3632  1.0099  0.2886
 1257SOL     OW15229   0.658   4.011   9.149  0.2022 -0.1811 -0.3466
 1257SOL    HW115230   0.596   4.061   9.203  0.3895 -0.8061  0.4622
 1257SOL    HW215231   0.597   3.937   9.147 -0.7210  0.5851 -0.4191
 1258SOL     OW15232   1.432   0.975   7.307 -0.2257  0.9433  0.0254
 1258SOL    HW115233   1.525   0.974   7.284 -0.4067  1.4098 -0.7306
 1258SOL    HW215234   1.404   1.046   7.250  1.2400  2.1176  0.7822
 1259SOL     OW15235   2.470   0.604   9.229  0.3031  0.6520 -0.0720
 1259SOL    HW115236   2.460   0.643   9.143 -0.3540  0.6978  0.0214
 1259SOL    HW215237   2.537   0.656   9.272 -0.4727  1.4514  0.1737
 1260SOL     OW15238   3.068   2.772   4.675  0.4019 -0.0188  0.5735
 1260SOL    HW115239   3.078   2.702   4.610 -3.0507  0.1008 -0.0733
 1260SOL    HW215240   3.013   2.836   4.630  0.8351  1.0784  1.6039
 1261SOL     OW15241   2.735   4.229   1.801 -0.2092  0.1215  0.6174
 1261SOL    HW115242   2.739   4.176   1.721 -0.8218  3.0294 -1.3564
 1261SOL    HW215243   2.773   4.167   1.863  1.4383 -0.3477 -0.8778
 1262SOL     OW15244   1.510   2.924   7.007 -0.5687 -0.1271  0.1115
 1262SOL    HW115245   1.502   2.884   7.094  3.3813  0.8260  0.9168
 1262SOL    HW215246   1.579   2.988   7.021 -0.1774 -0.5821  0.2619
 1263SOL     OW15247   4.240   3.972  14.991  0.9089  0.4014 -0.2060
 1263SOL    HW115248   4.274   3.963  15.080 -1.5674 -0.0345  0.7038
 1263SOL    HW215249   4.275   4.055  14.958  0.4013  0.8517  0.3753
 1264SOL     OW15250   1.148   2.980   9.717 -0.9846  0.2511 -0.5895
 1264SOL    HW115251   1.169   3.052   9.776  0.2085 -1.7457  1.4346
 1264SOL    HW215252   1.168   2.904   9.772  0.0851  0.6291 -0.4664
 1265SOL     OW15253   1.064   3.051   9.459  0.4646  0.4333  0.0244
 1265SOL    HW115254   1.077   3.030   9.551 -0.7352  1.4206  0.4208
 1265SOL    HW215255   1.030   2.970   9.421 -0.8372 -0.0935  2.3712
 1266SOL     OW15256   2.550   0.017  11.750  0.1551  0.5254 -0.1782
 1266SOL    HW115257   2.542   0.054  11.662  1.4506  0.0846 -0.4855
 1266SOL    HW215258   2.643   0.014  11.771  0.4379 -0.2707 -1.5695
 1267SOL     OW15259   2.862   3.073  15.323 -0.6093  0.4111 -0.2994
 1267SOL    HW115260   2.891   2.982  15.332  1.9009  1.0955 -1.4539
 1267SOL    HW215261   2.855   3.076  15.227  0.5944  0.5021 -0.3934
 1268SOL     OW15262   3.344   1.232   0.916  0.1027 -0.0003 -0.2798
 1268SOL    HW115263   3.324   1.228   0.822 -1.3933  4.5091 -0.1222
 1268SOL    HW215264   3.409   1.162   0.925  1.1008  0.9393 -0.2546
 1269SOL     OW15265   4.546   3.492  15.541  0.8657  0.3914  0.2790
 1269SOL    HW115266   4.640   3.490  15.525  0.7285  0.1211 -0.4836
 1269SOL    HW215267   4.522   3.578  15.507 -2.5614 -0.2661  1.0421
 1270SOL     OW15268   3.939   4.446   0.482  0.5382 -0.0037 -0.6336
 1270SOL    HW115269   3.870   4.437   0.548  0.6369 -1.2773 -0.7104
 1270SOL    HW215270   3.893   4.406   0.408 -0.0523  3.0340 -1.9399
 1271SOL     OW15271   2.529   3.474  14.276  0.1306 -0.6023  0.2711
 1271SOL    HW115272   2.530   3.541  14.345 -0.4214 -0.7120  0.3841
 1271SOL    HW215273   2.439   3.441  14.277 -0.7912  1.8971  0.4965
 1272SOL     OW15274   3.348   4.380   6.883  0.3960  0.5577  0.3525
 1272SOL    HW115275   3.362   4.466   6.923  1.4795  1.1145 -1.2387
 1272SOL    HW215276   3.431   4.340   6.909  0.2161  0.1362  0.2685
 1273SOL     OW15277   0.508   1.461  14.828 -0.2876  0.5891  0.3513
 1273SOL    HW115278   0.479   1.433  14.741  1.0562 -2.4081  0.8838
 1273SOL    HW215279   0.601   1.484  14.824  0.0553 -1.3211 -2.4263
 1274SOL     OW15280   4.075   1.080   2.008  0.1709 -0.2622 -0.6920
 1274SOL    HW115281   4.107   1.166   2.033 -0.8034 -0.3145  0.7358
 1274SOL    HW215282   3.982   1.096   1.992  0.0362  1.2939  1.6099
 1275SOL     OW15283   2.565   3.534   4.592 -0.2224  0.0403 -0.7867
 1275SOL    HW115284   2.491   3.586   4.623 -0.8481 -0.0427 -2.1539
 1275SOL    HW215285   2.521   3.451   4.574  0.1962 -0.1819 -0.8045
 1276SOL     OW15286   3.640   0.684   1.514 -0.1025 -0.5572 -0.0049
 1276SOL    HW115287   3.564   0.734   1.483  0.5776 -1.3240 -2.8847
 1276SOL    HW215288   3.663   0.648   1.429  0.0394 -0.0285 -0.1898
 1277SOL     OW15289   2.208   2.003   8.754 -0.2461  0.5440  0.2565
 1277SOL    HW115290   2.234   2.095   8.751  2.0499 -0.0446  2.4756
 1277SOL    HW215291   2.209   1.985   8.848  1.0905  1.9858  0.5018
 1278SOL     OW15292   1.538   4.649  16.323  0.4945  0.0367 -0.0443
 1278SOL    HW115293   1.574   4.675  16.238  2.6166 -0.9199  0.5656
 1278SOL    HW215294   1.568   4.718  16.382 -1.7232  0.5710  0.4808
 1279SOL     OW15295   1.812   1.343   2.968 -0.0088 -0.4737 -0.1041
 1279SOL    HW115296   1.800   1.272   2.905  0.5315 -0.7735  0.1321
 1279SOL    HW215297   1.836   1.286   3.041 -0.3041  0.1366  0.4752
 1280SOL     OW15298   1.905   0.044   6.118  0.2523 -0.3212  0.7043
 1280SOL    HW115299   1.811   0.059   6.133  0.2549  1.4065 -0.9622
 1280SOL    HW215300   1.903   4.686   6.069 -1.1009  1.3950 -2.1117
 1281SOL     OW15301   4.362   0.476  17.605 -0.1323 -0.1791 -0.1788
 1281SOL    HW115302   4.282   0.451  17.559 -0.8932  1.8340  0.0763
 1281SOL    HW215303   4.376   0.394  17.654  0.0330  0.4580  0.8477
 1282SOL     OW15304   4.302   0.377   6.371 -0.0816  0.1253  0.2591
 1282SOL    HW115305   4.365   0.322   6.418  2.0125  1.2606 -1.2799
 1282SOL    HW215306   4.232   0.314   6.350  1.6011 -2.3667  2.1053
 1283SOL     OW15307   1.966   1.247  17.541 -0.2016 -0.8090  0.1569
 1283SOL    HW115308   2.010   1.192  17.476  0.1876 -0.8741  0.4769
 1283SOL    HW215309   1.876   1.236  17.510  0.0530 -0.4094 -0.7529
 1284SOL     OW15310   3.186   2.683   8.367 -0.0119  0.4233 -0.2689
 1284SOL    HW115311   3.120   2.726   8.422  0.6745 -0.7816  1.4941
 1284SOL    HW215312   3.189   2.600   8.415  1.1704 -1.9074 -4.4271
 1285SOL     OW15313   1.829   3.982   5.679  0.1760 -0.6051  0.1454
 1285SOL    HW115314   1.875   3.898   5.687  1.1017 -0.2457 -1.2637
 1285SOL    HW215315   1.754   3.966   5.735  0.1664  1.6164  0.7744
 1286SOL     OW15316   3.731   2.861   8.953 -0.1460 -0.3262  0.9197
 1286SOL    HW115317   3.796   2.846   9.023  1.2718 -0.2143 -0.3768
 1286SOL    HW215318   3.746   2.790   8.890 -0.0269  0.8308 -0.3314
 1287SOL     OW15319   0.041   2.061  11.718 -0.3542  0.3089  0.5731
 1287SOL    HW115320   0.001   2.018  11.793  0.7277  0.4960  1.2481
 1287SOL    HW215321   0.024   2.007  11.641  0.6498  0.2221  0.4148
 1288SOL     OW15322   1.148   4.644   1.570 -0.2034 -0.5634  0.3273
 1288SOL    HW115323   1.173   4.572   1.512  0.1005  1.3034 -1.8851
 1288SOL    HW215324   1.062   4.610   1.594  0.0591 -1.9090 -0.6354
 1289SOL     OW15325   0.867   0.525   8.086  0.1274  0.0161 -0.6591
 1289SOL    HW115326   0.897   0.495   8.000 -1.8081  1.9799 -2.0239
 1289SOL    HW215327   0.786   0.476   8.096  0.3771 -0.3824 -0.5749
 1290SOL     OW15328   1.398   1.833   4.894  0.0591  0.0910  0.0547
 1290SOL    HW115329   1.398   1.744   4.927 -0.4033  0.7364  1.7668
 1290SOL    HW215330   1.314   1.867   4.927 -0.1502 -1.0218  0.6463
 1291SOL     OW15331   2.541   3.981   1.886 -0.1428 -0.5421  0.0014
 1291SOL    HW115332   2.554   4.000   1.793  0.8677  0.8779  0.4403
 1291SOL    HW215333   2.456   3.937   1.883  0.1709 -1.1900  0.7084
 1292SOL     OW15334   1.864   0.253  12.733  0.6492 -0.2044 -0.4971
 1292SOL    HW115335   1.868   0.167  12.692  0.8946 -0.6541  0.4716
 1292SOL    HW215336   1.807   0.298  12.671 -0.4675  1.2796  1.6153
 1293SOL     OW15337   2.403   3.480   2.734 -0.4119  0.5662 -0.3033
 1293SOL    HW115338   2.312   3.507   2.744 -0.1287  0.8751  1.5627
 1293SOL    HW215339   2.448   3.551   2.781  1.8721 -1.9896  1.3576
 1294SOL     OW15340   2.433   2.176   7.753  0.1433  0.8812 -0.3669
 1294SOL    HW115341   2.402   2.212   7.836 -0.7902  0.2824 -0.4548
 1294SOL    HW215342   2.406   2.252   7.701  0.4512  1.0307 -0.3076
 1295SOL     OW15343   2.552   2.969  13.511 -0.5324  0.3207  0.4629
 1295SOL    HW115344   2.522   2.924  13.432  0.1463  1.0702 -0.2310
 1295SOL    HW215345   2.513   3.054  13.494 -1.2820 -0.9810 -4.2689
 1296SOL     OW15346   0.331   2.737   3.416  1.0960  0.1685  0.3771
 1296SOL    HW115347   0.414   2.707   3.453  0.9953  0.1082  0.5547
 1296SOL    HW215348   0.342   2.832   3.409  1.5729  0.0672 -0.2228
 1297SOL     OW15349   3.582   2.079  13.178 -0.3873 -0.0294  0.5749
 1297SOL    HW115350   3.548   2.131  13.106  0.5998 -0.0740  0.0687
 1297SOL    HW215351   3.564   2.130  13.257  1.4771  1.2719  0.1744
 1298SOL     OW15352   3.059   4.634  11.675 -0.2728 -0.2797  0.1509
 1298SOL    HW115353   3.091   4.710  11.723  2.6901 -0.4115 -1.6406
 1298SOL    HW215354   3.068   4.561  11.737  0.2418 -2.2210 -2.2325
 1299SOL     OW15355   2.122   1.227   9.370 -0.0478  0.1801 -0.1269
 1299SOL    HW115356   2.107   1.175   9.448  0.3374  3.2700  1.9985
 1299SOL    HW215357   2.162   1.306   9.407 -0.6334 -0.8335  2.5992
 1300SOL     OW15358   3.583   3.893  17.251 -0.6556  0.7879 -0.0579
 1300SOL    HW115359   3.626   3.887  17.166 -2.9782  1.9293 -1.3074
 1300SOL    HW215360   3.528   3.970  17.235 -0.1314  1.7701  2.8189
 1301SOL     OW15361   4.006   1.073   6.081 -0.5981  0.6449  0.1442
 1301SOL    HW115362   4.058   1.041   6.154  0.8577  2.8924  0.1074
 1301SOL    HW215363   3.963   1.142   6.133 -0.7714  0.4218  0.2940
 1302SOL     OW15364   1.116   2.733   8.048  0.0059  0.2231  0.3925
 1302SOL    HW115365   1.027   2.701   8.034  0.7008 -1.3500 -0.3790
 1302SOL    HW215366   1.159   2.689   7.975 -0.0065  2.6512 -1.0662
 1303SOL     OW15367   3.396   2.831   4.539 -0.2516  0.2528 -0.1730
 1303SOL    HW115368   3.375   2.893   4.609 -0.5363 -0.0778  0.0322
 1303SOL    HW215369   3.470   2.783   4.575 -0.3518 -0.3192 -0.7336
 1304SOL     OW15370   3.427   4.520   2.479  0.0638 -0.6095  0.2321
 1304SOL    HW115371   3.356   4.479   2.529 -1.0011  0.7803 -0.1518
 1304SOL    HW215372   3.448   4.597   2.532  0.0385 -0.1102 -0.4837
 1305SOL     OW15373   1.672   2.207   2.897 -0.0031  0.2102 -0.2867
 1305SOL    HW115374   1.651   2.188   2.806  0.3484  1.8022 -0.6988
 1305SOL    HW215375   1.767   2.215   2.883  0.2756  0.4080  1.7277
 1306SOL     OW15376   2.633   0.033   5.380  0.1649  0.0063  0.3099
 1306SOL    HW115377   2.544   0.011   5.407  0.3667  0.1975  1.1470
 1306SOL    HW215378   2.643   4.686   5.316  3.0704  0.1006  0.6776
 1307SOL     OW15379   2.851   4.441  12.364  0.6284  0.2866 -0.0895
 1307SOL    HW115380   2.806   4.393  12.434  1.4455  0.9774  0.9251
 1307SOL    HW215381   2.888   4.364  12.322 -2.0936  0.0838 -2.1061
 1308SOL     OW15382   4.425   3.295   6.085  0.1582  0.0456 -0.4204
 1308SOL    HW115383   4.346   3.246   6.108  1.1101 -0.5847  1.5839
 1308SOL    HW215384   4.488   3.236   6.127  1.9872  2.8365  0.7828
 1309SOL     OW15385   4.629   4.039  10.912 -0.3748 -0.0182 -0.1083
 1309SOL    HW115386   4.601   4.087  10.834  0.0631  0.6876  0.1697
 1309SOL    HW215387   4.693   3.976  10.879 -0.8967 -0.2503 -0.6619
 1310SOL     OW15388   2.339   0.083   9.144 -0.0925  0.8286  0.3008
 1310SOL    HW115389   2.269   0.094   9.081 -0.8163 -0.6331  0.8461
 1310SOL    HW215390   2.382   0.168   9.146  0.6718  0.4305  1.4085
 1311SOL     OW15391   1.032   1.378  15.700 -0.0084  0.0552  0.2826
 1311SOL    HW115392   1.059   1.289  15.675 -0.2186 -0.2618  1.1897
 1311SOL    HW215393   1.089   1.395  15.775  1.8139  1.3315 -1.3963
 1312SOL     OW15394   0.861   2.311   1.570  0.9847  0.1319  0.1059
 1312SOL    HW115395   0.877   2.355   1.653 -0.3607 -0.1607  0.5230
 1312SOL    HW215396   0.837   2.393   1.526  2.4255  0.9518  0.8834
 1313SOL     OW15397   2.995   1.938  10.574 -0.0104  0.2460  0.3564
 1313SOL    HW115398   2.981   2.029  10.546  0.5484  0.5489  1.0618
 1313SOL    HW215399   2.903   1.915  10.585 -0.8599  2.0543 -2.8586
 1314SOL     OW15400   1.192   4.715   8.615  0.3439 -0.1202 -0.6561
 1314SOL    HW115401   1.133   4.653   8.573 -0.8312 -0.2798  1.2282
 1314SOL    HW215402   1.128   0.055   8.649 -0.7971 -1.7006  0.1052
 1315SOL     OW15403   2.607   2.503   4.313  0.1731  0.0351  0.0018
 1315SOL    HW115404   2.612   2.539   4.402  0.9554  1.0933 -0.4783
 1315SOL    HW215405   2.623   2.581   4.260 -0.2441 -0.6927 -1.1956
 1316SOL     OW15406   3.232   1.008   2.015 -0.4308  0.6334  0.7135
 1316SOL    HW115407   3.256   1.002   1.923 -1.3278 -0.9273  0.5845
 1316SOL    HW215408   3.137   1.014   2.008 -0.6459 -1.8115  1.3201
 1317SOL     OW15409   2.121   0.588   4.315 -0.7396  0.1631 -0.3890
 1317SOL    HW115410   2.103   0.523   4.384  0.2029 -0.5295 -0.8051
 1317SOL    HW215411   2.199   0.632   4.349  0.8439 -0.6971 -2.9336
 1318SOL     OW15412   3.939   2.370   0.556 -0.2609  0.5408  0.3323
 1318SOL    HW115413   3.954   2.281   0.586 -0.2790  0.3558 -0.2121
 1318SOL    HW215414   3.846   2.363   0.534  0.0153 -2.0043  0.0394
 1319SOL     OW15415   2.399   1.648   3.034 -0.5571  1.3290  0.3548
 1319SOL    HW115416   2.349   1.694   2.966  1.1012 -0.7425 -2.3067
 1319SOL    HW215417   2.354   1.678   3.113 -1.6825  0.2059  0.1379
 1320SOL     OW15418   3.211   2.521   9.083 -0.0153  0.0675  0.3995
 1320SOL    HW115419   3.294   2.543   9.124  0.1476 -1.3162  0.8245
 1320SOL    HW215420   3.214   2.594   9.021 -0.0064  0.0198  0.3437
 1321SOL     OW15421   2.168   1.587   9.108  0.1916 -0.7816  0.6665
 1321SOL    HW115422   2.221   1.520   9.152  1.2141 -1.7019 -1.9963
 1321SOL    HW215423   2.137   1.638   9.183  5.6958  2.7039  0.5660
 1322SOL     OW15424   1.834   0.376   7.791 -0.1516 -0.1630 -0.1714
 1322SOL    HW115425   1.920   0.377   7.833  0.1801  0.1162 -0.8540
 1322SOL    HW215426   1.796   0.464   7.793  0.0603 -0.0453 -1.2504
 1323SOL     OW15427   3.134   0.928   3.549  0.3511 -0.7983 -0.1721
 1323SOL    HW115428   3.079   0.903   3.475  0.8119  0.5055 -0.9743
 1323SOL    HW215429   3.200   0.863   3.527 -0.0618 -0.8805 -1.1837
 1324SOL     OW15430   0.447   4.555   4.015  0.3099  0.0965 -0.0588
 1324SOL    HW115431   0.433   4.470   3.974  0.7632 -0.3957  0.8032
 1324SOL    HW215432   0.499   4.591   3.943 -0.9749  3.2055  0.5604
 1325SOL     OW15433   2.720   4.063   2.096 -0.5243 -0.0299 -0.1301
 1325SOL    HW115434   2.658   4.057   2.023 -1.7129  1.9725  0.7237
 1325SOL    HW215435   2.680   4.138   2.139  2.1568  1.5491 -0.4012
 1326SOL     OW15436   2.131   0.241   7.906  0.0505 -0.3585 -0.2139
 1326SOL    HW115437   2.222   0.213   7.911 -0.1582 -1.1851 -1.2874
 1326SOL    HW215438   2.080   0.189   7.968  0.5887 -2.3588 -1.4668
 1327SOL     OW15439   3.553   3.248   6.333 -0.3957 -0.7696 -0.1973
 1327SOL    HW115440   3.524   3.162   6.364  1.3737 -1.1500  0.3716
 1327SOL    HW215441   3.465   3.269   6.301 -0.0828  1.0334  0.1487
 1328SOL     OW15442   1.197   1.239   2.684  0.0802 -0.4278 -0.0459
 1328SOL    HW115443   1.224   1.180   2.613  0.3637 -0.5305  0.1450
 1328SOL    HW215444   1.185   1.325   2.645 -1.0307 -1.2116 -1.4155
 1329SOL     OW15445   4.225   0.415   4.867  0.3013  0.3279  0.1721
 1329SOL    HW115446   4.240   0.342   4.807  1.2665  0.8652 -0.2334
 1329SOL    HW215447   4.301   0.407   4.925 -0.6956  0.4812  1.5104
 1330SOL     OW15448   4.316   1.578   3.800  0.3893 -0.0307  0.0842
 1330SOL    HW115449   4.403   1.538   3.809  0.7298  0.4323 -1.0587
 1330SOL    HW215450   4.321   1.604   3.708 -2.6439  2.5810  0.6836
 1331SOL     OW15451   1.978   1.400   8.501 -0.6871  0.5340  0.3980
 1331SOL    HW115452   1.998   1.420   8.593  1.4538 -0.1669  0.0916
 1331SOL    HW215453   1.893   1.358   8.511 -0.3595  0.2076  1.9274
 1332SOL     OW15454   2.830   4.387  10.627 -0.7963 -0.0738  1.2293
 1332SOL    HW115455   2.860   4.388  10.536 -0.6542 -0.4294  1.2739
 1332SOL    HW215456   2.791   4.474  10.623 -3.1523 -1.1984 -1.0637
 1333SOL     OW15457   0.700   1.667   6.357 -0.0393  0.1207  0.0796
 1333SOL    HW115458   0.723   1.574   6.362 -1.5610 -0.1316  3.0137
 1333SOL    HW215459   0.725   1.700   6.443 -0.0620  1.9477 -0.6152
 1334SOL     OW15460   0.714   3.679   8.117 -0.4279 -0.8192  0.9381
 1334SOL    HW115461   0.693   3.612   8.181  2.7619 -1.2255  1.5284
 1334SOL    HW215462   0.775   3.630   8.063 -2.4301  0.3172 -2.3932
 1335SOL     OW15463   3.577   3.082   5.251 -0.1789  0.5865  0.7491
 1335SOL    HW115464   3.525   3.111   5.325 -1.7890 -0.7666  0.1470
 1335SOL    HW215465   3.513   3.052   5.187  1.7925  1.3529 -1.5830
 1336SOL     OW15466   1.288   0.402   1.167 -0.7754 -0.4442 -0.2325
 1336SOL    HW115467   1.215   0.437   1.118  0.8353  0.3299 -2.0759
 1336SOL    HW215468   1.272   0.434   1.256 -3.0270  0.6437 -1.0399
 1337SOL     OW15469   3.506   4.406   4.667  0.3159  0.0902  0.0333
 1337SOL    HW115470   3.438   4.350   4.705 -0.0764  0.4216 -0.1832
 1337SOL    HW215471   3.463   4.491   4.658 -0.4578  0.0086  2.7999
 1338SOL     OW15472   2.246   0.838   3.881  0.2147  0.1885 -0.2736
 1338SOL    HW115473   2.162   0.872   3.849  0.6359  0.1958 -1.3409
 1338SOL    HW215474   2.258   0.763   3.824 -1.5526 -2.2802  2.5673
 1339SOL     OW15475   3.307   4.084   5.072  0.0350  0.1382 -0.1712
 1339SOL    HW115476   3.225   4.131   5.077 -0.0861 -0.0689 -0.2004
 1339SOL    HW215477   3.286   3.999   5.113  1.5354  0.5851  1.5407
 1340SOL     OW15478   3.685   0.423   6.790 -0.6827 -0.3162 -0.2176
 1340SOL    HW115479   3.761   0.376   6.756  0.6960  1.9398 -0.2674
 1340SOL    HW215480   3.616   0.365   6.821 -1.4833  0.6024 -0.2731
 1341SOL     OW15481   3.324   3.817  17.080 -0.2339  0.4444  0.0371
 1341SOL    HW115482   3.262   3.869  17.132  0.0881  0.6461  0.2209
 1341SOL    HW215483   3.345   3.757  17.151 -0.3847  0.1793 -0.1432
 1342SOL     OW15484   4.070   1.012   3.460  0.0028 -0.3780 -0.2852
 1342SOL    HW115485   3.977   1.010   3.486  0.4965  0.2511  1.5467
 1342SOL    HW215486   4.086   1.106   3.464 -0.2478 -0.2865 -1.4137
 1343SOL     OW15487   3.611   4.438   8.292 -0.6119  0.2017 -0.0466
 1343SOL    HW115488   3.561   4.424   8.212 -0.9290 -1.7912  0.4977
 1343SOL    HW215489   3.630   4.350   8.324 -1.1239  0.0674 -0.1097
 1344SOL     OW15490   0.369   1.810   8.138 -0.1384 -0.7067  0.1372
 1344SOL    HW115491   0.460   1.837   8.150 -0.3390  0.4828 -1.0221
 1344SOL    HW215492   0.382   1.748   8.067  1.2880  0.3398 -0.5279
 1345SOL     OW15493   1.857   0.467   9.459  0.2150  0.0877  0.4091
 1345SOL    HW115494   1.768   0.488   9.487  0.2039 -0.5129  0.8357
 1345SOL    HW215495   1.836   0.440   9.369  0.1384  0.3947  0.3362
 1346SOL     OW15496   1.181   3.092   5.952  0.0663 -0.1858 -0.8722
 1346SOL    HW115497   1.196   3.015   5.897  0.1597  0.7177 -2.0988
 1346SOL    HW215498   1.201   3.164   5.892  2.2935 -1.0229 -1.1570
 1347SOL     OW15499   2.706   0.166   2.592 -0.4278 -0.2204 -0.0313
 1347SOL    HW115500   2.687   0.200   2.679 -4.0036  2.2618 -1.8347
 1347SOL    HW215501   2.760   0.240   2.563 -0.1334 -0.7913 -0.9770
 1348SOL     OW15502   1.881   1.466   5.766  0.3492  0.2802  0.0227
 1348SOL    HW115503   1.876   1.390   5.824 -0.3304  0.7761  0.6129
 1348SOL    HW215504   1.809   1.511   5.811 -1.0907 -2.0813  0.0772
 1349SOL     OW15505   2.166   0.863  17.119 -0.2103  0.0625  0.0977
 1349SOL    HW115506   2.077   0.830  17.125  0.1335 -1.0091 -0.7522
 1349SOL    HW215507   2.191   0.834  17.031 -0.1467  2.4236 -0.6691
 1350SOL     OW15508   0.728   4.509   7.952  0.2547 -0.0517 -0.2528
 1350SOL    HW115509   0.659   4.460   7.908  0.7485 -0.0158 -1.0823
 1350SOL    HW215510   0.676   4.553   8.019 -0.3877 -0.3845 -0.5312
 1351SOL     OW15511   2.544   2.287   8.002 -0.4996 -0.6633 -0.1778
 1351SOL    HW115512   2.515   2.199   8.029  0.4907 -1.5188 -1.9286
 1351SOL    HW215513   2.576   2.326   8.083  0.6836 -1.4904 -0.2463
 1352SOL     OW15514   3.956   0.540   2.958 -0.1287  0.1559 -0.1800
 1352SOL    HW115515   3.897   0.519   3.031 -1.0286  1.7498 -0.4623
 1352SOL    HW215516   3.979   0.449   2.938 -2.0435  0.0057 -1.7141
 1353SOL     OW15517   3.259   2.688   2.852 -0.1895  0.3036  0.5989
 1353SOL    HW115518   3.174   2.690   2.896 -0.4993  0.1135  0.0196
 1353SOL    HW215519   3.233   2.652   2.767 -0.8503  2.0329  0.0687
 1354SOL     OW15520   4.207   3.762   9.050 -0.0043  0.1634 -0.1301
 1354SOL    HW115521   4.124   3.800   9.079 -1.1110 -2.6275  0.4371
 1354SOL    HW215522   4.173   3.674   9.034 -0.1109 -0.0488  1.2669
 1355SOL     OW15523   4.533   4.486   3.470  0.4436 -0.0546 -0.1292
 1355SOL    HW115524   4.543   4.553   3.403  0.1220 -0.0657 -0.1903
 1355SOL    HW215525   4.485   4.535   3.537  0.3401 -0.4442  0.0851
 1356SOL     OW15526   3.673   2.467   6.127  0.1273 -0.3291 -0.6168
 1356SOL    HW115527   3.714   2.528   6.066  1.9038  1.4345  2.3374
 1356SOL    HW215528   3.753   2.444   6.174  0.0365 -0.3032 -0.4470
 1357SOL     OW15529   1.031   3.170  17.476  0.0704  0.2012  0.6928
 1357SOL    HW115530   1.042   3.157  17.381 -2.2648 -1.7444  0.6938
 1357SOL    HW215531   1.061   3.083  17.502  1.0398  0.5776  0.8516
 1358SOL     OW15532   0.533   3.757   8.711  0.3699 -0.1639  0.2149
 1358SOL    HW115533   0.495   3.674   8.741  0.5350 -0.3278 -0.0210
 1358SOL    HW215534   0.496   3.830   8.761  1.0400  1.6606 -1.9480
 1359SOL     OW15535   3.375   4.158   2.012 -0.3504  0.3185 -0.1283
 1359SOL    HW115536   3.324   4.112   2.079  1.1317 -0.5932  0.3671
 1359SOL    HW215537   3.307   4.201   1.960  1.8997  1.2074 -2.3078
 1360SOL     OW15538   1.431   1.724   4.624 -0.4624  0.8492 -0.1161
 1360SOL    HW115539   1.511   1.702   4.671 -1.7481  1.1461  2.2336
 1360SOL    HW215540   1.397   1.784   4.690 -1.5285 -2.9112  2.7894
 1361SOL     OW15541   2.697   2.276   2.753  0.3389  0.3417 -0.0823
 1361SOL    HW115542   2.628   2.336   2.726 -1.4271 -0.4181  2.7160
 1361SOL    HW215543   2.757   2.319   2.692  0.0471  0.2878 -0.4109
 1362SOL     OW15544   4.046   1.814  17.191  0.5507  0.3019 -0.4026
 1362SOL    HW115545   4.050   1.736  17.135  0.9701  0.5048 -0.6517
 1362SOL    HW215546   4.140   1.832  17.187  0.5644  0.0634 -1.2766
 1363SOL     OW15547   3.751   0.114  16.071 -0.1082 -1.0211  0.1621
 1363SOL    HW115548   3.726   0.130  15.979 -0.0637 -0.9933  0.1550
 1363SOL    HW215549   3.667   0.140  16.109  1.1407 -0.7691  2.7341
 1364SOL     OW15550   0.469   3.898   2.314 -0.5402  0.5616 -0.8428
 1364SOL    HW115551   0.560   3.911   2.342 -0.1647 -0.0848 -1.7606
 1364SOL    HW215552   0.428   3.984   2.313 -2.5400 -0.3334  3.5241
 1365SOL     OW15553   3.607   3.543   9.992 -0.1372 -0.3437 -0.2060
 1365SOL    HW115554   3.569   3.581   9.913  1.3857  0.6914 -0.4411
 1365SOL    HW215555   3.538   3.558  10.056 -0.0488  2.0040 -0.6451
 1366SOL     OW15556   4.304   0.857   6.249 -0.7320  0.7348  0.6159
 1366SOL    HW115557   4.268   0.942   6.276 -1.7925 -0.0598  1.6931
 1366SOL    HW215558   4.262   0.849   6.164  0.6828 -3.0219  0.2654
 1367SOL     OW15559   3.272   3.518  13.857  0.2880  0.0560  0.1506
 1367SOL    HW115560   3.183   3.537  13.886  0.1164 -1.8632  0.8604
 1367SOL    HW215561   3.263   3.538  13.764  1.1600  0.3071  0.1208
 1368SOL     OW15562   3.839   1.121   9.938  0.6325 -0.1162  0.6382
 1368SOL    HW115563   3.786   1.157  10.009 -0.3917  0.8426 -0.6325
 1368SOL    HW215564   3.922   1.157   9.970  1.6316 -2.5265  0.8439
 1369SOL     OW15565   0.132   0.007   6.518 -0.1220  0.4256 -0.1041
 1369SOL    HW115566   0.109   0.025   6.427 -1.6233  0.2031  0.2367
 1369SOL    HW215567   0.184   4.649   6.517 -1.9034 -0.6983 -1.0962
 1370SOL     OW15568   0.254   1.146   9.092  0.4441  0.1684 -0.7021
 1370SOL    HW115569   0.336   1.175   9.053  1.2185 -1.5274 -0.3232
 1370SOL    HW215570   0.246   1.177   9.183  1.3994 -0.8566 -0.2739
 1371SOL     OW15571   4.047   2.185   5.358  0.0297 -0.2419 -0.4254
 1371SOL    HW115572   4.026   2.199   5.451  1.0904 -0.1853 -0.1932
 1371SOL    HW215573   4.058   2.276   5.331 -2.0982  0.0211 -0.3574
 1372SOL     OW15574   2.081   4.701   0.615  0.0527  0.2293 -0.2849
 1372SOL    HW115575   2.087   0.072   0.632  0.7207 -0.3045  2.3950
 1372SOL    HW215576   2.076   4.668   0.705 -2.6865  0.1730 -0.4701
 1373SOL     OW15577   3.268   2.077  10.040 -0.1765 -0.6242 -0.1164
 1373SOL    HW115578   3.222   2.088   9.956  0.9476  1.9241 -0.3848
 1373SOL    HW215579   3.301   1.987  10.035  1.2092 -0.1511  0.4634
 1374SOL     OW15580   3.872   2.207   1.127 -0.3184  0.4499  0.4888
 1374SOL    HW115581   3.821   2.271   1.176  0.8925  1.7852 -0.0042
 1374SOL    HW215582   3.839   2.128   1.170  1.4362 -0.6104 -0.1279
 1375SOL     OW15583   1.041   4.131   1.948 -0.3085  0.2931 -0.3525
 1375SOL    HW115584   1.121   4.172   1.916 -0.3849  0.1944 -0.6642
 1375SOL    HW215585   1.016   4.065   1.883  2.0370  0.3884 -1.3562
 1376SOL     OW15586   2.158   2.801  14.165  0.0876 -0.3114  0.4904
 1376SOL    HW115587   2.067   2.829  14.157  0.4790  0.6703 -0.5775
 1376SOL    HW215588   2.166   2.727  14.106  0.6375  1.6118 -1.8621
 1377SOL     OW15589   1.757   3.805   9.109  0.7017 -0.6442  0.0613
 1377SOL    HW115590   1.760   3.861   9.186  0.3620 -1.6895  0.8316
 1377SOL    HW215591   1.768   3.719   9.149  2.5118 -0.6127 -0.3805
 1378SOL     OW15592   3.427   3.251   9.707  0.3056  0.3430  0.4561
 1378SOL    HW115593   3.382   3.187   9.761  1.1403 -1.4666 -1.0098
 1378SOL    HW215594   3.412   3.334   9.753 -1.0131  2.3289 -3.5190
 1379SOL     OW15595   1.855   0.355   1.077  0.2651  0.1306  0.0223
 1379SOL    HW115596   1.874   0.448   1.088 -0.1029  0.0152  1.5684
 1379SOL    HW215597   1.796   0.341   1.151  1.1204  1.0222  0.8706
 1380SOL     OW15598   3.687   4.605  17.518  0.4472 -0.4993  0.4293
 1380SOL    HW115599   3.732   4.682  17.552 -0.6511 -0.6019  2.0796
 1380SOL    HW215600   3.714   4.541  17.583  2.3803  0.2439  0.3543
 1381SOL     OW15601   1.192   2.229  15.483 -0.1846  0.2278 -0.1855
 1381SOL    HW115602   1.159   2.316  15.460 -0.9918  0.0850  0.4291
 1381SOL    HW215603   1.199   2.221  15.578 -1.8106 -0.6026 -0.1335
 1382SOL     OW15604   4.127   0.326   3.619  0.1556  0.4008 -0.1206
 1382SOL    HW115605   4.037   0.356   3.609  0.2386  1.1083  1.2807
 1382SOL    HW215606   4.143   0.275   3.539  0.6628 -0.6021  0.6213
 1383SOL     OW15607   1.736   1.508   4.076 -0.2143 -0.0116  0.4598
 1383SOL    HW115608   1.768   1.485   4.163 -0.8005  0.2289  0.7373
 1383SOL    HW215609   1.678   1.434   4.056  2.6656 -1.8871 -0.9040
 1384SOL     OW15610   2.672   1.949  13.219 -0.3458 -0.5421 -0.0732
 1384SOL    HW115611   2.667   1.873  13.161 -0.7278 -0.7008  0.1700
 1384SOL    HW215612   2.737   1.921  13.283  1.6391 -0.1889 -1.9104
 1385SOL     OW15613   2.115   4.627   5.886 -0.2419 -0.5926  0.0336
 1385SOL    HW115614   2.208   4.608   5.872 -0.5756 -0.3198 -2.5290
 1385SOL    HW215615   2.114   4.710   5.839  0.1199 -0.5520  0.0983
 1386SOL     OW15616   3.747   4.111  13.101  0.3189  0.0175  0.6328
 1386SOL    HW115617   3.727   4.055  13.025 -0.1647  0.1602  0.6577
 1386SOL    HW215618   3.740   4.199  13.065 -0.4327 -0.0221  0.6752
 1387SOL     OW15619   4.167   4.614   5.698 -0.3683  0.1858 -0.2503
 1387SOL    HW115620   4.121   4.567   5.629 -0.4861  1.4044 -1.0071
 1387SOL    HW215621   4.111   4.691   5.712  0.0508  0.1817  1.5578
 1388SOL     OW15622   3.152   1.007   8.136  0.4588  0.4671 -0.2395
 1388SOL    HW115623   3.218   1.046   8.079 -0.8902  0.7531 -1.6127
 1388SOL    HW215624   3.078   1.061   8.107  0.3729  0.0077 -0.8918
 1389SOL     OW15625   3.118   3.898  13.557  0.0798 -0.4508  0.4773
 1389SOL    HW115626   3.031   3.937  13.549 -0.0302 -0.7707  0.1013
 1389SOL    HW215627   3.167   3.955  13.616 -0.1039  0.1395  0.0577
 1390SOL     OW15628   2.455   4.623   2.938 -0.0334 -0.2641 -0.5418
 1390SOL    HW115629   2.492   4.709   2.919 -1.9861  1.0590  1.6699
 1390SOL    HW215630   2.445   4.580   2.853 -0.0261 -0.6734 -0.3375
 1391SOL     OW15631   1.479   1.227   8.859 -0.5236 -0.5680 -0.0231
 1391SOL    HW115632   1.469   1.208   8.952  1.9520  0.2774  0.4165
 1391SOL    HW215633   1.569   1.203   8.836  0.2893  1.3601  1.1372
 1392SOL     OW15634   2.609   0.412  15.987 -0.1773  0.4244 -0.3449
 1392SOL    HW115635   2.609   0.401  15.892  0.9543 -1.4967 -0.1322
 1392SOL    HW215636   2.527   0.460  15.995 -0.4070  0.2410 -1.6771
 1393SOL     OW15637   0.282   2.771   8.423  1.1444  0.3410 -0.2577
 1393SOL    HW115638   0.365   2.723   8.429  0.4524 -1.1682 -3.1280
 1393SOL    HW215639   0.259   2.797   8.512  2.2610  0.6014 -0.0450
 1394SOL     OW15640   2.170   1.217   3.896 -0.1023 -0.6744  0.2357
 1394SOL    HW115641   2.117   1.269   3.957  1.0904 -0.7454  1.3557
 1394SOL    HW215642   2.196   1.280   3.829 -1.0939 -0.9693 -0.4131
 1395SOL     OW15643   0.714   4.356   3.543 -0.7514  0.1266 -0.2555
 1395SOL    HW115644   0.789   4.403   3.507 -0.1832 -0.5702  0.0133
 1395SOL    HW215645   0.749   4.327   3.628 -0.3845 -1.4767 -0.9379
 1396SOL     OW15646   1.561   1.795   5.200  0.0361  0.0177  0.0407
 1396SOL    HW115647   1.489   1.858   5.212  0.4496  0.4623  0.2143
 1396SOL    HW215648   1.627   1.843   5.151 -0.6296  0.3640 -0.5200
 1397SOL     OW15649   3.306   2.619   7.626  0.2212  0.2640  0.0272
 1397SOL    HW115650   3.361   2.685   7.584 -1.4461  0.3149 -2.0677
 1397SOL    HW215651   3.378   2.570   7.666 -0.8424 -1.5204 -0.2491
 1398SOL     OW15652   2.180   3.294   5.394 -0.4791 -0.4782  0.0144
 1398SOL    HW115653   2.167   3.388   5.406  1.2401 -0.4124  1.3602
 1398SOL    HW215654   2.151   3.260   5.478 -1.7801  0.0995 -0.2020
 1399SOL     OW15655   4.158   0.631  16.339 -0.3839 -0.2062 -0.3123
 1399SOL    HW115656   4.215   0.560  16.309  0.0880 -1.0017  2.5117
 1399SOL    HW215657   4.194   0.710  16.298  0.5488 -0.9744 -0.9756
 1400SOL     OW15658   0.889   0.061   0.282  0.2053  0.4359  0.1358
 1400SOL    HW115659   0.823   0.097   0.342  0.2485 -0.5580  0.7658
 1400SOL    HW215660   0.846   0.055   0.196  2.3667  1.4627 -1.0146
 1401SOL     OW15661   3.583   3.613   4.253  0.6373  0.2561  0.0388
 1401SOL    HW115662   3.592   3.701   4.290  1.8023 -0.0683  0.5396
 1401SOL    HW215663   3.494   3.625   4.220  1.2779  2.8923 -0.7726
 1402SOL     OW15664   4.709   2.850  11.565  0.0957 -0.0196 -0.2733
 1402SOL    HW115665   4.626   2.834  11.610  1.7103 -1.7151  2.1173
 1402SOL    HW215666   4.697   2.806  11.481 -1.0773  1.2988 -0.7893
 1403SOL     OW15667   4.341   4.165   5.453 -0.5366 -0.0746 -0.0316
 1403SOL    HW115668   4.373   4.077   5.436 -1.2868 -0.3608  0.0729
 1403SOL    HW215669   4.251   4.146   5.429 -0.2247 -0.7606 -0.6484
 1404SOL     OW15670   3.025   3.815   2.434 -0.0087  0.5166  0.3687
 1404SOL    HW115671   3.020   3.841   2.342 -0.4636  0.1039  0.2729
 1404SOL    HW215672   2.969   3.881   2.474  0.3230  1.2714 -0.4229
 1405SOL     OW15673   1.710   2.041   8.134  0.4414  0.1503  0.0212
 1405SOL    HW115674   1.747   1.953   8.135 -1.2039 -0.5271  0.3061
 1405SOL    HW215675   1.659   2.038   8.214 -1.5568  0.4567 -1.2303
 1406SOL     OW15676   0.934   1.104   4.497 -0.3969 -0.1815 -0.2924
 1406SOL    HW115677   0.931   1.064   4.584  2.6668 -1.4567 -0.7810
 1406SOL    HW215678   0.978   1.030   4.455 -1.1777 -0.6558 -0.2700
 1407SOL     OW15679   0.940   3.058   2.664 -0.3733 -0.5530  0.2671
 1407SOL    HW115680   0.857   3.088   2.626  0.2900  3.1162  1.7288
 1407SOL    HW215681   0.910   3.000   2.733 -0.5847 -1.5642 -0.6767
 1408SOL     OW15682   0.561   0.775   2.671 -0.6114 -0.7033 -0.7225
 1408SOL    HW115683   0.495   0.731   2.617  0.8673 -1.9757 -1.5190
 1408SOL    HW215684   0.508   0.807   2.744  0.8044 -2.5598  1.1163
 1409SOL     OW15685   3.913   0.601   6.537  0.1275 -0.3224 -0.3667
 1409SOL    HW115686   3.927   0.555   6.455  0.7737  0.4708 -0.6959
 1409SOL    HW215687   3.959   0.544   6.599  0.4826 -1.0664 -1.3357
 1410SOL     OW15688   3.705   2.346   8.217  0.2122  0.4000 -0.2538
 1410SOL    HW115689   3.624   2.392   8.240  0.6622  1.3341 -0.5391
 1410SOL    HW215690   3.739   2.391   8.139  2.3472  2.0045  1.6129
 1411SOL     OW15691   1.525   2.588   6.144 -0.2255  0.0550  0.1299
 1411SOL    HW115692   1.585   2.539   6.088 -0.1749 -1.0500  1.1276
 1411SOL    HW215693   1.511   2.523   6.214 -3.2567 -0.0295 -0.5767
 1412SOL     OW15694   2.095   0.240   6.562  0.0892  0.6046 -0.0816
 1412SOL    HW115695   2.013   0.280   6.589 -0.4178 -0.0670 -0.6165
 1412SOL    HW215696   2.078   0.201   6.476  0.5859  0.2931 -0.0397
 1413SOL     OW15697   1.570   1.077   2.527 -0.0211  0.4888 -0.0389
 1413SOL    HW115698   1.557   0.990   2.564  0.6788  0.0651 -0.7835
 1413SOL    HW215699   1.478   1.104   2.533 -0.1748  0.0105 -0.2161
 1414SOL     OW15700   2.774   4.209  15.422  0.3377  0.4778 -0.2312
 1414SOL    HW115701   2.829   4.249  15.490  1.3736  0.3155 -0.9851
 1414SOL    HW215702   2.691   4.244  15.454  0.5531 -0.5435  1.4419
 1415SOL     OW15703   1.475   1.628   7.740 -0.0380  0.4730  0.1216
 1415SOL    HW115704   1.494   1.706   7.792  0.4935  0.7909 -0.5560
 1415SOL    HW215705   1.405   1.661   7.682 -0.0767 -1.7755 -1.0778
 1416SOL     OW15706   1.293   2.980  15.796 -0.0569  0.0476 -0.1810
 1416SOL    HW115707   1.199   2.978  15.809  0.0217  1.4793  0.5993
 1416SOL    HW215708   1.312   3.022  15.712  0.2592  0.4775  0.0995
 1417SOL     OW15709   1.911   3.609  16.824  0.6253  0.4442  0.3509
 1417SOL    HW115710   1.990   3.661  16.809  1.9788 -2.1133 -1.4034
 1417SOL    HW215711   1.869   3.662  16.892  1.5098  1.0639  0.4133
 1418SOL     OW15712   4.534   3.725   2.834 -0.3758 -0.3666 -0.8546
 1418SOL    HW115713   4.488   3.765   2.760 -1.0003  0.2012 -0.1626
 1418SOL    HW215714   4.603   3.781   2.870 -1.2734 -0.2614  0.7121
 1419SOL     OW15715   2.179   4.051   1.128 -0.1277  0.2285  0.4477
 1419SOL    HW115716   2.257   4.101   1.148 -1.0477  1.0437  1.9611
 1419SOL    HW215717   2.219   3.973   1.089  1.0318  1.0439  0.0106
 1420SOL     OW15718   2.797   2.391   6.169  0.1872  0.2089  0.5780
 1420SOL    HW115719   2.818   2.479   6.137 -3.5093  0.1830 -1.9741
 1420SOL    HW215720   2.775   2.402   6.261  2.7843  1.8480  1.0249
 1421SOL     OW15721   1.349   0.775  15.386 -0.4271 -0.4986  0.1768
 1421SOL    HW115722   1.258   0.746  15.392 -1.2327  1.5402 -1.9334
 1421SOL    HW215723   1.385   0.699  15.341  2.8905  1.0991  0.1337
 1422SOL     OW15724   2.648   1.960   3.506 -0.5705 -0.0379  0.2008
 1422SOL    HW115725   2.734   2.000   3.493 -0.8595  0.9419  1.2835
 1422SOL    HW215726   2.594   2.032   3.539  0.2336 -0.5761  2.6812
 1423SOL     OW15727   4.460   2.637   8.625  0.2966  0.3959 -0.2350
 1423SOL    HW115728   4.409   2.662   8.702  1.7013  2.4149  0.0286
 1423SOL    HW215729   4.484   2.549   8.654  0.3373  0.2729 -0.6415
 1424SOL     OW15730   0.365   1.541   3.755 -0.2726 -0.2524  0.4546
 1424SOL    HW115731   0.326   1.535   3.842  1.9857  2.8059  1.6842
 1424SOL    HW215732   0.322   1.471   3.705 -1.1517 -0.2768  1.2486
 1425SOL     OW15733   4.540   3.036   2.010  0.4618  0.5473  0.4899
 1425SOL    HW115734   4.489   3.059   1.933  0.8016 -1.1868 -0.2377
 1425SOL    HW215735   4.633   3.047   1.991  0.5932 -0.6026  0.4523
 1426SOL     OW15736   4.583   1.479  15.791  0.1921  0.1777  0.1399
 1426SOL    HW115737   4.622   1.529  15.861 -0.4471  0.9034 -0.0209
 1426SOL    HW215738   4.559   1.396  15.832  0.5396  0.7366  1.4471
 1427SOL     OW15739   3.492   4.317   5.458 -0.6663 -0.1095  0.0369
 1427SOL    HW115740   3.482   4.333   5.364  1.2957  0.9641  0.0348
 1427SOL    HW215741   3.413   4.351   5.499 -0.5702 -1.7840  1.6255
 1428SOL     OW15742   0.159   3.943   1.400  0.0534  0.0175  0.2691
 1428SOL    HW115743   0.207   3.978   1.475  0.7096  1.1754 -0.6886
 1428SOL    HW215744   0.192   4.010   1.340 -0.8379  0.5459  0.3674
 1429SOL     OW15745   2.804   3.105   5.599 -0.5306 -0.6617 -0.0552
 1429SOL    HW115746   2.734   3.132   5.539 -0.8547 -2.4917 -0.5165
 1429SOL    HW215747   2.749   3.102   5.677 -1.6905 -1.5720 -0.9136
 1430SOL     OW15748   1.402   1.157  10.616 -0.2086 -0.0640  0.1859
 1430SOL    HW115749   1.354   1.074  10.624  1.6703 -1.2527 -0.8733
 1430SOL    HW215750   1.344   1.202  10.556 -1.0886  0.7557  1.6615
 1431SOL     OW15751   1.869   4.069   8.057  0.0606 -0.8415 -0.6770
 1431SOL    HW115752   1.947   4.048   8.005 -0.5036 -0.1317 -1.8371
 1431SOL    HW215753   1.848   4.155   8.021 -2.2173 -1.1438 -0.0611
 1432SOL     OW15754   2.372   0.949   8.791  0.0133  0.7169  0.0667
 1432SOL    HW115755   2.443   0.919   8.734 -1.4471 -0.2037 -1.2508
 1432SOL    HW215756   2.336   1.016   8.733 -0.0757 -0.4616 -1.2253
 1433SOL     OW15757   0.182   1.380   9.848 -0.1574 -0.0873  0.7359
 1433SOL    HW115758   0.261   1.331   9.867  0.2740  0.0573 -0.7091
 1433SOL    HW215759   0.179   1.392   9.753 -3.3502  1.2507  0.9912
 1434SOL     OW15760   3.620   0.142   8.403  0.2504 -0.0570  0.0489
 1434SOL    HW115761   3.550   0.097   8.450  1.6617 -0.4675  1.7740
 1434SOL    HW215762   3.680   0.075   8.372  1.3238  1.8708 -2.0518
 1435SOL     OW15763   1.212   1.225   6.978  0.0638 -0.4888  0.2963
 1435SOL    HW115764   1.165   1.232   7.060 -0.9636 -1.0240 -0.2468
 1435SOL    HW215765   1.234   1.132   6.977  0.8350 -0.3153  1.4301
 1436SOL     OW15766   3.615   4.184   0.621  0.0190  0.3673  0.4086
 1436SOL    HW115767   3.630   4.134   0.701 -0.4461  0.0274  0.2885
 1436SOL    HW215768   3.641   4.119   0.556  0.9251  1.2663 -0.1150
 1437SOL     OW15769   0.220   3.572   2.382  0.6662 -0.4560  0.1441
 1437SOL    HW115770   0.199   3.518   2.306  1.5393 -2.1559  1.1323
 1437SOL    HW215771   0.168   3.651   2.367  1.6729  0.2698  0.4993
 1438SOL     OW15772   3.693   0.228   4.395  0.3004 -0.1174 -0.2949
 1438SOL    HW115773   3.718   0.311   4.355  0.8641 -0.7479 -1.2380
 1438SOL    HW215774   3.613   0.257   4.439 -0.0659 -1.5056 -0.0556
 1439SOL     OW15775   4.364   0.598   6.015 -0.0516  0.0214 -0.2678
 1439SOL    HW115776   4.282   0.647   6.023  0.1026 -0.2637  2.9012
 1439SOL    HW215777   4.391   0.596   6.107 -2.6666  0.1862  0.5155
 1440SOL     OW15778   4.479   4.543   6.377  0.3622  0.5143 -0.2953
 1440SOL    HW115779   4.508   4.527   6.287 -0.8674 -1.2923 -0.3702
 1440SOL    HW215780   4.384   4.532   6.375  0.4505 -0.2430 -0.3910
 1441SOL     OW15781   2.973   3.632   0.412  0.5387  0.4220 -0.1956
 1441SOL    HW115782   3.065   3.622   0.388  0.5431  0.2653 -0.1112
 1441SOL    HW215783   2.929   3.630   0.327  0.4931 -0.2922 -0.1500
 1442SOL     OW15784   3.875   2.642   5.732 -0.2395  0.2219 -0.2660
 1442SOL    HW115785   3.948   2.702   5.716 -0.5850  0.5813 -0.4923
 1442SOL    HW215786   3.892   2.579   5.662  1.1587  0.3959 -0.0989
 1443SOL     OW15787   2.889   2.373   2.564  0.2246  0.0383  0.5267
 1443SOL    HW115788   2.955   2.311   2.532 -0.1833  1.2253 -2.6098
 1443SOL    HW215789   2.942   2.442   2.604 -0.2714 -0.6345  2.3811
 1444SOL     OW15790   0.694   3.468   2.897  0.3006 -0.0603  0.5110
 1444SOL    HW115791   0.719   3.557   2.873  1.6641 -0.7545 -0.6877
 1444SOL    HW215792   0.626   3.449   2.832 -0.2244 -1.2401  1.4046
 1445SOL     OW15793   0.217   2.107   4.408  0.3467  0.4791 -0.6257
 1445SOL    HW115794   0.154   2.175   4.382  0.3718  0.6097 -0.3397
 1445SOL    HW215795   0.175   2.023   4.390 -2.8029  1.5722  1.6693
 1446SOL     OW15796   4.593   4.230   8.481  0.1827 -0.1776 -0.2964
 1446SOL    HW115797   4.562   4.320   8.475  0.3100 -0.0449  0.9395
 1446SOL    HW215798   4.533   4.172   8.435 -0.8808  3.0702 -3.0083
 1447SOL     OW15799   0.930   0.992  17.618  0.0383 -0.4667  0.1144
 1447SOL    HW115800   0.898   1.069  17.665  2.2609 -0.2071  1.2343
 1447SOL    HW215801   0.951   1.027  17.532 -1.1552 -0.2470 -0.0907
 1448SOL     OW15802   0.293   4.453   4.809 -0.3356 -0.2230  0.6018
 1448SOL    HW115803   0.325   4.526   4.861  0.6891 -0.5509  0.4231
 1448SOL    HW215804   0.254   4.401   4.880  1.0575 -0.9168  0.8582
 1449SOL     OW15805   0.663   0.744   3.705  0.4260  0.1293 -0.3041
 1449SOL    HW115806   0.658   0.730   3.610 -0.3987  0.8492 -0.3675
 1449SOL    HW215807   0.721   0.819   3.709 -0.7651  1.0034  0.5735
 1450SOL     OW15808   4.247   4.598   7.692 -0.4803  0.0178  0.1710
 1450SOL    HW115809   4.308   4.670   7.675  0.9621 -1.2730 -0.1343
 1450SOL    HW215810   4.166   4.645   7.671 -0.8479  0.2001  1.9675
 1451SOL     OW15811   0.932   3.687   7.744 -0.1683 -0.2460  0.0403
 1451SOL    HW115812   0.974   3.600   7.745  1.0716  0.3447 -0.6466
 1451SOL    HW215813   1.010   3.742   7.741 -0.1740 -0.3371 -1.4957
 1452SOL     OW15814   4.660   4.121  10.590  0.3653  0.1058 -0.6517
 1452SOL    HW115815   4.595   4.104  10.522  0.0455 -1.2085 -0.0137
 1452SOL    HW215816   0.005   4.062  10.559 -0.5600 -0.6337 -1.2896
 1453SOL     OW15817   4.647   0.335   3.557 -0.6311  0.1395  0.1419
 1453SOL    HW115818   4.632   0.423   3.591 -0.0867 -1.4042  4.3773
 1453SOL    HW215819   4.660   0.348   3.463 -1.4750 -2.2613 -0.3081
 1454SOL     OW15820   4.505   2.038   1.894  0.2058 -0.1503  0.3917
 1454SOL    HW115821   4.498   2.120   1.845 -0.7479 -0.8015 -0.5338
 1454SOL    HW215822   4.577   1.999   1.845 -0.7449 -2.7110  1.0726
 1455SOL     OW15823   1.309   4.090  17.334 -0.1410 -0.2038 -0.1656
 1455SOL    HW115824   1.240   4.053  17.279  0.7401 -2.1889  0.0637
 1455SOL    HW215825   1.302   4.184  17.317 -1.7041 -0.0249  1.5854
 1456SOL     OW15826   0.301   0.379   5.702 -0.1798 -0.2094 -0.4688
 1456SOL    HW115827   0.310   0.370   5.797  1.9650  0.8304 -0.5650
 1456SOL    HW215828   0.392   0.405   5.688 -0.3070  0.1578 -0.6127
 1457SOL     OW15829   4.265   2.914   8.423 -0.0382  0.5244  0.3186
 1457SOL    HW115830   4.336   2.910   8.487 -0.4662  0.3664  0.7784
 1457SOL    HW215831   4.296   2.843   8.366  1.9739  1.5656  0.1126
 1458SOL     OW15832   3.910   2.394  11.054 -0.7288  0.7309 -0.6708
 1458SOL    HW115833   3.944   2.399  11.143  1.1166  2.3038 -1.4433
 1458SOL    HW215834   3.889   2.301  11.063  0.7752  0.6592  2.1186
 1459SOL     OW15835   2.013   0.923   0.286  0.0925 -0.0410 -0.2526
 1459SOL    HW115836   1.940   0.862   0.298  0.0035  0.5235  2.0518
 1459SOL    HW215837   2.027   0.920   0.191  0.0456 -1.4582 -0.2244
 1460SOL     OW15838   4.647   2.023   8.682  0.1050 -0.0586 -0.2940
 1460SOL    HW115839   4.582   2.011   8.751  2.1220 -2.5403  1.1884
 1460SOL    HW215840   0.004   2.055   8.722  1.5540 -3.0772 -0.8054
 1461SOL     OW15841   2.285   4.172  13.031 -0.3106 -0.0344 -0.5711
 1461SOL    HW115842   2.369   4.174  12.985  1.1935 -0.8424  2.1236
 1461SOL    HW215843   2.229   4.106  12.990 -0.9347  0.7806 -1.0359
 1462SOL     OW15844   3.337   4.305   3.773 -0.1437 -0.2694  0.2227
 1462SOL    HW115845   3.370   4.229   3.821 -1.5295 -2.6323 -2.6287
 1462SOL    HW215846   3.421   4.352   3.774 -0.2749 -0.0376  0.4207
 1463SOL     OW15847   2.560   3.043   6.065  0.1532 -0.3815  0.3579
 1463SOL    HW115848   2.577   3.018   5.974 -2.2765 -0.7316  0.0111
 1463SOL    HW215849   2.608   3.125   6.076  0.4417 -0.5145  0.0958
 1464SOL     OW15850   2.161   3.623   1.284 -0.0504 -0.1941  0.4094
 1464SOL    HW115851   2.252   3.606   1.307  0.0749  0.5814  0.4874
 1464SOL    HW215852   2.130   3.710   1.307 -0.1440 -0.5081  1.5120
 1465SOL     OW15853   3.716   0.663   5.661 -0.2698  0.1136 -0.7595
 1465SOL    HW115854   3.627   0.677   5.692 -0.3534  0.8689 -1.3329
 1465SOL    HW215855   3.725   0.744   5.611 -0.1236 -0.5180 -1.7841
 1466SOL     OW15856   3.293   3.485   9.768 -0.2635 -0.2236 -0.3511
 1466SOL    HW115857   3.318   3.577   9.779  1.9634 -1.2626  3.3138
 1466SOL    HW215858   3.281   3.475   9.673 -0.0722  1.2342 -0.5366
 1467SOL     OW15859   0.479   3.997   6.727 -0.4916 -0.8690  0.2074
 1467SOL    HW115860   0.565   3.967   6.757  0.9250  1.0592 -1.9383
 1467SOL    HW215861   0.444   4.061   6.788  1.7003 -0.0113  0.5671
 1468SOL     OW15862   2.153   2.130   7.886 -0.6176 -0.5540 -0.3301
 1468SOL    HW115863   2.175   2.196   7.952 -0.4207 -0.0218 -0.9309
 1468SOL    HW215864   2.173   2.054   7.941 -0.3874 -0.6815 -0.5935
 1469SOL     OW15865   2.776   1.470   3.821  0.7190  0.0893  0.0339
 1469SOL    HW115866   2.854   1.524   3.833  2.0886 -2.1285  1.0713
 1469SOL    HW215867   2.811   1.401   3.764  1.4609 -0.0608  0.6730
 1470SOL     OW15868   0.954   2.738  14.510 -0.2970  0.0522  0.1784
 1470SOL    HW115869   0.998   2.722  14.427 -0.7393 -2.4298  0.4178
 1470SOL    HW215870   0.864   2.734  14.478 -0.4013  1.0193  0.3474
 1471SOL     OW15871   0.878   2.402  14.879 -0.1682 -0.0698  0.3453
 1471SOL    HW115872   0.789   2.378  14.851  0.7745 -0.6602 -2.1611
 1471SOL    HW215873   0.883   2.343  14.955  1.9117 -0.9531 -0.4880
 1472SOL     OW15874   0.317   3.008  16.258 -0.0440  0.8702  0.0901
 1472SOL    HW115875   0.254   2.952  16.212  1.9911 -0.8599 -0.5863
 1472SOL    HW215876   0.255   3.067  16.300  0.3894 -0.6608  2.8954
 1473SOL     OW15877   3.343   2.865   5.565  0.1201 -0.0131  0.2492
 1473SOL    HW115878   3.401   2.790   5.576 -1.0578 -0.6386  2.0775
 1473SOL    HW215879   3.265   2.844   5.616  0.3097 -0.6675  0.2611
 1474SOL     OW15880   2.604   4.118  11.648  0.0269  0.3854 -0.8519
 1474SOL    HW115881   2.525   4.088  11.604 -0.8527 -1.7409  2.1486
 1474SOL    HW215882   2.663   4.043  11.642 -1.4355 -0.6122 -2.8449
 1475SOL     OW15883   4.592   4.092   5.820  0.6208 -0.1421  0.2311
 1475SOL    HW115884   4.607   4.023   5.755  1.8812 -0.2471  0.6391
 1475SOL    HW215885   4.593   4.043   5.902 -1.9011  0.0314  0.3675
 1476SOL     OW15886   0.583   1.284  11.610  0.0370 -0.1031 -0.3069
 1476SOL    HW115887   0.646   1.313  11.676 -0.8569 -0.3604  0.6750
 1476SOL    HW215888   0.620   1.332  11.537  0.3276 -2.3946 -1.6708
 1477SOL     OW15889   0.039   3.984  11.154 -0.0911 -0.0638  0.0120
 1477SOL    HW115890   4.701   4.019  11.088  1.1103  4.2942  1.2166
 1477SOL    HW215891   0.104   3.953  11.091  0.8157  0.7226  0.5679
 1478SOL     OW15892   1.427   4.502   6.933 -0.5912  0.5657  0.3768
 1478SOL    HW115893   1.451   4.468   6.847 -1.4679  2.8266 -0.7833
 1478SOL    HW215894   1.484   4.579   6.937  0.3856 -0.3399  3.9066
 1479SOL     OW15895   2.564   2.737   6.995 -0.3846 -0.3013 -0.0888
 1479SOL    HW115896   2.619   2.816   6.985 -2.3762  0.6438 -3.5569
 1479SOL    HW215897   2.516   2.754   7.076 -2.5498  3.4010 -2.1581
 1480SOL     OW15898   0.225   2.700   6.036  0.1909  0.2803  0.2919
 1480SOL    HW115899   0.310   2.721   6.074  0.4341 -1.5237  0.7693
 1480SOL    HW215900   0.234   2.716   5.942  0.5892  0.2119  0.3194
 1481SOL     OW15901   4.332   1.473   9.091 -0.3315  0.6067 -0.3121
 1481SOL    HW115902   4.298   1.516   9.169  1.1820 -0.1489  0.7574
 1481SOL    HW215903   4.248   1.464   9.046 -1.1699  1.9161  0.9911
 1482SOL     OW15904   2.445   1.013   3.797  0.2079 -0.8251 -0.4101
 1482SOL    HW115905   2.380   1.050   3.737  1.2758  2.7647  0.6151
 1482SOL    HW215906   2.388   0.948   3.839  1.1412 -2.0151 -0.9942
 1483SOL     OW15907   2.357   0.489   2.817 -0.1842 -0.5901 -0.3602
 1483SOL    HW115908   2.277   0.542   2.821 -0.9084 -1.8345  1.8503
 1483SOL    HW215909   2.331   0.410   2.865 -0.4437 -0.6819 -0.6504
 1484SOL     OW15910   3.186   3.449   2.454  0.4761  0.0024  0.0991
 1484SOL    HW115911   3.136   3.471   2.533  0.0677 -0.8863  0.0894
 1484SOL    HW215912   3.268   3.422   2.495  1.5189  1.9529 -0.7145
 1485SOL     OW15913   0.679   2.289   6.704  0.3758  0.1060  0.3397
 1485SOL    HW115914   0.753   2.246   6.661 -0.5675  1.0660 -2.2207
 1485SOL    HW215915   0.627   2.217   6.741 -1.9954  1.4398 -0.4376
 1486SOL     OW15916   3.220   0.746   7.821 -0.2844 -0.1634 -0.2470
 1486SOL    HW115917   3.276   0.776   7.750  0.6000  0.7678  0.8490
 1486SOL    HW215918   3.166   0.823   7.838 -1.7140 -1.6489  2.0023
 1487SOL     OW15919   1.005   0.037  16.879 -0.4638 -0.0113  0.4072
 1487SOL    HW115920   1.080   0.092  16.901  0.5221 -0.0090 -3.0313
 1487SOL    HW215921   0.953   0.098  16.828  2.2562  1.2764 -0.8045
 1488SOL     OW15922   1.117   4.640  10.930  0.1760  0.3240  0.3840
 1488SOL    HW115923   1.039   4.672  10.885  1.1704 -1.5256 -2.6014
 1488SOL    HW215924   1.086   4.616  11.017  0.6489  0.6141  0.6377
 1489SOL     OW15925   0.723   0.646   5.734  0.3453 -0.6235  0.1628
 1489SOL    HW115926   0.780   0.678   5.804 -1.2577 -1.0366  1.6603
 1489SOL    HW215927   0.691   0.731   5.702  2.9869  1.1482  2.2455
 1490SOL     OW15928   4.660   1.822  15.683  0.2687 -0.6564 -0.3682
 1490SOL    HW115929   0.009   1.767  15.712  0.1181 -0.9797 -0.5946
 1490SOL    HW215930   4.611   1.763  15.625 -1.7725  0.8405 -0.1475
 1491SOL     OW15931   0.985   2.958   6.111  0.1831  0.2689 -0.4378
 1491SOL    HW115932   1.051   3.010   6.066 -0.7036  2.2615  0.6033
 1491SOL    HW215933   0.974   3.013   6.188  1.4202  0.6204 -0.5118
 1492SOL     OW15934   3.887   2.313   0.880 -0.1715  0.0974  0.5332
 1492SOL    HW115935   3.917   2.270   0.960 -1.5477 -2.4406 -0.3116
 1492SOL    HW215936   3.868   2.237   0.825 -1.3434 -0.5543  1.8326
 1493SOL     OW15937   4.195   1.659   3.223  0.5016 -0.1855 -0.0638
 1493SOL    HW115938   4.202   1.737   3.279 -0.0399  0.2028 -0.5373
 1493SOL    HW215939   4.106   1.624   3.231  1.5109 -2.4308  1.3954
 1494SOL     OW15940   3.667   3.677   3.069 -0.6664  0.4568  0.0293
 1494SOL    HW115941   3.755   3.714   3.073 -0.5496  0.2175 -0.2550
 1494SOL    HW215942   3.687   3.583   3.068  0.5240  0.7105 -1.0665
 1495SOL     OW15943   2.158   4.405  10.163 -0.0632  0.0242 -0.5352
 1495SOL    HW115944   2.193   4.316  10.169 -1.1193 -0.3438  0.1204
 1495SOL    HW215945   2.242   4.449  10.152  0.1889 -0.3785 -0.2114
 1496SOL     OW15946   0.504   1.503   9.486  0.2854  0.4272 -0.9080
 1496SOL    HW115947   0.545   1.437   9.541  0.9893  1.6888  0.1023
 1496SOL    HW215948   0.459   1.444   9.426  0.4509 -0.0313 -0.5724
 1497SOL     OW15949   3.132   4.480   7.698  0.1516  0.1995 -0.5247
 1497SOL    HW115950   3.125   4.552   7.635 -0.5191 -0.2498 -0.9590
 1497SOL    HW215951   3.037   4.469   7.703  0.4558 -1.5568  1.2002
 1498SOL     OW15952   3.757   3.586  17.043  0.0452 -0.2087  0.5794
 1498SOL    HW115953   3.688   3.521  17.030 -2.7594  3.4947 -3.1721
 1498SOL    HW215954   3.831   3.540  17.004 -1.6663 -1.2433 -1.4643
 1499SOL     OW15955   2.150   0.349   7.638  0.1250  0.2782  0.0571
 1499SOL    HW115956   2.155   0.265   7.593  0.5865 -0.1697  0.9485
 1499SOL    HW215957   2.151   0.313   7.727  0.8150  0.7228  0.2311
 1500SOL     OW15958   1.112   2.094   2.579 -0.2398 -0.5623  0.1337
 1500SOL    HW115959   1.167   2.160   2.536  0.6697 -1.0407  0.5618
 1500SOL    HW215960   1.069   2.061   2.501 -0.5707 -1.0449  0.5243
 1501SOL     OW15961   0.089   4.418   0.584 -0.1965 -0.3480 -0.0886
 1501SOL    HW115962   0.144   4.401   0.660 -1.1351 -0.2814  0.6063
 1501SOL    HW215963   0.012   4.363   0.595  0.5382 -1.3998 -0.2216
 1502SOL     OW15964   2.784   2.881  16.976 -0.1170 -0.2580  0.2625
 1502SOL    HW115965   2.775   2.829  17.056 -0.7215 -1.1527 -0.3719
 1502SOL    HW215966   2.702   2.929  16.990  1.1233  1.7789  0.4429
 1503SOL     OW15967   3.374   0.004  10.821  0.4001 -0.2597  0.0522
 1503SOL    HW115968   3.352   4.662  10.754  1.1292 -0.5017  0.0579
 1503SOL    HW215969   3.455   0.035  10.781  0.7844  1.5128  2.2199
 1504SOL     OW15970   2.319   0.313   1.734 -0.2035  0.0334 -0.3842
 1504SOL    HW115971   2.375   0.268   1.670 -0.0962  0.1846 -0.3956
 1504SOL    HW215972   2.289   0.386   1.680 -3.1366 -1.3768 -0.6599
 1505SOL     OW15973   0.095   3.465   5.552 -0.0076  0.0962  0.3550
 1505SOL    HW115974   0.164   3.531   5.557 -0.5106  0.5963  0.6508
 1505SOL    HW215975   0.013   3.512   5.565 -1.0088 -0.8971 -2.3929
 1506SOL     OW15976   1.257   4.701  12.612 -0.6065  0.3002  0.7285
 1506SOL    HW115977   1.339   4.695  12.660 -1.9920 -0.8331  2.9587
 1506SOL    HW215978   1.271   4.643  12.537  2.1556 -0.3500  1.7486
 1507SOL     OW15979   2.926   3.530   4.196 -0.4597 -0.0693  0.3790
 1507SOL    HW115980   2.976   3.448   4.194  2.2671  1.5954  0.2157
 1507SOL    HW215981   2.888   3.535   4.108  2.5551 -1.9950 -1.0117
 1508SOL     OW15982   2.575   3.054  15.128  0.0798 -0.0699  0.1085
 1508SOL    HW115983   2.595   2.980  15.185 -0.4985  0.6595  1.2522
 1508SOL    HW215984   2.610   3.020  15.046 -0.7649 -1.4010  0.2944
 1509SOL     OW15985   0.305   0.462   7.622  0.4865  0.1891  0.0524
 1509SOL    HW115986   0.312   0.427   7.533 -2.8701  0.2341 -0.2471
 1509SOL    HW215987   0.278   0.552   7.600 -1.0534 -0.7296 -1.7559
 1510SOL     OW15988   0.444   3.790  12.988  0.0842  0.6105 -0.2912
 1510SOL    HW115989   0.355   3.774  12.958 -0.4147  0.1947  1.3884
 1510SOL    HW215990   0.475   3.699  12.991  0.0077  0.5870 -0.1808
 1511SOL     OW15991   3.512   4.316   3.045  0.1199  0.2736 -0.4535
 1511SOL    HW115992   3.570   4.391   3.060  1.3027 -1.5185  3.9617
 1511SOL    HW215993   3.524   4.266   3.126 -1.1965 -1.0388 -1.0669
 1512SOL     OW15994   0.207   0.837   6.213 -0.1056  0.4070  0.4226
 1512SOL    HW115995   0.204   0.801   6.125  0.2806 -0.0328  0.5929
 1512SOL    HW215996   0.248   0.763   6.257 -1.8584 -1.1332 -0.5284
 1513SOL     OW15997   1.050   2.605   5.473  0.1694 -0.3402  0.2753
 1513SOL    HW115998   0.969   2.576   5.514 -1.0673  3.7333  0.6980
 1513SOL    HW215999   1.035   2.699   5.476  2.4693 -0.0227  1.7633
 1514SOL     OW16000   2.077   0.506  14.831 -0.4712 -0.1236  0.2482
 1514SOL    HW116001   2.028   0.438  14.876  0.9287 -2.2626 -1.4774
 1514SOL    HW216002   2.133   0.447  14.780  0.0386  0.0352  0.6287
 1515SOL     OW16003   0.987   3.438   0.339  0.8343 -0.1845 -0.3052
 1515SOL    HW116004   1.061   3.497   0.318 -1.6564  2.3245 -2.0500
 1515SOL    HW216005   0.954   3.424   0.250 -2.3963  0.1943  0.8419
 1516SOL     OW16006   4.352   4.108  13.272 -0.2107  0.2408 -0.1723
 1516SOL    HW116007   4.376   4.018  13.295 -1.8074 -0.0750  0.2537
 1516SOL    HW216008   4.368   4.094  13.179 -0.1274  1.4212 -0.3376
 1517SOL     OW16009   0.983   3.653   6.330  0.5103 -0.3371 -0.3368
 1517SOL    HW116010   1.050   3.700   6.280 -0.3267 -0.1886 -1.3095
 1517SOL    HW216011   0.910   3.645   6.269  0.6368 -0.7950 -0.4280
 1518SOL     OW16012   4.425   3.639   6.593 -0.1694 -0.0797 -0.1443
 1518SOL    HW116013   4.374   3.688   6.528  0.0072 -0.5998 -0.6761
 1518SOL    HW216014   4.499   3.604   6.543 -0.8395 -0.4578 -0.8775
 1519SOL     OW16015   2.629   2.278   4.191 -0.4669  0.2160 -0.1527
 1519SOL    HW116016   2.583   2.228   4.259 -0.0205  0.4205  0.2989
 1519SOL    HW216017   2.624   2.365   4.231 -0.8895  0.2601 -0.3053
 1520SOL     OW16018   4.651   1.231  15.216  0.3965 -0.3512 -0.1522
 1520SOL    HW116019   4.702   1.199  15.291  0.9489 -0.1551 -0.4431
 1520SOL    HW216020   4.706   1.233  15.137 -1.6912  2.4254 -1.5257
 1521SOL     OW16021   3.476   1.645   3.468  0.0521 -0.2826  0.4673
 1521SOL    HW116022   3.516   1.723   3.429  0.7372 -1.1273 -0.5400
 1521SOL    HW216023   3.395   1.682   3.501 -0.9409 -0.9499 -1.1993
 1522SOL     OW16024   3.523   1.960   2.744 -0.1400  0.0667 -0.1724
 1522SOL    HW116025   3.615   1.979   2.761  0.1364 -0.8878 -0.5739
 1522SOL    HW216026   3.507   1.988   2.654  1.1281 -0.2327 -0.5002
 1523SOL     OW16027   1.590   1.897   8.344  0.7942  0.4185  0.2869
 1523SOL    HW116028   1.543   1.827   8.299  0.9850  1.5743 -1.7031
 1523SOL    HW216029   1.523   1.941   8.396 -1.0576  0.0842 -1.8237
 1524SOL     OW16030   3.710   4.440   0.656  1.0044  0.5606  0.0966
 1524SOL    HW116031   3.795   4.429   0.699  1.2828  0.2258 -0.5365
 1524SOL    HW216032   3.678   4.352   0.635  1.0275  0.5150  0.2542
 1525SOL     OW16033   0.847   3.480   9.209  0.6941  0.0877 -0.2108
 1525SOL    HW116034   0.934   3.443   9.196  0.8003  0.4363 -0.4923
 1525SOL    HW216035   0.853   3.537   9.132  0.2617  0.8297  0.3030
 1526SOL     OW16036   1.884   2.191   4.496 -0.7310  0.1807  0.4806
 1526SOL    HW116037   1.975   2.212   4.519 -1.2348  3.0174 -0.1817
 1526SOL    HW216038   1.896   2.114   4.440  2.1658 -0.8047  2.4100
 1527SOL     OW16039   3.268   1.873   8.092  0.2250  0.1982 -0.3073
 1527SOL    HW116040   3.335   1.873   8.023  0.2206  1.5518 -0.3051
 1527SOL    HW216041   3.285   1.798   8.149  3.8568  0.2518 -1.2862
 1528SOL     OW16042   0.384   2.357   7.320  0.2094  0.2818  0.0999
 1528SOL    HW116043   0.389   2.434   7.263 -1.9671  0.5474  0.2756
 1528SOL    HW216044   0.462   2.311   7.287  0.8652  1.4279  0.0640
 1529SOL     OW16045   0.181   3.604  12.383  0.3228  0.1981 -0.4278
 1529SOL    HW116046   0.141   3.610  12.296  0.4158 -1.3324 -0.5830
 1529SOL    HW216047   0.270   3.635  12.365  0.0516  1.3682  0.2747
 1530SOL     OW16048   3.519   2.609   4.752 -0.0343 -0.2440  0.4762
 1530SOL    HW116049   3.540   2.525   4.793 -1.2740 -0.9842 -0.4244
 1530SOL    HW216050   3.425   2.606   4.768  0.1003 -3.2323  0.6214
 1531SOL     OW16051   3.693   4.372   6.869 -0.1975  0.0328 -0.0538
 1531SOL    HW116052   3.675   4.297   6.927 -0.1640 -1.4766 -1.9714
 1531SOL    HW216053   3.659   4.342   6.784  0.3040 -0.5114 -0.0658
 1532SOL     OW16054   2.220   0.051   3.918  0.2458  0.0418 -0.7896
 1532SOL    HW116055   2.254   0.036   3.830 -1.5766 -1.0715 -1.3183
 1532SOL    HW216056   2.257   4.705   3.972  1.2099  1.7012  0.6457
 1533SOL     OW16057   0.721   1.790   8.362  0.4429 -0.3610  0.2418
 1533SOL    HW116058   0.715   1.694   8.361  1.1146 -0.4440  3.3601
 1533SOL    HW216059   0.795   1.801   8.303 -0.9778 -0.9117 -1.6329
 1534SOL     OW16060   1.924   1.057  15.951 -0.5207  0.7329 -0.4966
 1534SOL    HW116061   1.918   1.078  16.044 -0.5251 -0.5753 -0.2037
 1534SOL    HW216062   2.006   1.102  15.930 -0.0614 -0.5451 -1.4657
 1535SOL     OW16063   1.705   3.213   6.600 -0.5768  0.4240  0.0832
 1535SOL    HW116064   1.630   3.156   6.616 -0.6366  0.9644  1.6626
 1535SOL    HW216065   1.769   3.186   6.665  0.5857  0.5027 -1.0199
 1536SOL     OW16066   3.367   3.547   7.083  0.0197  0.2437 -0.7132
 1536SOL    HW116067   3.397   3.595   7.160  1.3012  0.4749 -1.3689
 1536SOL    HW216068   3.334   3.468   7.128  1.7772  0.1285  0.3628
 1537SOL     OW16069   4.179   3.632   3.887 -0.8672  0.2805 -0.4310
 1537SOL    HW116070   4.173   3.666   3.798 -0.2603  2.1268  0.2263
 1537SOL    HW216071   4.142   3.546   3.868 -1.8925  1.1740 -2.4631
 1538SOL     OW16072   3.805   1.415   4.184  0.5217 -0.0186 -0.4274
 1538SOL    HW116073   3.880   1.358   4.169 -0.4071 -1.3739  0.1393
 1538SOL    HW216074   3.851   1.495   4.209 -1.6033  0.7127  1.1201
 1539SOL     OW16075   3.906   2.414   6.296  0.2959  0.3098 -0.0983
 1539SOL    HW116076   3.940   2.434   6.383  0.2669  1.3681 -0.3250
 1539SOL    HW216077   3.991   2.412   6.250 -0.4009  1.8142 -1.4471
 1540SOL     OW16078   3.583   2.196  13.896 -0.1993 -0.5972 -0.3265
 1540SOL    HW116079   3.499   2.240  13.881 -0.6481 -0.9262  1.2138
 1540SOL    HW216080   3.558   2.104  13.902  0.4972 -0.8343 -1.0886
 1541SOL     OW16081   0.863   3.394   3.733 -0.3213  0.3657  0.1986
 1541SOL    HW116082   0.774   3.382   3.702  0.2946  1.4058 -1.9205
 1541SOL    HW216083   0.874   3.470   3.677  0.6128 -0.2526 -0.4718
 1542SOL     OW16084   4.671   3.855   6.284  0.0303  0.2196 -0.0791
 1542SOL    HW116085   4.716   3.771   6.278  1.4786  1.0017 -0.1908
 1542SOL    HW216086   4.672   3.874   6.190  1.4099 -2.1207 -0.5348
 1543SOL     OW16087   0.109   4.411   8.512 -0.3565  0.5932  0.5008
 1543SOL    HW116088   0.050   4.343   8.543 -1.7653  2.4485  1.8884
 1543SOL    HW216089   0.181   4.362   8.472  1.1474  1.0699  2.5892
 1544SOL     OW16090   1.247   4.538   4.864 -0.5654  0.0728 -0.0233
 1544SOL    HW116091   1.263   4.451   4.899 -0.6183  0.8602  1.9748
 1544SOL    HW216092   1.334   4.578   4.870 -0.6937  0.2403  0.7171
 1545SOL     OW16093   2.173   0.706   2.457  0.3332 -0.3775 -0.1119
 1545SOL    HW116094   2.228   0.643   2.504  1.2260  0.2151 -0.3658
 1545SOL    HW216095   2.111   0.722   2.528  1.1493 -0.4362  0.6113
 1546SOL     OW16096   0.812   0.830   7.205 -0.3479  0.4217 -0.0324
 1546SOL    HW116097   0.815   0.855   7.113 -1.2916  1.6225  0.2614
 1546SOL    HW216098   0.742   0.766   7.189  1.0782 -1.6337  1.9858
 1547SOL     OW16099   3.758   1.384   4.775  0.2483  0.1106 -0.1712
 1547SOL    HW116100   3.806   1.429   4.844  0.9540  0.5731 -0.9519
 1547SOL    HW216101   3.738   1.295   4.805 -1.2260  0.3719 -0.3851
 1548SOL     OW16102   0.203   1.074   3.804  0.1387 -0.1490 -0.3306
 1548SOL    HW116103   0.211   1.101   3.895  1.2797 -0.3311 -0.3687
 1548SOL    HW216104   0.282   1.020   3.804 -1.1799 -2.0530  0.7380
 1549SOL     OW16105   0.794   1.530   4.533 -0.0426 -0.2169 -0.0260
 1549SOL    HW116106   0.876   1.557   4.574 -0.5167 -0.5327  1.1038
 1549SOL    HW216107   0.831   1.499   4.450 -0.9056 -0.1777 -0.4274
 1550SOL     OW16108   0.771   0.916   7.966  0.6388  0.3023 -0.4737
 1550SOL    HW116109   0.693   0.861   7.956  0.8549 -0.1470  0.2854
 1550SOL    HW216110   0.827   0.884   7.895 -0.6141 -2.4704 -0.2177
 1551SOL     OW16111   2.158   2.267   0.085  0.0482  0.2388 -0.0716
 1551SOL    HW116112   2.066   2.292   0.085 -0.1277 -0.4383  2.2813
 1551SOL    HW216113   2.182   2.354   0.053 -0.3918 -0.7228 -2.9934
 1552SOL     OW16114   4.046   0.478   7.207  0.2414 -0.2773  0.4206
 1552SOL    HW116115   4.121   0.447   7.156  0.0146 -2.4219  1.3786
 1552SOL    HW216116   4.075   0.464   7.297  3.8895  0.3398 -0.6410
 1553SOL     OW16117   1.912   4.412   7.249 -0.8916 -0.4465  0.1495
 1553SOL    HW116118   1.849   4.364   7.195 -1.0867 -0.1036  0.0738
 1553SOL    HW216119   1.914   4.354   7.325 -0.7351  0.4016  0.7907
 1554SOL     OW16120   2.281   4.517   1.927 -0.4775 -0.1677 -0.3818
 1554SOL    HW116121   2.291   4.577   1.853  0.5871 -0.5435 -0.5291
 1554SOL    HW216122   2.186   4.524   1.937 -0.5986  0.2723 -1.8225
 1555SOL     OW16123   4.235   0.281  16.535 -0.1828  0.4761  0.1439
 1555SOL    HW116124   4.304   0.323  16.586 -1.0602  1.8587  0.1824
 1555SOL    HW216125   4.165   0.346  16.530 -0.8036 -0.1923  0.1241
 1556SOL     OW16126   0.937   0.941  12.467  0.4499  0.3679 -0.3203
 1556SOL    HW116127   0.867   0.989  12.423  0.8816  1.8749  0.6483
 1556SOL    HW216128   0.942   0.984  12.552 -2.3356 -0.4872  0.2766
 1557SOL     OW16129   0.191   2.362  13.691  0.1570 -0.2213  0.2060
 1557SOL    HW116130   0.150   2.449  13.688 -0.5444 -0.6523 -1.9806
 1557SOL    HW216131   0.119   2.311  13.656 -1.2349  2.1099 -0.3570
 1558SOL     OW16132   1.682   3.661  15.427  0.2592 -0.2147 -0.1249
 1558SOL    HW116133   1.659   3.627  15.340 -1.8911 -1.5352  0.9710
 1558SOL    HW216134   1.691   3.756  15.413  1.5259 -0.4614 -0.9508
 1559SOL     OW16135   0.051   3.916  10.419 -0.3703  0.2654 -0.8822
 1559SOL    HW116136   0.008   3.930  10.335  1.9153  2.3585 -1.6908
 1559SOL    HW216137   0.128   3.869  10.389  0.4401  1.4658 -0.6784
 1560SOL     OW16138   2.279   2.276   8.688 -0.3710  1.0222 -0.2207
 1560SOL    HW116139   2.359   2.328   8.690  0.8735 -0.8643 -1.4828
 1560SOL    HW216140   2.214   2.346   8.696 -0.9028  0.5964 -0.8767
 1561SOL     OW16141   1.496   1.842  10.697  0.4406  0.4708  0.3002
 1561SOL    HW116142   1.519   1.819  10.607 -2.1255 -1.3218  0.1241
 1561SOL    HW216143   1.479   1.756  10.736  2.4081  0.2010  0.6122
 1562SOL     OW16144   4.322   1.169   5.717 -0.2050  0.3649  0.2021
 1562SOL    HW116145   4.377   1.217   5.778 -0.6101  2.3298 -1.0023
 1562SOL    HW216146   4.289   1.099   5.774 -0.0579  0.1148 -0.0208
 1563SOL     OW16147   1.968   0.369  17.229  0.0442  0.0345  0.4331
 1563SOL    HW116148   1.881   0.371  17.189 -0.8258 -1.0463  2.2717
 1563SOL    HW216149   1.991   0.278  17.245  1.5258  0.1709 -0.9370
 1564SOL     OW16150   0.466   2.779  12.696  0.3322 -0.0526 -0.1311
 1564SOL    HW116151   0.524   2.781  12.772 -0.4373  1.1218  0.4259
 1564SOL    HW216152   0.479   2.866  12.658 -3.2159  1.1951  1.5108
 1565SOL     OW16153   0.991   2.962  17.258  0.3022 -0.0917  0.3968
 1565SOL    HW116154   0.949   3.022  17.196 -1.1929 -1.0599  0.4967
 1565SOL    HW216155   0.923   2.906  17.293  0.6248 -1.8249 -1.7620
 1566SOL     OW16156   2.259   0.613  16.170  0.0058 -0.4807 -0.2134
 1566SOL    HW116157   2.331   0.677  16.175  1.8738 -2.6540  0.7241
 1566SOL    HW216158   2.235   0.638  16.081 -2.7681 -2.1692  0.0856
 1567SOL     OW16159   0.393   0.963   4.789  0.6977 -0.0242  0.1236
 1567SOL    HW116160   0.374   1.035   4.730 -3.3656 -1.4392 -0.3208
 1567SOL    HW216161   0.342   0.885   4.765 -0.0556  1.2045 -2.2550
 1568SOL     OW16162   2.243   2.030  15.574 -0.2490  0.3224 -0.4191
 1568SOL    HW116163   2.151   2.052  15.564 -0.5289 -1.3423 -1.5106
 1568SOL    HW216164   2.288   2.113  15.587 -1.2706  0.6291  1.0445
 1569SOL     OW16165   3.819   3.694  11.009  0.3495  0.1463 -0.1473
 1569SOL    HW116166   3.859   3.702  11.095  0.0115  0.6204 -0.0365
 1569SOL    HW216167   3.791   3.602  11.009 -1.9585  0.8484  1.7735
 1570SOL     OW16168   0.132   1.789   6.101 -0.4213 -0.1864 -0.2615
 1570SOL    HW116169   0.182   1.800   6.020  0.7609 -0.7324  0.4083
 1570SOL    HW216170   0.062   1.854   6.093  0.7583  1.5518  3.7264
 1571SOL     OW16171   3.088   3.602  12.369 -0.2948 -0.7165 -0.0973
 1571SOL    HW116172   3.047   3.613  12.455 -0.2216 -0.7262 -0.0613
 1571SOL    HW216173   3.100   3.508  12.366 -1.0434 -0.7651 -1.3782
 1572SOL     OW16174   0.232   0.054   2.237 -0.2490  0.3861 -0.3849
 1572SOL    HW116175   0.276   0.137   2.253 -0.5455  0.5530 -0.4339
 1572SOL    HW216176   0.152   0.056   2.290 -0.5060 -0.4734 -0.7389
 1573SOL     OW16177   3.971   2.706   8.309 -0.1526  0.1252  0.2862
 1573SOL    HW116178   4.032   2.739   8.244 -1.0305 -3.3772 -2.3241
 1573SOL    HW216179   3.914   2.775   8.345  1.6088  2.4047 -1.3205
 1574SOL     OW16180   3.931   4.175   9.585  0.2979 -1.1398 -0.5506
 1574SOL    HW116181   3.973   4.162   9.500  1.1490 -0.4352 -0.2317
 1574SOL    HW216182   3.977   4.110   9.638  1.8883  0.9912  0.7215
 1575SOL     OW16183   2.416   4.626   4.573  0.0325  0.1238 -0.4571
 1575SOL    HW116184   2.327   4.593   4.584 -0.4659  2.0128  1.1931
 1575SOL    HW216185   2.432   4.596   4.483 -1.6497  0.6851 -0.9367
 1576SOL     OW16186   0.964   2.855   5.480  0.3331  0.1525 -0.8243
 1576SOL    HW116187   1.025   2.896   5.418 -1.7715  1.5787 -1.9322
 1576SOL    HW216188   0.923   2.933   5.517  0.9307 -0.7096  1.6879
 1577SOL     OW16189   0.687   2.545   8.264  0.1899  0.1938 -0.3907
 1577SOL    HW116190   0.611   2.521   8.212 -0.6634  2.0785 -0.0386
 1577SOL    HW216191   0.747   2.471   8.260  2.3958  1.8741  1.3499
 1578SOL     OW16192   2.297   1.215  16.738  0.0440 -0.0570 -0.0657
 1578SOL    HW116193   2.220   1.213  16.794 -0.2603  2.6213 -0.3873
 1578SOL    HW216194   2.359   1.207  16.810 -0.0917  2.8749  0.3936
 1579SOL     OW16195   1.299   3.247   9.585  0.1566 -0.2881 -0.1675
 1579SOL    HW116196   1.259   3.305   9.649 -0.2481  0.3463 -0.9916
 1579SOL    HW216197   1.236   3.179   9.562 -0.4519 -0.4290  1.9910
 1580SOL     OW16198   3.254   3.827  12.355 -0.2579 -0.4504 -0.1253
 1580SOL    HW116199   3.185   3.760  12.358 -0.0267 -0.5842  1.8587
 1580SOL    HW216200   3.220   3.887  12.289 -0.1632  1.8643  1.9389
 1581SOL     OW16201   0.269   1.208   4.713 -0.5446 -0.2925  0.1434
 1581SOL    HW116202   0.290   1.221   4.805  0.7668 -2.5843  0.1597
 1581SOL    HW216203   0.335   1.266   4.676 -0.7384 -0.5228 -0.5625
 1582SOL     OW16204   0.425   4.450   8.149 -0.9083  0.1284 -0.4080
 1582SOL    HW116205   0.382   4.427   8.067  0.6248 -0.2782 -1.1113
 1582SOL    HW216206   0.446   4.363   8.182 -0.6568  0.0400 -0.7959
 1583SOL     OW16207   0.851   1.131   2.617  0.0548  0.4216  0.1994
 1583SOL    HW116208   0.808   1.172   2.542  2.7018 -1.1162 -2.1847
 1583SOL    HW216209   0.776   1.104   2.669 -0.2759 -0.5780 -0.8078
 1584SOL     OW16210   4.009   0.819   1.798 -0.2809  0.0951  0.4615
 1584SOL    HW116211   4.099   0.788   1.800 -0.5684 -0.7067  0.9634
 1584SOL    HW216212   4.017   0.897   1.853 -0.2857  2.1240 -2.3945
 1585SOL     OW16213   1.662   1.864   1.657  0.2846 -0.2315 -0.2690
 1585SOL    HW116214   1.727   1.794   1.646 -0.7280 -1.4026  1.0136
 1585SOL    HW216215   1.583   1.826   1.618 -0.0838  0.6265 -0.3556
 1586SOL     OW16216   3.188   0.087   6.402 -0.4341 -1.1471 -0.4622
 1586SOL    HW116217   3.207   4.717   6.415  1.8490 -0.5796  0.1821
 1586SOL    HW216218   3.092   0.083   6.407 -0.6646  2.8006 -1.8835
 1587SOL     OW16219   2.087   2.274   9.132 -0.3364 -0.1318  0.4614
 1587SOL    HW116220   2.136   2.354   9.112 -2.7956  1.5046  0.9698
 1587SOL    HW216221   2.074   2.236   9.046 -0.9328  0.2706  0.3756
 1588SOL     OW16222   4.189   2.485   9.515  0.2074  0.1976 -0.2966
 1588SOL    HW116223   4.179   2.392   9.495  0.9490  0.2080 -0.6945
 1588SOL    HW216224   4.207   2.483   9.609  0.3644  2.8961 -0.2546
 1589SOL     OW16225   3.078   3.781   4.217  0.2884 -0.2368 -0.5847
 1589SOL    HW116226   3.091   3.873   4.237  0.8666 -0.9619  2.2774
 1589SOL    HW216227   3.011   3.781   4.148  0.4347  1.2606 -0.7264
 1590SOL     OW16228   0.774   1.199   6.637 -0.1145 -0.1854 -0.0823
 1590SOL    HW116229   0.868   1.182   6.642 -0.4989 -1.7142  1.9015
 1590SOL    HW216230   0.746   1.196   6.729 -2.6360  0.0205 -0.8485
 1591SOL     OW16231   1.866   0.193   9.921  0.1676 -0.1525  0.2665
 1591SOL    HW116232   1.804   0.145   9.975  0.4708 -0.1694  0.6012
 1591SOL    HW216233   1.933   0.202   9.989  1.9222 -1.1485 -1.3153
 1592SOL     OW16234   1.536   4.399   6.703  0.0416  0.4847  0.1595
 1592SOL    HW116235   1.507   4.308   6.714  1.3464  0.2508  1.6729
 1592SOL    HW216236   1.610   4.385   6.643  0.8042 -0.3466  1.2968
 1593SOL     OW16237   3.671   3.475   6.397  0.4138  0.1686  0.7901
 1593SOL    HW116238   3.634   3.398   6.354  0.9482 -0.5047  1.5648
 1593SOL    HW216239   3.738   3.440   6.455 -0.1958 -0.3745  1.1676
 1594SOL     OW16240   1.958   4.574   4.439  0.2579 -0.1842 -0.1690
 1594SOL    HW116241   1.927   4.659   4.471  0.2628 -0.4027  0.4287
 1594SOL    HW216242   2.028   4.605   4.382 -0.7545  1.6845 -0.3689
 1595SOL     OW16243   4.380   1.642   1.550 -0.8133 -0.3210 -0.0108
 1595SOL    HW116244   4.316   1.580   1.516 -1.8563  0.9613 -0.4031
 1595SOL    HW216245   4.350   1.729   1.523  0.1081 -0.4636 -1.5050
 1596SOL     OW16246   4.621   4.210   0.628 -0.4334 -0.0858 -0.0455
 1596SOL    HW116247   4.529   4.232   0.619 -0.8068 -2.3832 -1.8409
 1596SOL    HW216248   4.624   4.123   0.588  0.3251  0.4693 -1.1871
 1597SOL     OW16249   2.155   0.622  16.578  0.6079 -0.1297 -0.4570
 1597SOL    HW116250   2.102   0.567  16.636 -1.2369 -0.4071 -2.3928
 1597SOL    HW216251   2.186   0.684  16.643  0.2362  1.1308 -1.4847
 1598SOL     OW16252   0.879   1.453   4.277  0.0539 -0.4051  0.0902
 1598SOL    HW116253   0.858   1.363   4.253 -1.4218  0.0987 -0.4771
 1598SOL    HW216254   0.970   1.455   4.246  0.2686 -1.3306  0.6575
 1599SOL     OW16255   4.596   2.209   3.035 -0.0981 -0.3045  0.0739
 1599SOL    HW116256   4.668   2.151   3.058  1.3456  1.6796  0.4679
 1599SOL    HW216257   4.560   2.150   2.968  2.4577 -0.3620 -1.2295
 1600SOL     OW16258   1.489   2.763   1.865 -0.5532  0.1441  0.3469
 1600SOL    HW116259   1.466   2.745   1.956  0.7020 -0.8440  0.4625
 1600SOL    HW216260   1.511   2.680   1.823 -0.6701  1.1839 -1.7675
 1601SOL     OW16261   2.486   3.729   5.473  0.0168 -0.5902 -0.1668
 1601SOL    HW116262   2.487   3.765   5.562 -0.2247 -1.5682  0.2327
 1601SOL    HW216263   2.551   3.787   5.434  0.1205  0.0620  0.9624
 1602SOL     OW16264   0.255   0.508   8.218 -0.3799  0.6196  0.9091
 1602SOL    HW116265   0.194   0.516   8.145 -0.6184 -0.3298  0.9983
 1602SOL    HW216266   0.244   0.416   8.241  1.6030 -0.1680 -1.1666
 1603SOL     OW16267   0.951   3.227   8.157  0.3970 -0.1245 -0.1185
 1603SOL    HW116268   0.894   3.159   8.120 -1.4379  0.8392  0.9523
 1603SOL    HW216269   1.014   3.239   8.086 -1.3141 -0.5925 -1.7229
 1604SOL     OW16270   0.898   2.846   4.731 -0.0197  0.6434 -0.0744
 1604SOL    HW116271   0.843   2.925   4.735  1.8116  1.9460 -1.0646
 1604SOL    HW216272   0.944   2.844   4.815  0.5114 -3.4469 -0.4579
 1605SOL     OW16273   1.469   2.119  13.219  0.5101 -0.4737  0.0648
 1605SOL    HW116274   1.446   2.053  13.154 -3.5273  1.4669 -0.4613
 1605SOL    HW216275   1.546   2.079  13.259  0.7305 -1.5047 -1.3790
 1606SOL     OW16276   4.331   3.986  15.838  0.5009 -0.1955  0.0508
 1606SOL    HW116277   4.317   4.080  15.855  0.3718 -0.1780 -0.1537
 1606SOL    HW216278   4.386   3.949  15.906  0.4326  1.3981  0.9705
 1607SOL     OW16279   3.961   1.993   4.480  0.0343 -0.2266 -0.1092
 1607SOL    HW116280   4.022   1.943   4.535 -0.4167 -0.0549  0.5517
 1607SOL    HW216281   3.945   2.073   4.530 -0.9012  0.7563 -1.9889
 1608SOL     OW16282   3.536   2.055   0.545 -0.3559  0.1225  0.0198
 1608SOL    HW116283   3.537   1.960   0.537 -2.1166  0.1675 -0.8473
 1608SOL    HW216284   3.443   2.077   0.539 -0.3902  0.2061  0.8990
 1609SOL     OW16285   4.685   1.608  17.039 -0.3289 -0.3118  0.1258
 1609SOL    HW116286   4.696   1.703  17.047 -4.0594  0.4439 -3.4660
 1609SOL    HW216287   4.691   1.577  17.129 -0.7415 -0.5821  0.0610
 1610SOL     OW16288   0.758   3.091   4.733  0.1159 -0.1390  0.6887
 1610SOL    HW116289   0.776   3.154   4.663 -2.2764  0.8714  0.9796
 1610SOL    HW216290   0.788   3.135   4.813 -0.8349  1.6666  0.0437
 1611SOL     OW16291   3.870   0.660   5.361 -0.3027  0.3171 -0.3029
 1611SOL    HW116292   3.825   0.740   5.387 -1.6741  0.0736 -1.9648
 1611SOL    HW216293   3.876   0.631   5.452 -1.2022 -0.1499 -0.3912
 1612SOL     OW16294   1.160   1.292   0.160 -0.1265 -0.9601  0.0378
 1612SOL    HW116295   1.149   1.354   0.232 -0.1917 -0.1538 -0.6767
 1612SOL    HW216296   1.253   1.306   0.139  0.3695  0.4098  3.0673
 1613SOL     OW16297   2.358   1.650   4.896  0.1947  0.5347 -0.2239
 1613SOL    HW116298   2.343   1.744   4.884 -2.2419  0.0603 -0.9045
 1613SOL    HW216299   2.266   1.623   4.895  0.4957 -0.4815 -0.0013
 1614SOL     OW16300   3.898   1.779  10.308  0.0829 -0.2207  0.4769
 1614SOL    HW116301   3.857   1.728  10.378 -2.2090  0.1678 -0.6131
 1614SOL    HW216302   3.983   1.736  10.296 -0.6732 -1.3094 -0.9786
 1615SOL     OW16303   2.356   3.398  15.131 -0.1282 -0.3640  0.2380
 1615SOL    HW116304   2.321   3.486  15.142  0.6405  0.2246 -2.0781
 1615SOL    HW216305   2.427   3.418  15.070 -0.7408  0.7099 -0.1070
 1616SOL     OW16306   2.123   0.223   6.942 -0.1222  0.1195 -0.4371
 1616SOL    HW116307   2.168   0.168   7.005 -2.3924 -1.8551 -0.5393
 1616SOL    HW216308   2.164   0.199   6.859 -0.3936  1.0097 -0.8335
 1617SOL     OW16309   2.783   0.916  16.782  0.1644 -0.1899 -1.1911
 1617SOL    HW116310   2.705   0.941  16.831  0.2356 -1.6022 -0.3407
 1617SOL    HW216311   2.821   1.002  16.762  1.1231 -0.5153 -0.7988
 1618SOL     OW16312   3.938   0.835   1.079  0.1168  0.3955  0.3445
 1618SOL    HW116313   3.872   0.793   1.134  0.1992 -0.1781 -0.0009
 1618SOL    HW216314   4.002   0.765   1.065  0.0591  0.9473 -2.6704
 1619SOL     OW16315   2.068   2.530  14.870 -0.0641 -0.5199  0.4334
 1619SOL    HW116316   2.103   2.608  14.828  0.7281 -0.3911  1.3288
 1619SOL    HW216317   2.136   2.507  14.933 -0.3950  2.2753  1.8156
 1620SOL     OW16318   1.720   3.541   9.177  0.2602 -0.1453 -0.4044
 1620SOL    HW116319   1.778   3.489   9.122  1.3022 -1.9869  2.4569
 1620SOL    HW216320   1.712   3.482   9.252  1.2371  2.0812  1.4545
 1621SOL     OW16321   1.429   0.294   3.405 -0.1785 -0.0273  0.2582
 1621SOL    HW116322   1.513   0.336   3.385  0.5064 -0.3833  2.3421
 1621SOL    HW216323   1.456   0.241   3.480 -1.8556 -0.2290  0.6998
 1622SOL     OW16324   4.283   3.414   8.801  0.0061  0.0800  0.2809
 1622SOL    HW116325   4.205   3.410   8.745 -0.1117  1.6270  0.3375
 1622SOL    HW216326   4.247   3.416   8.890 -1.5383 -0.2661 -0.3274
 1623SOL     OW16327   3.300   4.145   6.377  0.2915  0.2931  0.4270
 1623SOL    HW116328   3.311   4.068   6.320  2.4487  0.4773  0.5993
 1623SOL    HW216329   3.213   4.175   6.349  1.2092  2.0301 -0.5211
 1624SOL     OW16330   2.146   4.661   4.260  0.1558 -0.1201 -0.1936
 1624SOL    HW116331   2.232   4.684   4.293 -0.4161 -0.4560  1.5296
 1624SOL    HW216332   2.152   4.570   4.229  0.1726  0.6710 -2.5344
 1625SOL     OW16333   3.919   0.711   3.624 -0.2027  0.1791 -0.2360
 1625SOL    HW116334   3.991   0.701   3.687  0.9452  0.2380 -1.5590
 1625SOL    HW216335   3.842   0.711   3.681  1.1381 -2.8673  1.6154
 1626SOL     OW16336   3.152   1.614  11.251  0.1350  0.4582  0.2033
 1626SOL    HW116337   3.198   1.686  11.208  0.8382 -1.3282 -2.0618
 1626SOL    HW216338   3.079   1.660  11.292 -0.9311 -0.1684 -0.9529
 1627SOL     OW16339   0.229   2.433  14.226 -0.0913 -0.1565 -0.2149
 1627SOL    HW116340   0.229   2.392  14.139  1.5362 -0.0163 -0.2648
 1627SOL    HW216341   0.295   2.501  14.216 -0.6005 -0.1282 -3.3212
 1628SOL     OW16342   4.426   0.102   2.605  0.4770  0.5281  0.3647
 1628SOL    HW116343   4.491   0.162   2.568  0.2005 -0.5028 -1.8583
 1628SOL    HW216344   4.395   0.163   2.671  0.6881 -0.1888  1.1191
 1629SOL     OW16345   2.609   3.486   2.289 -0.0287  0.1059 -0.2384
 1629SOL    HW116346   2.534   3.445   2.333 -0.9560  1.7505 -0.2907
 1629SOL    HW216347   2.600   3.569   2.336 -1.0193 -0.4123  0.4996
 1630SOL     OW16348   1.517   0.903   5.652 -0.1055 -0.4519 -0.2702
 1630SOL    HW116349   1.487   0.875   5.738  2.2204  0.3419  0.8021
 1630SOL    HW216350   1.448   0.966   5.633  1.1403  1.1496  0.5904
 1631SOL     OW16351   1.400   0.946   4.447 -0.0326 -0.1608 -0.5114
 1631SOL    HW116352   1.373   0.977   4.533 -0.2904 -2.6332  0.3102
 1631SOL    HW216353   1.489   0.925   4.473 -0.1650  0.0068  0.0787
 1632SOL     OW16354   2.933   0.036   8.701 -0.1544 -0.3677  0.1325
 1632SOL    HW116355   2.918   4.676   8.654 -1.4595 -0.5668  0.9042
 1632SOL    HW216356   3.020   0.060   8.670 -0.5634  1.1076  0.1415
 1633SOL     OW16357   3.645   0.904   6.884 -0.1634 -0.1578  0.3201
 1633SOL    HW116358   3.593   0.955   6.822  2.9050 -0.7669 -2.8040
 1633SOL    HW216359   3.672   0.833   6.825 -1.5181 -0.1411 -0.3051
 1634SOL     OW16360   1.076   4.297   8.491 -0.6772  0.7260 -0.2699
 1634SOL    HW116361   1.142   4.245   8.445 -0.9874 -1.4919  1.8409
 1634SOL    HW216362   1.021   4.230   8.531  1.2901 -0.1634  0.9297
 1635SOL     OW16363   2.675   1.355   2.443  0.2638 -0.5378  0.2269
 1635SOL    HW116364   2.648   1.293   2.511 -1.2719  1.3887  1.3387
 1635SOL    HW216365   2.656   1.310   2.361  0.9591 -1.7006  0.7041
 1636SOL     OW16366   2.594   1.588  14.501 -0.0287  0.1985 -0.0525
 1636SOL    HW116367   2.610   1.564  14.410 -1.7990 -1.7049  0.1477
 1636SOL    HW216368   2.514   1.544  14.529 -0.4553 -0.1758 -1.8388
 1637SOL     OW16369   2.676   0.038   8.030 -0.3658  0.2335 -0.7147
 1637SOL    HW116370   2.767   0.022   8.054 -0.9229 -2.3158 -0.3472
 1637SOL    HW216371   2.668   4.697   7.959  4.0493 -2.5822  1.3456
 1638SOL     OW16372   1.132   1.039   7.976 -0.3375  0.2904 -0.2370
 1638SOL    HW116373   1.055   1.059   8.030 -0.2489 -0.7968  0.2935
 1638SOL    HW216374   1.191   0.988   8.031  0.0200 -1.0670 -1.8776
 1639SOL     OW16375   1.898   2.972  12.428 -0.6015 -0.5590 -0.4281
 1639SOL    HW116376   1.938   3.026  12.496 -0.9188 -0.5404 -0.2526
 1639SOL    HW216377   1.970   2.913  12.406  1.1625  1.1211  0.8600
 1640SOL     OW16378   3.600   2.087   0.153  0.5564 -0.2755 -0.1761
 1640SOL    HW116379   3.517   2.070   0.109 -0.0395 -1.2044  1.3168
 1640SOL    HW216380   3.611   2.010   0.208  0.1520 -1.1545 -1.3127
 1641SOL     OW16381   1.205   0.132   2.452 -0.1186 -0.0158  0.3918
 1641SOL    HW116382   1.233   0.072   2.521 -0.7794  0.9762  1.5297
 1641SOL    HW216383   1.247   0.104   2.371  1.3506 -2.1214  1.8885
 1642SOL     OW16384   2.800   4.505   2.417 -0.0657 -0.2505  0.3084
 1642SOL    HW116385   2.777   4.532   2.506 -0.5660 -1.2517  0.4836
 1642SOL    HW216386   2.748   4.425   2.414 -0.5408  0.0383  0.8728
 1643SOL     OW16387   0.885   2.038   5.697 -0.5572  0.2553  0.7385
 1643SOL    HW116388   0.831   2.081   5.631  0.4615  0.5557  0.0941
 1643SOL    HW216389   0.911   1.963   5.643 -1.1732  0.2261  0.4854
 1644SOL     OW16390   2.493   4.294   1.524 -0.6409  0.0407 -0.2466
 1644SOL    HW116391   2.582   4.270   1.497 -0.2773  0.9234  0.1643
 1644SOL    HW216392   2.503   4.382   1.488  0.4048 -0.2816 -0.7523
 1645SOL     OW16393   0.120   0.231  13.437 -0.1284  0.3523  0.0304
 1645SOL    HW116394   0.169   0.215  13.356  0.2689 -1.3215  0.6168
 1645SOL    HW216395   0.151   0.314  13.473 -0.2183  1.0104 -1.3950
 1646SOL     OW16396   2.210   2.273   8.119 -0.0600  0.0699  0.0826
 1646SOL    HW116397   2.287   2.239   8.163 -1.4537 -1.1233  1.6040
 1646SOL    HW216398   2.135   2.233   8.164  0.5633 -0.4630  0.6366
 1647SOL     OW16399   4.668   3.472   0.956 -0.0291 -0.6320 -0.0137
 1647SOL    HW116400   4.641   3.500   0.869  1.4494  1.1525  0.1027
 1647SOL    HW216401   0.038   3.490   0.950 -0.0309 -0.6707 -0.1484
 1648SOL     OW16402   0.585   0.419  16.664  0.5292 -0.3385 -0.2822
 1648SOL    HW116403   0.517   0.384  16.606 -0.8449  2.1528 -0.1830
 1648SOL    HW216404   0.545   0.407  16.750  0.2657 -0.8813 -0.4827
 1649SOL     OW16405   4.066   1.720   1.265  0.1168 -0.1170  0.2019
 1649SOL    HW116406   4.021   1.638   1.243  0.5829 -0.1083 -0.7774
 1649SOL    HW216407   4.098   1.686   1.349 -1.7833  1.9210  1.7465
 1650SOL     OW16408   0.066   1.154  11.542 -0.1403 -0.1605 -0.0563
 1650SOL    HW116409   0.125   1.226  11.563 -1.4263  0.8226  0.1522
 1650SOL    HW216410   0.124   1.080  11.524  0.9436  0.4533  0.9067
 1651SOL     OW16411   3.263   0.473   7.851 -0.2489 -0.0798  0.5272
 1651SOL    HW116412   3.273   0.487   7.945 -0.3305  0.3429  0.4691
 1651SOL    HW216413   3.236   0.553   7.807 -2.2978 -1.6261 -1.0307
 1652SOL     OW16414   2.294   2.913   3.587 -0.3785 -0.5390  0.0325
 1652SOL    HW116415   2.231   2.843   3.571 -0.2601 -0.5154 -0.5502
 1652SOL    HW216416   2.294   2.961   3.504 -0.1726 -0.0867  0.2930
 1653SOL     OW16417   0.904   3.871   3.064 -0.3368  0.3240  0.1591
 1653SOL    HW116418   0.998   3.873   3.048 -0.4377 -0.4075 -0.5409
 1653SOL    HW216419   0.890   3.945   3.123  0.7298  0.5623  0.1128
 1654SOL     OW16420   0.941   1.885   8.708 -0.4988 -0.2520  0.0762
 1654SOL    HW116421   1.026   1.930   8.704 -0.6890  0.0420 -0.5309
 1654SOL    HW216422   0.882   1.937   8.655  0.8956 -0.8582 -2.0517
 1655SOL     OW16423   1.697   3.447   3.251  0.4131 -0.5150 -0.7604
 1655SOL    HW116424   1.632   3.380   3.230 -0.1377 -0.4390  0.6830
 1655SOL    HW216425   1.736   3.466   3.166  0.0847  3.4005 -0.0106
 1656SOL     OW16426   1.872   2.221   6.540  0.6776  0.8274 -0.5255
 1656SOL    HW116427   1.928   2.287   6.581 -0.9549  0.4319  2.3339
 1656SOL    HW216428   1.933   2.147   6.538  1.3913  1.3658  1.6018
 1657SOL     OW16429   1.121   0.890   3.703  0.2839 -0.3816 -0.0026
 1657SOL    HW116430   1.157   0.861   3.787 -1.7281  0.7126  1.2586
 1657SOL    HW216431   1.143   0.983   3.701  0.8964 -0.5459 -0.6397
 1658SOL     OW16432   1.854   4.433   5.821  0.4056 -0.5047  0.5546
 1658SOL    HW116433   1.783   4.484   5.860 -0.2772 -1.7270  0.9361
 1658SOL    HW216434   1.898   4.413   5.904 -0.1267 -0.3112  0.8865
 1659SOL     OW16435   1.232   0.924  10.650 -0.2985 -0.4423  0.0072
 1659SOL    HW116436   1.212   0.899  10.740 -0.2272 -0.1744  0.0976
 1659SOL    HW216437   1.148   0.960  10.622  1.0878  1.7549 -1.3145
 1660SOL     OW16438   0.675   3.062   2.445 -0.1832 -0.0990 -0.2716
 1660SOL    HW116439   0.612   3.127   2.413  1.0640  0.6421 -1.2072
 1660SOL    HW216440   0.752   3.097   2.401  0.0296 -1.0905 -0.6739
 1661SOL     OW16441   1.468   4.339   5.125  0.3483 -0.0823  0.2137
 1661SOL    HW116442   1.506   4.291   5.199 -2.6878  0.6563  2.2593
 1661SOL    HW216443   1.444   4.267   5.066 -0.6256 -0.0878  0.6134
 1662SOL     OW16444   0.980   3.613  11.686  0.5605  0.1835  0.5798
 1662SOL    HW116445   0.910   3.604  11.621 -0.0975  0.2080  1.2721
 1662SOL    HW216446   1.053   3.588  11.630  0.1941  0.2997  0.0452
 1663SOL     OW16447   1.460   0.857   9.217 -0.2172  0.0926 -0.4529
 1663SOL    HW116448   1.520   0.782   9.214 -0.8978 -0.5594  2.0369
 1663SOL    HW216449   1.437   0.856   9.310 -2.9097  1.4663 -1.1215
 1664SOL     OW16450   4.699   3.369   4.755 -0.1651 -0.5632 -0.4852
 1664SOL    HW116451   4.604   3.368   4.770 -0.2284  0.6741 -0.7583
 1664SOL    HW216452   0.001   3.461   4.769 -0.3605 -0.4729 -0.7168
 1665SOL     OW16453   3.768   4.079  16.468 -0.1710 -0.1743 -0.2655
 1665SOL    HW116454   3.696   4.090  16.406  0.3530  0.5635 -0.7498
 1665SOL    HW216455   3.832   4.141  16.434 -0.2077 -1.3697 -2.4915
 1666SOL     OW16456   1.773   2.658   9.100 -0.2645  0.3754  0.3122
 1666SOL    HW116457   1.738   2.742   9.072 -1.6445  0.5824  2.6873
 1666SOL    HW216458   1.698   2.623   9.149  1.3639  0.9276  3.1732
 1667SOL     OW16459   2.432   4.468   9.942  0.7269  0.0634  0.1779
 1667SOL    HW116460   2.438   4.473  10.037 -2.3111  0.1369  0.3502
 1667SOL    HW216461   2.396   4.555   9.926 -0.4906 -0.4174  0.3310
 1668SOL     OW16462   0.365   1.668   1.739  0.2181  0.2782 -0.2415
 1668SOL    HW116463   0.409   1.608   1.799  0.1113 -0.0942 -0.5328
 1668SOL    HW216464   0.432   1.735   1.722  0.8165  0.4175  2.7431
 1669SOL     OW16465   0.546   2.628  13.018 -0.4544  0.4900  1.0255
 1669SOL    HW116466   0.493   2.691  13.067  0.7462  1.4056  1.1614
 1669SOL    HW216467   0.564   2.689  12.946 -1.6412  2.4570  2.3804
 1670SOL     OW16468   4.619   2.184   4.676  0.0600  0.2303 -0.5013
 1670SOL    HW116469   4.649   2.217   4.591 -1.3524 -0.3284 -1.2153
 1670SOL    HW216470   4.591   2.268   4.712 -0.5333 -0.4721  0.6611
 1671SOL     OW16471   3.237   1.778   8.940 -0.3894  0.3168 -0.0963
 1671SOL    HW116472   3.265   1.866   8.913  0.7219  0.8051  2.5843
 1671SOL    HW216473   3.284   1.715   8.886 -0.8877  0.2879 -0.4945
 1672SOL     OW16474   4.287   1.113   6.850  0.0496 -0.1586 -0.0704
 1672SOL    HW116475   4.353   1.146   6.789  1.8256 -0.9029  1.4235
 1672SOL    HW216476   4.345   1.086   6.922  1.8159 -0.6456 -1.6773
 1673SOL     OW16477   0.687   1.146   9.316  0.0333  0.1797  0.2817
 1673SOL    HW116478   0.726   1.066   9.352  0.5378  0.6261  0.7310
 1673SOL    HW216479   0.689   1.202   9.394 -2.0136  0.8065 -0.1213
 1674SOL     OW16480   2.726   1.632   1.810 -0.1691 -0.8372  0.1641
 1674SOL    HW116481   2.742   1.724   1.828  0.3015 -0.3837 -2.6374
 1674SOL    HW216482   2.671   1.608   1.884 -1.4629 -0.6068 -0.7284
 1675SOL     OW16483   1.308   3.469   5.490  0.5097 -0.0930 -0.3811
 1675SOL    HW116484   1.392   3.510   5.511 -1.0800  1.9102  1.9571
 1675SOL    HW216485   1.340   3.416   5.417  1.8799  0.4304 -0.1785
 1676SOL     OW16486   0.271   3.775   2.115  0.5039  0.6861  0.1399
 1676SOL    HW116487   0.176   3.769   2.122  0.4531 -0.6970 -1.6866
 1676SOL    HW216488   0.285   3.864   2.146 -0.8179  0.3865  1.6499
 1677SOL     OW16489   4.183   1.572   1.967  0.4605  0.2279 -0.3001
 1677SOL    HW116490   4.103   1.566   1.915 -0.3026  1.0615  0.7752
 1677SOL    HW216491   4.182   1.666   1.986 -0.5301  0.0697  0.4394
 1678SOL     OW16492   1.291   2.412  13.421  0.3545 -0.1746  0.3331
 1678SOL    HW116493   1.292   2.317  13.412  1.0395 -0.3532  2.3945
 1678SOL    HW216494   1.367   2.428  13.365  0.6223  1.9986  1.3130
 1679SOL     OW16495   2.977   4.024   3.604 -0.2422  0.1910 -0.0977
 1679SOL    HW116496   3.006   4.101   3.554  0.0747  0.3148  0.2754
 1679SOL    HW216497   3.062   3.993   3.632 -1.2240 -0.6102  1.9979
 1680SOL     OW16498   2.491   1.904   9.197  0.0814 -0.1096  0.0125
 1680SOL    HW116499   2.524   1.831   9.145 -1.8384 -0.4470 -0.7313
 1680SOL    HW216500   2.442   1.863   9.268 -0.9840 -2.2097 -1.9647
 1681SOL     OW16501   2.883   4.363   3.788  0.2312  0.0169  0.2505
 1681SOL    HW116502   2.933   4.445   3.795  1.6677 -0.8377  0.0789
 1681SOL    HW216503   2.821   4.372   3.861 -0.2829 -0.6780 -0.1070
 1682SOL     OW16504   0.581   2.622   5.970  0.0444 -0.6233  0.0745
 1682SOL    HW116505   0.666   2.584   5.991  0.1517  0.1373  1.0245
 1682SOL    HW216506   0.535   2.619   6.053 -1.4026 -1.4328 -0.7527
 1683SOL     OW16507   0.848   2.588   2.778 -0.3855 -0.0149  0.3242
 1683SOL    HW116508   0.919   2.552   2.831 -0.3644  0.5562  0.6799
 1683SOL    HW216509   0.832   2.675   2.815 -0.8182  0.4752 -1.0020
 1684SOL     OW16510   2.993   0.233  13.215  0.0753  0.4325  0.2767
 1684SOL    HW116511   3.046   0.305  13.248  1.8218 -0.6880 -0.0999
 1684SOL    HW216512   2.989   0.174  13.291  1.8011 -0.7933 -0.6010
 1685SOL     OW16513   4.033   0.897   2.382  0.1440  0.4075  0.4697
 1685SOL    HW116514   4.057   0.981   2.345 -1.7880  0.6685 -0.2237
 1685SOL    HW216515   4.102   0.881   2.446  1.1371  0.1265 -0.6917
 1686SOL     OW16516   2.257   1.601   5.391 -0.2481 -0.2478  0.1321
 1686SOL    HW116517   2.166   1.575   5.408 -0.0618 -1.5208 -0.7844
 1686SOL    HW216518   2.237   1.693   5.372  3.5345  0.7468  0.9749
 1687SOL     OW16519   2.768   2.022   3.157 -0.1559 -0.0562 -0.1275
 1687SOL    HW116520   2.808   1.945   3.118  1.9650 -0.3486  2.6175
 1687SOL    HW216521   2.718   2.055   3.083 -0.2694  0.3886  0.1497
 1688SOL     OW16522   0.322   1.357  12.506 -0.2664  0.0857  0.1312
 1688SOL    HW116523   0.312   1.313  12.591  1.4554  0.2733  0.4354
 1688SOL    HW216524   0.232   1.369  12.476 -0.5012 -3.2031 -0.4845
 1689SOL     OW16525   4.046   3.328   3.218 -0.3701  0.2041 -0.1368
 1689SOL    HW116526   4.004   3.388   3.156 -1.5904 -2.1923 -1.6128
 1689SOL    HW216527   4.129   3.374   3.229 -1.1659  1.4527  0.5636
 1690SOL     OW16528   0.230   4.592   1.290  0.7991  0.1524  0.5607
 1690SOL    HW116529   0.207   4.502   1.313 -0.0949  0.2703  0.1129
 1690SOL    HW216530   0.189   4.630   1.368  1.0888  1.4697  0.0713
 1691SOL     OW16531   4.035   2.049   8.633 -0.3517 -0.2212  0.1047
 1691SOL    HW116532   3.971   2.099   8.583  2.5624  1.9556 -1.4534
 1691SOL    HW216533   4.105   2.115   8.635 -1.7670  1.2620  0.0819
 1692SOL     OW16534   3.397   4.102  17.428 -0.3749  0.2525 -0.2130
 1692SOL    HW116535   3.406   4.063  17.515  1.5108  1.1598  0.0104
 1692SOL    HW216536   3.469   4.164  17.431  0.9603 -1.3379  0.8701
 1693SOL     OW16537   2.371   0.294  15.726 -0.3166  0.5840 -0.2498
 1693SOL    HW116538   2.399   0.298  15.817  2.6167 -0.5355 -1.1241
 1693SOL    HW216539   2.394   0.380  15.693 -1.2090  0.0991 -2.1076
 1694SOL     OW16540   0.399   4.702   0.929  0.3459 -0.0326 -0.7595
 1694SOL    HW116541   0.305   4.692   0.944  0.0704  0.0270 -2.5548
 1694SOL    HW216542   0.423   4.626   0.982 -1.6783  1.2660  2.0804
 1695SOL     OW16543   0.170   4.497   4.164  0.8430  0.6061  0.0080
 1695SOL    HW116544   0.205   4.494   4.075 -2.5702 -0.3066 -1.2857
 1695SOL    HW216545   0.079   4.488   4.135  0.5494 -0.2749  1.1752
 1696SOL     OW16546   4.156   1.045   4.034 -0.5902  0.2031  0.1373
 1696SOL    HW116547   4.250   1.033   4.052 -0.7518  1.7661  1.9684
 1696SOL    HW216548   4.153   1.120   3.974  1.7265  0.4146  0.2556
 1697SOL     OW16549   4.607   3.477   2.225  0.0786  0.1134  0.4411
 1697SOL    HW116550   4.553   3.487   2.147  1.9303 -0.3197 -0.8957
 1697SOL    HW216551   4.693   3.474   2.184 -0.2782  1.5287 -0.4214
 1698SOL     OW16552   0.978   4.219   0.406 -0.0122 -0.0986 -0.2410
 1698SOL    HW116553   0.980   4.124   0.396  1.9746 -0.4028  2.9307
 1698SOL    HW216554   0.885   4.236   0.393 -0.0182  0.3656  0.4163
 1699SOL     OW16555   4.665   1.158  15.618 -0.0326 -0.2182 -0.1205
 1699SOL    HW116556   4.624   1.078  15.587  0.2207 -0.1592 -0.5939
 1699SOL    HW216557   4.700   1.188  15.535 -0.8303  1.9027  0.2920
 1700SOL     OW16558   0.587   0.464   7.703  0.6201  0.4293  0.2036
 1700SOL    HW116559   0.495   0.471   7.677  1.0815  1.1780 -1.2340
 1700SOL    HW216560   0.626   0.485   7.619 -1.6303  0.9541 -0.6976
 1701SOL     OW16561   4.441   4.556   8.318  0.1046 -0.9420 -0.7371
 1701SOL    HW116562   4.468   4.524   8.403 -0.3240 -1.2918 -0.7320
 1701SOL    HW216563   4.400   4.639   8.343  2.1139  0.0769 -0.8305
 1702SOL     OW16564   1.259   2.868   8.517  0.0468  1.2041 -0.2664
 1702SOL    HW116565   1.206   2.930   8.569 -1.9619  1.7793 -3.0090
 1702SOL    HW216566   1.207   2.888   8.440 -0.9006  0.6315  0.2191
 1703SOL     OW16567   0.041   4.232   2.541  0.2165 -0.7499  0.3768
 1703SOL    HW116568   0.013   4.323   2.550  2.0747 -0.0689 -0.9601
 1703SOL    HW216569   0.057   4.221   2.448 -0.2806 -1.8455  0.4120
 1704SOL     OW16570   1.623   2.110   7.835  0.4351 -0.3292 -0.6367
 1704SOL    HW116571   1.679   2.110   7.913 -0.8767  0.9148  0.3033
 1704SOL    HW216572   1.597   2.201   7.846 -2.1896 -0.8636 -2.4692
 1705SOL     OW16573   4.702   1.636   9.490 -0.4261 -0.2861 -0.9352
 1705SOL    HW116574   0.028   1.582   9.428 -0.2784 -0.8122 -0.3551
 1705SOL    HW216575   0.052   1.664   9.544 -0.5664  0.9527 -1.3902
 1706SOL     OW16576   0.558   3.063   7.917 -0.1840  0.0859  0.3891
 1706SOL    HW116577   0.559   3.154   7.889  1.4655  0.5494  1.9606
 1706SOL    HW216578   0.607   3.064   8.000  2.1341  2.4013 -1.0191
 1707SOL     OW16579   3.107   1.832   5.750 -0.0081 -0.2947 -0.6549
 1707SOL    HW116580   3.100   1.928   5.757  3.2404 -0.0628 -0.5542
 1707SOL    HW216581   3.182   1.821   5.809 -0.2952  1.4704  0.0593
 1708SOL     OW16582   3.903   2.665   4.798  0.3608  0.2020  0.1922
 1708SOL    HW116583   3.847   2.595   4.764  2.2689 -0.0082 -2.4572
 1708SOL    HW216584   3.840   2.738   4.800 -0.8571 -0.8737  1.3685
 1709SOL     OW16585   2.707   2.995   7.907  0.6201  0.2402  0.0059
 1709SOL    HW116586   2.640   2.945   7.861  1.8889 -2.9030  1.5302
 1709SOL    HW216587   2.768   2.923   7.922  0.0478 -1.1438 -4.1711
 1710SOL     OW16588   3.201   4.546   6.453 -0.2710  0.4646  0.0014
 1710SOL    HW116589   3.278   4.494   6.476 -1.1124 -0.5427  0.5606
 1710SOL    HW216590   3.149   4.518   6.529 -0.8424 -1.5782 -1.1498
 1711SOL     OW16591   1.514   0.058   7.652  0.1957  0.5727  0.7073
 1711SOL    HW116592   1.419   0.052   7.644  0.2920  1.9418 -1.2894
 1711SOL    HW216593   1.531   4.690   7.630 -1.7809 -0.0567  1.8124
 1712SOL     OW16594   4.594   0.821   3.904  0.2439  0.2986  0.2719
 1712SOL    HW116595   4.624   0.860   3.822  3.3094  0.2847  1.3834
 1712SOL    HW216596   4.511   0.783   3.876  1.2855 -1.2622 -0.6934
 1713SOL     OW16597   4.384   3.987   4.661  0.1847  0.1150  0.6259
 1713SOL    HW116598   4.318   3.946   4.717  0.1923  1.4527  1.6075
 1713SOL    HW216599   4.343   4.049   4.602  0.1749  2.5251  3.1601
 1714SOL     OW16600   0.515   3.221   2.947 -0.4543  0.0065 -0.4438
 1714SOL    HW116601   0.438   3.277   2.959  0.3529  0.8059  0.9945
 1714SOL    HW216602   0.515   3.204   2.853 -3.4511  0.6506 -0.5720
 1715SOL     OW16603   2.759   2.560   2.979 -0.4930 -0.4609 -0.3438
 1715SOL    HW116604   2.701   2.587   3.050  0.4720 -0.9019  0.6067
 1715SOL    HW216605   2.793   2.480   3.017  2.0018  0.0738 -1.4640
 1716SOL     OW16606   1.707   0.292   7.257 -0.8221 -0.1605 -0.3330
 1716SOL    HW116607   1.802   0.287   7.256 -0.7511  0.7830  1.0471
 1716SOL    HW216608   1.704   0.251   7.344  1.5363  0.5339  0.0645
 1717SOL     OW16609   1.283   2.088   5.769 -0.6452 -0.0165  0.0027
 1717SOL    HW116610   1.297   2.171   5.723 -0.1816 -0.5764 -0.8686
 1717SOL    HW216611   1.369   2.060   5.798 -1.3039 -1.3586  0.6872
 1718SOL     OW16612   3.656   4.391  14.197  0.1764  0.0706  0.1250
 1718SOL    HW116613   3.591   4.344  14.250  0.1639 -0.2428 -0.1714
 1718SOL    HW216614   3.620   4.380  14.109 -2.3390  1.4006  0.9933
 1719SOL     OW16615   4.607   0.040   0.820 -0.6250  0.3938 -0.1346
 1719SOL    HW116616   4.594   0.050   0.914 -0.0696  0.2782 -0.0400
 1719SOL    HW216617   4.587   4.671   0.805  2.6568  0.1032 -2.8533
 1720SOL     OW16618   4.080   1.704   5.992  0.2926 -0.0954  0.3037
 1720SOL    HW116619   4.108   1.785   5.948  1.7827 -0.1060  1.2213
 1720SOL    HW216620   4.154   1.672   6.044 -1.3025 -3.3153  0.5793
 1721SOL     OW16621   2.922   4.107   8.368  0.0453  0.2211 -0.2764
 1721SOL    HW116622   2.920   4.043   8.439 -2.3478  1.8643  1.1259
 1721SOL    HW216623   2.833   4.140   8.377 -0.7302 -1.7315 -0.9345
 1722SOL     OW16624   2.754   0.870  17.645  0.1481 -0.2002  0.0882
 1722SOL    HW116625   2.695   0.801  17.674 -0.5421 -0.1095 -1.1153
 1722SOL    HW216626   2.777   0.904   0.037 -1.4669  3.4824 -0.9311
 1723SOL     OW16627   1.435   1.632  10.843 -0.5999  0.3655 -0.0281
 1723SOL    HW116628   1.426   1.537  10.840  0.0320  0.2751  0.9095
 1723SOL    HW216629   1.386   1.647  10.924 -2.6495  1.9465 -1.5784
 1724SOL     OW16630   0.295   0.982   5.415 -0.2116  0.4510 -0.0411
 1724SOL    HW116631   0.210   1.003   5.453 -1.5891  0.5145 -3.1768
 1724SOL    HW216632   0.344   1.056   5.450 -0.2173 -0.2611  1.4443
 1725SOL     OW16633   1.101   0.749  15.222 -0.3980 -0.7340 -0.2639
 1725SOL    HW116634   1.048   0.669  15.224  1.0972 -1.6726  1.4629
 1725SOL    HW216635   1.131   0.762  15.132  2.5366 -0.5768  0.7213
 1726SOL     OW16636   0.520   2.638   8.456  0.0722  0.1423 -0.1608
 1726SOL    HW116637   0.505   2.551   8.492  2.2304  0.2788  1.0202
 1726SOL    HW216638   0.569   2.606   8.380  4.0319 -1.1489  2.9281
 1727SOL     OW16639   3.029   4.159   3.893 -0.2154 -0.2383  0.2910
 1727SOL    HW116640   2.975   4.084   3.868 -1.5876  0.4672  1.1413
 1727SOL    HW216641   2.989   4.234   3.850 -0.7121 -1.1700 -0.8989
 1728SOL     OW16642   0.371   2.045  15.811 -0.4472  0.4943  0.3355
 1728SOL    HW116643   0.348   1.960  15.775 -1.2093  0.8295  0.0359
 1728SOL    HW216644   0.331   2.105  15.748  1.3950  2.7652  1.3193
 1729SOL     OW16645   3.031   4.430   0.351 -0.2474 -0.2671  0.1457
 1729SOL    HW116646   3.097   4.488   0.388 -0.1400 -0.0827 -0.3381
 1729SOL    HW216647   3.053   4.353   0.403 -0.6154 -1.3791 -1.3209
 1730SOL     OW16648   0.528   1.738   7.677 -0.1863 -0.0050 -0.0503
 1730SOL    HW116649   0.605   1.695   7.716 -0.9059 -1.1633  0.0810
 1730SOL    HW216650   0.460   1.685   7.718 -2.3721  3.5604  0.9216
 1731SOL     OW16651   1.438   2.501   4.792 -0.0387  0.3040  0.1421
 1731SOL    HW116652   1.468   2.550   4.715 -1.4330 -1.7794 -1.7188
 1731SOL    HW216653   1.516   2.515   4.847 -0.2898 -0.3265  0.6513
 1732SOL     OW16654   0.303   2.567   6.407  0.0265 -0.2101 -0.4717
 1732SOL    HW116655   0.325   2.583   6.499 -0.3822 -0.1777 -0.3771
 1732SOL    HW216656   0.269   2.477   6.415 -1.8325  0.4605 -0.8218
 1733SOL     OW16657   0.133   4.432   5.786  0.6171 -1.1772  0.1099
 1733SOL    HW116658   0.220   4.474   5.784 -0.4438  0.9603 -1.3625
 1733SOL    HW216659   0.086   4.481   5.718  0.1714 -2.9162 -0.8254
 1734SOL     OW16660   2.309   3.802  13.991  0.8163 -0.9870 -0.1274
 1734SOL    HW116661   2.233   3.819  13.935 -0.1287  1.1150  1.8161
 1734SOL    HW216662   2.333   3.891  14.018 -1.2972 -0.1047 -1.0521
 1735SOL     OW16663   1.771   2.644  13.501  0.3448 -0.8131 -0.6175
 1735SOL    HW116664   1.713   2.568  13.494  1.6231 -1.8179 -0.3018
 1735SOL    HW216665   1.807   2.636  13.589  0.7782  2.1062 -0.5302
 1736SOL     OW16666   0.319   1.080  13.304 -0.0760 -0.7576 -0.3048
 1736SOL    HW116667   0.306   1.167  13.267 -0.0103 -0.6652 -0.1119
 1736SOL    HW216668   0.382   1.099  13.373 -0.5954 -3.7991  1.0111
 1737SOL     OW16669   4.244   0.039   7.306 -0.1582 -0.2082 -0.5722
 1737SOL    HW116670   4.186   4.687   7.293  0.3631 -0.6089 -0.5676
 1737SOL    HW216671   4.176   0.100   7.334  0.4990  1.0960 -1.8212
 1738SOL     OW16672   2.944   2.301  13.620 -0.2355  0.0235 -0.1474
 1738SOL    HW116673   2.959   2.371  13.557 -2.4755 -2.0069 -2.9682
 1738SOL    HW216674   3.036   2.287  13.643 -0.3083  0.9113  0.6557
 1739SOL     OW16675   0.628   3.678   3.188  0.4423 -0.0932 -0.0221
 1739SOL    HW116676   0.670   3.749   3.140 -0.1467  0.6873  0.6365
 1739SOL    HW216677   0.650   3.597   3.141  1.7756  0.6889 -0.7578
 1740SOL     OW16678   1.694   4.179   5.226 -0.2540  0.3852  0.0933
 1740SOL    HW116679   1.729   4.165   5.314 -1.6689  1.9611  0.8966
 1740SOL    HW216680   1.676   4.088   5.204 -0.4522  0.5935 -0.6018
 1741SOL     OW16681   2.349   1.672  15.203  0.0191  0.2044  0.1361
 1741SOL    HW116682   2.281   1.636  15.261  2.1923 -3.4423  0.3353
 1741SOL    HW216683   2.315   1.629  15.125  2.1882 -0.6443 -0.3218
 1742SOL     OW16684   3.696   0.470   2.083  0.0702 -0.1344 -0.6950
 1742SOL    HW116685   3.787   0.486   2.056  0.1780  2.7966  1.5546
 1742SOL    HW216686   3.635   0.510   2.021  0.9494 -0.9140 -2.0645
 1743SOL     OW16687   2.197   0.135   1.891 -0.0553  0.5309 -0.0010
 1743SOL    HW116688   2.256   0.069   1.855  3.7651  4.3595 -0.7466
 1743SOL    HW216689   2.233   0.211   1.845 -1.8973  2.9919  2.6650
 1744SOL     OW16690   0.796   1.473  14.884  0.5212  0.0030 -1.0455
 1744SOL    HW116691   0.836   1.545  14.836  0.7583 -0.7959 -2.0547
 1744SOL    HW216692   0.873   1.431  14.923  0.4567  1.8972  1.1362
 1745SOL     OW16693   3.796   0.688   7.536 -0.1947  0.1721  0.0515
 1745SOL    HW116694   3.832   0.621   7.593 -1.5748 -0.0731  0.6463
 1745SOL    HW216695   3.724   0.723   7.589 -2.3328 -2.9268 -0.8349
 1746SOL     OW16696   2.786   3.809   8.153 -0.3963 -0.0169 -0.1897
 1746SOL    HW116697   2.711   3.857   8.188 -1.6009 -0.6855 -1.8482
 1746SOL    HW216698   2.812   3.736   8.208 -2.0010 -0.2796  0.2138
 1747SOL     OW16699   1.051   3.956   1.726  0.1947 -0.6431 -0.1900
 1747SOL    HW116700   1.139   3.919   1.733 -0.2426 -1.3675  1.5744
 1747SOL    HW216701   1.056   4.020   1.655  1.4033 -0.2585  0.2439
 1748SOL     OW16702   1.978   0.957   4.025  0.3602  0.1736  0.3279
 1748SOL    HW116703   2.042   0.999   4.084  0.2232  0.8639 -0.0221
 1748SOL    HW216704   1.901   0.997   4.064 -0.8722 -2.2189  0.3372
 1749SOL     OW16705   0.118   1.525   1.524 -0.1165  0.7315  0.2785
 1749SOL    HW116706   0.142   1.561   1.439 -0.4584  0.6578  0.1495
 1749SOL    HW216707   0.166   1.582   1.584  0.6707 -0.1887  0.5121
 1750SOL     OW16708   4.527   1.423   4.493 -0.2807  0.0942  0.6762
 1750SOL    HW116709   4.614   1.388   4.510 -0.2598 -0.6382 -0.9795
 1750SOL    HW216710   4.540   1.510   4.530  0.9227  0.4774 -0.6611
 1751SOL     OW16711   3.342   1.168   5.680 -0.3054  0.6823  0.5983
 1751SOL    HW116712   3.347   1.087   5.731  0.0426  1.0756  1.1890
 1751SOL    HW216713   3.276   1.208   5.736 -2.5619 -0.7126 -1.0739
 1752SOL     OW16714   1.813   4.365   5.068 -0.3610  0.1963 -0.4826
 1752SOL    HW116715   1.859   4.418   5.132 -3.2878  0.6445  1.2260
 1752SOL    HW216716   1.757   4.309   5.122  2.1467 -1.9545 -0.1460
 1753SOL     OW16717   1.220   3.160   4.342  0.1295  0.5991 -0.6015
 1753SOL    HW116718   1.252   3.227   4.282 -0.0374 -1.2008 -2.7260
 1753SOL    HW216719   1.256   3.204   4.419  1.3650 -1.2106 -0.1334
 1754SOL     OW16720   3.724   4.542   8.024 -0.0960 -0.0896 -0.0771
 1754SOL    HW116721   3.666   4.468   8.044  0.8039 -0.6099  0.5871
 1754SOL    HW216722   3.801   4.509   8.070  0.6910  1.2070 -0.4663
 1755SOL     OW16723   0.727   2.886   5.122 -0.0655 -0.1990 -0.2072
 1755SOL    HW116724   0.647   2.838   5.102  0.2377 -0.7188 -0.1979
 1755SOL    HW216725   0.802   2.843   5.081 -0.6800  0.0016 -1.5198
 1756SOL     OW16726   0.641   1.080   3.628 -0.9988 -0.1005 -0.3089
 1756SOL    HW116727   0.731   1.055   3.650 -1.6149 -1.6878  0.4414
 1756SOL    HW216728   0.652   1.172   3.650 -1.3484 -0.3313  0.8276
 1757SOL     OW16729   4.491   2.355   8.648  0.1961 -0.5188 -0.4544
 1757SOL    HW116730   4.481   2.313   8.563 -1.5030  1.0888 -1.0348
 1757SOL    HW216731   4.400   2.341   8.673  0.6546 -1.3563  0.7653
 1758SOL     OW16732   0.279   1.964   9.741 -0.3795  0.4774 -0.1832
 1758SOL    HW116733   0.288   1.947   9.648  1.1188 -1.1302  0.2597
 1758SOL    HW216734   0.264   2.058   9.747  0.8932  0.6237  0.6655
 1759SOL     OW16735   3.419   1.930   7.845 -0.4040  0.2744 -0.4664
 1759SOL    HW116736   3.360   1.873   7.796  1.6361 -2.6800  0.5625
 1759SOL    HW216737   3.399   2.016   7.805  0.5614  1.8743  2.5076
 1760SOL     OW16738   3.806   1.735   8.812  0.0276 -0.4260 -0.9406
 1760SOL    HW116739   3.743   1.718   8.742  0.1757  2.8698 -1.8919
 1760SOL    HW216740   3.889   1.731   8.766  0.9556 -1.3733  0.8267
 1761SOL     OW16741   1.236   3.626   6.869 -0.3001 -0.4464  0.3804
 1761SOL    HW116742   1.249   3.717   6.897 -2.4866  0.2033 -0.6866
 1761SOL    HW216743   1.249   3.645   6.776 -0.3689  2.2806  0.9178
 1762SOL     OW16744   4.476   2.902   8.607  0.3532 -0.3417  0.1551
 1762SOL    HW116745   4.476   2.916   8.702  1.1676  0.2598  0.0608
 1762SOL    HW216746   4.496   2.808   8.604 -1.0539 -0.6693  1.0330
 1763SOL     OW16747   1.715   0.563   5.519 -0.6706 -0.5634  0.4178
 1763SOL    HW116748   1.748   0.484   5.562 -0.3495  0.6247  2.3733
 1763SOL    HW216749   1.757   0.635   5.567  0.1182  0.4493 -1.7861
 1764SOL     OW16750   1.624   1.051  15.854 -0.3200  0.0951 -0.5302
 1764SOL    HW116751   1.692   0.990  15.885 -0.3879  0.6653  0.7334
 1764SOL    HW216752   1.650   1.068  15.763 -0.4111 -1.2494 -0.8094
 1765SOL     OW16753   2.407   4.318   3.943  0.5592 -0.0199 -0.2765
 1765SOL    HW116754   2.323   4.290   3.979 -0.1534  0.0693 -1.8613
 1765SOL    HW216755   2.387   4.383   3.875 -1.2053 -0.2627  0.0065
 1766SOL     OW16756   4.161   3.132   6.152  0.2681  0.2842  0.2276
 1766SOL    HW116757   4.125   3.049   6.183  2.0041 -0.5944 -0.1356
 1766SOL    HW216758   4.107   3.158   6.078 -1.4612 -0.6025  1.1834
 1767SOL     OW16759   2.731   2.809   7.311 -0.2500 -0.1168  0.2707
 1767SOL    HW116760   2.771   2.765   7.386 -0.1740  2.0125  1.4606
 1767SOL    HW216761   2.792   2.880   7.291  0.6500 -0.8606  0.4102
 1768SOL     OW16762   4.426   3.139  15.294  0.2199 -0.3569  0.4116
 1768SOL    HW116763   4.509   3.091  15.290  0.3329 -0.2078  0.9590
 1768SOL    HW216764   4.376   3.123  15.213  1.2760 -1.0371 -0.1010
 1769SOL     OW16765   2.265   4.341   8.454 -0.2406 -0.0491  0.4009
 1769SOL    HW116766   2.226   4.344   8.542  0.0148 -1.6189  0.5684
 1769SOL    HW216767   2.256   4.434   8.431  0.1176 -0.5717 -1.8049
 1770SOL     OW16768   1.695   1.736  11.945 -0.1894 -0.1536 -0.8402
 1770SOL    HW116769   1.641   1.815  11.936 -0.5248 -0.1939  0.7365
 1770SOL    HW216770   1.778   1.779  11.966 -1.0236  1.0952 -0.1164
 1771SOL     OW16771   3.615   2.603  13.442 -0.4724 -0.7640 -0.2314
 1771SOL    HW116772   3.598   2.567  13.355 -2.0831  1.4063 -0.8370
 1771SOL    HW216773   3.705   2.580  13.464 -0.0602 -0.1433 -1.2954
 1772SOL     OW16774   0.950   0.570   3.751  0.1024 -0.9654  0.2662
 1772SOL    HW116775   1.001   0.625   3.691 -1.7351 -0.0765 -0.4876
 1772SOL    HW216776   0.895   0.524   3.687  3.3695 -2.8202 -1.2318
 1773SOL     OW16777   4.461   2.882  12.892  0.5285  0.0154  0.8843
 1773SOL    HW116778   4.540   2.868  12.840  0.2482 -0.6877  0.6601
 1773SOL    HW216779   4.467   2.806  12.950 -0.5354 -1.3134 -0.7820
 1774SOL     OW16780   2.310   0.814   5.687  0.1537  0.0953 -0.1551
 1774SOL    HW116781   2.394   0.781   5.719 -0.3254 -0.9182  0.0700
 1774SOL    HW216782   2.301   0.774   5.601  0.2444 -0.0741 -0.0863
 1775SOL     OW16783   1.911   3.895   8.500  0.6677 -0.6128 -0.6869
 1775SOL    HW116784   1.909   3.979   8.454  0.0840 -0.1870  0.1134
 1775SOL    HW216785   1.838   3.848   8.460 -0.2161  2.0349 -2.1667
 1776SOL     OW16786   3.755   3.521   6.091 -0.1044 -0.0540  0.4049
 1776SOL    HW116787   3.813   3.469   6.147 -1.4030  0.1387  1.9225
 1776SOL    HW216788   3.801   3.532   6.007 -0.9637 -0.9666 -0.1919
 1777SOL     OW16789   3.795   0.042   6.751  0.0315  0.2470 -0.1887
 1777SOL    HW116790   3.772   4.685   6.705  1.6313 -0.2791 -0.0962
 1777SOL    HW216791   3.714   0.062   6.797 -0.3558 -1.3444 -0.1929
 1778SOL     OW16792   1.168   4.186   1.296 -0.2749  0.3884  0.9571
 1778SOL    HW116793   1.227   4.113   1.279  1.1110  1.8121 -0.3066
 1778SOL    HW216794   1.166   4.232   1.212 -2.4644  1.7384  1.7439
 1779SOL     OW16795   2.397   1.467   9.500 -0.2706  0.1592 -0.4675
 1779SOL    HW116796   2.440   1.387   9.530 -0.0823  0.5064  0.1844
 1779SOL    HW216797   2.387   1.498   9.590  0.2341 -0.4933 -0.1802
 1780SOL     OW16798   1.726   2.575   3.233 -0.0960 -0.0639  0.0654
 1780SOL    HW116799   1.660   2.540   3.293 -0.9152  2.2581  0.5019
 1780SOL    HW216800   1.793   2.619   3.287  0.6474 -1.7540  0.5214
 1781SOL     OW16801   0.148   3.711   8.763  0.4646 -0.1396  0.0312
 1781SOL    HW116802   0.130   3.781   8.826 -0.2516 -0.8859  0.6534
 1781SOL    HW216803   0.229   3.675   8.797 -0.4141 -1.7713  0.3948
 1782SOL     OW16804   0.604   0.860   5.971  0.0639  0.1497  0.2012
 1782SOL    HW116805   0.549   0.788   5.939 -0.4457  0.5312  0.2108
 1782SOL    HW216806   0.591   0.869   6.065 -1.2866 -3.6973  0.3886
 1783SOL     OW16807   0.049   0.536   0.499 -0.0341 -0.0396 -0.3629
 1783SOL    HW116808   4.687   0.510   0.535  0.1021  0.8291  0.5855
 1783SOL    HW216809   0.093   0.592   0.564  0.2924 -0.5436 -0.1437
 1784SOL     OW16810   4.213   0.300   7.880  0.2981 -0.1143  0.0921
 1784SOL    HW116811   4.118   0.309   7.881  0.5321  2.4687 -2.0072
 1784SOL    HW216812   4.230   0.348   7.961 -1.2240  1.2746 -0.4254
 1785SOL     OW16813   4.184   4.472   5.009 -0.7570  0.2434 -0.2988
 1785SOL    HW116814   4.202   4.531   4.936  2.5021  0.4403  0.6610
 1785SOL    HW216815   4.137   4.403   4.961  0.3986 -0.5603 -0.2795
 1786SOL     OW16816   0.980   2.912   0.630  0.4476  0.3197 -0.0983
 1786SOL    HW116817   1.067   2.913   0.588  0.2831 -0.9725 -0.4516
 1786SOL    HW216818   0.986   2.991   0.684  2.7447 -0.6789  1.0989
 1787SOL     OW16819   1.438   1.947   2.508  0.5410  0.6594 -0.4158
 1787SOL    HW116820   1.490   1.894   2.448  0.2538 -0.2571  0.1336
 1787SOL    HW216821   1.427   1.890   2.585  0.4663  0.3725 -0.6401
 1788SOL     OW16822   3.386   1.114  14.855 -0.3729 -0.0937 -0.0481
 1788SOL    HW116823   3.402   1.109  14.761  2.4902  0.3684  0.3898
 1788SOL    HW216824   3.356   1.023  14.865  0.6445 -0.6393 -1.9068
 1789SOL     OW16825   3.746   1.526  14.769 -0.2445  0.0601 -0.2305
 1789SOL    HW116826   3.668   1.509  14.716 -0.7412 -2.7589  1.4113
 1789SOL    HW216827   3.804   1.553  14.698 -2.3213  0.2848 -1.8442
 1790SOL     OW16828   3.758   2.131  10.999 -0.8108 -0.1988 -0.4458
 1790SOL    HW116829   3.848   2.105  10.978  0.0726  1.5688  1.1233
 1790SOL    HW216830   3.736   2.061  11.059  0.8907 -0.4991 -0.1575
 1791SOL     OW16831   2.159   3.564   4.095  0.1271  0.3041 -0.1278
 1791SOL    HW116832   2.100   3.490   4.102 -1.1251  1.4860  1.6298
 1791SOL    HW216833   2.105   3.619   4.038 -1.7123  0.1570  1.5055
 1792SOL     OW16834   0.502   3.173   8.461 -0.1393 -0.1994 -0.3618
 1792SOL    HW116835   0.594   3.156   8.482  0.5283  0.7326 -2.5538
 1792SOL    HW216836   0.500   3.266   8.438  2.2740 -0.5538 -1.9988
 1793SOL     OW16837   3.069   3.166   4.973  0.0937  0.1366 -0.7152
 1793SOL    HW116838   3.144   3.131   5.021  0.8153  2.0803 -0.4003
 1793SOL    HW216839   3.084   3.260   4.988 -0.4152  0.3455 -1.5732
 1794SOL     OW16840   0.681   1.773   8.043  0.0801 -0.1888  0.2039
 1794SOL    HW116841   0.769   1.742   8.065  0.4742 -0.0400 -1.1221
 1794SOL    HW216842   0.624   1.701   8.015 -0.6317 -0.0641  1.3307
 1795SOL     OW16843   2.837   4.429  10.902  0.2593  0.1967  0.1312
 1795SOL    HW116844   2.926   4.462  10.896  0.6748 -1.0154 -0.3386
 1795SOL    HW216845   2.818   4.424  10.808  1.3325 -2.7707  0.0636
 1796SOL     OW16846   4.314   3.767   9.755 -0.5463 -0.1266 -0.7833
 1796SOL    HW116847   4.235   3.740   9.708 -0.7416 -1.9749  0.6379
 1796SOL    HW216848   4.363   3.685   9.754 -1.3085 -0.6110  0.4558
 1797SOL     OW16849   3.476   1.615   7.923  0.0058 -0.1962  0.1011
 1797SOL    HW116850   3.389   1.608   7.883 -0.2101  0.7340  0.4015
 1797SOL    HW216851   3.508   1.532   7.889  1.6171  0.1512  0.7682
 1798SOL     OW16852   4.207   3.302   6.482 -0.1243  0.0382  0.5655
 1798SOL    HW116853   4.177   3.314   6.392 -1.2935  4.9590  1.6031
 1798SOL    HW216854   4.301   3.307   6.465 -0.1948  0.0653  0.1903
 1799SOL     OW16855   2.589   3.755   7.800  0.2786 -0.1132 -0.5660
 1799SOL    HW116856   2.671   3.734   7.846 -0.1668 -0.8988 -0.1167
 1799SOL    HW216857   2.541   3.674   7.815 -0.3300  0.3581  0.0053
 1800SOL     OW16858   0.556   4.502   4.626 -0.0265  0.6378  0.6338
 1800SOL    HW116859   0.480   4.559   4.640  1.2429  2.6019 -0.3710
 1800SOL    HW216860   0.627   4.552   4.668  0.1528  1.4762 -0.6424
 1801SOL     OW16861   0.255   1.619   0.569 -0.2165 -0.1848 -0.4212
 1801SOL    HW116862   0.196   1.694   0.580  1.0187  0.6823  0.3022
 1801SOL    HW216863   0.342   1.660   0.567 -0.4157  0.3494  1.7264
 1802SOL     OW16864   4.071   1.202  10.050 -0.0713  1.2444  0.5934
 1802SOL    HW116865   4.108   1.114  10.055 -2.7439  0.1563  1.0463
 1802SOL    HW216866   4.138   1.247   9.999 -0.9193  1.0957 -0.6603
 1803SOL     OW16867   3.724   3.968  17.483  0.0018  0.2972  0.0535
 1803SOL    HW116868   3.700   3.908  17.553 -0.1771  0.3884  0.0714
 1803SOL    HW216869   3.681   3.935  17.403  1.2707 -0.8080 -0.1725
 1804SOL     OW16870   4.314   4.499   0.903 -0.9549  0.1369 -0.2524
 1804SOL    HW116871   4.270   4.580   0.929  1.5690  1.2596  0.5601
 1804SOL    HW216872   4.237   4.443   0.914  0.4668 -1.3565  2.1677
 1805SOL     OW16873   2.554   1.856   7.164 -0.0460 -0.0382 -0.3728
 1805SOL    HW116874   2.485   1.867   7.230  0.4677 -0.8276  0.3012
 1805SOL    HW216875   2.514   1.897   7.088 -0.7543 -0.8981 -0.4677
 1806SOL     OW16876   2.740   1.872   2.037  0.0223  0.0513  0.6197
 1806SOL    HW116877   2.670   1.806   2.040  0.6609 -0.7731 -2.1825
 1806SOL    HW216878   2.685   1.936   2.082 -2.3146 -1.4447 -0.1052
 1807SOL     OW16879   0.513   4.330   5.935 -0.9654 -0.2054  0.6278
 1807SOL    HW116880   0.519   4.237   5.912  0.5837 -0.0144  0.2775
 1807SOL    HW216881   0.437   4.317   5.991 -1.2001 -1.8146 -0.0447
 1808SOL     OW16882   2.287   2.028   2.955  0.7002  0.3035  0.0033
 1808SOL    HW116883   2.316   2.027   3.046  0.5604  1.1713  0.0544
 1808SOL    HW216884   2.294   2.121   2.935  0.6520  0.1789 -0.6232
 1809SOL     OW16885   4.371   4.533   5.867  0.4933  0.0471 -0.6298
 1809SOL    HW116886   4.297   4.576   5.824  0.2035  1.3179  1.1305
 1809SOL    HW216887   4.386   4.455   5.814  0.7070  0.8386 -1.7281
 1810SOL     OW16888   0.881   3.910  13.579  0.0651 -0.5552  0.4039
 1810SOL    HW116889   0.868   4.005  13.573 -0.5141 -0.6786 -0.2834
 1810SOL    HW216890   0.859   3.912  13.673 -2.4220  1.2326 -0.2127
 1811SOL     OW16891   4.256   1.917   1.770  0.0888 -0.1067 -0.0141
 1811SOL    HW116892   4.261   1.901   1.675 -1.7704 -1.4005  0.1055
 1811SOL    HW216893   4.349   1.915   1.793 -0.1553  0.3625  0.9902
 1812SOL     OW16894   1.685   3.214   0.609 -0.8816  0.2954 -0.1114
 1812SOL    HW116895   1.719   3.168   0.686  2.7322  1.3708 -1.0747
 1812SOL    HW216896   1.674   3.139   0.551 -0.7635  1.1959 -1.3027
 1813SOL     OW16897   0.665   2.702  14.437  0.1043  0.6360  0.2501
 1813SOL    HW116898   0.620   2.771  14.485 -0.4809  1.0018 -0.8193
 1813SOL    HW216899   0.622   2.725  14.354  0.8141 -2.7165 -1.0815
 1814SOL     OW16900   3.949   3.578   6.990 -0.1525  0.2036 -0.4077
 1814SOL    HW116901   4.022   3.635   7.014 -0.0673  0.0902 -0.3991
 1814SOL    HW216902   4.001   3.524   6.931 -1.4453 -0.7885 -0.6527
 1815SOL     OW16903   2.779   2.083  15.209 -0.0144  0.4648  0.0323
 1815SOL    HW116904   2.774   2.130  15.125  0.1121  1.0209  0.3329
 1815SOL    HW216905   2.791   1.995  15.176 -1.5716 -0.6348  2.3737
 1816SOL     OW16906   2.879   1.568   4.705  0.2129 -0.4070  0.7268
 1816SOL    HW116907   2.794   1.586   4.745 -1.0457  0.6528 -2.4095
 1816SOL    HW216908   2.870   1.481   4.665  0.3301  0.0855 -0.3494
 1817SOL     OW16909   1.241   3.903   0.179 -0.3665 -0.1808  0.1120
 1817SOL    HW116910   1.318   3.912   0.123 -1.6367  2.0191 -1.3147
 1817SOL    HW216911   1.214   3.992   0.204 -3.3252 -0.9111 -0.4565
 1818SOL     OW16912   1.439   3.246   9.976 -0.8085  0.4130 -0.3576
 1818SOL    HW116913   1.501   3.318   9.991  1.7241 -1.6745 -0.6424
 1818SOL    HW216914   1.359   3.297   9.986 -0.2841  0.9096  1.3828
 1819SOL     OW16915   2.751   2.947   3.997 -0.0210 -0.5309 -0.1016
 1819SOL    HW116916   2.763   2.901   3.914 -1.9203  2.1840 -1.8884
 1819SOL    HW216917   2.832   2.927   4.044  0.5775  0.6458 -0.6361
 1820SOL     OW16918   4.170   1.861   2.033  0.7390 -0.2886  0.6532
 1820SOL    HW116919   4.182   1.882   1.941 -1.8928 -0.9847  0.1593
 1820SOL    HW216920   4.223   1.932   2.071 -0.9216  1.4048 -0.2026
 1821SOL     OW16921   1.968   3.881  11.583 -0.3667 -0.6030 -0.4958
 1821SOL    HW116922   1.882   3.850  11.610 -0.7566  1.3120  0.4480
 1821SOL    HW216923   1.950   3.890  11.489 -0.1319 -1.5533 -0.6346
 1822SOL     OW16924   0.814   0.852   8.551 -0.3394  0.2942 -0.9684
 1822SOL    HW116925   0.863   0.775   8.522 -2.3405 -1.3165 -0.0381
 1822SOL    HW216926   0.780   0.816   8.633 -0.5943 -1.1855 -1.7203
 1823SOL     OW16927   1.403   3.862   8.862 -0.2367 -0.3217 -0.4292
 1823SOL    HW116928   1.408   3.857   8.958 -0.1924 -2.4729 -0.5529
 1823SOL    HW216929   1.359   3.783   8.832  0.9173 -0.4291 -1.8014
 1824SOL     OW16930   0.204   0.566   4.484  0.0160 -0.1475 -0.1018
 1824SOL    HW116931   0.262   0.506   4.437  0.1461  0.6125 -0.9037
 1824SOL    HW216932   0.165   0.599   4.403  1.2742 -1.2885 -1.1836
 1825SOL     OW16933   2.213   3.860   8.546  0.1189  0.5010 -0.0511
 1825SOL    HW116934   2.117   3.865   8.538  0.1179 -0.3669 -0.4865
 1825SOL    HW216935   2.238   3.929   8.608  0.0017  0.3546  0.1615
 1826SOL     OW16936   3.864   3.796   4.762 -0.1034 -0.1804  0.3337
 1826SOL    HW116937   3.853   3.761   4.674  1.8393 -0.6052  0.2559
 1826SOL    HW216938   3.941   3.751   4.797  0.1151 -0.6780 -0.8093
 1827SOL     OW16939   0.356   2.411   1.477  0.2913 -0.2828 -0.0004
 1827SOL    HW116940   0.411   2.482   1.510  1.3654 -0.7520 -0.7902
 1827SOL    HW216941   0.387   2.339   1.531  0.4645  0.6504  1.1493
 1828SOL     OW16942   1.004   1.932   7.911  0.0409 -0.2886  0.4057
 1828SOL    HW116943   1.086   1.932   7.861 -0.0378  0.4558  0.2787
 1828SOL    HW216944   0.940   1.912   7.843 -0.8414 -1.3550  1.5617
 1829SOL     OW16945   4.401   0.315   5.688 -0.5643  1.0068 -0.3573
 1829SOL    HW116946   4.325   0.340   5.741 -1.1410  2.0496 -1.6728
 1829SOL    HW216947   4.361   0.242   5.640  0.4071 -0.0936  0.5226
 1830SOL     OW16948   2.231   2.778   7.117  0.1170 -0.6036  0.5173
 1830SOL    HW116949   2.297   2.713   7.140 -0.3649 -1.3071 -0.0555
 1830SOL    HW216950   2.151   2.729   7.138  0.2611 -1.1431 -0.1703
 1831SOL     OW16951   1.325   2.998   6.169  0.3834 -0.2800  0.1636
 1831SOL    HW116952   1.291   3.041   6.091  1.2893  0.1512  0.0075
 1831SOL    HW216953   1.316   2.906   6.143 -0.3373 -0.2379  0.2663
 1832SOL     OW16954   1.408   1.765   9.149 -0.5310 -0.1672 -0.4995
 1832SOL    HW116955   1.474   1.713   9.104 -1.1748 -1.2918 -0.1397
 1832SOL    HW216956   1.342   1.700   9.174 -0.0234  0.7675  3.2277
 1833SOL     OW16957   1.383   3.433   9.082 -0.2468  0.1941  0.9307
 1833SOL    HW116958   1.434   3.379   9.022  0.0915 -0.8470  2.1368
 1833SOL    HW216959   1.412   3.392   9.164  1.3162 -0.2003  0.1798
 1834SOL     OW16960   1.960   1.308   1.389 -0.3034 -0.1236  0.1428
 1834SOL    HW116961   1.897   1.237   1.394  0.5069 -0.8926 -0.6190
 1834SOL    HW216962   1.926   1.351   1.311 -0.4547 -0.7728 -0.1447
 1835SOL     OW16963   3.115   1.403  10.540  0.2477 -0.0926  0.5419
 1835SOL    HW116964   3.179   1.408  10.469  1.4436  2.1301  1.8047
 1835SOL    HW216965   3.040   1.446  10.498  0.9585 -1.7532 -2.4001
 1836SOL     OW16966   3.745   0.169   3.797 -0.0619 -0.6402  0.6875
 1836SOL    HW116967   3.801   0.105   3.754  1.4774  0.8112  0.5496
 1836SOL    HW216968   3.807   0.203   3.862 -1.9934  0.2050  2.0923
 1837SOL     OW16969   2.356   0.825   3.199  0.5202 -0.8436 -0.4057
 1837SOL    HW116970   2.426   0.845   3.137  1.5323  0.8069  1.2902
 1837SOL    HW216971   2.386   0.859   3.283 -0.2819 -0.2085 -0.3763
 1838SOL     OW16972   4.452   4.574   9.456 -0.2173 -0.1344 -0.4887
 1838SOL    HW116973   4.545   4.595   9.447  0.1148 -1.0533  0.8232
 1838SOL    HW216974   4.416   4.650   9.412  0.3170 -0.3258 -1.2528
 1839SOL     OW16975   1.551   3.840   2.886 -0.0434 -0.5810  0.4484
 1839SOL    HW116976   1.465   3.881   2.881  0.6693  0.8575 -0.3090
 1839SOL    HW216977   1.534   3.754   2.847 -0.6020 -0.2686  0.0046
 1840SOL     OW16978   3.887   0.480   5.762 -0.7627 -0.7309 -0.2486
 1840SOL    HW116979   3.807   0.520   5.730  0.3711 -0.9345 -3.3221
 1840SOL    HW216980   3.852   0.463   5.850  2.6251  1.0465  1.4750
 1841SOL     OW16981   3.210   4.680   3.382  0.5553  0.0704 -0.1611
 1841SOL    HW116982   3.300   4.666   3.413  0.6379  1.2753  0.1581
 1841SOL    HW216983   3.174   4.592   3.387  0.1009  0.3199  0.9554
 1842SOL     OW16984   2.418   3.656   6.219 -0.0540 -0.2804  0.5411
 1842SOL    HW116985   2.347   3.601   6.184 -0.5415  0.2035  0.7595
 1842SOL    HW216986   2.371   3.717   6.277  0.1961  0.3974  0.0333
 1843SOL     OW16987   3.698   1.276   0.317 -0.1981  0.0498  0.2371
 1843SOL    HW116988   3.663   1.357   0.280 -1.5523 -1.0058 -0.8143
 1843SOL    HW216989   3.646   1.213   0.267  0.3941  0.6636 -1.1497
 1844SOL     OW16990   2.580   0.338   8.456  0.0432 -0.1127 -0.3846
 1844SOL    HW116991   2.648   0.382   8.507  1.5641 -2.0975 -0.6820
 1844SOL    HW216992   2.612   0.312   8.370  1.1411  1.3160 -0.4027
 1845SOL     OW16993   4.500   0.037   7.433  0.2173  0.3941  0.6621
 1845SOL    HW116994   4.427   0.067   7.379 -1.4987 -1.6952  1.8181
 1845SOL    HW216995   4.536   4.686   7.384 -1.8399 -1.2179  1.6347
 1846SOL     OW16996   4.580   1.394   4.833  0.0940  0.2636 -0.1828
 1846SOL    HW116997   4.555   1.486   4.837  0.4277  0.4055 -1.3801
 1846SOL    HW216998   4.496   1.349   4.842  1.5715 -1.4306  5.1765
 1847SOL     OW16999   1.878   4.389   3.270  0.2317 -0.0887 -0.0460
 1847SOL    HW117000   1.783   4.390   3.285  0.0129  0.8459 -1.4235
 1847SOL    HW217001   1.887   4.303   3.227 -1.1883  0.6984 -1.9618
 1848SOL     OW17002   0.871   3.634  12.135 -0.4995 -0.0160 -0.2902
 1848SOL    HW117003   0.823   3.608  12.056 -0.3504 -0.3858 -0.2623
 1848SOL    HW217004   0.956   3.616  12.095 -0.7192  1.9896 -1.6345
 1849SOL     OW17005   1.436   0.439   6.842 -0.1118  0.1891  0.0566
 1849SOL    HW117006   1.358   0.383   6.844 -1.0006  1.3969 -1.1072
 1849SOL    HW217007   1.482   0.397   6.915  0.6240 -0.6286 -0.8680
 1850SOL     OW17008   1.399   0.721   1.860 -0.6426 -0.2048 -0.0976
 1850SOL    HW117009   1.381   0.634   1.823  1.3476 -0.4176 -0.5890
 1850SOL    HW217010   1.400   0.714   1.955 -0.5634  1.7513  0.0270
 1851SOL     OW17011   0.458   1.260   4.464 -0.0683 -0.0323  0.5420
 1851SOL    HW117012   0.442   1.183   4.410  1.6238  0.3536 -0.5088
 1851SOL    HW217013   0.501   1.316   4.399 -1.3087 -0.9320 -1.0374
 1852SOL     OW17014   1.122   3.936  11.527 -0.4051 -0.3633 -0.3068
 1852SOL    HW117015   1.104   3.997  11.456 -2.0361  0.7073  1.0369
 1852SOL    HW217016   1.065   3.966  11.598  0.3323  0.9404 -0.2537
 1853SOL     OW17017   1.119   3.194  16.640  0.2669 -0.1860  0.8492
 1853SOL    HW117018   1.061   3.123  16.613  2.7421 -1.1259 -2.0372
 1853SOL    HW217019   1.200   3.172  16.593 -0.0173 -2.4984  1.4044
 1854SOL     OW17020   1.535   2.787   7.244  0.1779  0.0075  0.1921
 1854SOL    HW117021   1.552   2.827   7.329 -1.7652 -0.9131  0.9894
 1854SOL    HW217022   1.508   2.699   7.269 -0.0217  1.0428  3.5359
 1855SOL     OW17023   3.685   4.602  16.294  0.2506  0.0433  0.6186
 1855SOL    HW117024   3.606   4.549  16.297  0.4879 -0.3190  0.5130
 1855SOL    HW217025   3.660   4.683  16.250  1.8776  0.1278 -0.1656
 1856SOL     OW17026   1.905   1.066  16.952 -0.6114  0.1176 -0.4005
 1856SOL    HW117027   1.821   1.022  16.963 -1.3886  1.7788  0.2814
 1856SOL    HW217028   1.942   1.014  16.880  0.6402 -0.8586  0.9437
 1857SOL     OW17029   0.257   4.343  14.341  0.8387  0.1268  0.2882
 1857SOL    HW117030   0.257   4.254  14.306  1.2457  0.3620 -0.3228
 1857SOL    HW217031   0.325   4.336  14.408  0.1838 -0.0112  0.9321
 1858SOL     OW17032   3.403   2.754   3.809 -0.8391  0.1715  0.7045
 1858SOL    HW117033   3.471   2.818   3.831  1.3357 -2.5888  1.8861
 1858SOL    HW217034   3.442   2.676   3.848 -0.5376 -0.8087 -1.5685
 1859SOL     OW17035   3.244   0.001   2.332 -0.0182 -0.3606  0.0652
 1859SOL    HW117036   3.283   4.644   2.365 -0.0540  0.0606  1.1511
 1859SOL    HW217037   3.159   4.690   2.304  0.0370 -1.9482  1.8216
 1860SOL     OW17038   1.752   3.764   7.777 -0.2056  0.0496  0.0348
 1860SOL    HW117039   1.723   3.853   7.758  0.5337  0.3223  0.1847
 1860SOL    HW217040   1.846   3.783   7.782 -0.3127  0.3267  0.9744
 1861SOL     OW17041   3.331   2.031   8.888 -0.0203  1.1005 -0.3012
 1861SOL    HW117042   3.262   2.097   8.889  0.3528  1.4765  0.5331
 1861SOL    HW217043   3.406   2.078   8.849  2.8618 -2.5665  0.8609
 1862SOL     OW17044   1.713   2.013   0.725  0.3182 -0.0217 -0.0879
 1862SOL    HW117045   1.796   2.051   0.697  0.8005 -2.2990 -1.7500
 1862SOL    HW217046   1.735   1.921   0.739  1.0523  0.2488  0.5327
 1863SOL     OW17047   3.384   4.302   1.078 -0.6214  0.1253 -0.1866
 1863SOL    HW117048   3.466   4.306   1.127 -0.2390 -0.2307 -0.8101
 1863SOL    HW217049   3.436   4.301   0.998 -0.5530  1.2730 -0.1593
 1864SOL     OW17050   1.852   0.936   2.755  0.1830 -0.4168  0.3433
 1864SOL    HW117051   1.881   0.996   2.687 -0.2349  1.0116  1.4110
 1864SOL    HW217052   1.875   0.858   2.705 -0.9422 -0.9467  0.6461
 1865SOL     OW17053   1.748   3.072   7.391  0.0892  0.5734 -0.0215
 1865SOL    HW117054   1.691   3.104   7.321 -1.9628 -1.2265  0.8394
 1865SOL    HW217055   1.727   3.142   7.452 -2.1990  0.6178 -0.8804
 1866SOL     OW17056   1.542   4.093  15.353 -0.6534 -0.2544 -0.4461
 1866SOL    HW117057   1.551   4.171  15.299 -2.2392 -0.0070 -0.3722
 1866SOL    HW217058   1.498   4.038  15.288  1.7448 -1.7415 -0.8249
 1867SOL     OW17059   2.557   3.083   2.781  0.0232 -0.5774 -0.0156
 1867SOL    HW117060   2.622   3.108   2.846  1.1385  1.3885 -1.8913
 1867SOL    HW217061   2.507   3.015   2.826  0.0635 -0.6032 -0.0095
 1868SOL     OW17062   1.924   1.564   4.710  0.4311  0.0761  0.6467
 1868SOL    HW117063   1.829   1.549   4.705 -0.0908  3.3988  0.5369
 1868SOL    HW217064   1.936   1.647   4.664 -2.3225 -0.1175 -0.4639
 1869SOL     OW17065   0.443   3.021   8.789 -0.4118 -0.0424  0.0282
 1869SOL    HW117066   0.373   2.956   8.796 -1.8450  1.0663 -4.1315
 1869SOL    HW217067   0.507   2.973   8.842 -0.0939 -0.7264 -0.9591
 1870SOL     OW17068   2.648   4.706   3.980 -0.0686 -0.5434 -0.0020
 1870SOL    HW117069   2.646   0.072   4.014  0.1281 -0.0836 -1.2169
 1870SOL    HW217070   2.740   4.701   3.952  1.4619  0.0701  4.9173
 1871SOL     OW17071   1.729   3.587   1.248 -0.2204 -0.1070 -0.1005
 1871SOL    HW117072   1.674   3.646   1.196 -1.0687 -2.3797 -1.7736
 1871SOL    HW217073   1.804   3.601   1.190 -0.3403  0.0940 -0.2054
 1872SOL     OW17074   2.777   2.137  14.035 -0.2592 -0.2219 -0.3720
 1872SOL    HW117075   2.855   2.097  14.075  0.2987 -0.0267 -1.2633
 1872SOL    HW217076   2.818   2.161  13.952  0.6996  0.9900  0.4680
 1873SOL     OW17077   2.050   2.906   3.009  0.6104 -0.1228 -0.0800
 1873SOL    HW117078   2.089   2.965   2.944  1.0503  0.7340  0.9623
 1873SOL    HW217079   1.956   2.916   2.995  0.6695  0.3793 -0.1308
 1874SOL     OW17080   2.328   1.943  13.744 -0.1197  0.7822  0.1907
 1874SOL    HW117081   2.341   1.991  13.662 -0.8225 -0.9508 -0.9425
 1874SOL    HW217082   2.394   1.983  13.801  1.0148 -3.3305  1.8005
 1875SOL     OW17083   3.248   1.653  13.474  0.1737 -0.4360 -0.2238
 1875SOL    HW117084   3.156   1.677  13.485 -0.1866 -1.4010 -1.0694
 1875SOL    HW217085   3.251   1.580  13.536  3.5835  0.4499  0.6740
 1876SOL     OW17086   0.889   4.041   9.023 -0.3773 -0.4314 -0.3930
 1876SOL    HW117087   0.843   4.032   8.939 -0.5052 -1.0951 -0.2507
 1876SOL    HW217088   0.812   4.026   9.078  0.3898  0.0155  0.8025
 1877SOL     OW17089   1.081   4.714   4.996  0.0404 -0.0200  0.0045
 1877SOL    HW117090   1.031   4.638   5.027  0.7316 -0.1445  0.8402
 1877SOL    HW217091   1.158   4.676   4.954 -0.1975  1.3018 -1.5924
 1878SOL     OW17092   1.237   0.007   7.007  0.2767 -0.2870 -0.8101
 1878SOL    HW117093   1.309   4.670   6.989  1.6427  0.9114  0.6311
 1878SOL    HW217094   1.189   4.675   7.068 -0.9686 -0.7617 -2.2419
 1879SOL     OW17095   3.726   1.944   7.094 -0.6332  0.3103 -0.0935
 1879SOL    HW117096   3.805   1.989   7.124 -0.1352 -0.0366 -0.8792
 1879SOL    HW217097   3.712   1.876   7.160 -2.2350  0.0001 -0.7629
 1880SOL     OW17098   2.279   0.770   3.579  0.6173 -0.5578  0.3898
 1880SOL    HW117099   2.363   0.725   3.576  0.6186 -0.5649  0.5854
 1880SOL    HW217100   2.290   0.849   3.525 -0.2439  0.1786  1.3134
 1881SOL     OW17101   2.294   4.350  17.582 -0.4633  0.2038 -0.3277
 1881SOL    HW117102   2.205   4.333  17.612 -0.1448 -0.8716  0.0005
 1881SOL    HW217103   2.319   4.411  17.651  2.3117 -1.5493  0.2237
 1882SOL     OW17104   3.099   3.307   9.343  0.2741  0.1243 -0.3594
 1882SOL    HW117105   3.106   3.239   9.410  2.7612 -0.3014 -1.0529
 1882SOL    HW217106   3.145   3.373   9.396 -3.0790 -0.0354  2.7281
 1883SOL     OW17107   2.097   3.211  11.888  0.2239 -0.1481 -0.1195
 1883SOL    HW117108   2.182   3.178  11.860 -0.7184 -0.1492 -2.9615
 1883SOL    HW217109   2.093   3.304  11.866 -0.7844  0.4340  2.5260
 1884SOL     OW17110   1.667   2.275   5.935  0.1624  0.1493 -0.1084
 1884SOL    HW117111   1.628   2.209   5.993 -0.3348  0.1788 -0.4150
 1884SOL    HW217112   1.752   2.295   5.976 -0.0889  0.5626  0.2106
 1885SOL     OW17113   3.413   2.197   6.173 -0.3392 -0.3859 -0.1290
 1885SOL    HW117114   3.450   2.216   6.259  0.6705  1.5984 -0.9894
 1885SOL    HW217115   3.495   2.179   6.128 -0.6707  0.6177 -1.1296
 1886SOL     OW17116   2.196   2.467   3.087  0.4006  0.8141  0.4704
 1886SOL    HW117117   2.103   2.480   3.068  0.5986  0.9035 -0.4289
 1886SOL    HW217118   2.201   2.458   3.182 -1.1018 -4.1221  0.0944
 1887SOL     OW17119   2.559   0.766   5.754 -0.9806 -0.5371 -0.1633
 1887SOL    HW117120   2.632   0.755   5.694 -1.2675 -0.0097 -0.6099
 1887SOL    HW217121   2.574   0.696   5.818 -0.3821 -1.9120 -1.8204
 1888SOL     OW17122   3.872   3.988   3.842 -0.6482 -0.0063 -0.3536
 1888SOL    HW117123   3.878   3.894   3.856  0.6691  0.1831  0.4156
 1888SOL    HW217124   3.875   4.011   3.935  2.3878  3.1862 -1.2133
 1889SOL     OW17125   0.951   3.451  14.791 -0.4800 -0.4315 -0.1865
 1889SOL    HW117126   0.953   3.467  14.697 -0.9071 -0.9381 -0.2818
 1889SOL    HW217127   0.916   3.362  14.799 -1.3188  0.0153  1.0231
 1890SOL     OW17128   4.328   4.705  10.286  0.0458 -0.5366  0.0767
 1890SOL    HW117129   4.336   0.021  10.373 -3.5212 -1.9021  1.0271
 1890SOL    HW217130   4.267   0.039  10.241 -0.1538 -0.8272 -0.0247
 1891SOL     OW17131   4.389   3.243   9.062  0.4514 -0.0738 -0.6065
 1891SOL    HW117132   4.398   3.184   8.987 -0.2735 -0.9422 -0.0023
 1891SOL    HW217133   4.471   3.232   9.110 -1.0556 -0.2449  1.9175
 1892SOL     OW17134   2.715   2.051  10.009 -0.4743 -0.0241 -0.5512
 1892SOL    HW117135   2.675   1.992   9.945  4.6639 -0.0034 -3.7698
 1892SOL    HW217136   2.749   1.996  10.080  0.5691 -2.3506 -2.8749
 1893SOL     OW17137   0.286   4.242   9.771 -0.5995  0.2068  0.8066
 1893SOL    HW117138   0.306   4.154   9.739 -1.2705 -0.1974  1.4974
 1893SOL    HW217139   0.361   4.289   9.734 -2.4585  1.6600 -1.0893
 1894SOL     OW17140   2.230   2.916   7.377  0.1968 -0.3806 -0.9494
 1894SOL    HW117141   2.170   2.925   7.303  1.7369 -1.5843 -2.3341
 1894SOL    HW217142   2.318   2.918   7.340  0.6662 -1.5607  0.1151
 1895SOL     OW17143   3.758   0.684   1.222  0.6296 -0.0246  0.1041
 1895SOL    HW117144   3.826   0.620   1.245  0.0505 -1.1372 -1.2937
 1895SOL    HW217145   3.700   0.633   1.165 -0.2256 -0.2461  1.1588
 1896SOL     OW17146   0.209   4.617  14.270 -0.7922 -0.0205 -0.3365
 1896SOL    HW117147   0.122   4.634  14.234 -0.4949  0.2883 -0.9106
 1896SOL    HW217148   0.195   4.524  14.290 -1.3009  0.1421  0.0687
 1897SOL     OW17149   1.416   2.356  15.824  0.4235 -0.4756  0.5371
 1897SOL    HW117150   1.475   2.417  15.869  0.4777  0.2999 -0.6040
 1897SOL    HW217151   1.438   2.351  15.731  0.5538  0.1923  0.5378
 1898SOL     OW17152   1.539   4.107   4.282 -0.1706  0.4948  0.2793
 1898SOL    HW117153   1.493   4.095   4.364  1.4008 -0.6698  0.9775
 1898SOL    HW217154   1.578   4.020   4.276  2.9298  1.8654  0.3522
 1899SOL     OW17155   4.304   3.876   5.339 -0.0085 -0.3546  0.1288
 1899SOL    HW117156   4.252   3.955   5.324 -0.1989 -0.4176  0.4579
 1899SOL    HW217157   4.251   3.828   5.402  0.1383 -0.6055  0.0589
 1900SOL     OW17158   1.949   0.409   3.263  0.0607  0.3889  0.1677
 1900SOL    HW117159   1.993   0.452   3.189  0.3250  1.9874  1.2577
 1900SOL    HW217160   2.015   0.358   3.311 -0.5200  0.2646  0.8254
 1901SOL     OW17161   1.056   1.755   8.923 -0.7778 -0.0617  0.1571
 1901SOL    HW117162   1.033   1.791   8.837 -2.8497  0.8528  1.1013
 1901SOL    HW217163   0.988   1.782   8.984 -1.2684 -1.7628  0.3447
 1902SOL     OW17164   4.522   1.865  16.185  0.0546 -0.0750  0.4373
 1902SOL    HW117165   4.470   1.837  16.261 -0.8658  1.9887  0.5781
 1902SOL    HW217166   4.485   1.951  16.166 -1.6490 -0.9173 -0.0424
 1903SOL     OW17167   0.152   2.131  11.145  0.5122  0.2134 -0.3586
 1903SOL    HW117168   0.117   2.142  11.056  0.8412 -0.2036 -0.5372
 1903SOL    HW217169   0.157   2.224  11.163 -3.1973  0.4767 -0.5943
 1904SOL     OW17170   0.785   2.181   6.444 -0.1518  0.0161 -0.9235
 1904SOL    HW117171   0.825   2.095   6.456 -0.4291 -0.0227 -0.2660
 1904SOL    HW217172   0.821   2.214   6.362  1.4838 -0.1963 -0.2738
 1905SOL     OW17173   3.799   0.266   3.051  0.6127 -0.0416  0.2489
 1905SOL    HW117174   3.861   0.221   2.993  0.1809 -2.2948  1.5303
 1905SOL    HW217175   3.746   0.316   2.990  0.2754 -1.9426 -1.0153
 1906SOL     OW17176   0.415   3.180   4.437  0.1194  0.0824 -0.6710
 1906SOL    HW117177   0.396   3.267   4.401  2.3777  0.2381 -1.4881
 1906SOL    HW217178   0.486   3.211   4.494  0.1758 -2.0598  0.4147
 1907SOL     OW17179   1.040   2.488   8.384  0.0705  0.1239  0.4923
 1907SOL    HW117180   1.015   2.430   8.456 -1.2637  1.4674  1.1141
 1907SOL    HW217181   0.993   2.569   8.402 -0.8339 -1.0662  3.4830
 1908SOL     OW17182   4.601   1.124   3.904  0.1897  0.0373 -0.2219
 1908SOL    HW117183   4.666   1.192   3.921  1.2242 -1.1414  0.5379
 1908SOL    HW217184   4.631   1.082   3.823  0.3916 -0.3460  0.0476
 1909SOL     OW17185   1.952   2.968   9.005  0.4197 -0.4104 -0.1008
 1909SOL    HW117186   1.862   2.999   9.013  0.2808 -0.2313 -2.3325
 1909SOL    HW217187   1.996   2.986   9.088  0.1017  0.9377 -0.2199
 1910SOL     OW17188   3.311   3.398   4.852 -0.2803 -0.3651  0.2760
 1910SOL    HW117189   3.395   3.396   4.808  0.2491 -0.5221  1.3045
 1910SOL    HW217190   3.322   3.450   4.932  0.7541 -0.4294  0.1659
 1911SOL     OW17191   1.902   0.054  13.171 -0.3682  0.5908 -0.0076
 1911SOL    HW117192   1.967   0.101  13.223 -0.6062  0.0240  0.7938
 1911SOL    HW217193   1.877   4.713  13.237 -3.0722  0.5790 -1.0618
 1912SOL     OW17194   1.870   2.120  13.771  0.0659  0.1425  0.0989
 1912SOL    HW117195   1.913   2.201  13.743 -0.5696  0.4420  0.0077
 1912SOL    HW217196   1.874   2.068  13.691 -1.4310  0.9570 -0.4912
 1913SOL     OW17197   2.821   1.041  16.080  0.4799 -0.4336 -0.4822
 1913SOL    HW117198   2.751   1.096  16.115 -0.0050 -0.3305 -1.5911
 1913SOL    HW217199   2.780   0.955  16.083 -0.6400  0.1108 -0.2216
 1914SOL     OW17200   4.194   1.007   7.885  0.4693 -0.7001 -0.4025
 1914SOL    HW117201   4.167   0.978   7.798  1.6551 -0.7045 -0.7658
 1914SOL    HW217202   4.128   1.074   7.898  1.8165  0.6294 -0.4225
 1915SOL     OW17203   3.594   2.290  17.574 -0.2117  0.0938 -0.6351
 1915SOL    HW117204   3.541   2.266  17.650 -0.0212 -0.0901 -0.5593
 1915SOL    HW217205   3.677   2.246  17.593 -0.0892  0.1160 -1.1307
 1916SOL     OW17206   2.915   0.375   5.811 -0.3009  0.0508  0.0096
 1916SOL    HW117207   2.936   0.400   5.901 -0.6868 -0.6943  0.3021
 1916SOL    HW217208   2.961   0.292   5.802  1.9120  1.4918 -2.0597
 1917SOL     OW17209   0.341   2.949   3.194 -0.0331  0.2113  1.0989
 1917SOL    HW117210   0.323   3.039   3.222 -2.6245  0.0554 -0.0917
 1917SOL    HW217211   0.419   2.924   3.244 -0.2914  0.0628  1.4283
 1918SOL     OW17212   1.758   3.496   6.472  0.4532  0.9244  0.2851
 1918SOL    HW117213   1.752   3.405   6.501  2.7092  1.0158  1.0800
 1918SOL    HW217214   1.795   3.538   6.550  1.6045  0.2936  0.0676
 1919SOL     OW17215   4.305   3.918   4.338 -0.1096  0.1145  0.4955
 1919SOL    HW117216   4.271   3.882   4.257 -0.1438  1.2946 -0.0241
 1919SOL    HW217217   4.220   3.904   4.379 -0.0280  1.2528  1.0830
 1920SOL     OW17218   1.684   0.698   1.863 -0.3250 -0.0260  0.3661
 1920SOL    HW117219   1.608   0.708   1.921 -1.2398 -1.0278 -0.6784
 1920SOL    HW217220   1.643   0.680   1.779  2.3021 -1.5826 -0.5582
 1921SOL     OW17221   3.529   1.190   6.240  0.8237  0.1797 -0.2016
 1921SOL    HW117222   3.589   1.123   6.274 -0.4826 -0.8393  0.0935
 1921SOL    HW217223   3.511   1.238   6.322 -0.7691 -1.2172  0.2564
 1922SOL     OW17224   3.932   1.643  10.858 -0.2284 -0.2296 -0.2604
 1922SOL    HW117225   3.933   1.731  10.820  1.5996  0.3155  1.0165
 1922SOL    HW217226   4.012   1.601  10.824  1.1978  1.4959  0.9586
 1923SOL     OW17227   3.471   2.091   6.955  0.0741 -0.8735 -0.1790
 1923SOL    HW117228   3.421   2.107   7.035 -0.7286 -1.1359 -0.6289
 1923SOL    HW217229   3.533   2.162   6.942 -0.4475 -0.4049 -0.1491
 1924SOL     OW17230   2.183   4.207   7.036  0.2016  0.1076 -0.1841
 1924SOL    HW117231   2.140   4.172   7.114 -0.5692 -0.8025 -1.0143
 1924SOL    HW217232   2.268   4.164   7.037 -0.0778 -0.4639 -0.5536
 1925SOL     OW17233   1.574   2.322   2.071  0.4659  0.2349 -0.5954
 1925SOL    HW117234   1.634   2.255   2.039  0.2472  0.6489 -1.8879
 1925SOL    HW217235   1.636   2.379   2.116 -0.2218 -1.0735  2.0119
 1926SOL     OW17236   2.164   1.855   4.847  0.3773  0.6090  0.1323
 1926SOL    HW117237   2.071   1.877   4.849  0.3755  0.6937 -1.0438
 1926SOL    HW217238   2.175   1.839   4.753  0.3859  0.8059  0.1009
 1927SOL     OW17239   4.288   3.226   8.439  0.1430 -0.5156 -0.0340
 1927SOL    HW117240   4.284   3.133   8.420  0.7568 -0.9557  2.0138
 1927SOL    HW217241   4.274   3.231   8.534 -0.6677 -4.2951  0.0236
 1928SOL     OW17242   4.644   4.217  15.085 -0.4036  0.6653 -0.5597
 1928SOL    HW117243   4.663   4.184  15.172  0.4664  1.5356 -0.4263
 1928SOL    HW217244   4.713   4.282  15.078 -0.7584  1.1740  0.6946
 1929SOL     OW17245   0.124   3.235   6.928 -0.1610 -0.5716  0.0896
 1929SOL    HW117246   0.065   3.302   6.894  1.1145 -0.0431 -1.1019
 1929SOL    HW217247   0.197   3.246   6.866  0.0394 -1.1376  0.2197
 1930SOL     OW17248   3.684   3.233   5.595  0.0374  0.5496  0.1329
 1930SOL    HW117249   3.592   3.215   5.578  0.5259 -1.5473 -0.3057
 1930SOL    HW217250   3.706   3.144   5.621 -2.1226 -0.1968 -0.6017
 1931SOL     OW17251   1.421   1.676   6.976 -0.2202 -0.2537 -0.2731
 1931SOL    HW117252   1.376   1.601   7.016  0.8895  0.4142  2.2446
 1931SOL    HW217253   1.419   1.643   6.886 -0.4809  0.8121 -0.6558
 1932SOL     OW17254   2.536   3.677  14.952 -0.2829 -0.5609 -0.3440
 1932SOL    HW117255   2.545   3.624  14.873 -1.5486 -2.6562  0.9209
 1932SOL    HW217256   2.589   3.619  15.006 -1.0684 -0.4037  0.5852
 1933SOL     OW17257   2.549   1.653   2.026  0.6246 -0.5831  0.0842
 1933SOL    HW117258   2.598   1.580   2.064 -0.3151 -1.4892 -0.4251
 1933SOL    HW217259   2.462   1.614   2.013  0.9000 -0.9418 -0.6391
 1934SOL     OW17260   3.034   0.973   2.882  0.3475 -0.3133 -0.0089
 1934SOL    HW117261   3.056   0.892   2.927 -0.8113  0.4228  1.8827
 1934SOL    HW217262   3.118   1.019   2.886 -1.7596  3.3962  1.8353
 1935SOL     OW17263   4.400   4.271   4.049 -0.2315 -0.1038 -0.7242
 1935SOL    HW117264   4.448   4.214   3.988 -1.0116 -2.0197  0.4741
 1935SOL    HW217265   4.375   4.344   3.992  0.8165  1.7645  1.2539
 1936SOL     OW17266   1.675   1.172   0.980 -0.0400 -0.1172  0.7628
 1936SOL    HW117267   1.689   1.095   0.925 -0.2101 -0.4119  1.1263
 1936SOL    HW217268   1.595   1.146   1.027 -0.3250  1.7423  1.2916
 1937SOL     OW17269   3.437   1.671   1.184 -0.2288 -0.1888 -0.0356
 1937SOL    HW117270   3.392   1.592   1.214  0.6992 -0.7182 -0.0499
 1937SOL    HW217271   3.446   1.645   1.093 -3.5034  1.7450 -0.9176
 1938SOL     OW17272   4.040   1.774   4.972 -0.2610 -0.1024 -0.0042
 1938SOL    HW117273   4.080   1.772   5.059 -1.6005 -1.1299  0.5919
 1938SOL    HW217274   4.012   1.866   4.969 -3.4736 -1.0130  1.2992
 1939SOL     OW17275   3.766   1.966   4.914  0.1767 -0.5858  0.5733
 1939SOL    HW117276   3.715   1.887   4.932  1.3201 -1.5208 -0.2441
 1939SOL    HW217277   3.799   1.978   5.003 -1.6375 -2.0876  1.4320
 1940SOL     OW17278   3.656   3.827  16.989 -0.0329 -1.2427 -0.1242
 1940SOL    HW117279   3.707   3.819  16.908  1.7017  0.2402  0.8330
 1940SOL    HW217280   3.678   3.747  17.038 -1.7655 -0.8892  1.2137
 1941SOL     OW17281   4.032   0.531   6.821 -0.0268  0.0045 -0.5009
 1941SOL    HW117282   4.097   0.493   6.881 -0.2908  2.9563  1.6841
 1941SOL    HW217283   3.999   0.450   6.781  0.3819 -0.0522 -0.7227
 1942SOL     OW17284   3.058   2.698   6.761 -0.1660 -0.5417 -0.1014
 1942SOL    HW117285   2.983   2.756   6.756 -0.9960 -1.6811 -0.8814
 1942SOL    HW217286   3.078   2.670   6.672  2.7603 -1.8658  0.9514
 1943SOL     OW17287   4.529   0.357   7.824  0.1272 -0.0083  1.0564
 1943SOL    HW117288   4.619   0.326   7.835  0.2528 -0.7669 -2.0384
 1943SOL    HW217289   4.526   0.444   7.863 -0.5675  1.2225 -1.7681
 1944SOL     OW17290   3.076   4.206   9.301 -0.1531  0.3614 -0.2297
 1944SOL    HW117291   3.014   4.138   9.327 -0.5862  1.3128  1.1535
 1944SOL    HW217292   3.097   4.241   9.387 -0.6774 -0.3113  0.1713
 1945SOL     OW17293   2.133   2.618   1.948  0.2130 -0.5261 -0.1686
 1945SOL    HW117294   2.112   2.544   1.892  0.6213 -0.2618 -0.6731
 1945SOL    HW217295   2.047   2.659   1.958  0.7346  1.1275 -2.3720
 1946SOL     OW17296   4.589   0.093   2.848  0.1879 -0.2438 -0.3346
 1946SOL    HW117297   4.666   0.149   2.850 -1.2101  1.7776 -2.5916
 1946SOL    HW217298   4.592   0.067   2.756 -2.0912 -1.0265 -0.1903
 1947SOL     OW17299   2.123   0.342   9.208 -0.8685  0.1053  0.3536
 1947SOL    HW117300   2.096   0.251   9.203  0.1790 -0.2362  0.9229
 1947SOL    HW217301   2.039   0.386   9.198 -0.2775  1.1443 -0.0516
 1948SOL     OW17302   3.063   2.112   2.530 -0.5215  0.4936  0.2870
 1948SOL    HW117303   3.112   2.070   2.460 -1.1196  3.5614 -1.9666
 1948SOL    HW217304   3.139   2.131   2.584 -0.4205  2.5879 -0.6021
 1949SOL     OW17305   2.469   2.453  11.410  0.2705  0.2449 -0.1296
 1949SOL    HW117306   2.456   2.385  11.477 -0.7929 -0.2331 -0.8079
 1949SOL    HW217307   2.560   2.469  11.431 -0.0230 -1.6536  2.5215
 1950SOL     OW17308   0.975   4.136   3.601  0.2100 -0.2250 -0.1014
 1950SOL    HW117309   0.935   4.051   3.621 -2.2473  1.1977  1.0111
 1950SOL    HW217310   0.951   4.191   3.675  1.4642  0.1222  0.0431
 1951SOL     OW17311   2.563   3.772   8.455 -0.0292  0.7987 -0.2405
 1951SOL    HW117312   2.574   3.678   8.469  0.8555  1.0254  0.5846
 1951SOL    HW217313   2.641   3.810   8.495  0.6474  0.6888 -1.4732
 1952SOL     OW17314   1.521   1.942   3.102  0.2668 -0.0646  0.1524
 1952SOL    HW117315   1.590   1.901   3.049  0.2884 -1.2743  1.1143
 1952SOL    HW217316   1.567   2.014   3.145 -3.0980  0.6287  2.5470
 1953SOL     OW17317   0.151   2.324  13.100  0.0118 -0.0976  0.3330
 1953SOL    HW117318   0.206   2.373  13.038 -0.6026  0.7837  0.4942
 1953SOL    HW217319   0.073   2.301  13.049  1.0861  2.5896 -2.5297
 1954SOL     OW17320   0.649   2.951  13.473  0.3019  0.1303  0.2534
 1954SOL    HW117321   0.692   2.997  13.401  0.2559  1.1831  0.9096
 1954SOL    HW217322   0.658   3.025  13.532 -1.8533 -0.9473  1.9625
 1955SOL     OW17323   2.626   2.175   6.966  0.0842  0.2642  0.0184
 1955SOL    HW117324   2.700   2.132   6.925  0.5423 -0.8264  1.9920
 1955SOL    HW217325   2.643   2.179   7.060  0.3924  0.9208 -0.0617
 1956SOL     OW17326   1.607   0.017   6.980  0.1726  0.2943 -0.1634
 1956SOL    HW117327   1.588   0.107   7.006  1.5313  0.8818 -1.1227
 1956SOL    HW217328   1.650   0.042   6.897  0.0424 -0.4467 -0.4563
 1957SOL     OW17329   1.469   3.712  17.394  0.1265 -0.3191 -0.5689
 1957SOL    HW117330   1.382   3.684  17.363 -0.6613  1.0136  0.4233
 1957SOL    HW217331   1.502   3.625  17.417 -0.3560 -0.3886 -0.1284
 1958SOL     OW17332   3.349   0.681   9.557  0.0775 -0.4639  0.0977
 1958SOL    HW117333   3.410   0.609   9.570 -0.9747 -1.1758  1.1052
 1958SOL    HW217334   3.263   0.640   9.551 -0.8019  1.2366  1.0355
 1959SOL     OW17335   2.055   4.715   8.085  0.0942  0.3469  0.4396
 1959SOL    HW117336   2.125   4.653   8.106 -0.2257  0.2222  1.1311
 1959SOL    HW217337   2.043   4.683   7.996 -1.7992  1.8269  0.1816
 1960SOL     OW17338   1.695   4.292   7.130 -0.4659 -0.5643 -0.3787
 1960SOL    HW117339   1.671   4.200   7.115 -3.8900 -0.0109  1.8176
 1960SOL    HW217340   1.614   4.312   7.176  1.3751  0.5916  2.3713
 1961SOL     OW17341   2.829   0.149   4.749  0.4071  0.0302  0.4821
 1961SOL    HW117342   2.918   0.182   4.762  0.4939  0.5999 -1.4875
 1961SOL    HW217343   2.774   0.223   4.723 -0.2283 -1.1984 -1.7383
 1962SOL     OW17344   2.302   1.310   0.264  0.0436  0.0550  0.0651
 1962SOL    HW117345   2.297   1.404   0.249  1.6619  0.0492 -0.5177
 1962SOL    HW217346   2.318   1.273   0.177  3.7455  1.3150  0.1886
 1963SOL     OW17347   0.470   4.206   3.633 -0.1223 -0.4542  0.0993
 1963SOL    HW117348   0.401   4.215   3.568 -0.0344  1.1985  0.2252
 1963SOL    HW217349   0.555   4.206   3.590  0.2615  0.9113  0.8559
 1964SOL     OW17350   4.089   2.371   8.078 -0.4467  0.6043  0.6514
 1964SOL    HW117351   4.010   2.396   8.127 -0.5201 -1.6346  1.6594
 1964SOL    HW217352   4.064   2.289   8.037 -0.2271 -0.2837  2.2981
 1965SOL     OW17353   2.070   1.055  13.634 -0.6572  0.2310  0.2647
 1965SOL    HW117354   2.049   1.006  13.554  2.6093 -0.3719 -0.2231
 1965SOL    HW217355   2.109   0.988  13.691  1.4183  2.1510  1.1058
 1966SOL     OW17356   2.022   3.886   4.747  0.4721 -0.1882 -0.1587
 1966SOL    HW117357   2.050   3.819   4.686  1.6458 -2.0641  2.4380
 1966SOL    HW217358   2.068   3.963   4.713 -2.2180  1.4065 -0.2376
 1967SOL     OW17359   1.330   2.179   4.829  0.3762 -0.2066  0.5210
 1967SOL    HW117360   1.350   2.224   4.911 -0.0074  1.8319 -0.5127
 1967SOL    HW217361   1.267   2.116   4.863  0.3205  0.2279  1.2257
 1968SOL     OW17362   2.055   0.436   1.423  0.3289  0.2249  0.3685
 1968SOL    HW117363   2.122   0.379   1.461 -1.2729 -1.0299  1.3070
 1968SOL    HW217364   1.987   0.369   1.419 -1.7989  2.2602  2.6582
 1969SOL     OW17365   4.087   2.470   8.920 -0.9545 -0.1866 -0.3476
 1969SOL    HW117366   4.075   2.377   8.938  1.2997  0.2619  3.3834
 1969SOL    HW217367   4.065   2.507   9.005  2.5332 -0.1701  0.5591
 1970SOL     OW17368   3.274   1.088  12.853  0.7524  0.3542  0.7506
 1970SOL    HW117369   3.270   1.180  12.880  0.2686  0.6551 -0.3166
 1970SOL    HW217370   3.312   1.064  12.937  0.1591 -1.2886  0.5443
 1971SOL     OW17371   1.680   2.896   9.076  0.4419 -0.0352 -0.2429
 1971SOL    HW117372   1.597   2.924   9.037  0.3180  0.7664  0.5825
 1971SOL    HW217373   1.699   2.954   9.150 -1.3602  0.8539 -0.4927
 1972SOL     OW17374   1.058   2.020   9.723 -0.4222  0.0321  0.0278
 1972SOL    HW117375   1.060   1.944   9.781  1.1587 -0.4067 -0.6199
 1972SOL    HW217376   1.087   2.080   9.792 -2.3389 -0.4342  1.2361
 1973SOL     OW17377   0.025   2.885  10.362 -0.4133 -0.4907 -0.0404
 1973SOL    HW117378   0.103   2.922  10.404 -0.1039 -0.7260 -0.4048
 1973SOL    HW217379   0.057   2.809  10.313 -1.4652  0.5135 -2.2615
 1974SOL     OW17380   0.840   2.041   2.589 -0.1127  0.9077  0.2023
 1974SOL    HW117381   0.839   1.992   2.507  0.4821  0.7908  0.2663
 1974SOL    HW217382   0.933   2.059   2.603  0.8538 -2.8673 -1.5149
 1975SOL     OW17383   0.984   0.379   9.635  0.2118  0.1132 -0.1506
 1975SOL    HW117384   0.955   0.415   9.719  2.0827 -0.0575  0.5675
 1975SOL    HW217385   1.034   0.456   9.608 -1.5317  1.9651  1.8884
 1976SOL     OW17386   2.806   4.169  17.645 -0.1623 -0.0181 -0.1240
 1976SOL    HW117387   2.898   4.176  17.672  0.7983 -3.0063 -2.5831
 1976SOL    HW217388   2.756   4.152   0.031  0.1218  0.3304  0.1253
 1977SOL     OW17389   3.562   3.475   1.661 -0.4283  0.2495 -0.0090
 1977SOL    HW117390   3.513   3.549   1.696  0.4261  1.1113 -0.6153
 1977SOL    HW217391   3.620   3.442   1.730 -2.3899  0.9831  1.9569
 1978SOL     OW17392   3.580   4.082  15.529  0.2182  0.5207  0.3701
 1978SOL    HW117393   3.491   4.094  15.564  0.1758  1.1898  0.0318
 1978SOL    HW217394   3.584   4.160  15.473  1.5360  0.0902 -0.1291
 1979SOL     OW17395   0.276   0.684   5.956 -0.2744  0.6285  0.3200
 1979SOL    HW117396   0.365   0.648   5.960  0.1587  1.7084  0.4629
 1979SOL    HW217397   0.217   0.612   5.979 -0.1808  0.0792 -1.1835
 1980SOL     OW17398   1.198   0.514   9.501  0.5346 -0.4800  0.6177
 1980SOL    HW117399   1.140   0.566   9.446  0.9032 -1.5706 -0.7988
 1980SOL    HW217400   1.286   0.523   9.464  0.5777  0.1540  0.8645
 1981SOL     OW17401   0.565   2.062   8.184 -0.4709  0.0254  0.5000
 1981SOL    HW117402   0.628   2.027   8.121 -1.8336 -1.3455 -0.1010
 1981SOL    HW217403   0.617   2.063   8.264 -0.2031  0.3016  0.3224
 1982SOL     OW17404   2.078   1.090  17.362  0.0396  0.0374  0.4084
 1982SOL    HW117405   2.157   1.066  17.313  1.0863  1.3736  1.4486
 1982SOL    HW217406   2.007   1.037  17.325  0.0944  0.8958 -0.9033
 1983SOL     OW17407   1.015   2.197   4.566 -0.1015  0.2248 -0.3417
 1983SOL    HW117408   0.997   2.261   4.635 -2.5667 -2.1031  1.2174
 1983SOL    HW217409   0.957   2.123   4.585  0.1250  0.2731  0.5556
 1984SOL     OW17410   4.239   1.592  13.469  0.0063 -0.2357 -0.2398
 1984SOL    HW117411   4.184   1.572  13.544 -0.9775 -0.8941 -1.1252
 1984SOL    HW217412   4.316   1.536  13.476 -0.2477 -0.7034 -1.1812
 1985SOL     OW17413   0.631   2.461   7.447 -0.3695 -0.2695 -0.4894
 1985SOL    HW117414   0.659   2.407   7.374 -1.9769 -3.1732  1.0316
 1985SOL    HW217415   0.634   2.551   7.416  0.1587 -0.6268 -1.4562
 1986SOL     OW17416   0.423   3.736  10.171 -0.2841 -0.1554 -0.0192
 1986SOL    HW117417   0.496   3.761  10.114  0.8976 -1.8855  0.7413
 1986SOL    HW217418   0.406   3.646  10.145  0.0655 -0.1411 -0.2945
 1987SOL     OW17419   0.470   1.153  15.022 -0.7487  0.0990 -0.2237
 1987SOL    HW117420   0.422   1.080  15.062  0.7111 -1.1201 -0.7084
 1987SOL    HW217421   0.544   1.109  14.979  0.0982  0.4823  0.8562
 1988SOL     OW17422   3.659   2.106   6.069  0.0059 -0.4656 -0.1391
 1988SOL    HW117423   3.747   2.112   6.105 -0.7856 -1.6644  1.9723
 1988SOL    HW217424   3.677   2.044   5.998  2.7408  2.0975 -1.6733
 1989SOL     OW17425   3.680   2.216   2.766 -0.0990 -0.1597 -0.0892
 1989SOL    HW117426   3.615   2.269   2.720  0.7550 -0.7037 -1.9212
 1989SOL    HW217427   3.724   2.163   2.700 -1.0804 -0.4996 -0.4632
 1990SOL     OW17428   1.369   4.169   9.996  0.5172  0.2639 -0.3157
 1990SOL    HW117429   1.292   4.204   9.952 -0.6596 -0.9661  0.7629
 1990SOL    HW217430   1.409   4.243  10.042  2.6774 -1.3914  0.4790
 1991SOL     OW17431   1.837   0.417   8.786 -0.2370  0.3662 -0.1830
 1991SOL    HW117432   1.795   0.390   8.868  0.1854  0.7766  0.1694
 1991SOL    HW217433   1.872   0.500   8.817  0.8341 -1.0089  2.2863
 1992SOL     OW17434   2.924   1.199   5.394  0.0540 -0.7564  0.2564
 1992SOL    HW117435   2.930   1.162   5.307  2.2579 -0.9566  0.5119
 1992SOL    HW217436   3.015   1.227   5.404  0.4180 -0.9781 -2.4997
 1993SOL     OW17437   1.926   4.450  11.677  0.2651 -0.3750  0.3036
 1993SOL    HW117438   1.980   4.523  11.709 -0.3639  0.5545 -0.7316
 1993SOL    HW217439   1.864   4.447  11.750 -0.0179  2.7127  0.2047
 1994SOL     OW17440   0.069   2.587   2.230  0.2223 -0.0354  0.0482
 1994SOL    HW117441   0.038   2.677   2.237 -1.0755 -0.4818  0.0670
 1994SOL    HW217442   0.157   2.597   2.266  0.4752 -2.7482  0.1863
 1995SOL     OW17443   2.778   3.274  11.216 -0.3540  0.4761 -0.0882
 1995SOL    HW117444   2.767   3.334  11.142 -0.0145  0.7162  0.0580
 1995SOL    HW217445   2.690   3.275  11.254 -0.0964 -0.0298  0.5251
 1996SOL     OW17446   4.326   1.922   8.340 -0.1592  0.4666 -0.2546
 1996SOL    HW117447   4.373   1.974   8.405  0.1875 -0.3806  0.1723
 1996SOL    HW217448   4.286   2.001   8.303  0.5984  0.6952 -0.5875
 1997SOL     OW17449   1.279   3.983   6.030 -0.5700 -0.2488 -0.3101
 1997SOL    HW117450   1.326   4.007   5.950 -2.9104  0.2914 -1.5073
 1997SOL    HW217451   1.222   4.060   6.040  0.1943  0.1489  1.1082
 1998SOL     OW17452   2.861   2.891   2.765 -0.4320 -0.6747 -0.3596
 1998SOL    HW117453   2.867   2.882   2.860  0.8569  1.0717 -0.2694
 1998SOL    HW217454   2.906   2.975   2.759 -0.6883 -0.6609 -2.0832
 1999SOL     OW17455   3.559   2.974   8.241  0.4238 -0.0927 -0.0626
 1999SOL    HW117456   3.482   3.027   8.221  0.5066 -0.5828 -1.7014
 1999SOL    HW217457   3.535   2.883   8.227 -0.2327  0.2519 -1.1672
 2000SOL     OW17458   0.132   2.111   1.101 -0.0432  0.4774  0.3081
 2000SOL    HW117459   0.043   2.144   1.089 -0.0733 -0.0923 -0.9891
 2000SOL    HW217460   0.163   2.179   1.162 -1.6060  2.3419 -0.9881
 2001SOL     OW17461   0.309   4.699   5.451  0.4047  0.0895 -0.3090
 2001SOL    HW117462   0.320   4.698   5.546 -0.2468 -0.8824 -0.2380
 2001SOL    HW217463   0.277   4.608   5.454  0.1099  0.0721 -4.0890
 2002SOL     OW17464   2.886   0.688   6.475 -0.3786 -0.4468 -0.0527
 2002SOL    HW117465   2.942   0.764   6.459  0.2049 -0.6802  0.9271
 2002SOL    HW217466   2.888   0.693   6.570 -0.1874 -2.5642  0.0325
 2003SOL     OW17467   1.812   0.749   8.537  0.1979  0.2554 -0.1108
 2003SOL    HW117468   1.879   0.813   8.512  0.8422 -0.4904 -0.2839
 2003SOL    HW217469   1.745   0.812   8.564  0.8929  0.4905  1.0911
 2004SOL     OW17470   1.479   0.283   2.286  0.6467 -0.1524  0.0058
 2004SOL    HW117471   1.509   0.285   2.195 -1.7929 -0.3743 -0.7828
 2004SOL    HW217472   1.534   0.226   2.341  0.3530 -1.1936 -0.7779
 2005SOL     OW17473   0.767   0.179  10.111 -0.1656 -0.8298  0.1360
 2005SOL    HW117474   0.855   0.181  10.073 -0.4068  0.2993 -0.3849
 2005SOL    HW217475   0.712   0.209  10.039 -1.0872  1.1119  1.6400
 2006SOL     OW17476   2.829   0.599  12.785  0.4687  0.0086  0.3818
 2006SOL    HW117477   2.806   0.535  12.717  1.1216 -0.9762  1.1055
 2006SOL    HW217478   2.828   0.682  12.737 -2.1366 -0.7440 -0.9066
 2007SOL     OW17479   2.280   2.381   8.413 -0.4715 -0.2361 -0.1956
 2007SOL    HW117480   2.185   2.386   8.402 -0.2403  2.5841 -0.8508
 2007SOL    HW217481   2.293   2.295   8.452  1.9050  0.4536  0.5291
 2008SOL     OW17482   3.972   3.926   9.713  0.1383  0.0412  0.8148
 2008SOL    HW117483   3.894   3.889   9.754  0.2041 -0.2412  0.6858
 2008SOL    HW217484   4.027   3.851   9.691 -0.5492  0.2260 -1.4914
 2009SOL     OW17485   1.785   1.509   6.651 -0.1847  0.6038  0.1762
 2009SOL    HW117486   1.730   1.568   6.601  2.2384  0.4355 -2.7173
 2009SOL    HW217487   1.798   1.562   6.730  1.0601  0.9974 -0.2898
 2010SOL     OW17488   2.493   1.000  15.951 -0.0501  0.0744  0.4130
 2010SOL    HW117489   2.535   1.080  15.922  0.0856 -0.4845 -0.9403
 2010SOL    HW217490   2.428   0.986  15.882 -1.1992  0.0385  1.4977
 2011SOL     OW17491   2.925   1.583  13.091 -0.0883  0.5768 -0.3001
 2011SOL    HW117492   2.843   1.632  13.089 -0.4324 -0.0919 -2.2620
 2011SOL    HW217493   2.903   1.502  13.136 -0.8249  1.2061  0.4638
 2012SOL     OW17494   1.673   3.344   7.463 -0.3141 -0.0626 -0.3766
 2012SOL    HW117495   1.733   3.413   7.491  2.4411 -3.1045  1.1393
 2012SOL    HW217496   1.634   3.386   7.386 -2.9853 -0.3817  0.8022
 2013SOL     OW17497   4.638   0.554  11.434  0.0249  0.1324  0.4358
 2013SOL    HW117498   4.572   0.623  11.436  0.7630  0.8301  0.7036
 2013SOL    HW217499   4.616   0.521  11.347 -0.2629  0.5619  0.3434
 2014SOL     OW17500   2.932   3.644   3.798  0.4914  0.9108  0.6595
 2014SOL    HW117501   2.932   3.664   3.704 -0.4754 -1.6867  0.0976
 2014SOL    HW217502   2.866   3.578   3.819 -0.7856  1.0931 -2.8134
 2015SOL     OW17503   0.455   2.813   5.046 -0.1321 -0.2027 -0.5516
 2015SOL    HW117504   0.469   2.848   4.958  2.0768 -1.8491 -0.8534
 2015SOL    HW217505   0.365   2.843   5.057 -0.1726 -1.6036  2.9962
 2016SOL     OW17506   2.641   1.856  14.558  0.3702 -0.0645  0.2140
 2016SOL    HW117507   2.729   1.869  14.593  0.9319 -2.4738 -0.3161
 2016SOL    HW217508   2.650   1.764  14.534  0.0245  0.2298 -1.0342
 2017SOL     OW17509   0.062   3.393   8.131 -0.4976 -0.4046 -0.1048
 2017SOL    HW117510   0.038   3.305   8.158  1.7329 -0.7367  0.8554
 2017SOL    HW217511   0.008   3.413   8.055 -0.4269 -0.2335 -0.1107
 2018SOL     OW17512   0.754   0.106   4.230 -0.2013  0.2851 -0.0245
 2018SOL    HW117513   0.801   0.023   4.240  1.4097  1.4761  2.1271
 2018SOL    HW217514   0.727   0.122   4.320 -0.5580 -2.4957  0.3855
 2019SOL     OW17515   1.681   0.943   4.908  0.2597 -0.3590 -0.1013
 2019SOL    HW117516   1.728   0.970   4.987  1.8125 -0.7693 -0.8820
 2019SOL    HW217517   1.597   0.985   4.928  1.1189  1.2045  0.2599
 2020SOL     OW17518   3.374   1.934  13.283  0.3212  0.0556  0.1013
 2020SOL    HW117519   3.448   1.978  13.240 -0.0757  0.5476 -0.0738
 2020SOL    HW217520   3.298   1.946  13.226  0.2774 -1.1069 -0.0809
 2021SOL     OW17521   1.433   1.530   2.449 -0.1765 -0.7923  0.4537
 2021SOL    HW117522   1.458   1.557   2.361 -0.1345  0.1383  0.7567
 2021SOL    HW217523   1.379   1.451   2.450 -1.8316  0.3130 -1.8279
 2022SOL     OW17524   0.485   0.769   4.481  0.3906 -0.3079  0.3291
 2022SOL    HW117525   0.535   0.825   4.541  1.5074 -1.8950  0.8923
 2022SOL    HW217526   0.542   0.711   4.430  0.2995 -1.3167  1.3737
 2023SOL     OW17527   4.680   2.986  15.290  0.0500  0.2351 -0.1918
 2023SOL    HW117528   4.700   2.898  15.259  2.7798  0.7530  0.0994
 2023SOL    HW217529   0.028   3.010  15.349 -0.5800  2.7344 -0.4255
 2024SOL     OW17530   2.359   0.497   2.525 -0.2848 -0.0359  0.0518
 2024SOL    HW117531   2.350   0.506   2.620 -1.5878 -0.8341  0.0077
 2024SOL    HW217532   2.450   0.524   2.515 -0.0619 -0.3068  1.2690
 2025SOL     OW17533   0.075   4.224   5.526  0.2537 -0.3525 -0.4905
 2025SOL    HW117534   4.714   4.267   5.541 -0.1946 -1.3232 -0.2815
 2025SOL    HW217535   0.066   4.141   5.572 -1.7747  1.2505  2.0049
 2026SOL     OW17536   2.833   3.670   8.504 -0.1336  0.4201  0.0251
 2026SOL    HW117537   2.907   3.657   8.563 -0.6298  0.8251  0.7347
 2026SOL    HW217538   2.870   3.645   8.419 -2.0259  0.5367 -0.8337
 2027SOL     OW17539   0.510   0.997   2.209  0.9249 -0.2222  0.0695
 2027SOL    HW117540   0.551   1.011   2.124  0.2199 -0.9100 -0.3774
 2027SOL    HW217541   0.578   0.937   2.240 -0.4946 -1.0078  1.6970
 2028SOL     OW17542   4.284   4.687   1.138 -0.6926  0.2896  0.3376
 2028SOL    HW117543   4.290   4.606   1.188  0.1935 -0.2017 -0.5722
 2028SOL    HW217544   4.278   0.031   1.205 -0.4487 -1.2730  1.9261
 2029SOL     OW17545   1.934   0.023   8.866 -0.9485  0.0008  0.1621
 2029SOL    HW117546   1.951   4.713   8.778 -0.7491 -1.1139  0.6188
 2029SOL    HW217547   1.849   4.712   8.895  0.1909  0.1521  3.7313
 2030SOL     OW17548   0.834   2.028   4.639 -0.5665 -0.5538 -0.4718
 2030SOL    HW117549   0.835   1.957   4.704  2.2237  0.3368  0.4808
 2030SOL    HW217550   0.769   2.003   4.574  0.7170  1.7928 -2.6569
 2031SOL     OW17551   1.426   0.549  15.254  0.2351  0.1966 -0.0246
 2031SOL    HW117552   1.454   0.501  15.332 -1.7168 -0.6760  0.1430
 2031SOL    HW217553   1.356   0.487  15.235 -1.5271  2.5089 -0.9846
 2032SOL     OW17554   4.222   4.550   9.679 -0.0984  0.2029 -0.4615
 2032SOL    HW117555   4.266   4.466   9.670  0.5214  0.6781 -1.7966
 2032SOL    HW217556   4.159   4.529   9.748 -1.1516  2.5322 -0.7021
 2033SOL     OW17557   3.364   1.633   8.261 -0.0840 -0.4564 -0.1239
 2033SOL    HW117558   3.368   1.583   8.343 -1.8035 -1.0233 -0.3826
 2033SOL    HW217559   3.458   1.629   8.246  0.0249 -0.8124  0.6253
 2034SOL     OW17560   4.490   4.008   8.157  0.3621  0.0696  0.4592
 2034SOL    HW117561   4.462   4.100   8.161 -1.6154 -0.5037 -0.5328
 2034SOL    HW217562   4.488   3.983   8.250  1.0291  0.9493  0.7109
 2035SOL     OW17563   3.327   4.624  11.064  0.0680  0.1417 -0.3097
 2035SOL    HW117564   3.382   4.678  11.008  0.7573  0.4856  0.6997
 2035SOL    HW217565   3.383   4.589  11.134  0.3895  1.8781  0.2915
 2036SOL     OW17566   0.807   4.206  17.256 -0.1542  0.4755 -0.8250
 2036SOL    HW117567   0.871   4.268  17.289  2.3249 -1.2314 -2.4559
 2036SOL    HW217568   0.760   4.258  17.191  0.8671  0.2907 -1.7055
 2037SOL     OW17569   1.581   2.272  14.868  0.0285 -0.0585 -0.1295
 2037SOL    HW117570   1.539   2.358  14.879  2.6057  1.1364  0.2089
 2037SOL    HW217571   1.663   2.305  14.832 -0.7127  0.4052 -1.3721
 2038SOL     OW17572   2.367   1.082  10.569  0.4697 -0.0762 -0.2954
 2038SOL    HW117573   2.402   1.022  10.636 -0.8430 -0.5914 -0.0698
 2038SOL    HW217574   2.422   1.160  10.576 -1.3019  1.4588 -3.3883
 2039SOL     OW17575   2.832   0.611  16.933  0.0591 -0.0077 -0.0236
 2039SOL    HW117576   2.739   0.597  16.916  0.3300 -1.3589 -0.3727
 2039SOL    HW217577   2.850   0.580  17.022  3.0607 -0.4234 -0.7656
 2040SOL     OW17578   0.261   1.359   8.785  0.2347  0.3079 -0.9505
 2040SOL    HW117579   0.242   1.431   8.845  4.9788  1.3830 -0.7852
 2040SOL    HW217580   0.351   1.346   8.814  0.1353  2.0468  0.1127
 2041SOL     OW17581   1.274   0.816  10.398  0.1727  0.2550 -0.8340
 2041SOL    HW117582   1.252   0.837  10.489  2.2625 -2.6901  0.3226
 2041SOL    HW217583   1.184   0.791  10.375  0.3733 -0.8100 -0.4340
 2042SOL     OW17584   3.683   3.630  10.764  0.6151 -0.1187  0.2061
 2042SOL    HW117585   3.701   3.647  10.857  1.4686  1.2767 -0.2190
 2042SOL    HW217586   3.702   3.536  10.757  1.2093 -0.1304  2.0524
 2043SOL     OW17587   3.278   4.555  17.196 -1.0374 -0.3235  0.3783
 2043SOL    HW117588   3.327   4.637  17.198 -0.2591 -0.8243  1.7139
 2043SOL    HW217589   3.238   4.554  17.283 -1.1335  2.7765  0.3510
 2044SOL     OW17590   3.677   1.097   7.398  0.1369  0.1448 -0.2307
 2044SOL    HW117591   3.739   1.165   7.372  0.9738 -0.1046  1.1285
 2044SOL    HW217592   3.621   1.135   7.465  0.6327  1.1112 -0.3596
 2045SOL     OW17593   0.207   0.711   9.057  0.5976 -0.0098 -0.1556
 2045SOL    HW117594   0.199   0.724   9.151 -2.3941  0.0962 -0.4232
 2045SOL    HW217595   0.229   0.793   9.012 -1.2969  0.2186 -0.6730
 2046SOL     OW17596   2.649   4.426  14.644 -0.2941 -0.2229 -0.6884
 2046SOL    HW117597   2.690   4.343  14.668  1.4845  1.0165  0.5255
 2046SOL    HW217598   2.695   4.445  14.562  2.6536 -0.1164  0.9746
 2047SOL     OW17599   3.180   4.126   2.868 -0.1838 -0.1053 -0.3427
 2047SOL    HW117600   3.256   4.171   2.830  0.3693  0.4231  1.3795
 2047SOL    HW217601   3.201   4.128   2.961 -0.3851 -0.7875 -0.2865
 2048SOL     OW17602   2.849   2.277   4.488 -0.1625 -0.0883 -0.4003
 2048SOL    HW117603   2.843   2.243   4.399  0.0778  1.2161 -0.9063
 2048SOL    HW217604   2.778   2.236   4.539 -0.2339  1.1770  0.5025
 2049SOL     OW17605   1.166   2.441   4.804 -0.1822  0.0800  0.0261
 2049SOL    HW117606   1.254   2.409   4.819 -0.1289  0.8648  1.3638
 2049SOL    HW217607   1.195   2.514   4.748  1.5498  1.6140  2.9504
 2050SOL     OW17608   0.946   4.374   4.927 -0.5222 -0.2574  0.0111
 2050SOL    HW117609   0.853   4.360   4.910 -0.4623 -0.6275 -0.0119
 2050SOL    HW217610   0.947   4.449   4.987  0.9010 -0.9827  0.9053
 2051SOL     OW17611   4.418   3.690   4.588  0.3126  0.3736  0.3380
 2051SOL    HW117612   4.352   3.759   4.582  0.3809  0.4603  0.5845
 2051SOL    HW217613   4.451   3.695   4.499 -0.8802  0.0964 -0.1310
 2052SOL     OW17614   4.040   0.574   6.177  0.1605  0.2603  0.9854
 2052SOL    HW117615   4.086   0.642   6.128  2.5135 -2.1459 -0.1651
 2052SOL    HW217616   4.082   0.503   6.127  0.6430  0.2370  1.4223
 2053SOL     OW17617   1.020   2.348   9.034  0.0548 -0.2244  0.4150
 2053SOL    HW117618   1.014   2.307   8.949  0.2421  1.0230 -0.2037
 2053SOL    HW217619   1.101   2.313   9.070  1.2772  1.7704 -0.4027
 2054SOL     OW17620   2.310   1.973   3.546  0.2227  0.5893  0.0348
 2054SOL    HW117621   2.326   2.056   3.591  0.5330  0.9334 -0.7124
 2054SOL    HW217622   2.335   1.917   3.619 -2.4984 -1.5144 -0.6463
 2055SOL     OW17623   3.762   0.273  14.775 -0.3279 -0.1325  0.6197
 2055SOL    HW117624   3.732   0.183  14.770  1.1317 -0.5779 -0.0643
 2055SOL    HW217625   3.683   0.318  14.805 -1.5534 -1.3450 -0.7877
 2056SOL     OW17626   4.037   2.100   9.256  0.4389  0.1912 -0.3523
 2056SOL    HW117627   3.986   2.104   9.337  2.6902 -1.2921  1.1215
 2056SOL    HW217628   4.017   2.013   9.222  0.5552 -0.5034  1.3836
 2057SOL     OW17629   2.438   3.010   6.589  0.1808  0.2207  0.3212
 2057SOL    HW117630   2.398   2.923   6.586  0.0771  0.2679  0.3643
 2057SOL    HW217631   2.360   3.059   6.614 -1.3122 -0.4995 -2.9343
 2058SOL     OW17632   3.352   4.465   4.151 -0.0244 -0.1725 -0.0234
 2058SOL    HW117633   3.439   4.430   4.169 -0.4131 -2.3741 -2.3436
 2058SOL    HW217634   3.302   4.391   4.116 -1.9231  0.1103  2.0707
 2059SOL     OW17635   2.523   1.542   8.436  0.1271 -0.1200 -0.1990
 2059SOL    HW117636   2.591   1.533   8.502  1.0656 -0.3357 -1.2025
 2059SOL    HW217637   2.537   1.453   8.405  2.9909  0.5532 -0.8330
 2060SOL     OW17638   3.745   3.709   7.131  0.3283 -0.4451  0.1430
 2060SOL    HW117639   3.831   3.671   7.111  0.7792  1.3494 -1.3882
 2060SOL    HW217640   3.772   3.796   7.161  1.9168 -0.2925 -1.6660
 2061SOL     OW17641   2.331   1.385   7.764 -0.4921  0.0128  0.3036
 2061SOL    HW117642   2.248   1.350   7.732  0.1100 -0.4247 -0.7778
 2061SOL    HW217643   2.381   1.303   7.768  2.8649  2.0696  0.7053
 2062SOL     OW17644   4.323   2.671   9.329 -0.2878  0.4472 -0.5006
 2062SOL    HW117645   4.387   2.627   9.273  1.0685 -1.7117  2.7446
 2062SOL    HW217646   4.276   2.606   9.381  0.6890 -0.1441 -0.3701
 2063SOL     OW17647   0.196   1.854   1.142 -0.2651  0.4316 -0.8461
 2063SOL    HW117648   0.158   1.939   1.119 -1.2343  0.3087  0.2917
 2063SOL    HW217649   0.149   1.798   1.080 -0.0731  0.0033 -0.6084
 2064SOL     OW17650   3.209   1.771   4.985 -0.2355 -0.1366 -0.0287
 2064SOL    HW117651   3.128   1.733   5.019  0.5380  0.6796  2.7133
 2064SOL    HW217652   3.212   1.731   4.898 -1.7589  0.3560 -0.3136
 2065SOL     OW17653   0.393   1.426  12.237  0.0176  0.0416  0.8201
 2065SOL    HW117654   0.399   1.343  12.190  2.9507 -1.5135  3.9393
 2065SOL    HW217655   0.394   1.400  12.329  0.5195 -0.3306  0.7096
 2066SOL     OW17656   0.449   1.055   7.386  0.0739  0.2061  0.0133
 2066SOL    HW117657   0.376   1.038   7.445  0.6395  2.1594  1.2762
 2066SOL    HW217658   0.483   0.966   7.374 -0.1898  0.2348 -0.9448
 2067SOL     OW17659   4.222   3.999   2.242  0.5140 -0.0404 -0.2577
 2067SOL    HW117660   4.152   3.934   2.243 -1.4374  2.0438  0.7283
 2067SOL    HW217661   4.222   4.009   2.147 -0.9243 -1.4229 -0.4042
 2068SOL     OW17662   2.888   4.665   3.860 -0.2003  0.2430 -0.5906
 2068SOL    HW117663   2.882   0.013   3.797 -0.0742  0.0277 -0.8428
 2068SOL    HW217664   2.971   4.690   3.900 -1.4506  0.6838  1.7775
 2069SOL     OW17665   3.562   3.212  10.173 -0.2808  0.2274  0.4651
 2069SOL    HW117666   3.634   3.150  10.168 -1.1245 -0.7355  0.1180
 2069SOL    HW217667   3.594   3.282  10.117 -0.7131  0.0134 -0.0588
 2070SOL     OW17668   1.322   4.625   0.723  0.1996  0.1513 -0.1234
 2070SOL    HW117669   1.312   4.567   0.648 -2.0595 -0.2994  0.5243
 2070SOL    HW217670   1.268   4.700   0.696 -1.4742 -0.9329  0.2106
 2071SOL     OW17671   1.919   2.826   2.047  0.2225 -0.4278 -0.6905
 2071SOL    HW117672   1.971   2.906   2.048  0.4778 -0.6000 -0.1593
 2071SOL    HW217673   1.904   2.814   2.141 -1.1458  1.4190 -0.6680
 2072SOL     OW17674   3.386   1.382   7.468 -0.4045  0.3579  0.0207
 2072SOL    HW117675   3.397   1.474   7.493 -0.1875 -0.2243  2.0307
 2072SOL    HW217676   3.444   1.345   7.535 -1.1607 -1.2684 -0.2393
 2073SOL     OW17677   4.432   1.271   6.666  0.1998  0.3655 -0.4119
 2073SOL    HW117678   4.483   1.339   6.710 -0.2650  0.2399  0.3110
 2073SOL    HW217679   4.385   1.331   6.608 -1.9973 -1.7113 -0.7394
 2074SOL     OW17680   4.003   3.790   8.708 -0.1962  0.7488  0.0897
 2074SOL    HW117681   3.971   3.878   8.691  0.1517  0.3321 -2.6873
 2074SOL    HW217682   4.093   3.817   8.726 -0.3772  1.5803 -0.2719
 2075SOL     OW17683   1.375   1.866   0.804  0.8755 -0.2285 -0.6118
 2075SOL    HW117684   1.430   1.913   0.866 -2.6677 -0.5003  2.7328
 2075SOL    HW217685   1.315   1.936   0.777 -2.2270 -2.0578  1.5134
 2076SOL     OW17686   2.204   2.759  15.158  0.0952 -0.0536 -0.1540
 2076SOL    HW117687   2.253   2.740  15.238 -0.1234  0.0662  0.0095
 2076SOL    HW217688   2.227   2.684  15.103 -0.6118  0.2545 -0.8758
 2077SOL     OW17689   1.256   0.835   9.926 -0.1815 -0.1233  0.4637
 2077SOL    HW117690   1.206   0.808   9.849  0.2572  3.2207 -1.0065
 2077SOL    HW217691   1.235   0.760   9.982 -0.4439 -0.9022 -0.6828
 2078SOL     OW17692   4.694   4.467   6.818 -0.2598  0.2340  0.1460
 2078SOL    HW117693   0.001   4.475   6.727  1.5461 -1.6932  0.5724
 2078SOL    HW217694   4.611   4.513   6.804 -0.0255  0.7315  0.4093
 2079SOL     OW17695   0.388   3.561   4.866 -0.7525  0.3259 -0.0234
 2079SOL    HW117696   0.367   3.533   4.777  0.4551 -1.1939  0.1673
 2079SOL    HW217697   0.408   3.653   4.851 -1.4837  0.3660 -0.7517
 2080SOL     OW17698   1.224   4.169   0.300  0.3079 -0.0879 -0.2695
 2080SOL    HW117699   1.172   4.201   0.374 -0.3302  2.0012 -1.5962
 2080SOL    HW217700   1.161   4.164   0.228 -0.2292  1.5051  0.0854
 2081SOL     OW17701   1.311   3.228   2.340  0.4065  0.0850 -0.1617
 2081SOL    HW117702   1.236   3.260   2.390  0.6187 -0.2092  0.3530
 2081SOL    HW217703   1.275   3.231   2.252  0.0774 -0.4322 -0.0496
 2082SOL     OW17704   1.976   4.424  11.403 -0.5891 -0.6076  0.0729
 2082SOL    HW117705   2.072   4.422  11.410 -0.6836 -0.3104  1.5864
 2082SOL    HW217706   1.959   4.438  11.496 -1.1535 -3.0007  0.3268
 2083SOL     OW17707   0.294   3.773   4.081  0.1925 -0.2187 -0.3707
 2083SOL    HW117708   0.376   3.734   4.051 -0.2051  0.7594 -2.6470
 2083SOL    HW217709   0.324   3.853   4.125  0.3533  0.4914 -1.7903
 2084SOL     OW17710   1.681   0.797   6.158 -0.2093  0.3786 -0.1137
 2084SOL    HW117711   1.670   0.717   6.107 -2.2410 -0.4315  1.6023
 2084SOL    HW217712   1.633   0.858   6.102 -1.5244 -2.4215 -2.0432
 2085SOL     OW17713   4.679   1.319   3.293  0.0929 -0.0433  0.1126
 2085SOL    HW117714   4.691   1.260   3.368  1.6855  1.8059  1.3166
 2085SOL    HW217715   4.613   1.278   3.238  0.0312  0.9051 -0.5259
 2086SOL     OW17716   3.266   2.845   7.834  0.0487 -0.1795  0.0261
 2086SOL    HW117717   3.276   2.902   7.758 -0.6038 -0.7914 -0.5093
 2086SOL    HW217718   3.355   2.814   7.850  0.0035 -0.3167  0.0073
 2087SOL     OW17719   0.758   3.928   3.677  0.3368  0.0481  0.4642
 2087SOL    HW117720   0.760   3.931   3.581 -2.6671 -4.5023  0.3021
 2087SOL    HW217721   0.664   3.921   3.692  0.6445 -2.0772  1.2942
 2088SOL     OW17722   0.341   0.466  11.050  0.1661 -0.4256  0.4051
 2088SOL    HW117723   0.255   0.430  11.073 -1.1087  2.3603  0.0953
 2088SOL    HW217724   0.398   0.440  11.122  1.4858 -1.3949 -0.9916
 2089SOL     OW17725   2.917   2.965  12.647 -0.1528  0.0835  1.0208
 2089SOL    HW117726   2.944   3.052  12.616 -0.4215 -0.3756 -0.5312
 2089SOL    HW217727   2.838   2.997  12.691 -0.9487  0.4264 -0.6305
 2090SOL     OW17728   2.089   4.644   0.876 -0.1534  0.5000  0.2329
 2090SOL    HW117729   2.017   4.697   0.909 -0.9072 -1.3169  1.4458
 2090SOL    HW217730   2.170   4.690   0.899  0.9982 -0.8931 -1.0432
 2091SOL     OW17731   2.965   2.791   4.932  0.2559 -0.1473  0.0964
 2091SOL    HW117732   2.914   2.869   4.908 -0.4867 -0.2098  1.5097
 2091SOL    HW217733   2.989   2.771   4.841 -0.4268 -2.0910  0.3467
 2092SOL     OW17734   2.257   3.813   5.345 -0.5364 -0.4107  0.0830
 2092SOL    HW117735   2.341   3.775   5.373  0.4666  1.2647 -0.6059
 2092SOL    HW217736   2.206   3.801   5.425 -1.4435  0.2535 -0.3963
 2093SOL     OW17737   1.400   1.991   5.260  0.3180  0.0062  0.7363
 2093SOL    HW117738   1.383   1.963   5.350 -1.1189  0.3525  0.5680
 2093SOL    HW217739   1.320   2.033   5.227  2.3116  2.7008 -0.6055
 2094SOL     OW17740   4.472   2.953  14.877 -0.4531 -0.3346 -0.1536
 2094SOL    HW117741   4.432   3.031  14.914 -2.5805 -1.4142 -0.1450
 2094SOL    HW217742   4.506   2.920  14.960  0.7119 -1.1071 -0.9496
 2095SOL     OW17743   1.307   1.005  10.212 -0.6051 -0.0312  0.3203
 2095SOL    HW117744   1.303   0.939  10.281 -2.1132 -0.4675 -0.2081
 2095SOL    HW217745   1.298   0.947  10.137 -1.0143  1.6390 -0.9359
 2096SOL     OW17746   0.971   3.467   2.678 -0.6907  0.2428  0.2720
 2096SOL    HW117747   0.900   3.411   2.709 -0.5844  0.4066  0.8167
 2096SOL    HW217748   0.920   3.533   2.630 -0.6048  1.3253  1.6666
 2097SOL     OW17749   1.693   1.592   7.928 -0.1132 -0.3085  0.3358
 2097SOL    HW117750   1.667   1.569   7.839  0.0572  1.1439 -0.0969
 2097SOL    HW217751   1.691   1.688   7.921 -0.0354 -0.3535 -0.2669
 2098SOL     OW17752   0.678   3.039  15.444 -0.6263  0.0946 -0.3654
 2098SOL    HW117753   0.755   2.998  15.405  1.2697  2.2034  1.1905
 2098SOL    HW217754   0.696   3.030  15.537 -0.0541 -0.5490 -0.5397
 2099SOL     OW17755   2.583   4.502   8.580 -0.0568  0.0507 -0.1562
 2099SOL    HW117756   2.666   4.545   8.599  0.3954 -0.3400 -1.2479
 2099SOL    HW217757   2.538   4.549   8.509 -0.8357 -1.9054 -0.9636
 2100SOL     OW17758   1.323   2.342   5.943 -0.0269 -0.2718 -0.4876
 2100SOL    HW117759   1.271   2.274   5.899 -1.4154  0.4708  0.0323
 2100SOL    HW217760   1.322   2.307   6.032 -1.5436  0.0519 -0.3860
 2101SOL     OW17761   2.026   4.361  14.601 -1.0619  0.1505 -0.3021
 2101SOL    HW117762   2.023   4.268  14.621 -0.9184 -0.0610 -1.2329
 2101SOL    HW217763   2.118   4.389  14.598 -1.5120  1.4638 -1.8887
 2102SOL     OW17764   2.800   4.391  12.022 -0.2654  0.1878 -0.2759
 2102SOL    HW117765   2.734   4.321  12.026 -0.2485  0.1609 -0.4652
 2102SOL    HW217766   2.875   4.351  12.065 -2.4387 -2.9921  0.5985
 2103SOL     OW17767   4.566   4.559   3.006  0.3462  0.3555  0.0080
 2103SOL    HW117768   4.558   4.641   2.956  1.8800  0.5569  0.1067
 2103SOL    HW217769   4.639   4.517   2.962 -0.4984 -1.4073  0.2928
 2104SOL     OW17770   2.982   1.611   8.889 -0.3661  0.4698  0.2908
 2104SOL    HW117771   3.062   1.657   8.915 -0.3218 -0.4462  1.7544
 2104SOL    HW217772   2.951   1.667   8.818 -0.1806  1.2851  0.8567
 2105SOL     OW17773   0.733   3.968   8.206 -0.8873  0.6681 -0.2351
 2105SOL    HW117774   0.757   3.876   8.195 -0.6253  0.9172 -1.6586
 2105SOL    HW217775   0.694   3.954   8.293  1.8498  0.8645  1.0074
 2106SOL     OW17776   1.365   3.082   5.550  0.1663 -0.2631 -0.1701
 2106SOL    HW117777   1.336   3.020   5.617  1.6892  0.1529  0.8696
 2106SOL    HW217778   1.401   3.155   5.601 -0.7709  0.6824 -0.8537
 2107SOL     OW17779   1.979   1.027   5.559  0.5172 -0.1672  0.1038
 2107SOL    HW117780   2.035   1.023   5.637 -0.3799 -1.6169  0.6733
 2107SOL    HW217781   2.038   1.064   5.493 -0.1860 -0.6452 -0.7871
 2108SOL     OW17782   4.290   0.452   4.441 -0.1779  0.0967 -0.3092
 2108SOL    HW117783   4.293   0.406   4.357  0.2587 -1.0818  0.3644
 2108SOL    HW217784   4.372   0.493   4.414  0.2386  0.8945  2.2006
 2109SOL     OW17785   0.351   4.190   6.892 -0.4396  1.0290  0.1757
 2109SOL    HW117786   0.337   4.265   6.835 -0.0095  0.2549 -0.9280
 2109SOL    HW217787   0.323   4.235   6.973 -2.7342  1.8320 -1.0574
 2110SOL     OW17788   4.020   1.783   8.679 -0.3621  0.5086  0.0868
 2110SOL    HW117789   4.013   1.782   8.584 -0.2116 -1.1824  0.0860
 2110SOL    HW217790   4.053   1.871   8.698  0.3763  0.1616  0.4538
 2111SOL     OW17791   1.860   3.720   2.671  0.6681  0.1428  0.4463
 2111SOL    HW117792   1.902   3.778   2.734 -1.9379  1.6759  0.7622
 2111SOL    HW217793   1.912   3.741   2.594 -0.9739  0.6088 -0.5457
 2112SOL     OW17794   2.091   1.480  17.452  0.2087 -0.1498 -0.0366
 2112SOL    HW117795   2.044   1.546  17.504 -2.4819 -1.3069 -0.9878
 2112SOL    HW217796   2.036   1.403  17.467  0.3232 -0.1044  0.6225
 2113SOL     OW17797   0.690   0.450   7.412  0.3413 -0.1888  0.2218
 2113SOL    HW117798   0.715   0.362   7.439 -1.2530 -0.7173 -0.0301
 2113SOL    HW217799   0.678   0.439   7.318  0.0426  1.0925  0.1075
 2114SOL     OW17800   2.250   1.461  13.562 -0.5331  0.0372 -0.0176
 2114SOL    HW117801   2.246   1.556  13.570 -2.2172  0.1121 -1.7054
 2114SOL    HW217802   2.251   1.426  13.651 -4.2965  1.4962  0.6020
 2115SOL     OW17803   4.159   3.682  12.026  0.0100 -0.4436 -0.3595
 2115SOL    HW117804   4.151   3.660  12.119  1.0297  0.9908  0.0594
 2115SOL    HW217805   4.172   3.775  12.041 -0.5834 -0.3974 -0.1206
 2116SOL     OW17806   1.790   4.347   8.457 -1.1452  0.3489  0.9086
 2116SOL    HW117807   1.786   4.385   8.369 -1.6891 -1.2481  0.2347
 2116SOL    HW217808   1.765   4.256   8.437  0.6917  0.0102  0.1556
 2117SOL     OW17809   3.341   3.699   1.582 -0.3999  0.0410  0.1644
 2117SOL    HW117810   3.329   3.669   1.672  0.2292  1.4456  0.7113
 2117SOL    HW217811   3.315   3.791   1.589  1.4368  0.6503 -0.8545
 2118SOL     OW17812   2.705   3.328   9.760  0.0029 -0.0283 -0.3790
 2118SOL    HW117813   2.661   3.413   9.767  0.3064  0.2273 -1.5458
 2118SOL    HW217814   2.750   3.332   9.845  1.1900 -1.7843 -0.9276
 2119SOL     OW17815   1.996   0.821   4.667  0.3678  0.2437 -0.0332
 2119SOL    HW117816   1.966   0.912   4.664 -0.4664 -0.0037  0.7197
 2119SOL    HW217817   1.941   0.797   4.593  1.3481 -0.6731 -0.4740
 2120SOL     OW17818   3.234   2.100  14.811  0.6434 -0.1799 -0.0598
 2120SOL    HW117819   3.320   2.093  14.853  1.1812  1.6949 -0.8786
 2120SOL    HW217820   3.202   2.177  14.859 -0.0941 -0.1390 -0.6213
 2121SOL     OW17821   1.051   0.024   2.956  0.7660 -0.1476 -0.0405
 2121SOL    HW117822   0.957   0.011   2.949  0.7453 -0.2485  0.4189
 2121SOL    HW217823   1.050   0.107   3.004  0.3144 -0.6961  0.8976
 2122SOL     OW17824   0.774   1.350   1.904 -0.6437 -0.0333  0.2273
 2122SOL    HW117825   0.817   1.272   1.869  0.5262  0.7397 -0.0393
 2122SOL    HW217826   0.818   1.420   1.856 -0.0466 -0.3105  0.3747
 2123SOL     OW17827   4.564   3.404   1.956 -0.2513  0.0414  0.1008
 2123SOL    HW117828   4.577   3.339   1.887 -0.1618 -0.1845  0.3302
 2123SOL    HW217829   4.625   3.470   1.922  0.9639 -1.6378 -0.9576
 2124SOL     OW17830   2.081   1.799   4.041 -0.0648  0.8169 -0.2507
 2124SOL    HW117831   2.046   1.801   3.952 -0.1090  1.9051 -0.2195
 2124SOL    HW217832   2.109   1.891   4.038  1.8587  0.2641  0.8883
 2125SOL     OW17833   1.879   4.309   4.449 -0.0033  0.1503  0.6953
 2125SOL    HW117834   1.786   4.306   4.469  0.0479 -1.6361  0.6712
 2125SOL    HW217835   1.901   4.399   4.471 -1.7184 -0.6101  5.4395
 2126SOL     OW17836   4.504   2.726   3.737 -0.1255 -0.1156  0.1559
 2126SOL    HW117837   4.502   2.735   3.642 -3.8202 -0.7967  0.1732
 2126SOL    HW217838   4.595   2.753   3.748 -1.4571  3.7948  1.6899
 2127SOL     OW17839   3.526   2.178   2.538  0.4669 -0.5015 -0.5926
 2127SOL    HW117840   3.604   2.123   2.533  0.1894 -0.9787  0.2731
 2127SOL    HW217841   3.503   2.180   2.445  0.7697  2.3421 -0.5981
 2128SOL     OW17842   2.706   0.863   6.384  0.5960 -0.2619 -0.2979
 2128SOL    HW117843   2.643   0.801   6.348 -0.5567 -0.3836  1.8945
 2128SOL    HW217844   2.776   0.811   6.423  0.1707  0.5647  1.6071
 2129SOL     OW17845   0.817   4.231   7.365  0.2069 -0.3035 -0.2297
 2129SOL    HW117846   0.735   4.183   7.352  0.5132 -0.9782  0.3198
 2129SOL    HW217847   0.857   4.179   7.434  1.1521  0.9676  0.1876
 2130SOL     OW17848   0.679   4.135   3.974 -0.2756  0.4142  0.5533
 2130SOL    HW117849   0.652   4.119   4.064  0.6005 -0.7606  0.6020
 2130SOL    HW217850   0.737   4.062   3.954  1.0018  1.6599 -0.3033
 2131SOL     OW17851   3.029   2.786   6.195  0.1373 -0.3329 -0.5002
 2131SOL    HW117852   2.999   2.740   6.117 -1.6423  0.1426 -0.0824
 2131SOL    HW217853   2.945   2.792   6.240 -0.6322 -0.4652 -1.9572
 2132SOL     OW17854   3.405   3.000   7.639 -0.1207 -0.1133  0.0611
 2132SOL    HW117855   3.433   3.067   7.702  1.2830 -1.5204  0.9348
 2132SOL    HW217856   3.356   3.046   7.571  2.7014  0.2670 -1.7033
 2133SOL     OW17857   3.908   0.111   7.842  0.2511 -0.6197  0.2052
 2133SOL    HW117858   3.817   0.088   7.859  0.5151 -3.6663 -2.6327
 2133SOL    HW217859   3.909   0.193   7.893 -0.8712 -0.0431 -0.7074
 2134SOL     OW17860   2.855   1.729   6.419  0.2571  0.8558 -0.6942
 2134SOL    HW117861   2.893   1.647   6.386  0.7771 -0.4062  3.0273
 2134SOL    HW217862   2.837   1.690   6.504  2.1477 -0.0577 -0.7155
 2135SOL     OW17863   1.036   1.337   4.711 -0.2888 -0.3506 -0.0730
 2135SOL    HW117864   1.001   1.267   4.656  3.5063 -0.7086 -2.0523
 2135SOL    HW217865   1.015   1.303   4.798 -0.1093  2.3889  1.0378
 2136SOL     OW17866   4.676   1.931   9.973 -0.1107  0.4295 -0.7879
 2136SOL    HW117867   0.003   2.012   9.966  0.5183  0.1784  0.8021
 2136SOL    HW217868   0.000   1.858   9.934 -0.3026  1.4562 -2.9520
 2137SOL     OW17869   2.642   3.079   0.986 -0.0193  0.2501  0.3365
 2137SOL    HW117870   2.711   3.131   1.028  0.1445  0.9074 -0.7441
 2137SOL    HW217871   2.673   3.091   0.896 -0.6313 -3.1469 -0.3122
 2138SOL     OW17872   4.634   3.957   4.568 -0.5397 -0.0698  0.1874
 2138SOL    HW117873   4.679   4.028   4.614 -1.0258  0.3335  0.0479
 2138SOL    HW217874   4.544   3.980   4.593 -0.7570 -0.2732 -0.4191
 2139SOL     OW17875   2.246   4.288   4.514 -0.0299 -0.0839 -0.1759
 2139SOL    HW117876   2.241   4.291   4.609 -0.1962  2.6069 -0.2478
 2139SOL    HW217877   2.251   4.193   4.510  1.8865 -0.0502  1.3968
 2140SOL     OW17878   2.741   1.496   8.667  0.5120 -0.5170 -0.3322
 2140SOL    HW117879   2.831   1.490   8.637  1.6381 -1.3712  3.2395
 2140SOL    HW217880   2.752   1.442   8.745 -2.6914  0.4666  0.8000
 2141SOL     OW17881   4.225   2.171   8.253 -0.1436 -0.4387 -0.1502
 2141SOL    HW117882   4.200   2.222   8.176  4.0765  0.4346 -0.9572
 2141SOL    HW217883   4.271   2.235   8.307 -3.3815  2.4156 -0.7494
 2142SOL     OW17884   4.126   2.981   8.982 -0.5715 -0.5000  0.0464
 2142SOL    HW117885   4.061   3.021   8.925 -0.4420 -1.5921 -0.8512
 2142SOL    HW217886   4.092   2.993   9.071  0.7200 -1.4549  0.6807
 2143SOL     OW17887   2.003   1.581   8.262 -0.6324  0.2081  0.0336
 2143SOL    HW117888   2.097   1.566   8.273 -0.3763  1.4106 -0.5626
 2143SOL    HW217889   1.960   1.536   8.335 -1.4267 -0.4548 -0.8301
 2144SOL     OW17890   0.209   4.600   3.240 -0.8254  0.2027  0.3928
 2144SOL    HW117891   0.138   4.557   3.287  1.3640 -2.4370  1.2841
 2144SOL    HW217892   0.243   4.526   3.190  1.5549  0.7252  1.2610
 2145SOL     OW17893   4.062   3.590  10.553  0.7289  0.1921  0.0070
 2145SOL    HW117894   4.133   3.597  10.489  1.2192  0.0892  0.5331
 2145SOL    HW217895   4.027   3.503  10.534  0.8377 -0.6035  3.4140
 2146SOL     OW17896   4.472   0.319   6.094  0.3764  0.0298  0.3931
 2146SOL    HW117897   4.412   0.376   6.046 -0.2709 -1.3697 -0.4754
 2146SOL    HW217898   4.475   0.365   6.178 -1.0003  1.7373 -0.5024
 2147SOL     OW17899   0.906   2.900   7.494 -0.0324 -0.4417 -0.7123
 2147SOL    HW117900   0.854   2.977   7.517  0.3463 -1.7773  4.7636
 2147SOL    HW217901   0.886   2.857   7.577 -0.3353 -0.4224 -0.7762
 2148SOL     OW17902   3.234   4.389   7.961  0.0207 -0.5929  0.3322
 2148SOL    HW117903   3.186   4.433   7.891  0.9212 -0.8589 -0.4508
 2148SOL    HW217904   3.261   4.313   7.909 -1.9837 -0.7383 -0.4737
 2149SOL     OW17905   1.628   1.835   2.861 -0.2874  0.0514 -0.3195
 2149SOL    HW117906   1.683   1.897   2.812  0.2743 -1.2524 -1.3375
 2149SOL    HW217907   1.679   1.754   2.853  0.7149  0.6760 -0.2543
 2150SOL     OW17908   1.371   4.439   5.775  0.0958 -0.1432  0.0545
 2150SOL    HW117909   1.338   4.363   5.728 -1.0554  0.0884  0.4804
 2150SOL    HW217910   1.401   4.490   5.701  0.4655 -2.0712 -1.1196
 2151SOL     OW17911   4.276   2.266   5.929 -0.2017  0.3781  0.0614
 2151SOL    HW117912   4.181   2.265   5.931 -0.1916  1.2900  0.7955
 2151SOL    HW217913   4.295   2.253   5.836 -1.0152  0.9761 -0.1851
 2152SOL     OW17914   4.348   2.008  15.988  0.2899 -0.0217  0.5632
 2152SOL    HW117915   4.434   2.046  15.972 -1.2351  2.5364 -1.5827
 2152SOL    HW217916   4.298   2.089  15.977  0.0521 -0.2926 -0.3347
 2153SOL     OW17917   2.638   3.689   6.613 -0.2980  0.0984 -0.6065
 2153SOL    HW117918   2.670   3.671   6.525  1.8404  1.7294 -0.1402
 2153SOL    HW217919   2.723   3.694   6.655 -0.6855  0.1745  0.1749
 2154SOL     OW17920   0.588   3.782   6.104 -0.0482  0.0944 -0.1053
 2154SOL    HW117921   0.541   3.861   6.132  0.2416 -0.9099  3.2758
 2154SOL    HW217922   0.514   3.726   6.082  1.5631 -1.1358 -2.4411
 2155SOL     OW17923   3.765   2.360  13.805 -0.0869  0.0542  0.0619
 2155SOL    HW117924   3.695   2.300  13.832 -0.5210 -0.1886 -1.5624
 2155SOL    HW217925   3.844   2.316  13.835 -1.5992 -3.0587 -0.4140
 2156SOL     OW17926   3.916   1.640   2.326 -0.2372  0.7040 -0.1111
 2156SOL    HW117927   3.823   1.631   2.345 -0.0124  0.2253  0.7510
 2156SOL    HW217928   3.910   1.688   2.243 -3.2289 -0.7614 -0.7456
 2157SOL     OW17929   2.831   2.009   9.140 -0.2337 -0.4120  0.0241
 2157SOL    HW117930   2.907   2.062   9.162 -0.0204 -0.7609  0.1313
 2157SOL    HW217931   2.790   2.062   9.072 -0.4693  0.3777  0.7829
 2158SOL     OW17932   1.567   0.447  17.353  0.1867  0.3253  0.3822
 2158SOL    HW117933   1.624   0.471  17.280 -2.5133  2.3149 -1.0312
 2158SOL    HW217934   1.611   0.496  17.423 -0.3747  1.1559  0.1593
 2159SOL     OW17935   2.874   2.495   6.575  0.6514 -0.2063 -0.1364
 2159SOL    HW117936   2.960   2.536   6.571  1.1698 -1.2142  0.8628
 2159SOL    HW217937   2.886   2.434   6.647  0.0393  0.5989  0.6482
 2160SOL     OW17938   1.312   0.236   6.525  0.9614  1.1686 -0.1144
 2160SOL    HW117939   1.217   0.247   6.520  0.4766 -2.6150  0.8418
 2160SOL    HW217940   1.326   0.209   6.616 -2.7500  0.8414  0.3835
 2161SOL     OW17941   1.457   2.819   3.422  0.4717  0.2464 -0.2520
 2161SOL    HW117942   1.493   2.738   3.456 -3.7355 -0.5749  2.2797
 2161SOL    HW217943   1.491   2.894   3.471  0.6375  1.8978 -2.8948
 2162SOL     OW17944   3.622   2.005  13.554  0.5354 -0.2815  0.7534
 2162SOL    HW117945   3.580   2.050  13.480 -0.3852 -1.8173  0.3314
 2162SOL    HW217946   3.688   2.070  13.578  0.3968  0.6921 -1.4940
 2163SOL     OW17947   2.345   1.203   3.014  0.2176 -0.1052 -0.8238
 2163SOL    HW117948   2.274   1.180   2.955 -0.5078  0.0384 -0.0063
 2163SOL    HW217949   2.420   1.178   2.960  1.0360  1.4375 -0.3745
 2164SOL     OW17950   1.075   4.101   7.282  0.5863 -0.8848 -0.2060
 2164SOL    HW117951   1.005   4.159   7.310 -0.2870 -0.9108 -2.3120
 2164SOL    HW217952   1.137   4.134   7.347  0.0779 -0.1014 -0.1193
 2165SOL     OW17953   4.538   3.297   2.474 -0.2885 -0.1282 -0.0464
 2165SOL    HW117954   4.556   3.358   2.402  1.8221 -1.5586 -0.7213
 2165SOL    HW217955   4.449   3.273   2.450 -0.3731  0.4556 -0.3248
 2166SOL     OW17956   2.020   4.280  11.941  0.0116  0.2832 -0.0209
 2166SOL    HW117957   2.106   4.292  11.900 -0.8646 -0.7423 -2.1162
 2166SOL    HW217958   2.013   4.345  12.011  1.5381  0.8088 -0.3355
 2167SOL     OW17959   1.982   1.720   8.933 -0.4040  0.4919  0.6604
 2167SOL    HW117960   2.053   1.704   8.870  0.7284 -1.1853  2.3599
 2167SOL    HW217961   2.016   1.673   9.010 -1.1114 -0.3802  0.4302
 2168SOL     OW17962   2.474   3.214  13.406  0.0559  0.3336  0.4921
 2168SOL    HW117963   2.446   3.285  13.349 -2.6842  0.0502  1.4858
 2168SOL    HW217964   2.562   3.245  13.427 -1.0777  1.4243  3.6097
 2169SOL     OW17965   3.086   3.239   5.641 -0.4867  0.0418 -0.2892
 2169SOL    HW117966   3.035   3.258   5.719 -1.4430  2.4185 -1.4813
 2169SOL    HW217967   3.059   3.153   5.611  0.9304 -0.1983 -0.9059
 2170SOL     OW17968   1.926   2.471   4.338 -0.0434 -0.6483 -0.6131
 2170SOL    HW117969   1.865   2.400   4.315 -0.2959 -0.0179 -1.9253
 2170SOL    HW217970   1.934   2.452   4.431  1.2077  1.0636 -0.3765
 2171SOL     OW17971   2.280   2.341   0.825 -0.2614 -0.3576 -0.1409
 2171SOL    HW117972   2.244   2.361   0.911 -0.0106  1.9904 -0.5640
 2171SOL    HW217973   2.368   2.321   0.855 -1.1451 -3.6607  0.2258
 2172SOL     OW17974   1.058   0.009  15.294  0.4234 -0.6736  1.1194
 2172SOL    HW117975   1.007   4.706  15.218 -0.4021  2.9993  0.3816
 2172SOL    HW217976   0.987   0.013  15.357  1.4524 -2.0477  2.3714
 2173SOL     OW17977   1.687   3.783   3.932 -0.1225  0.1403  0.1718
 2173SOL    HW117978   1.634   3.709   3.961 -0.5931  0.4304  0.0480
 2173SOL    HW217979   1.624   3.847   3.900 -0.3743  0.1911  0.7660
 2174SOL     OW17980   4.429   2.642   0.656  0.2102  0.3475 -0.5461
 2174SOL    HW117981   4.359   2.599   0.706  0.1319 -0.0693 -1.0083
 2174SOL    HW217982   4.389   2.727   0.640  2.6889  1.9881  1.9557
 2175SOL     OW17983   0.566   1.228   3.980  0.1491 -0.6008 -0.5575
 2175SOL    HW117984   0.570   1.317   3.947  1.6677 -1.1664 -1.9310
 2175SOL    HW217985   0.655   1.199   3.956  0.6451 -1.6921  2.5843
 2176SOL     OW17986   2.048   1.984   3.838  0.7206 -0.4514  0.0895
 2176SOL    HW117987   1.970   2.020   3.797  0.8199  0.1054  0.3829
 2176SOL    HW217988   2.122   2.035   3.805 -0.0860  1.7110  1.5636
 2177SOL     OW17989   4.534   0.541   4.370  0.4930 -0.1713 -0.0695
 2177SOL    HW117990   4.616   0.589   4.379 -1.0344  2.2358  0.9511
 2177SOL    HW217991   4.510   0.548   4.278 -1.2743  0.7400  0.4702
 2178SOL     OW17992   2.816   0.183   3.721 -0.1786 -0.4856 -0.0388
 2178SOL    HW117993   2.820   0.219   3.633 -3.3154 -0.4265 -0.1340
 2178SOL    HW217994   2.758   0.246   3.762  1.4685  0.3574  1.0164
 2179SOL     OW17995   3.039   3.087  16.510 -0.1616  0.1605 -0.0295
 2179SOL    HW117996   3.007   3.044  16.431  0.8036 -1.4024  0.4299
 2179SOL    HW217997   2.977   3.047  16.571  0.3832 -0.7133 -0.0539
 2180SOL     OW17998   2.608   2.585   1.741 -0.0111 -0.7659 -0.8860
 2180SOL    HW117999   2.606   2.659   1.802 -0.1749 -0.9805 -0.6314
 2180SOL    HW218000   2.519   2.554   1.749 -0.3622  1.4352  3.8168
 2181SOL     OW18001   1.203   3.515  11.527 -0.1155 -0.5163  0.1183
 2181SOL    HW118002   1.281   3.565  11.550 -0.1866 -0.1990 -0.3480
 2181SOL    HW218003   1.174   3.551  11.444  0.3534 -1.9023 -0.6463
 2182SOL     OW18004   2.255   3.365  16.761  0.4309 -0.5385  0.3174
 2182SOL    HW118005   2.288   3.410  16.682 -1.2063 -1.4593 -0.8768
 2182SOL    HW218006   2.285   3.418  16.835 -0.7260  1.5502 -0.7223
 2183SOL     OW18007   4.629   0.120  12.366  0.0159  0.6345  0.2661
 2183SOL    HW118008   4.552   0.097  12.418 -1.1505 -1.3483 -2.2974
 2183SOL    HW218009   4.587   0.138  12.282  1.3065  0.7376 -0.3588
 2184SOL     OW18010   1.437   0.928   1.677  0.5310 -0.4013 -0.3788
 2184SOL    HW118011   1.469   0.896   1.593  4.1441  1.4719  0.2596
 2184SOL    HW218012   1.421   0.846   1.724  0.7847 -0.5435 -0.5429
 2185SOL     OW18013   4.455   2.278   4.011  0.0286 -0.0782 -0.2385
 2185SOL    HW118014   4.422   2.196   4.047  1.4346  0.5403  2.4336
 2185SOL    HW218015   4.526   2.232   3.966  0.5633  2.3103 -1.8518
 2186SOL     OW18016   0.675   3.495  17.537 -0.3699  0.1990 -0.2568
 2186SOL    HW118017   0.728   3.423  17.572  0.5538  1.3783  0.7582
 2186SOL    HW218018   0.710   3.567  17.590 -0.9015  2.0545 -2.4321
 2187SOL     OW18019   3.805   1.032   3.221 -0.6558  0.4036 -0.6591
 2187SOL    HW118020   3.812   0.948   3.265  1.6511  1.8424  1.7143
 2187SOL    HW218021   3.805   1.013   3.127 -1.4586 -0.2530 -0.5262
 2188SOL     OW18022   2.090   1.284   7.811  0.2597  0.0711 -0.1290
 2188SOL    HW118023   2.023   1.293   7.743  2.5161 -1.1614 -2.5169
 2188SOL    HW218024   2.058   1.337   7.883 -0.2910 -0.8363  0.2916
 2189SOL     OW18025   4.530   0.779   4.877 -0.0217  0.0612 -0.4557
 2189SOL    HW118026   4.513   0.741   4.964 -0.3094  0.3027 -0.4071
 2189SOL    HW218027   4.465   0.746   4.815  0.0539 -0.1442 -0.4235
 2190SOL     OW18028   3.242   2.588   8.620 -0.4211  0.2431  0.2168
 2190SOL    HW118029   3.332   2.554   8.616 -0.4199  0.3536 -0.5749
 2190SOL    HW218030   3.261   2.681   8.625 -0.7652  0.4632 -3.1540
 2191SOL     OW18031   3.176   3.052   1.164  0.0143 -0.3194 -0.0128
 2191SOL    HW118032   3.249   3.029   1.105 -0.0649 -2.1566  0.6138
 2191SOL    HW218033   3.110   3.086   1.104  1.1903 -0.6278 -1.4848
 2192SOL     OW18034   1.205   4.631   1.851  0.1224  0.1164 -0.5947
 2192SOL    HW118035   1.148   4.561   1.883  1.7811 -1.1255 -0.3517
 2192SOL    HW218036   1.207   4.606   1.758 -1.7451  0.1249 -0.6306
 2193SOL     OW18037   3.908   0.587   1.918  0.3551 -0.4328 -0.2864
 2193SOL    HW118038   3.847   0.579   1.844 -0.5214  3.1222  0.0802
 2193SOL    HW218039   3.986   0.590   1.862 -0.9332  4.5400 -1.8349
 2194SOL     OW18040   0.108   3.060   6.074  0.0134  0.1150  0.2903
 2194SOL    HW118041   0.173   3.061   6.145  0.3511 -1.7515  0.0048
 2194SOL    HW218042   0.160   3.035   5.997 -0.9089 -1.4209  0.1889
 2195SOL     OW18043   1.505   0.792   6.825 -0.2864  0.0933  0.0494
 2195SOL    HW118044   1.601   0.788   6.823 -0.3384 -0.5088 -1.2656
 2195SOL    HW218045   1.487   0.742   6.904  0.7522  0.0258  0.2527
 2196SOL     OW18046   0.623   1.616   9.261 -0.0580  0.5870  0.3967
 2196SOL    HW118047   0.588   1.578   9.342  1.8951  0.2609  1.0965
 2196SOL    HW218048   0.705   1.654   9.295  0.1032  0.0025  0.6514
 2197SOL     OW18049   2.718   1.987  14.912 -0.2589 -0.3819 -0.4492
 2197SOL    HW118050   2.777   1.971  14.838  0.1995  1.0212 -0.3813
 2197SOL    HW218051   2.735   1.906  14.961 -1.4084 -0.2972  0.0707
 2198SOL     OW18052   1.809   4.155   5.473  0.1344 -0.3794  0.5050
 2198SOL    HW118053   1.798   4.111   5.557 -0.5938  0.1177  0.6733
 2198SOL    HW218054   1.779   4.243   5.499  0.0572 -0.3706  0.3878
 2199SOL     OW18055   0.912   4.013   7.062 -0.4847  0.2373  0.0602
 2199SOL    HW118056   0.997   4.037   7.099 -0.7159 -0.3253  0.9522
 2199SOL    HW218057   0.930   4.009   6.968 -1.4535 -1.5689 -0.0571
 2200SOL     OW18058   0.978   3.430   0.057 -0.3993 -0.7377 -0.4665
 2200SOL    HW118059   1.068   3.408   0.032  0.0067 -0.3517  0.6395
 2200SOL    HW218060   0.965   3.523   0.041 -0.7016 -0.4527  1.3788
 2201SOL     OW18061   1.889   2.258   2.503  0.1824  0.0749  0.1653
 2201SOL    HW118062   1.980   2.289   2.495  0.4775 -0.5493  1.0677
 2201SOL    HW218063   1.890   2.185   2.565  1.3173 -0.7250 -0.7667
 2202SOL     OW18064   1.324   2.230   1.043  0.7391  0.1871 -0.0141
 2202SOL    HW118065   1.347   2.176   1.119 -2.7184 -0.9619  0.2321
 2202SOL    HW218066   1.395   2.214   0.982  0.6472 -4.0184  0.9405
 2203SOL     OW18067   4.445   3.244   9.672 -0.5181  0.4459 -0.7132
 2203SOL    HW118068   4.492   3.313   9.625  0.2155  1.7292  1.9631
 2203SOL    HW218069   4.362   3.263   9.629  0.0798  1.2576 -1.4938
 2204SOL     OW18070   0.078   3.951  12.613  0.0696 -0.4281  0.3347
 2204SOL    HW118071   0.150   3.915  12.664 -0.0245 -1.6634 -0.4004
 2204SOL    HW218072   0.096   4.045  12.604  1.4331 -0.5730  1.6632
 2205SOL     OW18073   1.911   1.690  13.705  0.0337  0.4423 -0.4457
 2205SOL    HW118074   1.874   1.604  13.723 -1.7161  1.2781 -0.0402
 2205SOL    HW218075   1.862   1.749  13.763  1.2292  2.2040 -1.2117
 2206SOL     OW18076   0.930   1.135   6.876  0.7005 -0.2390  0.3265
 2206SOL    HW118077   1.000   1.112   6.815  0.9659 -1.3914  1.0640
 2206SOL    HW218078   0.976   1.166   6.955  2.2154 -3.2711  0.6473
 2207SOL     OW18079   2.491   4.186   3.495 -0.0295 -0.1469 -0.0273
 2207SOL    HW118080   2.472   4.221   3.408  1.8581 -1.0232 -0.7765
 2207SOL    HW218081   2.573   4.229   3.518 -0.4836  1.1523 -0.8176
 2208SOL     OW18082   3.656   1.401   7.862  0.1801 -0.0095  0.7174
 2208SOL    HW118083   3.734   1.449   7.889  0.6939  0.0238 -0.7941
 2208SOL    HW218084   3.650   1.331   7.927 -2.3583  1.4017  1.9466
 2209SOL     OW18085   1.187   3.009   6.436  0.6755 -0.1117  0.8519
 2209SOL    HW118086   1.141   3.082   6.392  1.5545 -0.0166  0.0837
 2209SOL    HW218087   1.223   2.971   6.356 -1.4091 -1.3933  0.5118
 2210SOL     OW18088   0.509   1.786  15.345 -0.0319 -0.0413  0.4414
 2210SOL    HW118089   0.600   1.810  15.362  1.1185 -3.6996 -0.5896
 2210SOL    HW218090   0.462   1.858  15.387 -1.1557  0.1162 -1.0965
 2211SOL     OW18091   0.488   0.261  15.583 -0.6625 -0.0422  0.4021
 2211SOL    HW118092   0.420   0.305  15.635 -0.0636  0.0254  1.1252
 2211SOL    HW218093   0.562   0.273  15.642  1.0097  0.4135 -1.8013
 2212SOL     OW18094   4.486   4.471   8.564  0.2681 -0.3225 -0.8118
 2212SOL    HW118095   4.542   4.476   8.642  2.2840 -0.2721 -2.2594
 2212SOL    HW218096   4.408   4.450   8.615  0.2389 -0.5376 -0.9418
 2213SOL     OW18097   2.950   1.712   3.773  0.0660  0.0820  0.2410
 2213SOL    HW118098   2.942   1.725   3.678  1.0860  3.5708  0.6371
 2213SOL    HW218099   2.876   1.761   3.810 -1.4253 -1.5918 -0.4802
 2214SOL     OW18100   4.667   2.152   3.869  0.4858 -0.5754 -0.8185
 2214SOL    HW118101   0.027   2.118   3.835  1.8989  1.0387  1.0803
 2214SOL    HW218102   4.618   2.164   3.788 -0.4708 -0.8833 -0.2759
 2215SOL     OW18103   0.279   1.360  13.298  0.6514 -0.3300  0.2032
 2215SOL    HW118104   0.353   1.366  13.358 -0.6416 -1.3002  1.9183
 2215SOL    HW218105   0.211   1.343  13.363  1.6393 -1.6544  0.8688
 2216SOL     OW18106   2.099   3.327   6.177  0.6004 -0.5190 -0.1150
 2216SOL    HW118107   2.143   3.391   6.121  0.6550 -1.2125 -0.8734
 2216SOL    HW218108   2.142   3.242   6.168  0.7629 -0.0797 -3.5681
 2217SOL     OW18109   2.183   2.907   6.816 -0.2219  0.0895 -0.4082
 2217SOL    HW118110   2.216   2.924   6.904  1.5737  1.0182 -1.2494
 2217SOL    HW218111   2.113   2.846   6.839  0.0723  0.4819  1.5644
 2218SOL     OW18112   0.117   4.218   1.093 -0.0363  0.4377 -0.6532
 2218SOL    HW118113   0.167   4.252   1.019  1.0860 -0.0577 -0.1207
 2218SOL    HW218114   0.181   4.160   1.134  0.8110  2.4663  0.9276
 2219SOL     OW18115   4.643   0.813   7.575 -0.0987 -0.1982  0.7214
 2219SOL    HW118116   4.721   0.768   7.543 -0.6981 -0.1426 -0.8317
 2219SOL    HW218117   4.582   0.791   7.504  2.1345 -0.9404 -0.9521
 2220SOL     OW18118   2.279   1.006   4.800  0.1064 -0.1629  0.0883
 2220SOL    HW118119   2.189   1.006   4.832  0.1423  2.3049  0.1951
 2220SOL    HW218120   2.320   1.073   4.855 -1.0501 -0.6741  1.5569
 2221SOL     OW18121   1.353   2.639   2.146  0.1786  0.0600 -0.3053
 2221SOL    HW118122   1.378   2.585   2.221 -0.7033 -1.7420 -1.3128
 2221SOL    HW218123   1.409   2.714   2.165  1.1359 -0.8066  0.2786
 2222SOL     OW18124   3.175   4.516   2.605 -0.4176 -0.2744  0.0630
 2222SOL    HW118125   3.096   4.527   2.657 -0.0404  0.0746  0.5588
 2222SOL    HW218126   3.198   4.607   2.587 -0.8584 -0.6517 -2.4763
 2223SOL     OW18127   2.437   1.544   0.489 -0.3058  0.6026 -0.3020
 2223SOL    HW118128   2.408   1.518   0.401  0.8702 -0.8332 -0.2585
 2223SOL    HW218129   2.354   1.565   0.533 -0.8035 -0.4375 -0.7335
 2224SOL     OW18130   4.273   3.484   4.308 -0.4357 -0.2955 -0.1615
 2224SOL    HW118131   4.209   3.473   4.237  1.2079 -0.8603 -1.5705
 2224SOL    HW218132   4.355   3.505   4.262  0.3513 -0.1320  1.3132
 2225SOL     OW18133   1.435   4.677   8.741 -0.9290 -0.3395 -0.1441
 2225SOL    HW118134   1.417   4.583   8.748  0.3014 -0.6757 -1.5510
 2225SOL    HW218135   1.361   4.701   8.685 -0.1362 -1.1679 -1.5402
 2226SOL     OW18136   4.647   1.171   3.028  0.2561  0.3271  0.3681
 2226SOL    HW118137   4.599   1.124   3.096 -0.9849  1.3447  0.2009
 2226SOL    HW218138   4.592   1.139   2.957 -0.3203  1.2515  0.3887
 2227SOL     OW18139   2.589   1.328   6.300  0.8672 -0.2092  0.2438
 2227SOL    HW118140   2.518   1.319   6.365  1.2054  0.6109  0.7326
 2227SOL    HW218141   2.542   1.389   6.242 -0.5768  0.8147  2.4657
 2228SOL     OW18142   3.798   1.555  15.842 -0.3067  0.2981  0.1652
 2228SOL    HW118143   3.715   1.593  15.814 -0.5291  0.7914  1.4969
 2228SOL    HW218144   3.849   1.635  15.861  1.4745 -0.5442 -1.0675
 2229SOL     OW18145   2.412   2.603   5.099 -0.1604 -0.1828 -0.0193
 2229SOL    HW118146   2.434   2.669   5.164  1.8155 -0.2920 -0.5672
 2229SOL    HW218147   2.497   2.559   5.094  0.8292  1.7850 -0.4037
 2230SOL     OW18148   1.863   2.942   0.462 -0.7815 -0.0849 -0.1679
 2230SOL    HW118149   1.873   2.875   0.395 -0.1177 -0.9604  0.8026
 2230SOL    HW218150   1.776   2.977   0.442 -0.5496  2.0783  2.6750
 2231SOL     OW18151   3.822   1.706   6.131  0.6660  0.3368 -0.7495
 2231SOL    HW118152   3.913   1.696   6.103  0.1854 -1.0849 -1.8495
 2231SOL    HW218153   3.826   1.765   6.206  2.9253 -0.3463 -0.3464
 2232SOL     OW18154   0.577   1.002   6.227 -0.3506  0.1150  0.2654
 2232SOL    HW118155   0.549   1.061   6.296  2.4271  1.1930  0.4803
 2232SOL    HW218156   0.577   0.915   6.266  1.2087 -0.2289 -0.4716
 2233SOL     OW18157   0.405   3.560   2.041 -0.6596 -0.2672 -0.6038
 2233SOL    HW118158   0.351   3.631   2.075 -0.8914 -1.4574  1.5095
 2233SOL    HW218159   0.355   3.537   1.964  1.5415  1.1838 -2.4723
 2234SOL     OW18160   2.152   2.256   1.080  0.2536 -0.1685 -0.1649
 2234SOL    HW118161   2.114   2.209   1.006  1.0188  0.5282 -1.0070
 2234SOL    HW218162   2.080   2.310   1.113  1.0699  1.6070 -1.2519
 2235SOL     OW18163   0.471   1.879   9.497 -0.5070  0.1493 -0.1197
 2235SOL    HW118164   0.557   1.908   9.465 -0.7369  1.0640  0.0831
 2235SOL    HW218165   0.447   1.957   9.548  2.1600  0.4637  0.6580
 2236SOL     OW18166   2.112   1.994   6.915  0.6702  0.1339 -0.2679
 2236SOL    HW118167   2.041   2.059   6.919  0.2649 -0.0779 -3.6036
 2236SOL    HW218168   2.167   2.035   6.848 -1.1232 -1.5434 -2.7654
 2237SOL     OW18169   3.006   3.650  13.167  0.2112  0.0543  0.5121
 2237SOL    HW118170   2.948   3.574  13.165 -0.4468  0.5655  0.4660
 2237SOL    HW218171   2.986   3.693  13.249 -0.7691 -1.4660  1.0727
 2238SOL     OW18172   2.530   1.643  13.626  0.8916  0.6268  0.2609
 2238SOL    HW118173   2.520   1.663  13.719 -0.8519 -1.2398  0.4799
 2238SOL    HW218174   2.438   1.662  13.608  0.6443 -0.6495  0.1779
 2239SOL     OW18175   0.224   3.830  15.631  0.4787 -0.2803  0.0677
 2239SOL    HW118176   0.133   3.803  15.619  0.2338  0.8026 -0.5544
 2239SOL    HW218177   0.235   3.886  15.555  1.0027 -0.3758  0.0752
 2240SOL     OW18178   3.710   0.873  13.966 -0.3750 -0.2558 -0.6511
 2240SOL    HW118179   3.713   0.968  13.960 -0.5632 -0.2481 -0.6144
 2240SOL    HW218180   3.619   0.862  13.939 -0.4256 -1.8069  0.1780
 2241SOL     OW18181   2.254   2.651   2.518  0.1180 -0.3990  0.0017
 2241SOL    HW118182   2.222   2.612   2.436  0.6914  0.6562 -0.7224
 2241SOL    HW218183   2.347   2.631   2.510  0.0421 -1.6657  2.3965
 2242SOL     OW18184   1.719   3.869  10.157 -0.2195 -0.4368  0.4428
 2242SOL    HW118185   1.776   3.799  10.126 -1.2828 -0.3946 -1.5894
 2242SOL    HW218186   1.792   3.927  10.181  0.5213 -0.2036 -2.2739
 2243SOL     OW18187   1.060   2.229   8.512 -0.0376 -0.8226 -0.0482
 2243SOL    HW118188   1.150   2.243   8.543 -0.5363 -0.5942  1.2456
 2243SOL    HW218189   1.053   2.134   8.510 -0.9446 -0.7579  0.4976
 2244SOL     OW18190   2.597   0.253   9.417  0.4449  0.4527 -0.1793
 2244SOL    HW118191   2.534   0.295   9.358 -1.2765 -0.4608  0.9945
 2244SOL    HW218192   2.569   0.289   9.501 -2.9276  0.0085 -1.1212
 2245SOL     OW18193   0.850   4.293   3.792 -0.2399 -0.5966 -0.4809
 2245SOL    HW118194   0.788   4.254   3.854  0.9252 -0.2080  0.9140
 2245SOL    HW218195   0.838   4.382   3.825 -1.2636 -0.6590 -0.6853
 2246SOL     OW18196   3.438   4.638   3.525  0.3273  0.1272 -0.1475
 2246SOL    HW118197   3.502   4.617   3.592 -0.9961 -0.3503  0.9674
 2246SOL    HW218198   3.432   4.567   3.461 -0.0043 -0.8315  0.9507
 2247SOL     OW18199   1.019   1.691  12.055  0.1648 -0.6926 -0.0682
 2247SOL    HW118200   1.011   1.598  12.035  2.2851 -0.8060 -0.3971
 2247SOL    HW218201   1.101   1.718  12.014 -0.6633 -1.0240 -1.9379
 2248SOL     OW18202   3.969   2.101  14.038 -0.1693  0.1883  0.4372
 2248SOL    HW118203   3.921   2.061  14.111 -0.2023 -0.2123  0.1919
 2248SOL    HW218204   3.942   2.063  13.955 -0.7747 -0.3989  0.8982
 2249SOL     OW18205   3.806   4.533   4.072 -0.1313  0.5377 -0.1914
 2249SOL    HW118206   3.791   4.597   4.142 -1.0173  0.8623 -0.6699
 2249SOL    HW218207   3.778   4.449   4.110  0.8046  0.3144 -0.0025
 2250SOL     OW18208   3.425   3.001   4.312 -0.2339 -0.5308  0.3236
 2250SOL    HW118209   3.499   2.945   4.289  0.3554  0.0411  0.8283
 2250SOL    HW218210   3.381   2.946   4.377 -0.1429 -2.5532 -1.3330
 2251SOL     OW18211   1.587   1.389   3.734 -0.2736  0.0915  0.1650
 2251SOL    HW118212   1.669   1.349   3.762 -0.2208 -1.0053 -1.5643
 2251SOL    HW218213   1.612   1.420   3.647 -1.3340 -0.7997 -0.4552
 2252SOL     OW18214   1.161   2.058   3.164 -0.4595  0.0222  0.2902
 2252SOL    HW118215   1.086   2.005   3.190 -0.8124 -1.1753 -3.2081
 2252SOL    HW218216   1.136   2.094   3.078  1.8300 -1.5752 -1.0326
 2253SOL     OW18217   2.253   3.821  11.274  0.2365  0.0386  0.5327
 2253SOL    HW118218   2.325   3.776  11.230  0.1663  0.8909 -0.4389
 2253SOL    HW218219   2.179   3.805  11.216  0.3969  3.0627 -0.5093
 2254SOL     OW18220   2.239   2.678   5.708  0.7013 -0.2979  0.3529
 2254SOL    HW118221   2.254   2.720   5.793 -2.5060 -0.1165  0.8460
 2254SOL    HW218222   2.153   2.719   5.703  1.1189  0.6729  1.1087
 2255SOL     OW18223   1.215   2.572  16.293 -0.0174  0.0099  0.9262
 2255SOL    HW118224   1.285   2.529  16.243 -0.8589  0.4158 -0.6164
 2255SOL    HW218225   1.261   2.645  16.333 -1.5693  1.5629 -0.1421
 2256SOL     OW18226   4.383   0.209   3.425  0.4278 -0.0893  0.1478
 2256SOL    HW118227   4.406   0.246   3.340  0.2443  2.3612  1.1764
 2256SOL    HW218228   4.449   0.256   3.475  0.7145 -0.8118  0.4378
 2257SOL     OW18229   0.909   3.955  13.858  0.7224 -0.2458 -0.0520
 2257SOL    HW118230   1.001   3.978  13.873 -0.3592  3.8966  0.2156
 2257SOL    HW218231   0.868   4.039  13.877 -1.2337 -1.3607  0.6729
 2258SOL     OW18232   3.167   4.057   4.585 -0.1668  0.3146  0.2570
 2258SOL    HW118233   3.167   4.129   4.648 -0.3928  0.5518 -0.0059
 2258SOL    HW218234   3.103   4.071   4.515 -0.0784  1.1210  0.3354
 2259SOL     OW18235   3.230   2.705   3.445  0.4074  0.1477  0.3651
 2259SOL    HW118236   3.145   2.671   3.416  1.0268 -1.0514 -0.0720
 2259SOL    HW218237   3.216   2.796   3.421 -2.4550 -0.6669 -1.1070
 2260SOL     OW18238   2.024   0.661   5.740  0.0333  0.3252  0.0620
 2260SOL    HW118239   1.989   0.724   5.677  0.3182 -1.9253 -2.3336
 2260SOL    HW218240   2.002   0.705   5.823  1.9586 -1.0528  1.3168
 2261SOL     OW18241   1.734   1.738   1.994  0.0397 -0.4876 -0.1879
 2261SOL    HW118242   1.786   1.766   1.919  0.8174 -0.7782  0.2447
 2261SOL    HW218243   1.735   1.642   1.990  0.2727 -0.4405 -1.0418
 2262SOL     OW18244   2.210   2.565   9.072 -0.2581 -0.2085 -0.3714
 2262SOL    HW118245   2.210   2.640   9.014  0.4619 -0.7442 -1.0600
 2262SOL    HW218246   2.245   2.602   9.154 -0.5929 -0.0851 -0.2834
 2263SOL     OW18247   0.873   2.577  16.065 -0.1440  0.1622  0.4694
 2263SOL    HW118248   0.820   2.618  16.134 -1.2401 -4.3200  2.2776
 2263SOL    HW218249   0.958   2.608  16.095  0.4466 -1.9650  1.0160
 2264SOL     OW18250   1.986   4.419  16.146  0.7668  0.4858 -0.0650
 2264SOL    HW118251   1.921   4.359  16.183  0.3036  1.8205  1.2831
 2264SOL    HW218252   2.020   4.447  16.230 -1.6706 -1.5518  1.6084
 2265SOL     OW18253   0.810   2.541   5.249 -0.0738  0.5822 -0.3591
 2265SOL    HW118254   0.772   2.612   5.301  1.9484  2.4793 -1.4577
 2265SOL    HW218255   0.865   2.498   5.314  2.3450  0.8326 -2.2063
 2266SOL     OW18256   2.600   2.804  15.549 -0.2473  0.0134 -0.3154
 2266SOL    HW118257   2.652   2.796  15.629 -0.8084  2.1283  0.2729
 2266SOL    HW218258   2.528   2.862  15.574  0.1761 -0.3265  1.7311
 2267SOL     OW18259   3.647   2.328   5.513 -0.1023  0.1981  0.3002
 2267SOL    HW118260   3.635   2.314   5.607  0.1247 -1.2650  0.1068
 2267SOL    HW218261   3.719   2.390   5.517  0.2501 -0.0773 -2.0009
 2268SOL     OW18262   1.786   0.528   7.446 -0.4085  0.0470  0.2545
 2268SOL    HW118263   1.881   0.532   7.456 -0.5667  0.1760  1.6479
 2268SOL    HW218264   1.742   0.499   7.526  2.5946 -0.8058  1.5877
 2269SOL     OW18265   4.656   3.875   5.071  0.0876  0.5288  0.0752
 2269SOL    HW118266   0.000   3.882   5.004  0.0252 -1.6320 -0.2179
 2269SOL    HW218267   4.591   3.939   5.044  1.5454  1.1735 -1.8833
 2270SOL     OW18268   3.744   1.063   1.678  0.2103 -0.1803 -0.2247
 2270SOL    HW118269   3.813   1.073   1.612  1.5399  0.3510  1.2401
 2270SOL    HW218270   3.725   1.155   1.697  1.4023 -0.3559  1.8684
 2271SOL     OW18271   1.311   2.932   4.203 -0.1267 -0.0172 -0.5048
 2271SOL    HW118272   1.290   3.021   4.173 -1.6518 -0.3133 -0.3036
 2271SOL    HW218273   1.307   2.885   4.120 -0.0085  0.8794 -1.0209
 2272SOL     OW18274   2.731   3.239   4.427  0.6778 -0.2870  0.3965
 2272SOL    HW118275   2.714   3.193   4.345  1.8694  1.4319 -0.8230
 2272SOL    HW218276   2.642   3.257   4.456  0.8832 -0.3624  1.0823
 2273SOL     OW18277   2.810   4.720   4.302 -0.2092  0.4143  0.7021
 2273SOL    HW118278   2.759   0.071   4.332  1.1382  1.1900  1.0833
 2273SOL    HW218279   2.894   0.039   4.286 -0.4443  0.1916 -1.1453
 2274SOL     OW18280   1.229   3.136   1.636  0.3780 -0.3266  0.7012
 2274SOL    HW118281   1.310   3.088   1.620  0.2319  0.5902 -2.5867
 2274SOL    HW218282   1.271   3.220   1.652 -1.1296  0.7943 -1.3401
 2275SOL     OW18283   4.091   4.126   4.090 -0.4046  0.4823  0.0200
 2275SOL    HW118284   4.104   4.036   4.058  2.4946  0.1070  2.1943
 2275SOL    HW218285   4.169   4.164   4.050  0.0339 -0.7122 -0.2601
 2276SOL     OW18286   1.565   1.439   7.544  0.4994  0.2920 -0.1512
 2276SOL    HW118287   1.643   1.431   7.599  1.4038  1.0897 -1.3125
 2276SOL    HW218288   1.503   1.487   7.599 -0.0323  0.2911 -0.7469
 2277SOL     OW18289   3.814   4.370   5.240  0.0939  0.3359  0.0914
 2277SOL    HW118290   3.885   4.424   5.207 -0.2218  0.4392 -0.4278
 2277SOL    HW218291   3.854   4.319   5.311  0.9712  1.5126  0.4219
 2278SOL     OW18292   3.400   0.387  15.221 -0.1700 -0.8451  0.1848
 2278SOL    HW118293   3.465   0.434  15.273 -1.5835  0.5122  0.7427
 2278SOL    HW218294   3.322   0.431  15.256 -0.0330 -1.6068  1.4728
 2279SOL     OW18295   3.425   4.287   8.859  0.0028 -0.0379 -0.2740
 2279SOL    HW118296   3.387   4.278   8.946  0.1640 -0.2707 -0.2289
 2279SOL    HW218297   3.497   4.224   8.858 -0.1858 -0.2643  0.5768
 2280SOL     OW18298   3.574   2.566   0.246 -0.2668  0.0688 -0.7191
 2280SOL    HW118299   3.636   2.639   0.256  1.0733 -1.0132 -1.0640
 2280SOL    HW218300   3.623   2.495   0.205 -1.8050 -1.2812 -0.2180
 2281SOL     OW18301   3.962   3.191  14.072  0.3810  0.1507  0.1089
 2281SOL    HW118302   3.889   3.253  14.074  1.6039  1.6690 -1.9540
 2281SOL    HW218303   4.014   3.234  14.003  0.0051 -1.5356 -1.2232
 2282SOL     OW18304   2.540   3.856   6.864  0.5666 -0.4815 -0.0065
 2282SOL    HW118305   2.560   3.767   6.834  0.4501 -0.4270 -0.2494
 2282SOL    HW218306   2.445   3.846   6.863  0.4871  0.2536  0.1620
 2283SOL     OW18307   4.305   1.708  15.772 -0.0936 -0.3059  1.2874
 2283SOL    HW118308   4.304   1.695  15.867  0.7669  1.2315  1.5026
 2283SOL    HW218309   4.256   1.790  15.767  1.2723  0.5903  2.4922
 2284SOL     OW18310   1.419   1.542   6.743 -0.0005 -0.0938  0.1140
 2284SOL    HW118311   1.385   1.520   6.656 -1.5172  1.0839  0.4183
 2284SOL    HW218312   1.498   1.488   6.756  0.2539  0.1469 -0.4143
 2285SOL     OW18313   1.314   3.152  12.022  0.3142 -0.8003  0.1058
 2285SOL    HW118314   1.256   3.179  12.093  2.6858  1.3127  1.2385
 2285SOL    HW218315   1.303   3.057  12.028  0.2756 -0.6599  2.4722
 2286SOL     OW18316   2.542   0.823   2.987  0.3428  0.0206  0.2942
 2286SOL    HW118317   2.540   0.765   2.911  2.8086 -1.6865  1.4942
 2286SOL    HW218318   2.625   0.798   3.029 -0.5419 -2.2101  0.7068
 2287SOL     OW18319   3.411   2.255  14.124  0.2935  0.1972  0.2048
 2287SOL    HW118320   3.490   2.209  14.150  0.7395  0.4061 -0.8111
 2287SOL    HW218321   3.356   2.226  14.197  0.5508 -1.8661 -0.4392
 2288SOL     OW18322   1.106   1.137   2.951  0.3567 -1.1424 -0.1139
 2288SOL    HW118323   1.201   1.126   2.962  0.1648 -1.8389  0.9120
 2288SOL    HW218324   1.113   1.202   2.881 -1.2773 -1.1671 -0.2874
 2289SOL     OW18325   3.963   1.128   7.457  0.0452 -0.1806 -0.4447
 2289SOL    HW118326   4.001   1.080   7.384  0.7608  0.2324 -0.3429
 2289SOL    HW218327   3.918   1.201   7.414 -2.1564 -2.7312 -2.4847
 2290SOL     OW18328   2.706   0.804   9.292  0.0374 -0.0185 -0.1824
 2290SOL    HW118329   2.774   0.804   9.359 -0.2606  0.4446  0.1253
 2290SOL    HW218330   2.744   0.738   9.234 -0.8910 -1.0421  0.3739
 2291SOL     OW18331   0.497   3.985  13.196  0.2953  0.2447 -0.2712
 2291SOL    HW118332   0.499   3.897  13.234 -0.4399  0.5543  0.4844
 2291SOL    HW218333   0.496   3.954  13.106  2.3701  1.8698 -0.8346
 2292SOL     OW18334   1.930   0.492  10.118  0.2382  0.0439  0.1736
 2292SOL    HW118335   1.954   0.557  10.183 -0.8558  0.0905  0.5323
 2292SOL    HW218336   1.977   0.414  10.149  1.4810  0.7926  0.1728
 2293SOL     OW18337   0.681   4.703   5.807  0.1250 -0.3927  0.3065
 2293SOL    HW118338   0.671   0.029   5.725  0.5291  0.5729  0.8459
 2293SOL    HW218339   0.746   0.037   5.847  2.4933 -3.6129  1.0783
 2294SOL     OW18340   1.626   4.233   7.953  0.0186 -0.4071 -0.2741
 2294SOL    HW118341   1.651   4.167   7.887 -0.0467  1.4374 -2.1462
 2294SOL    HW218342   1.533   4.213   7.967  0.1442 -0.6547  0.1881
 2295SOL     OW18343   1.127   0.707   2.063  0.1860 -0.1057 -0.1942
 2295SOL    HW118344   1.220   0.727   2.067  0.0685  0.1950  1.2602
 2295SOL    HW218345   1.107   0.664   1.980  0.0166 -1.9598  0.7996
 2296SOL     OW18346   3.126   2.668   7.418  0.2909  0.0910 -0.0098
 2296SOL    HW118347   3.157   2.660   7.508  0.3811 -3.0880 -0.3087
 2296SOL    HW218348   3.154   2.758   7.404 -1.3383  0.5884 -0.0824
 2297SOL     OW18349   3.913   3.027   0.323 -0.2991  0.7520 -0.4593
 2297SOL    HW118350   4.003   3.021   0.290 -0.5154 -2.7219 -0.4637
 2297SOL    HW218351   3.920   3.114   0.362  0.3422 -1.0167  3.2685
 2298SOL     OW18352   2.035   1.626   4.375  0.4663 -0.4719  0.4587
 2298SOL    HW118353   2.090   1.568   4.322 -2.8192 -1.6948 -1.5584
 2298SOL    HW218354   1.963   1.647   4.316  0.6798 -2.4056 -0.4884
 2299SOL     OW18355   1.565   4.276   8.723  0.1370 -0.1590 -0.1271
 2299SOL    HW118356   1.479   4.315   8.707  0.6044  0.0511 -2.1582
 2299SOL    HW218357   1.603   4.283   8.635  2.9996 -1.8717  1.0048
 2300SOL     OW18358   4.195   0.781   6.914  0.2451  0.3192 -0.0784
 2300SOL    HW118359   4.214   0.816   6.827  0.1928 -3.6363 -1.6722
 2300SOL    HW218360   4.278   0.752   6.953  0.4406 -0.6710 -1.2364
 2301SOL     OW18361   0.979   3.431   1.909 -0.2481  0.4966  0.1635
 2301SOL    HW118362   0.948   3.390   1.990  1.2332 -0.7783  0.0934
 2301SOL    HW218363   0.910   3.411   1.846 -0.4512 -0.5996  0.7305
 2302SOL     OW18364   2.567   2.175  15.029  0.0192 -0.1828  0.2396
 2302SOL    HW118365   2.497   2.188  14.965 -1.2868 -1.5284  1.3882
 2302SOL    HW218366   2.612   2.105  14.980 -0.3437  0.0952 -0.4839
 2303SOL     OW18367   3.891   1.487   6.978  0.7837 -0.5733 -0.2881
 2303SOL    HW118368   3.841   1.568   6.966  3.2343  1.4105  2.8485
 2303SOL    HW218369   3.842   1.426   6.923 -2.5351  1.3958  0.5336
 2304SOL     OW18370   2.030   4.583   8.362 -0.2427  0.1674 -0.2832
 2304SOL    HW118371   2.035   4.679   8.363  1.0098  0.1001 -0.9332
 2304SOL    HW218372   2.105   4.558   8.309 -0.6031  0.3081 -0.8566
 2305SOL     OW18373   4.371   0.976   0.222  0.2432 -0.5938  0.2802
 2305SOL    HW118374   4.342   0.985   0.313  1.0077  1.3898  0.3080
 2305SOL    HW218375   4.289   0.990   0.175 -0.0798 -1.7901  0.4849
 2306SOL     OW18376   4.535   3.855   7.853 -1.2370  0.3448 -0.3122
 2306SOL    HW118377   4.544   3.907   7.932 -1.4543  1.0841 -0.7822
 2306SOL    HW218378   4.505   3.773   7.892  1.1590  0.5079  1.9126
 2307SOL     OW18379   3.316   1.210   6.571 -0.0782  0.4843  0.1973
 2307SOL    HW118380   3.317   1.305   6.563  2.2140  0.5674  1.5389
 2307SOL    HW218381   3.305   1.184   6.663  1.3873 -1.9340 -0.3041
 2308SOL     OW18382   1.858   3.682   3.669 -0.3230  0.2342  0.3329
 2308SOL    HW118383   1.952   3.689   3.684  0.0030 -1.5177 -0.8769
 2308SOL    HW218384   1.814   3.689   3.753 -0.5075 -2.8744  0.4681
 2309SOL     OW18385   0.799   1.638  12.444 -0.0102  0.3644  0.4812
 2309SOL    HW118386   0.755   1.635  12.359 -2.4075 -0.2778  1.7379
 2309SOL    HW218387   0.767   1.558  12.486  0.1376  0.4280  0.7135
 2310SOL     OW18388   3.053   0.730   4.307  0.1686  0.1801 -0.3098
 2310SOL    HW118389   3.023   0.658   4.252 -0.8857  0.0067  0.4901
 2310SOL    HW218390   3.082   0.794   4.242  3.0586 -0.7043  0.0997
 2311SOL     OW18391   3.235   1.532   3.357 -0.5787 -0.1718  0.2170
 2311SOL    HW118392   3.322   1.570   3.358  0.7840 -3.2101 -3.1545
 2311SOL    HW218393   3.198   1.579   3.283  0.1759 -1.2183 -0.8163
 2312SOL     OW18394   0.969   1.656   6.979  0.1792  0.3269 -0.2528
 2312SOL    HW118395   1.034   1.631   6.912  2.0929 -0.0879  1.7461
 2312SOL    HW218396   1.030   1.696   7.041  1.8161 -1.3624 -0.7725
 2313SOL     OW18397   4.097   4.022   1.210 -0.1324 -0.4370 -0.3191
 2313SOL    HW118398   4.076   3.929   1.212 -1.1261 -0.2618 -2.5324
 2313SOL    HW218399   4.179   4.015   1.160 -0.7238  0.1513 -1.3641
 2314SOL     OW18400   2.895   3.373   3.960  0.8440 -0.5464  0.5173
 2314SOL    HW118401   2.850   3.354   3.878 -0.2793 -0.1968  1.0470
 2314SOL    HW218402   2.982   3.337   3.945  1.4322  1.3766 -0.5355
 2315SOL     OW18403   1.028   2.403  16.392 -0.1851  0.2756  0.2297
 2315SOL    HW118404   0.954   2.445  16.435 -0.9217  0.3399 -1.0973
 2315SOL    HW218405   1.070   2.472  16.341  0.4074  0.3971  0.8886
 2316SOL     OW18406   4.017   2.709   2.493 -0.4835 -0.3344  0.1911
 2316SOL    HW118407   4.061   2.746   2.417 -0.5393  2.4191  1.4774
 2316SOL    HW218408   3.975   2.782   2.538 -0.3363  1.1607 -2.1458
 2317SOL     OW18409   0.123   1.557   3.208  0.1063 -0.2523  0.2506
 2317SOL    HW118410   0.087   1.473   3.236  0.9735 -0.1149  1.7681
 2317SOL    HW218411   0.206   1.551   3.255 -0.4980  1.8793  1.5722
 2318SOL     OW18412   1.197   1.104  13.697 -0.0291  0.0083 -0.6253
 2318SOL    HW118413   1.277   1.067  13.661  0.1091  0.7710 -1.1177
 2318SOL    HW218414   1.126   1.081  13.637  0.1400  1.7122 -1.4814
 2319SOL     OW18415   2.870   3.692  11.921  0.0458  0.1192  0.7213
 2319SOL    HW118416   2.799   3.658  11.975 -1.3865  0.4927 -0.9043
 2319SOL    HW218417   2.944   3.642  11.953  0.3689 -0.0681 -0.3317
 2320SOL     OW18418   0.714   1.492   5.972  0.0475  0.3624  0.1453
 2320SOL    HW118419   0.681   1.440   6.045 -0.0095  0.5834  0.2764
 2320SOL    HW218420   0.665   1.573   5.988  0.6149  0.8545 -0.5664
 2321SOL     OW18421   3.354   1.367  12.927 -0.4040 -0.5544  0.8604
 2321SOL    HW118422   3.277   1.417  12.899 -0.4626 -0.4961  1.1307
 2321SOL    HW218423   3.426   1.409  12.881 -0.3587  1.3499  2.7241
 2322SOL     OW18424   4.335   2.839   2.353 -0.0031  0.4631  0.1774
 2322SOL    HW118425   4.358   2.824   2.261  0.1191 -2.1617  0.6519
 2322SOL    HW218426   4.243   2.865   2.346  0.3268  1.2050 -1.4689
 2323SOL     OW18427   3.318   1.527  10.360  0.1679 -0.0207  0.5003
 2323SOL    HW118428   3.371   1.508  10.437  2.9266  1.5457 -1.0175
 2323SOL    HW218429   3.267   1.597  10.399 -0.6559  0.5684 -1.6051
 2324SOL     OW18430   0.718   2.026   9.011 -0.0545  0.2513 -0.5314
 2324SOL    HW118431   0.787   1.988   9.065  0.8878  0.7141 -1.4049
 2324SOL    HW218432   0.711   2.115   9.044 -1.1945  0.1144 -0.4165
 2325SOL     OW18433   2.084   3.359   1.704 -0.6509 -0.2495  0.1554
 2325SOL    HW118434   2.104   3.337   1.613 -0.1061  1.0402 -0.0377
 2325SOL    HW218435   2.034   3.440   1.694  1.9673  1.2957 -0.2863
 2326SOL     OW18436   4.267   2.210   5.647  0.5323  0.4235 -0.3372
 2326SOL    HW118437   4.265   2.166   5.562 -1.0829 -1.1905  0.5507
 2326SOL    HW218438   4.301   2.297   5.626  1.3691  0.3222  0.5808
 2327SOL     OW18439   1.394   1.705   2.893 -0.1597  0.3427 -0.3731
 2327SOL    HW118440   1.470   1.763   2.902 -0.2868  0.2590  1.3255
 2327SOL    HW218441   1.390   1.696   2.798 -0.0304  0.8876 -0.4342
 2328SOL     OW18442   4.155   1.862   3.426 -0.1487  0.2395  0.0343
 2328SOL    HW118443   4.138   1.957   3.427 -0.7346  0.1278  0.5127
 2328SOL    HW218444   4.212   1.845   3.500 -0.3965  2.2609  0.7031
 2329SOL     OW18445   3.280   0.355   7.509 -0.0736 -0.0828  0.0481
 2329SOL    HW118446   3.361   0.401   7.487 -0.6572  0.4697 -0.9558
 2329SOL    HW218447   3.315   0.269   7.530 -0.0840 -0.3863 -1.1916
 2330SOL     OW18448   2.664   0.560  11.440  0.3531 -0.1785  0.4499
 2330SOL    HW118449   2.608   0.533  11.512 -1.8693 -2.1806 -2.0335
 2330SOL    HW218450   2.647   0.484  11.386 -0.2347 -0.5727  1.1909
 2331SOL     OW18451   3.947   0.269   8.820  0.0918 -0.4487  0.0013
 2331SOL    HW118452   3.996   0.328   8.878 -0.1280 -0.1360 -0.1351
 2331SOL    HW218453   3.983   0.187   8.855  2.2134 -0.1930 -1.5745
 2332SOL     OW18454   2.477   1.923   5.963  0.1189 -0.0740  0.1638
 2332SOL    HW118455   2.486   1.841   6.011 -0.9985 -0.0117  0.4625
 2332SOL    HW218456   2.537   1.901   5.891 -1.1535 -3.4165  0.1625
 2333SOL     OW18457   3.963   1.964  10.900 -0.3434 -0.4723 -0.4692
 2333SOL    HW118458   4.046   2.005  10.924 -0.2990  0.0297 -1.4737
 2333SOL    HW218459   3.930   1.915  10.975 -0.0250 -0.9227 -0.6198
 2334SOL     OW18460   2.821   1.754   4.323 -0.2962 -0.3460 -0.6733
 2334SOL    HW118461   2.878   1.677   4.325  0.3859  0.1131 -2.3528
 2334SOL    HW218462   2.759   1.726   4.389 -0.8247  0.0926 -0.9862
 2335SOL     OW18463   2.403   1.168   4.045 -0.4418 -0.3176 -0.1587
 2335SOL    HW118464   2.463   1.200   3.978 -0.0227 -0.8787 -0.0512
 2335SOL    HW218465   2.328   1.187   3.988 -2.3472 -1.4805  1.9733
 2336SOL     OW18466   0.423   3.174   7.266  0.6150  0.1685  0.0239
 2336SOL    HW118467   0.434   3.248   7.207  1.3985 -1.3632 -1.7363
 2336SOL    HW218468   0.340   3.193   7.309  0.6328  1.5939 -0.5974
 2337SOL     OW18469   3.387   4.499   9.092 -0.6816  0.0763  0.3070
 2337SOL    HW118470   3.474   4.460   9.087 -0.5225  0.1819  2.3079
 2337SOL    HW218471   3.327   4.424   9.088  1.0234 -1.2627  0.1907
 2338SOL     OW18472   4.259   1.580   5.549 -0.4355 -0.0789 -0.7771
 2338SOL    HW118473   4.279   1.539   5.633 -1.2340  0.9427 -0.1008
 2338SOL    HW218474   4.193   1.520   5.515 -0.2648  0.4483 -2.0701
 2339SOL     OW18475   1.276   0.029  10.203 -0.0033  0.2679 -0.1527
 2339SOL    HW118476   1.308   4.674  10.158  1.6711  0.0065  1.5151
 2339SOL    HW218477   1.327   0.092  10.153  2.5107 -0.8729  0.9790
 2340SOL     OW18478   0.291   2.491   2.399  0.1503  0.4698 -0.2347
 2340SOL    HW118479   0.231   2.417   2.411 -1.5583  1.5104 -2.4530
 2340SOL    HW218480   0.300   2.523   2.489 -1.0479  4.9845 -1.7047
 2341SOL     OW18481   1.400   1.963   8.962 -0.5675  0.2961 -0.5332
 2341SOL    HW118482   1.384   1.907   9.037  0.9228 -1.3875 -1.4695
 2341SOL    HW218483   1.450   2.038   8.994  0.3421  0.0174 -1.3234
 2342SOL     OW18484   3.128   3.602   7.538 -0.0563 -0.7648 -0.8479
 2342SOL    HW118485   3.191   3.565   7.600  0.4601  1.9536  0.2418
 2342SOL    HW218486   3.056   3.629   7.596  0.0053 -4.2877  0.8659
 2343SOL     OW18487   1.832   0.031  15.807 -0.3012  0.3628  0.4218
 2343SOL    HW118488   1.817   0.006  15.716 -1.0118  2.1442  0.0336
 2343SOL    HW218489   1.830   4.671  15.854  0.0711  0.8538  1.3248
 2344SOL     OW18490   3.231   3.724  13.061 -0.2509  0.3695  0.4306
 2344SOL    HW118491   3.140   3.695  13.067  0.1776 -0.9003  0.7879
 2344SOL    HW218492   3.264   3.657  13.000  0.0167 -0.1285  1.1300
 2345SOL     OW18493   0.805   4.033  10.944  0.1981 -0.3048  0.1342
 2345SOL    HW118494   0.752   3.976  11.000 -0.1358  1.4555  1.6066
 2345SOL    HW218495   0.769   4.014  10.857 -0.7707 -1.7688  0.8402
 2346SOL     OW18496   2.346   3.322   7.683  0.1419  0.2237  0.1954
 2346SOL    HW118497   2.322   3.236   7.715  1.9490 -0.4468 -0.2503
 2346SOL    HW218498   2.367   3.304   7.591 -1.2245 -1.2904  0.1806
 2347SOL     OW18499   3.770   3.741   2.357  0.0083 -0.3471 -0.3099
 2347SOL    HW118500   3.758   3.717   2.449 -0.2963 -2.3842 -0.8738
 2347SOL    HW218501   3.748   3.654   2.322  1.6634  0.0053 -2.2378
 2348SOL     OW18502   0.874   1.638   4.072  0.0997  0.1968 -0.1568
 2348SOL    HW118503   0.875   1.578   4.148 -3.3094 -0.4028 -0.5909
 2348SOL    HW218504   0.884   1.723   4.115  0.6655 -0.2499  0.6037
 2349SOL     OW18505   0.462   2.166   1.096 -0.2263 -0.7075  0.0319
 2349SOL    HW118506   0.480   2.241   1.040  1.0982  1.1127  2.9202
 2349SOL    HW218507   0.375   2.149   1.060 -0.3310  2.7521 -1.3461
 2350SOL     OW18508   1.699   2.937   0.190  0.6176  0.3721 -0.3698
 2350SOL    HW118509   1.776   2.994   0.186  3.0115 -3.0209 -2.1241
 2350SOL    HW218510   1.634   2.985   0.139 -2.7382  0.4000  3.8236
 2351SOL     OW18511   2.301   1.505  14.485  0.3271 -0.1261 -0.7880
 2351SOL    HW118512   2.265   1.578  14.434  0.4836 -0.2454 -1.0629
 2351SOL    HW218513   2.326   1.439  14.421  1.4611 -1.7013  1.2819
 2352SOL     OW18514   2.126   3.814   5.584  0.5302  0.4892 -0.3827
 2352SOL    HW118515   2.116   3.909   5.582  1.5769  0.5877 -1.9518
 2352SOL    HW218516   2.077   3.800   5.664  0.6333  2.6999  0.0737
 2353SOL     OW18517   2.860   3.778   1.738  0.4658  0.4074 -0.3711
 2353SOL    HW118518   2.917   3.798   1.812 -0.7412  1.0438  0.3682
 2353SOL    HW218519   2.920   3.761   1.665  0.0574 -0.1582 -0.5759
 2354SOL     OW18520   3.411   1.793   5.169  0.2782 -0.5222 -0.3721
 2354SOL    HW118521   3.328   1.781   5.215  0.8245  0.6193  0.9309
 2354SOL    HW218522   3.384   1.815   5.080  1.8103  1.2173 -0.4128
 2355SOL     OW18523   1.011   0.311  14.650  0.4820  0.4033 -0.2326
 2355SOL    HW118524   1.005   0.404  14.673  1.7339  0.4129  0.0874
 2355SOL    HW218525   1.103   0.290  14.671  0.1396 -2.7326 -1.9911
 2356SOL     OW18526   0.282   1.792   2.437  0.2071 -0.4604  0.2360
 2356SOL    HW118527   0.326   1.752   2.512 -0.6149 -1.7158  0.0502
 2356SOL    HW218528   0.204   1.736   2.433 -0.5842  0.7073 -0.7094
 2357SOL     OW18529   3.292   0.072  16.096  0.4708  0.2860 -0.3467
 2357SOL    HW118530   3.263   0.055  16.006  0.9223 -0.5253 -0.3384
 2357SOL    HW218531   3.223   0.123  16.138 -0.6841 -1.5609 -0.0125
 2358SOL     OW18532   2.658   3.584  12.059 -0.0993 -0.0817  0.6199
 2358SOL    HW118533   2.562   3.579  12.061 -0.2711  2.4744 -0.6560
 2358SOL    HW218534   2.670   3.497  12.096  3.8236  0.5053  0.7381
 2359SOL     OW18535   1.988   0.199   0.429 -0.1661  0.2919  0.4459
 2359SOL    HW118536   1.989   0.273   0.369 -0.8521 -0.0151  0.0578
 2359SOL    HW218537   1.969   0.123   0.375 -0.2729  0.8200 -0.2590
 2360SOL     OW18538   3.690   4.411  11.196  0.1065  0.3089  0.0944
 2360SOL    HW118539   3.597   4.425  11.213  0.1241 -1.9889  2.1875
 2360SOL    HW218540   3.686   4.320  11.168 -0.4812 -0.2532  1.9775
 2361SOL     OW18541   1.334   0.288  10.029 -0.0089  0.5462  0.2402
 2361SOL    HW118542   1.242   0.313  10.042 -0.7057 -1.8237 -0.0278
 2361SOL    HW218543   1.335   0.270   9.935 -3.5159 -0.1691  0.3258
 2362SOL     OW18544   3.202   0.079   6.082  0.9145  0.1504 -0.5893
 2362SOL    HW118545   3.279   0.042   6.124  1.1213  0.2241 -0.9034
 2362SOL    HW218546   3.159   0.127   6.152 -0.4553 -0.6875 -0.8533
 2363SOL     OW18547   1.174   0.744   7.311 -0.1009 -0.2980 -0.4861
 2363SOL    HW118548   1.179   0.824   7.363  1.3915  0.5756 -1.9868
 2363SOL    HW218549   1.146   0.682   7.378 -1.0056 -1.6426 -2.1245
 2364SOL     OW18550   2.992   0.938   6.402 -0.0026  0.2338 -0.2060
 2364SOL    HW118551   3.076   0.977   6.425  0.9284 -1.3410 -0.9073
 2364SOL    HW218552   2.928   1.003   6.374  0.2902  0.7269  0.2799
 2365SOL     OW18553   1.201   4.274   3.588  0.9951 -0.2293 -0.0143
 2365SOL    HW118554   1.122   4.221   3.594 -0.4436  1.9971  0.6502
 2365SOL    HW218555   1.184   4.328   3.512  1.2974  0.2803  0.2773
 2366SOL     OW18556   2.401   4.608   4.037  0.4997  0.3586 -0.4769
 2366SOL    HW118557   2.396   4.516   4.011 -2.4645 -0.3543  2.5984
 2366SOL    HW218558   2.484   4.637   3.999 -0.4215  2.5083 -0.8337
 2367SOL     OW18559   3.974   2.054   3.946  0.4591  0.6273  0.4367
 2367SOL    HW118560   4.038   1.986   3.925 -0.9914 -0.2648 -1.2174
 2367SOL    HW218561   4.004   2.108   4.018 -1.1990  2.1140  0.0165
 2368SOL     OW18562   0.983   2.591   9.179  0.3591 -0.1883 -0.2311
 2368SOL    HW118563   1.027   2.512   9.148  0.1214  0.3264 -1.8617
 2368SOL    HW218564   1.027   2.660   9.129  0.2291 -0.7336 -1.1051
 2369SOL     OW18565   0.855   0.527   7.808 -0.3075  0.4085 -0.0369
 2369SOL    HW118566   0.802   0.463   7.760  0.7963 -0.2026 -0.4325
 2369SOL    HW218567   0.812   0.610   7.789 -0.6698  0.9278  3.0011
 2370SOL     OW18568   4.170   4.695   9.435 -0.2900  0.4438 -0.5549
 2370SOL    HW118569   4.235   0.036   9.409 -0.2617  1.6627  2.4645
 2370SOL    HW218570   4.206   4.675   9.522 -0.7964  0.9733 -0.2212
 2371SOL     OW18571   4.344   0.581   5.254  0.1498  0.1581 -0.6406
 2371SOL    HW118572   4.263   0.617   5.217  0.1146  0.6773 -0.0604
 2371SOL    HW218573   4.409   0.618   5.194  1.5289 -0.6443  0.3710
 2372SOL     OW18574   0.152   1.541   7.244 -0.0505  0.2353 -0.2396
 2372SOL    HW118575   0.242   1.513   7.227 -0.9242 -2.0666 -1.1575
 2372SOL    HW218576   0.105   1.470   7.200  0.8172 -0.4083 -0.1202
 2373SOL     OW18577   2.412   4.229   1.213  0.1159 -1.2199  0.4357
 2373SOL    HW118578   2.436   4.187   1.295  1.1035  0.7400  1.1454
 2373SOL    HW218579   2.333   4.274   1.244  0.7336  0.4492 -0.4475
 2374SOL     OW18580   0.568   3.182   9.075 -0.3227 -0.0435 -0.4501
 2374SOL    HW118581   0.541   3.210   9.162  0.9592 -0.7706  0.1842
 2374SOL    HW218582   0.656   3.154   9.100 -0.4306  0.3726  0.3861
 2375SOL     OW18583   0.285   1.376   5.194  0.5710 -0.4179  0.2052
 2375SOL    HW118584   0.277   1.424   5.112  0.3777  0.6775  0.8651
 2375SOL    HW218585   0.357   1.317   5.170 -0.9648 -0.6629 -3.7687
 2376SOL     OW18586   2.283   3.286  10.434 -0.1437 -0.2494  0.4065
 2376SOL    HW118587   2.242   3.357  10.483 -1.8611 -2.0241  1.5342
 2376SOL    HW218588   2.219   3.280  10.362  0.7928  1.0219 -0.5259
 2377SOL     OW18589   4.655   2.611   5.690  0.5655 -0.1752  0.1357
 2377SOL    HW118590   4.626   2.529   5.649 -1.5484  0.7026 -0.1259
 2377SOL    HW218591   4.624   2.681   5.633  2.6454 -0.1808 -0.9993
 2378SOL     OW18592   4.029   4.021  13.303  0.4369 -0.1052  0.2445
 2378SOL    HW118593   3.962   4.084  13.332  3.4373  3.8210 -1.3595
 2378SOL    HW218594   4.034   3.961  13.377  0.1722  1.2022  1.3430
 2379SOL     OW18595   1.467   3.002   8.586  0.5597 -0.2491  0.0915
 2379SOL    HW118596   1.403   2.947   8.541  1.8914  0.9545 -3.2622
 2379SOL    HW218597   1.546   2.972   8.542  0.3008  0.8954 -1.1560
 2380SOL     OW18598   2.088   1.681  12.719 -0.8008 -0.4966  0.2873
 2380SOL    HW118599   2.145   1.633  12.659 -1.0464  0.6321 -0.8358
 2380SOL    HW218600   2.153   1.718  12.778 -0.0698  0.3672 -1.0616
 2381SOL     OW18601   0.853   3.977  11.317 -0.0430  0.2846  0.4107
 2381SOL    HW118602   0.829   4.013  11.232 -0.0522 -2.0136 -0.5698
 2381SOL    HW218603   0.949   3.975  11.309  0.0570  2.7477  0.9242
 2382SOL     OW18604   2.283   1.325   6.229 -0.2794 -0.0416  0.6754
 2382SOL    HW118605   2.229   1.297   6.155  0.1136 -0.9484  0.7310
 2382SOL    HW218606   2.216   1.330   6.297 -0.3464  1.4587  0.4940
 2383SOL     OW18607   0.690   1.175   4.855 -0.0428  1.1671  0.0789
 2383SOL    HW118608   0.766   1.226   4.881  0.4800 -0.0650  1.0014
 2383SOL    HW218609   0.654   1.236   4.791  0.2647 -1.7742 -2.9265
 2384SOL     OW18610   0.926   3.302   0.970 -0.5727  0.1005 -0.5422
 2384SOL    HW118611   0.831   3.295   0.981 -0.7531  2.3262 -0.7110
 2384SOL    HW218612   0.937   3.336   0.881  0.9398  1.4241  0.1385
 2385SOL     OW18613   0.581   2.237   5.839  0.1288 -0.1355 -0.5677
 2385SOL    HW118614   0.512   2.303   5.845  0.5365  0.3992 -1.7924
 2385SOL    HW218615   0.624   2.274   5.762 -1.1269  0.9437 -0.7519
 2386SOL     OW18616   3.865   4.084   1.425 -0.5313 -0.3583 -0.8158
 2386SOL    HW118617   3.868   4.013   1.488  3.0079 -0.0337 -0.5660
 2386SOL    HW218618   3.772   4.106   1.428 -0.0764  1.2236  1.7502
 2387SOL     OW18619   2.537   2.217   1.116 -0.1663  0.0557  0.4226
 2387SOL    HW118620   2.499   2.249   1.198 -0.0886  0.8888  0.1317
 2387SOL    HW218621   2.539   2.293   1.058 -0.7416  0.2530  0.6667
 2388SOL     OW18622   0.973   3.998   5.393 -0.2341 -0.4420 -0.0020
 2388SOL    HW118623   0.903   3.934   5.380 -0.0231 -1.0511  1.8175
 2388SOL    HW218624   0.949   4.054   5.320 -0.8878 -0.4551  0.2011
 2389SOL     OW18625   2.158   2.897  12.097 -0.1141 -0.5642  0.3259
 2389SOL    HW118626   2.072   2.858  12.115 -1.6213  1.5725 -2.2270
 2389SOL    HW218627   2.173   2.862  12.009 -1.3608  0.3974 -0.2672
 2390SOL     OW18628   2.093   1.289  12.444 -0.0434  0.4869 -0.1904
 2390SOL    HW118629   2.041   1.364  12.414 -2.8153 -0.9556  0.9669
 2390SOL    HW218630   2.067   1.279  12.535 -0.5272  0.9688 -0.2727
 2391SOL     OW18631   1.746   0.533   4.593  0.4209  0.1512  0.2883
 2391SOL    HW118632   1.716   0.478   4.521  0.4226 -0.1225  0.4997
 2391SOL    HW218633   1.687   0.500   4.660  0.0500 -2.8553 -1.4992
 2392SOL     OW18634   3.955   3.021   3.461  0.3846 -0.4138 -0.2951
 2392SOL    HW118635   3.876   3.053   3.417  0.0622 -0.8271 -0.0269
 2392SOL    HW218636   3.928   3.014   3.553  0.2661 -1.7647 -0.4228
 2393SOL     OW18637   0.444   3.835   4.867 -0.6738  0.3354  0.5388
 2393SOL    HW118638   0.358   3.871   4.844 -0.6060  0.2455  0.1627
 2393SOL    HW218639   0.456   3.863   4.958  0.2798  0.2670  0.4280
 2394SOL     OW18640   4.673   0.047   7.145  0.3239  0.3952 -0.2888
 2394SOL    HW118641   4.630   0.051   7.059  3.1681 -0.7480 -1.7586
 2394SOL    HW218642   4.708   4.682   7.134 -3.1292 -0.8875 -0.9171
 2395SOL     OW18643   1.625   1.980   1.997  0.2240  0.1281 -0.3575
 2395SOL    HW118644   1.544   1.943   1.965  0.0549  0.6700 -0.5602
 2395SOL    HW218645   1.673   1.898   2.006 -0.0096  0.1051  0.6445
 2396SOL     OW18646   1.814   1.424  12.419  0.1777 -0.2032  0.0472
 2396SOL    HW118647   1.796   1.331  12.432  1.4048 -0.2092  1.6087
 2396SOL    HW218648   1.781   1.475  12.493  0.1774 -0.8329  0.4844
 2397SOL     OW18649   2.234   3.497  12.408 -0.0203 -0.2003  0.1553
 2397SOL    HW118650   2.205   3.420  12.458  0.8853  0.1502  1.1906
 2397SOL    HW218651   2.149   3.528  12.376 -0.3400 -0.4134  0.8080
 2398SOL     OW18652   2.207   3.166   3.127 -1.1067  0.3294 -0.3942
 2398SOL    HW118653   2.147   3.102   3.088 -3.4464  0.9979  2.1052
 2398SOL    HW218654   2.228   3.219   3.050  0.7828  1.3645  0.8454
 2399SOL     OW18655   0.026   4.161   4.728 -0.7578  0.0783 -0.0434
 2399SOL    HW118656   4.674   4.204   4.769  0.8872  1.2415  1.7493
 2399SOL    HW218657   0.082   4.237   4.713  0.4670 -0.4154  1.9912
 2400SOL     OW18658   3.478   0.363   3.825 -0.6872  0.2122 -0.5382
 2400SOL    HW118659   3.387   0.379   3.847 -0.8539 -0.6416 -0.6246
 2400SOL    HW218660   3.513   0.349   3.914 -1.4632  0.0782 -0.2569
 2401SOL     OW18661   2.933   4.008   4.748 -0.2066 -0.3134  0.4425
 2401SOL    HW118662   3.022   4.040   4.734 -0.4055 -0.1738 -0.5440
 2401SOL    HW218663   2.895   4.034   4.664 -1.4434 -3.2393  0.0949
 2402SOL     OW18664   3.280   3.412   5.713 -0.4060  0.7393  0.0872
 2402SOL    HW118665   3.211   3.351   5.690 -1.2516  1.9225 -0.5050
 2402SOL    HW218666   3.347   3.378   5.653 -0.3086  0.7834  0.1711
 2403SOL     OW18667   4.389   2.572   2.028 -0.7718  0.0841  0.2006
 2403SOL    HW118668   4.470   2.559   1.979 -0.6257  0.4298  0.3496
 2403SOL    HW218669   4.421   2.652   2.071 -1.5297  0.3060  0.3595
 2404SOL     OW18670   1.480   3.168   4.537 -0.9589 -0.0699  0.1912
 2404SOL    HW118671   1.519   3.110   4.603 -0.6963  1.1994  1.1609
 2404SOL    HW218672   1.471   3.109   4.463 -0.1388  0.7006 -0.5162
 2405SOL     OW18673   0.475   2.040   7.307  0.5260  0.3226 -0.4631
 2405SOL    HW118674   0.407   1.977   7.333  0.6742  0.0066 -0.8471
 2405SOL    HW218675   0.435   2.070   7.226 -0.0201 -0.8415 -0.6260
 2406SOL     OW18676   2.108   3.008   5.016  0.0077 -0.3724 -0.3723
 2406SOL    HW118677   2.070   2.952   4.949  0.4413 -1.1451  0.0255
 2406SOL    HW218678   2.068   3.089   4.985  1.2188 -0.4645 -2.1264
 2407SOL     OW18679   1.575   0.813   8.347 -0.4615  0.1330 -0.0791
 2407SOL    HW118680   1.586   0.903   8.318 -2.0206  1.0582  2.2137
 2407SOL    HW218681   1.668   0.790   8.343 -0.0354  2.0165 -0.9975
 2408SOL     OW18682   2.801   4.640   2.671  0.1630  0.0949 -0.1335
 2408SOL    HW118683   2.881   4.677   2.707 -0.3564  2.3364 -1.2798
 2408SOL    HW218684   2.761   4.713   2.623 -0.4231 -0.4103 -0.4164
 2409SOL     OW18685   4.583   3.649   4.313 -0.2450  0.4037  0.0445
 2409SOL    HW118686   4.618   3.737   4.326  0.6938 -0.2126  1.6043
 2409SOL    HW218687   4.553   3.655   4.222 -0.5669  0.4045  0.1507
 2410SOL     OW18688   3.658   2.364   5.782  0.4550  0.0357  0.1394
 2410SOL    HW118689   3.654   2.455   5.809 -2.3124 -0.2608  0.7399
 2410SOL    HW218690   3.721   2.324   5.842 -1.3233 -1.7930  0.8168
 2411SOL     OW18691   2.922   1.149   3.423 -0.0678  0.7288 -0.1614
 2411SOL    HW118692   2.997   1.124   3.368 -0.0172  0.9026 -0.1726
 2411SOL    HW218693   2.911   1.240   3.393  1.6234  1.5232  1.5897
 2412SOL     OW18694   4.469   1.764   0.620 -0.0465 -0.2562  0.5389
 2412SOL    HW118695   4.472   1.801   0.531  1.2557 -1.1308  0.2121
 2412SOL    HW218696   4.379   1.784   0.647  0.1445 -1.2255  1.8554
 2413SOL     OW18697   1.688   4.472   7.887  0.4070  0.0197 -0.5399
 2413SOL    HW118698   1.670   4.382   7.912 -1.6947  0.4976 -0.3774
 2413SOL    HW218699   1.638   4.517   7.955 -0.0893  2.0332 -2.2368
 2414SOL     OW18700   1.546   1.559   9.010 -0.4556  0.2781  0.3402
 2414SOL    HW118701   1.609   1.488   8.998  0.0536  0.6826  0.5999
 2414SOL    HW218702   1.545   1.595   8.921 -1.2372  0.0403  0.2506
 2415SOL     OW18703   3.364   2.233   6.469 -0.1706 -0.4825 -0.5415
 2415SOL    HW118704   3.299   2.218   6.401 -1.0932  0.2456  0.1658
 2415SOL    HW218705   3.423   2.302   6.439  0.2231 -0.6353 -0.1380
 2416SOL     OW18706   1.670   0.173   2.455  0.2597 -0.1670  0.4508
 2416SOL    HW118707   1.743   0.134   2.406  0.2370 -1.5117  1.4527
 2416SOL    HW218708   1.724   0.198   2.530  0.2904 -2.2525  1.1327
 2417SOL     OW18709   2.667   4.194   8.368  0.4499 -0.1080 -0.3177
 2417SOL    HW118710   2.630   4.262   8.312 -0.5549  1.9522  2.8358
 2417SOL    HW218711   2.589   4.174   8.419 -0.4049  0.1434 -1.5192
 2418SOL     OW18712   2.313   1.498   8.038  0.0683  0.0938  0.1508
 2418SOL    HW118713   2.278   1.465   7.956 -1.6384  1.4699  0.3088
 2418SOL    HW218714   2.382   1.552   7.998 -0.2937  0.1751 -0.3685
 2419SOL     OW18715   3.295   2.000  13.537  0.4162  0.0577  0.6177
 2419SOL    HW118716   3.308   1.976  13.445 -1.2110  0.3116  0.3120
 2419SOL    HW218717   3.371   1.958  13.576 -0.4184 -3.8910 -1.9668
 2420SOL     OW18718   2.913   2.289   3.662 -0.6293  0.4912  0.3688
 2420SOL    HW118719   3.006   2.309   3.654 -0.8488  0.5821 -1.8091
 2420SOL    HW218720   2.916   2.199   3.695  2.4464  0.7729  0.8283
 2421SOL     OW18721   1.985   2.845  11.680  0.4682  0.0505  0.5092
 2421SOL    HW118722   1.980   2.940  11.681  0.2385  0.0398 -0.3425
 2421SOL    HW218723   1.901   2.813  11.647  0.3865 -0.6422  1.3795
 2422SOL     OW18724   0.475   0.161  12.637 -0.2786  0.3235  0.0343
 2422SOL    HW118725   0.432   0.084  12.675 -1.3207  1.1903  0.6213
 2422SOL    HW218726   0.567   0.137  12.640 -0.2591  0.2439 -1.0675
 2423SOL     OW18727   2.413   3.453  12.688 -0.1900 -0.7288 -0.4563
 2423SOL    HW118728   2.370   3.497  12.762 -0.8605 -1.0201 -0.6702
 2423SOL    HW218729   2.419   3.526  12.626  0.3223  0.4043  0.9207
 2424SOL     OW18730   3.623   2.803   6.565 -0.1205  0.4752  0.2481
 2424SOL    HW118731   3.622   2.799   6.661 -3.2914  0.0909  0.1994
 2424SOL    HW218732   3.537   2.766   6.543 -0.2952  1.0821 -0.0977
 2425SOL     OW18733   1.320   0.392  10.434 -0.2561  0.7533 -0.0850
 2425SOL    HW118734   1.384   0.325  10.410 -0.1357  0.3220  1.4638
 2425SOL    HW218735   1.354   0.466  10.383 -1.6277  2.1311  1.0089
 2426SOL     OW18736   3.840   1.515  13.465 -0.0420  0.6710  0.0052
 2426SOL    HW118737   3.879   1.545  13.383 -0.6448  2.6196  0.4435
 2426SOL    HW218738   3.916   1.532  13.521 -1.6906  1.3336  1.9919
 2427SOL     OW18739   1.275   0.158   1.620 -0.0288  0.0939 -0.3687
 2427SOL    HW118740   1.225   0.082   1.591 -1.1340  1.1929 -1.3421
 2427SOL    HW218741   1.198   0.210   1.643  0.0722  0.7515 -1.4759
 2428SOL     OW18742   0.912   1.845  12.264 -0.5896  0.2029 -0.6323
 2428SOL    HW118743   0.929   1.800  12.181 -1.0037  3.2590 -2.3847
 2428SOL    HW218744   0.942   1.781  12.328 -1.4132 -0.3990 -0.8455
 2429SOL     OW18745   2.134   4.372  12.764  0.1839 -0.0311 -0.4194
 2429SOL    HW118746   2.060   4.340  12.713  0.5974  2.1875 -2.3889
 2429SOL    HW218747   2.123   4.317  12.842  1.2755  0.3656  0.0193
 2430SOL     OW18748   2.278   3.715   2.024 -0.1060 -0.7942  0.2620
 2430SOL    HW118749   2.247   3.693   1.936  1.6920  0.5671 -0.7208
 2430SOL    HW218750   2.330   3.638   2.047 -0.1804 -1.3170 -1.2892
 2431SOL     OW18751   0.464   2.328  15.460  0.1424 -0.2327  0.0076
 2431SOL    HW118752   0.460   2.405  15.517 -0.5966 -0.0580 -0.2874
 2431SOL    HW218753   0.396   2.274  15.498  0.1001 -0.5318 -0.5069
 2432SOL     OW18754   0.356   1.417   9.192  0.3746 -0.2773 -0.2273
 2432SOL    HW118755   0.439   1.403   9.147 -0.1880 -0.4320 -1.2091
 2432SOL    HW218756   0.367   1.351   9.261  1.9427 -0.1679 -0.3789
 2433SOL     OW18757   0.669   3.369  11.752 -0.3240  0.0758  0.2315
 2433SOL    HW118758   0.683   3.406  11.839 -2.9118  0.1595  0.6141
 2433SOL    HW218759   0.629   3.446  11.710 -0.1614 -0.1414 -0.3268
 2434SOL     OW18760   0.086   1.052   1.391 -0.0914  0.6427  0.1205
 2434SOL    HW118761   0.104   1.124   1.452  0.8532  1.8689 -1.5878
 2434SOL    HW218762   0.170   1.007   1.393 -0.0088  0.5974 -3.7750
 2435SOL     OW18763   4.334   1.374   4.148 -0.0229 -0.0978 -0.1983
 2435SOL    HW118764   4.377   1.448   4.191  1.9918 -0.2022 -2.0538
 2435SOL    HW218765   4.363   1.297   4.197 -1.8508 -0.6918 -0.0209
 2436SOL     OW18766   3.955   2.653   4.377  0.1902  0.2298  0.3731
 2436SOL    HW118767   3.976   2.611   4.294 -0.4622 -1.3740  1.0230
 2436SOL    HW218768   3.924   2.736   4.341 -0.9260 -0.2246  0.2895
 2437SOL     OW18769   2.553   3.570   9.751 -0.2723 -0.6096  0.0906
 2437SOL    HW118770   2.582   3.651   9.793  0.1933  0.3011 -1.9910
 2437SOL    HW218771   2.543   3.601   9.661  1.2959 -1.5418 -0.4174
 2438SOL     OW18772   4.010   4.561   3.013 -0.6665 -0.0575  0.1348
 2438SOL    HW118773   4.011   4.635   3.073 -1.0322  0.0166  0.0494
 2438SOL    HW218774   3.931   4.590   2.968 -0.2817 -0.5641 -0.8695
 2439SOL     OW18775   2.560   1.240  15.865 -0.4646  0.3502 -0.1777
 2439SOL    HW118776   2.640   1.239  15.812 -0.3663  1.8120 -0.0587
 2439SOL    HW218777   2.586   1.309  15.927  1.7393  0.4737 -1.2405
 2440SOL     OW18778   0.171   1.507   2.905  0.3791  0.5574 -0.5918
 2440SOL    HW118779   0.096   1.536   2.958  0.4361 -0.5890  0.1127
 2440SOL    HW218780   0.236   1.488   2.973 -1.8935  1.7372  1.9262
 2441SOL     OW18781   4.159   0.363   1.477 -0.6213 -0.4116  0.2540
 2441SOL    HW118782   4.091   0.353   1.544  0.3249 -2.3176  0.9574
 2441SOL    HW218783   4.199   0.435   1.526  0.3663 -1.9270  1.6857
 2442SOL     OW18784   3.617   0.192   4.780  0.1978  0.5602  0.4255
 2442SOL    HW118785   3.656   0.201   4.867  1.3343  3.4367 -0.3783
 2442SOL    HW218786   3.535   0.234   4.807  0.4258  0.0330  1.9765
 2443SOL     OW18787   2.376   4.501  12.747 -0.4508  0.6355 -0.0159
 2443SOL    HW118788   2.444   4.482  12.682 -0.8506 -1.5644  0.1880
 2443SOL    HW218789   2.308   4.439  12.721  0.2075 -0.4969  0.9459
 2444SOL     OW18790   4.466   1.482   6.464  0.1495 -0.9874  0.6033
 2444SOL    HW118791   4.548   1.510   6.506 -1.3730  4.2410  0.1136
 2444SOL    HW218792   4.482   1.505   6.373  3.4362  0.8903  1.6456
 2445SOL     OW18793   3.430   0.422   2.464 -0.1873  0.3027 -0.0084
 2445SOL    HW118794   3.485   0.492   2.430  1.0311 -0.8328 -0.3578
 2445SOL    HW218795   3.348   0.447   2.422  0.2141  0.7715 -0.5099
 2446SOL     OW18796   1.660   0.391   5.950  0.7940 -0.3112  0.2224
 2446SOL    HW118797   1.697   0.478   5.936 -2.0447  0.7058 -0.8871
 2446SOL    HW218798   1.633   0.391   6.042 -0.9891  1.0176 -0.3127
 2447SOL     OW18799   3.961   1.848   2.636  0.0198  0.1194  0.0665
 2447SOL    HW118800   3.901   1.774   2.644 -0.0602  0.0131 -1.4800
 2447SOL    HW218801   4.044   1.806   2.614  0.4176  1.9819 -2.0574
 2448SOL     OW18802   3.928   2.705  12.445  0.0158  0.1142 -0.2353
 2448SOL    HW118803   4.005   2.761  12.437  0.6010 -0.8028 -1.1256
 2448SOL    HW218804   3.927   2.650  12.366  0.8548 -0.9188  0.4637
 2449SOL     OW18805   0.106   0.455   5.998 -0.2495  0.3536  0.1979
 2449SOL    HW118806   0.039   0.427   5.936  0.6999 -0.5746 -0.4037
 2449SOL    HW218807   0.175   0.395   5.971  1.2266  1.4903  1.4347
 2450SOL     OW18808   0.938   1.022  12.716 -0.3703  0.2870 -0.3311
 2450SOL    HW118809   0.939   0.946  12.775 -2.1191  0.8676  0.4474
 2450SOL    HW218810   0.999   1.070  12.772 -1.9670  1.0990  0.7086
 2451SOL     OW18811   2.205   0.659   8.818 -0.3072  0.0013 -0.6890
 2451SOL    HW118812   2.243   0.678   8.732 -0.1140 -0.0143 -0.6081
 2451SOL    HW218813   2.207   0.563   8.813 -1.4010 -0.0767  0.4530
 2452SOL     OW18814   0.427   3.467   4.352  0.4286  0.1040 -0.1916
 2452SOL    HW118815   0.513   3.450   4.314  0.8838  3.2095 -0.5167
 2452SOL    HW218816   0.384   3.514   4.280  0.9122  1.1545  0.2011
 2453SOL     OW18817   2.028   3.148   7.606  0.2113  0.4245 -0.2843
 2453SOL    HW118818   2.031   3.056   7.579  1.3952  0.3655  0.0622
 2453SOL    HW218819   2.107   3.167   7.656  1.0405  1.2434 -1.8986
 2454SOL     OW18820   1.768   0.710   9.011  0.1709  0.4648 -0.0762
 2454SOL    HW118821   1.700   0.725   9.077  0.9279  0.8059  0.6187
 2454SOL    HW218822   1.713   0.709   8.933  0.0906  1.7168 -0.0257
 2455SOL     OW18823   1.896   1.053   3.751  0.5285  0.0748  0.4807
 2455SOL    HW118824   1.937   0.991   3.691  1.5881  1.0767  0.1549
 2455SOL    HW218825   1.925   1.017   3.835 -1.1706 -2.0656  0.1374
 2456SOL     OW18826   1.180   0.324   8.728  0.0030  0.4639  0.3635
 2456SOL    HW118827   1.094   0.290   8.702  0.5816  1.8509 -3.4312
 2456SOL    HW218828   1.145   0.406   8.761 -2.0867 -0.1596 -0.2892
 2457SOL     OW18829   4.248   2.976   7.120  0.2497  0.0866 -0.3383
 2457SOL    HW118830   4.236   3.005   7.211 -3.0411 -0.8949 -0.4397
 2457SOL    HW218831   4.305   2.901   7.135  1.3188  1.2744  1.5145
 2458SOL     OW18832   4.020   3.513   2.271 -0.0241 -0.0913 -0.0281
 2458SOL    HW118833   4.036   3.459   2.348  1.0820  0.7239  0.3043
 2458SOL    HW218834   4.024   3.440   2.208  1.7237 -0.1051  0.0833
 2459SOL     OW18835   0.787   1.623   9.872 -0.0411 -0.1846  0.5439
 2459SOL    HW118836   0.807   1.658   9.959 -1.8507  1.8110  0.1658
 2459SOL    HW218837   0.804   1.532   9.893  2.7075  0.2629  0.2969
 2460SOL     OW18838   3.914   2.266  16.618 -0.1452  0.1537  0.3156
 2460SOL    HW118839   3.923   2.207  16.693 -4.5790  0.2250  0.8973
 2460SOL    HW218840   3.948   2.209  16.550  1.1420  0.9263  0.3124
 2461SOL     OW18841   0.817   0.778   7.478 -0.6135  0.0354  0.0241
 2461SOL    HW118842   0.725   0.803   7.466 -0.0673  0.9860 -2.2665
 2461SOL    HW218843   0.854   0.810   7.396 -0.8116  1.1861  0.3948
 2462SOL     OW18844   3.485   0.591  17.299  0.2218  0.4195 -0.1350
 2462SOL    HW118845   3.577   0.570  17.285  0.3395  1.0599 -0.3254
 2462SOL    HW218846   3.490   0.683  17.326  1.1835 -0.0635  1.2915
 2463SOL     OW18847   1.606   3.518   7.261 -0.1811 -0.6699 -0.1591
 2463SOL    HW118848   1.516   3.520   7.294  0.2142 -2.0978  0.9923
 2463SOL    HW218849   1.587   3.506   7.167  1.0006 -0.5270 -0.4179
 2464SOL     OW18850   3.795   3.120   4.898 -0.4188  0.0609  0.5559
 2464SOL    HW118851   3.852   3.099   4.972  1.2093  1.0668 -0.4280
 2464SOL    HW218852   3.860   3.114   4.828 -0.7962  1.3634  0.0941
 2465SOL     OW18853   0.236   2.842   2.797  0.2011 -0.0609 -0.0558
 2465SOL    HW118854   0.156   2.842   2.850 -0.7924 -0.3717 -1.5621
 2465SOL    HW218855   0.271   2.928   2.777 -0.5141 -0.0015 -1.0281
 2466SOL     OW18856   2.191   3.907   3.836 -0.5248  0.1943 -0.1232
 2466SOL    HW118857   2.261   3.884   3.898  0.5709 -0.0907 -1.4522
 2466SOL    HW218858   2.253   3.917   3.764  1.4190  0.1479  1.5232
 2467SOL     OW18859   2.983   1.848   1.914 -0.4581 -0.7514  0.1146
 2467SOL    HW118860   2.987   1.753   1.913  1.8947 -0.6316 -0.8780
 2467SOL    HW218861   2.928   1.869   1.989 -0.4144  0.5190 -0.1969
 2468SOL     OW18862   2.525   3.806   4.338  0.2854  0.2371 -0.1876
 2468SOL    HW118863   2.513   3.729   4.283 -0.7152 -0.8974  1.6339
 2468SOL    HW218864   2.528   3.874   4.270 -0.4627  1.0271  0.5580
 2469SOL     OW18865   1.144   2.616   1.988 -1.0710 -0.0040 -0.0255
 2469SOL    HW118866   1.183   2.658   1.911 -0.3107 -0.6218  0.0262
 2469SOL    HW218867   1.210   2.611   2.057 -0.0957 -0.1592 -0.9756
 2470SOL     OW18868   0.163   3.836   8.062 -0.1591 -0.4658 -0.2436
 2470SOL    HW118869   0.199   3.771   8.001 -2.0163 -1.2187 -0.5667
 2470SOL    HW218870   0.124   3.779   8.129  1.5470 -0.2215  0.9515
 2471SOL     OW18871   2.486   0.265   7.181  0.1398 -0.1502  0.1271
 2471SOL    HW118872   2.549   0.194   7.192 -0.0770 -0.5643 -1.2805
 2471SOL    HW218873   2.411   0.215   7.214 -0.1567 -0.6652 -1.3041
 2472SOL     OW18874   0.389   1.934   9.991 -0.1734 -0.5189 -0.1604
 2472SOL    HW118875   0.344   1.955   9.909  3.3861  2.2352 -1.4027
 2472SOL    HW218876   0.479   1.965   9.978 -0.5213  0.7634  0.5152
 2473SOL     OW18877   3.320   2.572   0.722  0.6844 -0.0503  0.1039
 2473SOL    HW118878   3.251   2.506   0.709  0.4739  0.7246 -2.5229
 2473SOL    HW218879   3.399   2.525   0.750 -0.2232  0.7598  4.1321
 2474SOL     OW18880   3.960   1.703  13.243  0.2062 -0.3363  0.3390
 2474SOL    HW118881   3.955   1.665  13.156  0.1865  0.3015  0.0633
 2474SOL    HW218882   3.886   1.764  13.245  0.5885  0.0808  2.1354
 2475SOL     OW18883   1.530   1.113   9.624 -0.2322  0.1614  0.0636
 2475SOL    HW118884   1.525   1.195   9.673  2.0727  0.3226  0.0282
 2475SOL    HW218885   1.552   1.057   9.698 -0.6859  0.6776  0.5925
 2476SOL     OW18886   0.292   1.342  14.980  0.0484  0.9076 -0.2339
 2476SOL    HW118887   0.351   1.392  14.924 -0.9267 -0.6965 -2.6381
 2476SOL    HW218888   0.355   1.272  14.997  0.7380  1.9961  1.7581
 2477SOL     OW18889   2.931   2.928  16.677  0.2995  0.1909  0.0756
 2477SOL    HW118890   2.982   2.883  16.745  0.7700  1.9733  0.8874
 2477SOL    HW218891   2.845   2.887  16.686 -0.3690  2.4393  3.9309
 2478SOL     OW18892   0.950   4.504   6.819  0.1256  0.1220 -0.7865
 2478SOL    HW118893   0.988   4.524   6.904 -0.6742 -1.4147 -0.0739
 2478SOL    HW218894   0.897   4.426   6.834  0.9353 -0.0660  1.0248
 2479SOL     OW18895   0.174   1.916   8.311 -0.3492  0.2260 -0.3449
 2479SOL    HW118896   0.139   1.829   8.333 -0.7728  0.1405 -1.3501
 2479SOL    HW218897   0.243   1.888   8.251  0.0628  1.6951 -0.5556
 2480SOL     OW18898   2.974   0.915   3.801  0.1936 -0.3592  0.0814
 2480SOL    HW118899   3.056   0.946   3.763 -0.1936  0.5459 -0.0189
 2480SOL    HW218900   2.939   1.002   3.822  0.1423 -0.2027 -0.6520
 2481SOL     OW18901   0.534   0.777   7.423  0.4220 -0.6498 -0.3626
 2481SOL    HW118902   0.488   0.707   7.376 -2.1899  0.4270  0.6208
 2481SOL    HW218903   0.498   0.772   7.512  1.1027 -3.9892 -0.2781
 2482SOL     OW18904   4.399   1.237   1.435  0.9494 -0.1315 -0.1385
 2482SOL    HW118905   4.446   1.271   1.359 -0.0086  1.0992 -0.1886
 2482SOL    HW218906   4.468   1.248   1.501  2.1978  1.1805 -1.6754
 2483SOL     OW18907   0.178   3.069   2.191 -0.3064 -0.2364  0.8910
 2483SOL    HW118908   0.219   2.990   2.156 -0.9515  0.0397 -0.4981
 2483SOL    HW218909   0.235   3.132   2.147 -3.1857  2.4104  0.9216
 2484SOL     OW18910   4.562   2.521   4.095 -0.2614  0.2133  0.0614
 2484SOL    HW118911   4.652   2.532   4.065 -1.5384 -0.4618 -4.0110
 2484SOL    HW218912   4.521   2.446   4.050 -1.6586  1.0171 -0.0076
 2485SOL     OW18913   3.585   1.908   8.996  0.2608  0.2008 -0.8201
 2485SOL    HW118914   3.498   1.911   8.957  0.4835  0.9122 -1.2535
 2485SOL    HW218915   3.573   1.820   9.032 -4.2327  0.1715 -2.4907
 2486SOL     OW18916   3.277   2.676  16.538  0.3471  0.5707  0.1725
 2486SOL    HW118917   3.239   2.624  16.467  0.9928 -1.3943  1.2503
 2486SOL    HW218918   3.303   2.610  16.603  0.1659  0.9727  0.6513
 2487SOL     OW18919   0.217   4.696   8.014 -0.0350 -0.3711  0.1970
 2487SOL    HW118920   0.154   4.662   8.078 -1.1691  3.4382  1.0940
 2487SOL    HW218921   0.187   4.649   7.936  0.7629  0.5774 -0.6766
 2488SOL     OW18922   2.704   4.601   6.486  0.3691  0.2116  0.2109
 2488SOL    HW118923   2.680   4.522   6.534  1.2436 -1.1610 -1.6255
 2488SOL    HW218924   2.707   4.667   6.555  1.4731  0.3506  0.0205
 2489SOL     OW18925   0.051   3.620   4.827 -0.5746  0.1246  0.0012
 2489SOL    HW118926   0.083   3.668   4.750  0.1795 -1.2888 -0.5545
 2489SOL    HW218927   4.694   3.665   4.855 -0.8679  0.8787 -2.0445
 2490SOL     OW18928   0.395   4.028   5.363 -0.1648 -0.0339  0.5437
 2490SOL    HW118929   0.394   4.110   5.413 -3.4265  0.0336  0.3672
 2490SOL    HW218930   0.306   3.995   5.379 -0.0553  2.3846  6.4851
 2491SOL     OW18931   4.230   3.716   5.032 -0.1101  0.5478 -0.3342
 2491SOL    HW118932   4.270   3.629   5.025  1.4632  1.2435 -0.1036
 2491SOL    HW218933   4.274   3.750   5.110 -0.7380  0.2392  0.1536
 2492SOL     OW18934   2.639   4.083   2.804  0.6158  0.3968 -0.4554
 2492SOL    HW118935   2.624   4.080   2.898  2.9069  0.2695 -0.0950
 2492SOL    HW218936   2.550   4.115   2.787  0.4959  0.1048 -0.3877
 2493SOL     OW18937   1.256   4.371   6.031 -0.0380  0.4232 -0.0327
 2493SOL    HW118938   1.293   4.393   5.946  2.7329 -1.1308  0.7606
 2493SOL    HW218939   1.170   4.350   5.994 -0.0579 -1.1135  0.8587
 2494SOL     OW18940   1.059   1.076   5.426 -0.0411  0.4155 -0.1275
 2494SOL    HW118941   1.040   0.982   5.428 -0.4771  0.5206  0.7283
 2494SOL    HW218942   1.057   1.085   5.331 -0.0998 -2.0496 -0.3553
 2495SOL     OW18943   2.340   3.708   3.116 -0.1661  0.2225 -0.0421
 2495SOL    HW118944   2.383   3.703   3.031  0.0884  0.4649  0.0718
 2495SOL    HW218945   2.248   3.713   3.092 -0.3454  0.8475  0.7570
 2496SOL     OW18946   2.940   2.052   3.961  0.5422 -0.3088 -0.2132
 2496SOL    HW118947   2.874   2.005   3.909 -1.1099  0.4790  1.1633
 2496SOL    HW218948   2.892   2.134   3.974  1.4923  0.0317  1.1357
 2497SOL     OW18949   3.362   2.284   4.044 -0.0088  0.1821 -0.1107
 2497SOL    HW118950   3.293   2.229   4.081 -0.2593 -0.2928 -1.2915
 2497SOL    HW218951   3.415   2.222   3.995  1.4710  0.5964  0.9554
 2498SOL     OW18952   0.942   0.037   3.246  0.5478 -0.1568 -0.1094
 2498SOL    HW118953   0.931   0.085   3.328 -2.8135 -0.5946 -0.3197
 2498SOL    HW218954   0.979   0.106   3.192 -1.2405  1.0115  0.1751
 2499SOL     OW18955   2.277   3.678   8.349 -0.0312  0.1023 -0.2008
 2499SOL    HW118956   2.233   3.717   8.273 -1.3318 -1.8375 -0.4424
 2499SOL    HW218957   2.274   3.744   8.418  0.4095  2.3881 -2.3803
 2500SOL     OW18958   1.153   4.361  10.934 -0.7663 -0.9447  0.1157
 2500SOL    HW118959   1.140   4.452  10.910 -2.3292 -2.0268 -3.0900
 2500SOL    HW218960   1.249   4.364  10.943 -0.9595 -0.0730  1.8517
 2501SOL     OW18961   3.856   3.341   7.060 -0.8411 -0.3657  0.4431
 2501SOL    HW118962   3.928   3.332   7.123 -1.6665 -3.9064  0.8986
 2501SOL    HW218963   3.876   3.429   7.030 -0.7782 -0.8803 -1.0187
 2502SOL     OW18964   3.900   3.266   5.444  0.1439  0.0824 -0.2240
 2502SOL    HW118965   3.838   3.297   5.378 -1.0783 -0.0830  0.8433
 2502SOL    HW218966   3.832   3.233   5.503  2.5567 -1.7737  1.5161
 2503SOL     OW18967   4.481   0.385  16.656 -0.5969  0.0912 -0.0504
 2503SOL    HW118968   4.531   0.358  16.733 -0.1626  0.5527 -0.1723
 2503SOL    HW218969   4.512   0.315  16.599  1.1154 -0.6331  1.7959
 2504SOL     OW18970   1.621   2.576   4.577 -0.1180 -0.0086 -0.5879
 2504SOL    HW118971   1.665   2.498   4.610 -1.9421  0.3390  2.6468
 2504SOL    HW218972   1.669   2.601   4.498 -0.3525 -1.6802 -1.2394
 2505SOL     OW18973   0.291   3.400  11.147  0.4011  0.1213  0.3609
 2505SOL    HW118974   0.354   3.460  11.185 -0.0230  0.0334  1.1893
 2505SOL    HW218975   0.239   3.370  11.221  2.8141  1.6756  2.6791
 2506SOL     OW18976   2.327   3.441   4.389 -0.5955  0.4355 -0.4293
 2506SOL    HW118977   2.385   3.506   4.348  0.4650 -0.9558 -1.1424
 2506SOL    HW218978   2.244   3.484   4.406 -0.0714  0.3083  2.4877
 2507SOL     OW18979   2.048   3.869   2.852  0.0469  0.5376 -0.6343
 2507SOL    HW118980   2.030   3.824   2.935  1.1445  1.7719  0.2842
 2507SOL    HW218981   2.014   3.958   2.862 -0.0205  0.8265 -3.3669
 2508SOL     OW18982   4.443   3.495   9.422 -0.0730 -0.3851  0.5080
 2508SOL    HW118983   4.516   3.475   9.363  1.0204  0.7704  1.4566
 2508SOL    HW218984   4.469   3.586   9.437 -1.1203 -0.0533  0.2866
 2509SOL     OW18985   4.609   1.571   0.795  0.4189  0.3326 -0.4755
 2509SOL    HW118986   4.556   1.633   0.744  1.2749  0.6364 -1.0038
 2509SOL    HW218987   4.544   1.522   0.845  1.1993  0.6557  0.8485
 2510SOL     OW18988   1.392   4.043   5.225 -0.7364 -0.5419 -0.0324
 2510SOL    HW118989   1.331   3.990   5.275  0.5133  0.2281  2.3111
 2510SOL    HW218990   1.380   4.130   5.263 -1.0604 -0.2546 -0.7893
 2511SOL     OW18991   3.972   4.281   1.203 -0.2202 -0.2929  0.4274
 2511SOL    HW118992   3.915   4.278   1.280  0.1799  1.6249  0.8060
 2511SOL    HW218993   4.010   4.194   1.213  0.7412  0.2241  1.3009
 2512SOL     OW18994   1.764   2.536   2.106  0.0379  0.5726 -0.3292
 2512SOL    HW118995   1.797   2.471   2.168  0.4685  0.4807 -0.6562
 2512SOL    HW218996   1.772   2.618   2.155 -0.5906  1.2376 -1.3233
 2513SOL     OW18997   4.345   2.584  11.997  0.4722  0.2083  0.8875
 2513SOL    HW118998   4.370   2.660  11.943 -2.7849 -0.3134 -1.3879
 2513SOL    HW218999   4.343   2.629  12.081  1.1114 -0.9831  1.5316
 2514SOL     OW19000   0.054   3.599  17.641 -0.1310  0.4288  0.0379
 2514SOL    HW119001   0.095   3.576   0.030 -0.1170  1.8292  0.4050
 2514SOL    HW219002   0.091   3.687  17.632  1.4976 -0.3277 -0.6153
 2515SOL     OW19003   2.113   4.385   6.843 -0.0078 -0.6190 -0.1484
 2515SOL    HW119004   2.096   4.328   6.769 -0.7446  2.4226 -2.3117
 2515SOL    HW219005   2.116   4.326   6.919 -2.4706 -1.3737 -0.6441
 2516SOL     OW19006   1.447   1.661  12.356  0.1038 -0.1931  0.1761
 2516SOL    HW119007   1.502   1.597  12.311 -1.7565 -1.5720 -0.1608
 2516SOL    HW219008   1.408   1.698  12.276  0.1891 -2.2751 -0.8171
 2517SOL     OW19009   2.427   1.257   5.822 -0.1718  0.6568 -0.2528
 2517SOL    HW119010   2.459   1.167   5.829  2.0693  1.4475 -0.5578
 2517SOL    HW219011   2.510   1.303   5.828  0.3283 -0.3704  0.6484
 2518SOL     OW19012   1.262   0.422   0.782 -0.1785  0.3439 -0.0879
 2518SOL    HW119013   1.222   0.483   0.720 -2.2850 -0.0402  0.8841
 2518SOL    HW219014   1.349   0.459   0.792  1.0348 -2.1755 -1.2802
 2519SOL     OW19015   1.593   4.388   1.444  0.1527 -0.0784 -0.0307
 2519SOL    HW119016   1.674   4.339   1.457  0.4575  0.7026  1.0173
 2519SOL    HW219017   1.566   4.370   1.354 -0.4283  0.3289  0.0600
 2520SOL     OW19018   3.396   4.257   2.765 -0.5544 -0.3398 -0.4929
 2520SOL    HW119019   3.384   4.348   2.792 -0.8964 -0.8512  1.0620
 2520SOL    HW219020   3.453   4.221   2.833 -1.7869 -0.9020  0.2447
 2521SOL     OW19021   0.286   2.526   0.044 -0.1328 -0.5723 -0.3250
 2521SOL    HW119022   0.238   2.539   0.126 -1.4000  0.8130 -1.2888
 2521SOL    HW219023   0.352   2.467   0.081  0.5592 -0.9022 -2.1115
 2522SOL     OW19024   2.965   4.589  11.156  0.2713 -0.2100 -0.1824
 2522SOL    HW119025   2.920   4.506  11.172  2.9705 -1.9227 -1.4757
 2522SOL    HW219026   2.953   4.646  11.232  1.5333 -0.6767  0.3639
 2523SOL     OW19027   1.034   0.456  16.852  0.1648  0.1368  0.6364
 2523SOL    HW119028   1.050   0.531  16.910  2.0916 -0.9890  1.5608
 2523SOL    HW219029   0.946   0.433  16.882 -0.0785  0.1276 -0.0793
 2524SOL     OW19030   4.219   3.821   7.850 -0.5906 -0.2931  0.7010
 2524SOL    HW119031   4.278   3.835   7.775  1.9959  1.3538  3.0287
 2524SOL    HW219032   4.225   3.726   7.854  0.9474 -0.1827  1.1351
 2525SOL     OW19033   2.340   2.870  11.581  0.9364  0.5053 -0.5763
 2525SOL    HW119034   2.292   2.845  11.661  1.7334  0.1432 -0.2061
 2525SOL    HW219035   2.425   2.888  11.621  1.3562 -1.7205 -0.4171
 2526SOL     OW19036   2.642   3.812  14.683  0.3823  0.6914  0.2970
 2526SOL    HW119037   2.608   3.842  14.767  1.0019 -1.7490  1.4020
 2526SOL    HW219038   2.617   3.720  14.674  0.9735  0.5017  0.5871
 2527SOL     OW19039   0.813   3.179   3.510 -0.0047 -0.3611  0.0322
 2527SOL    HW119040   0.829   3.128   3.430  0.9262 -0.7790  0.4838
 2527SOL    HW219041   0.741   3.240   3.495  1.4059  0.8439 -1.7827
 2528SOL     OW19042   3.858   1.997   8.905  0.5154 -0.4729  0.3060
 2528SOL    HW119043   3.783   1.997   8.965 -0.3772 -2.5605 -0.7961
 2528SOL    HW219044   3.833   1.942   8.831 -1.9287  0.3298  0.5424
 2529SOL     OW19045   0.630   2.155  14.872  0.8184 -0.4482 -0.5996
 2529SOL    HW119046   0.652   2.071  14.832 -0.3276 -1.1844  0.2850
 2529SOL    HW219047   0.631   2.217  14.800 -1.5237 -3.5669 -3.3164
 2530SOL     OW19048   4.120   1.281  14.204 -0.2088  0.8691 -0.2236
 2530SOL    HW119049   4.054   1.228  14.249 -0.2734  2.0279  1.0315
 2530SOL    HW219050   4.163   1.213  14.152 -2.0725 -0.0496 -0.5406
 2531SOL     OW19051   0.392   3.996   5.747  0.1385 -0.3803 -0.0540
 2531SOL    HW119052   0.337   3.920   5.728  2.0034 -1.7566  0.1306
 2531SOL    HW219053   0.333   4.061   5.785 -1.7502 -1.6950 -0.7381
 2532SOL     OW19054   3.787   2.811   2.651 -0.3703  0.7969  0.4921
 2532SOL    HW119055   3.771   2.837   2.561 -1.4588  4.6444  1.7674
 2532SOL    HW219056   3.700   2.828   2.687 -1.5933 -1.1690 -1.5636
 2533SOL     OW19057   4.667   3.159   9.146  0.4827 -0.5608  0.1873
 2533SOL    HW119058   0.002   3.133   9.217  1.1031  1.6464  0.5039
 2533SOL    HW219059   4.682   3.254   9.141  0.2326 -0.5872 -0.9753
 2534SOL     OW19060   0.179   2.863   7.318  0.2947  0.3444  0.1987
 2534SOL    HW119061   0.135   2.948   7.313 -1.8383 -0.8589 -1.5135
 2534SOL    HW219062   0.272   2.886   7.320 -0.1626  2.2306 -0.5563
 2535SOL     OW19063   2.823   0.937   0.209  0.0756 -0.1079 -0.4678
 2535SOL    HW119064   2.886   1.008   0.223  0.2815 -0.3877  0.0469
 2535SOL    HW219065   2.763   0.952   0.282  0.3823  1.9251 -0.6395
 2536SOL     OW19066   2.789   0.261   1.721 -0.6055 -0.4167  0.5445
 2536SOL    HW119067   2.721   0.259   1.789 -0.1478 -1.3422  0.9743
 2536SOL    HW219068   2.783   0.351   1.689 -0.1539  0.3038  2.4284
 2537SOL     OW19069   3.305   1.071   3.017 -0.6253 -0.2397  0.1918
 2537SOL    HW119070   3.351   0.988   3.022  1.5429  0.9524 -0.0125
 2537SOL    HW219071   3.328   1.095   2.927  1.2998 -2.4727  0.1091
 2538SOL     OW19072   1.947   2.966  13.492  0.5301 -0.7820 -0.3092
 2538SOL    HW119073   1.924   2.901  13.425  0.5450 -0.3479 -0.7400
 2538SOL    HW219074   1.917   2.926  13.573 -2.0212  0.1708 -0.7835
 2539SOL     OW19075   4.484   4.405  16.950  0.6894  0.1815 -0.0646
 2539SOL    HW119076   4.480   4.395  17.045  0.9511  0.4470 -0.0259
 2539SOL    HW219077   4.488   4.312  16.925 -0.2583 -0.4591  2.1496
 2540SOL     OW19078   3.261   1.037   6.359  0.1983 -0.1846 -0.5177
 2540SOL    HW119079   3.241   1.077   6.275  3.6760  1.0056 -0.7775
 2540SOL    HW219080   3.277   1.116   6.411 -2.1941 -0.0709  0.0444
 2541SOL     OW19081   2.085   0.855  10.643  0.8810  0.2674 -0.0296
 2541SOL    HW119082   1.990   0.851  10.637  0.8283 -1.2908  1.8529
 2541SOL    HW219083   2.107   0.939  10.684  1.0328  0.1810  0.0674
 2542SOL     OW19084   0.604   0.678   7.887  0.6409 -0.0120 -0.1589
 2542SOL    HW119085   0.544   0.678   7.961 -0.4415 -0.4765 -1.0233
 2542SOL    HW219086   0.593   0.588   7.856  1.7948 -0.6506  1.2960
 2543SOL     OW19087   3.363   3.437  13.526  0.0754  0.0346 -0.0275
 2543SOL    HW119088   3.419   3.515  13.528 -1.1350  0.9123 -0.3263
 2543SOL    HW219089   3.298   3.462  13.460 -0.4451 -1.0857  0.0732
 2544SOL     OW19090   2.778   2.440   3.354  0.0811 -0.5443  0.1068
 2544SOL    HW119091   2.836   2.374   3.316 -1.4070 -0.3211 -2.5411
 2544SOL    HW219092   2.689   2.410   3.333  0.2818  0.0107 -1.5331
 2545SOL     OW19093   4.085   4.703   0.887  0.9402 -0.4136 -0.1430
 2545SOL    HW119094   4.054   4.691   0.977 -0.7283 -0.1138 -0.6723
 2545SOL    HW219095   4.082   0.075   0.883  1.2603 -0.2360  3.8473
 2546SOL     OW19096   4.006   1.527   1.775 -0.1549  0.0253 -0.2948
 2546SOL    HW119097   3.986   1.450   1.722 -0.3100 -1.1487  1.4616
 2546SOL    HW219098   3.991   1.594   1.709  2.7282  0.5345 -0.4083
 2547SOL     OW19099   2.339   1.609  12.015  0.1464 -0.3141 -0.4177
 2547SOL    HW119100   2.379   1.685  11.972 -2.3005  0.6859 -0.9020
 2547SOL    HW219101   2.253   1.625  11.978 -0.1771 -2.0453 -0.4216
 2548SOL     OW19102   1.346   1.143   0.731 -0.8121 -0.4488 -0.1896
 2548SOL    HW119103   1.373   1.224   0.689  0.4532 -0.2344  1.0545
 2548SOL    HW219104   1.253   1.164   0.716 -0.9613  1.0380  2.8246
 2549SOL     OW19105   1.043   4.190   5.892  1.1918  0.3100  0.0944
 2549SOL    HW119106   1.003   4.161   5.811  1.2716 -2.1235  0.9467
 2549SOL    HW219107   0.963   4.203   5.943  0.3718  3.1775 -1.9483
 2550SOL     OW19108   2.313   2.623   4.828  0.6624  0.3330 -0.2704
 2550SOL    HW119109   2.389   2.647   4.882  1.6109  0.5409 -1.6882
 2550SOL    HW219110   2.322   2.687   4.758  1.7487  0.2387 -0.2200
 2551SOL     OW19111   0.035   2.115   4.118 -0.8644  0.8524  0.0400
 2551SOL    HW119112   0.016   2.022   4.126  0.6409  0.4826 -0.8746
 2551SOL    HW219113   0.002   2.131   4.030  0.7399  0.5192 -0.6202
 2552SOL     OW19114   3.711   3.402   4.984  0.2182 -0.1300  0.0878
 2552SOL    HW119115   3.703   3.456   4.905  0.0358 -0.8140 -0.3598
 2552SOL    HW219116   3.806   3.395   4.986  0.1341 -1.7094 -1.3428
 2553SOL     OW19117   0.721   0.485  14.149 -0.6126  0.1338  0.3626
 2553SOL    HW119118   0.730   0.412  14.088  0.1763 -1.9767  3.0256
 2553SOL    HW219119   0.741   0.441  14.231  0.1379 -0.9915 -0.4345
 2554SOL     OW19120   2.964   3.580  11.404 -0.7014 -0.1891 -0.6137
 2554SOL    HW119121   2.921   3.503  11.439 -1.3646  1.1901  1.6122
 2554SOL    HW219122   3.057   3.556  11.396 -0.2896  0.7590  1.2774
 2555SOL     OW19123   3.033   0.413   2.627  1.1001 -0.3826  0.3118
 2555SOL    HW119124   3.041   0.344   2.561 -1.6272 -0.8502  0.5095
 2555SOL    HW219125   2.952   0.384   2.668 -0.3237  2.4049 -0.4826
 2556SOL     OW19126   4.286   4.278   3.496  0.1355 -0.0209 -0.1348
 2556SOL    HW119127   4.246   4.213   3.437 -2.2252 -0.3729  1.8767
 2556SOL    HW219128   4.374   4.245   3.476  0.4882  1.0102 -0.2739
 2557SOL     OW19129   0.530   3.364   2.161 -0.2808 -0.4704  0.2092
 2557SOL    HW119130   0.475   3.435   2.128  0.1003 -0.2626  0.0127
 2557SOL    HW219131   0.472   3.289   2.150 -2.0169  1.0283 -0.8073
 2558SOL     OW19132   1.208   1.426  14.461 -0.0723 -0.1818 -0.3631
 2558SOL    HW119133   1.116   1.398  14.461  0.5686 -2.3405  0.0800
 2558SOL    HW219134   1.209   1.480  14.540  1.2596 -2.3030  1.0736
 2559SOL     OW19135   3.667   1.750   5.011  0.3403  0.0679 -0.1093
 2559SOL    HW119136   3.617   1.724   5.089  0.2417 -0.7546 -0.4487
 2559SOL    HW219137   3.689   1.666   4.972  0.8855 -0.6461  1.7405
 2560SOL     OW19138   1.090   4.611  11.352 -0.4821  0.2782  1.0154
 2560SOL    HW119139   1.028   4.632  11.282 -0.8297 -2.6556  0.4267
 2560SOL    HW219140   1.171   4.634  11.308 -0.7043 -1.4953 -0.3175
 2561SOL     OW19141   4.218   0.544  14.676  0.0503  0.2432 -0.1893
 2561SOL    HW119142   4.281   0.506  14.614  0.0342 -1.4802  0.8281
 2561SOL    HW219143   4.151   0.475  14.669 -0.9168  1.0087  1.5258
 2562SOL     OW19144   2.349   0.761   7.659 -0.4462  0.4340  0.0365
 2562SOL    HW119145   2.438   0.794   7.650 -0.4734  0.1036 -1.3754
 2562SOL    HW219146   2.338   0.783   7.752  1.1016 -0.8625  0.5281
 2563SOL     OW19147   0.438   0.953   2.843  0.0093 -0.1783 -0.2187
 2563SOL    HW119148   0.448   0.983   2.934 -0.7203 -1.8102  0.4017
 2563SOL    HW219149   0.358   0.996   2.814 -0.0203 -1.0663 -1.4445
 2564SOL     OW19150   4.025   1.673   8.107 -0.3797  0.1430  0.2651
 2564SOL    HW119151   4.112   1.672   8.147 -0.0969  0.0073 -0.3515
 2564SOL    HW219152   4.001   1.761   8.134  3.2907  0.2487  3.1522
 2565SOL     OW19153   3.820   2.927   6.868  0.3806  1.0878  0.2522
 2565SOL    HW119154   3.760   2.998   6.893  0.6440  1.4317 -0.1038
 2565SOL    HW219155   3.753   2.867   6.835 -1.2785  1.7979  2.2628
 2566SOL     OW19156   3.476   4.031   0.012 -0.3311 -0.1238 -0.2733
 2566SOL    HW119157   3.533   3.955   0.021  0.9736  0.6444 -2.2286
 2566SOL    HW219158   3.397   3.998   0.056 -0.2674 -2.2927 -1.8090
 2567SOL     OW19159   1.260   2.878   4.452 -0.1775 -0.3538 -0.0621
 2567SOL    HW119160   1.165   2.880   4.458 -0.1130  2.2010  0.0522
 2567SOL    HW219161   1.272   2.927   4.371 -0.7930  1.5436  1.0022
 2568SOL     OW19162   0.756   0.369   0.876  0.1559  0.0972  0.3742
 2568SOL    HW119163   0.704   0.293   0.851  0.7125 -0.0547 -0.3168
 2568SOL    HW219164   0.788   0.328   0.957  1.9238 -1.1995 -0.9680
 2569SOL     OW19165   3.033   4.143  15.587  0.0543  0.2272 -0.6050
 2569SOL    HW119166   2.966   4.211  15.577 -0.4924 -0.4180 -1.3060
 2569SOL    HW219167   3.087   4.194  15.647  0.0847  0.1160 -0.5376
 2570SOL     OW19168   3.191   2.305   2.031 -0.1419  0.6368 -0.6067
 2570SOL    HW119169   3.271   2.252   2.038 -0.6269 -0.3642 -2.6259
 2570SOL    HW219170   3.184   2.315   1.936  1.1913  0.6794 -0.7003
 2571SOL     OW19171   0.441   1.649   9.751  0.3636  0.5013 -0.1765
 2571SOL    HW119172   0.450   1.590   9.676 -3.1614 -0.0176 -0.1645
 2571SOL    HW219173   0.494   1.720   9.714 -1.2932  1.5569 -0.5219
 2572SOL     OW19174   3.704   3.712   8.466 -0.3477  1.2281 -0.0266
 2572SOL    HW119175   3.772   3.771   8.498 -0.1153  1.3077 -0.6560
 2572SOL    HW219176   3.746   3.652   8.403 -0.0872  0.2084  1.1162
 2573SOL     OW19177   1.132   4.700   5.847 -0.1338 -0.4805 -0.0718
 2573SOL    HW119178   1.195   4.687   5.777 -1.4894 -0.6026 -1.2649
 2573SOL    HW219179   1.128   4.616   5.894 -0.4725  0.4744  1.6331
 2574SOL     OW19180   0.261   2.304   6.716  0.3664  0.1934  0.1828
 2574SOL    HW119181   0.188   2.275   6.771  1.0309  1.8143  1.8853
 2574SOL    HW219182   0.225   2.293   6.627  0.8283 -2.3943  0.2957
 2575SOL     OW19183   3.789   3.080   3.046 -0.0070 -0.4156  0.0904
 2575SOL    HW119184   3.810   3.045   2.960 -1.2062 -0.4583 -0.1897
 2575SOL    HW219185   3.716   3.025   3.077 -1.1559  1.1878  0.2697
 2576SOL     OW19186   4.145   1.262   1.705 -0.0035  0.0951  0.9879
 2576SOL    HW119187   4.175   1.176   1.732  1.0593  0.3462  0.5979
 2576SOL    HW219188   4.052   1.264   1.730  0.1180  0.2002  1.4374
 2577SOL     OW19189   2.409   4.488  10.213  0.5813  0.0818 -0.5182
 2577SOL    HW119190   2.438   4.558  10.272  1.0414 -1.4483  1.0885
 2577SOL    HW219191   2.448   4.410  10.253  0.2055  0.8159  1.3045
 2578SOL     OW19192   3.247   4.554  13.509 -0.2340 -0.2273 -0.1999
 2578SOL    HW119193   3.290   4.551  13.424 -0.8092  0.1181 -0.5043
 2578SOL    HW219194   3.218   4.644  13.521  0.7345  0.1669 -0.8397
 2579SOL     OW19195   3.935   0.735  14.028 -0.6806  0.8695 -0.0978
 2579SOL    HW119196   3.870   0.804  14.016 -0.2945  1.0249 -1.2242
 2579SOL    HW219197   4.016   0.772  13.994 -1.7332  5.1338  2.0943
 2580SOL     OW19198   2.782   0.495   9.935 -0.5704 -0.0389  0.0144
 2580SOL    HW119199   2.785   0.399   9.934  0.5321 -0.0069 -0.3267
 2580SOL    HW219200   2.862   0.522   9.890 -1.1630  0.2473 -0.8448
 2581SOL     OW19201   3.615   2.565  15.611 -0.7328  0.3902 -0.4191
 2581SOL    HW119202   3.561   2.573  15.532 -1.3223  2.3855  0.1960
 2581SOL    HW219203   3.549   2.584  15.678 -0.2972 -0.8426  0.3534
 2582SOL     OW19204   4.332   3.313   3.892  0.7013  0.1336 -0.3400
 2582SOL    HW119205   4.384   3.394   3.890  0.0422  0.5880  0.9526
 2582SOL    HW219206   4.246   3.346   3.867  0.3911 -0.2062  0.2858
 2583SOL     OW19207   0.357   4.453   1.064 -0.2757  0.2845 -0.7376
 2583SOL    HW119208   0.434   4.413   1.105 -0.0203  0.5000 -1.0061
 2583SOL    HW219209   0.300   4.462   1.140  0.6841 -0.2168  0.0460
 2584SOL     OW19210   1.252   1.386  13.730  0.7017 -0.5776 -0.1251
 2584SOL    HW119211   1.238   1.291  13.721  0.2007 -0.6859  1.8524
 2584SOL    HW219212   1.183   1.416  13.671  2.0907  0.6309 -1.1312
 2585SOL     OW19213   3.861   2.038   9.828  0.0112 -0.1747 -0.4672
 2585SOL    HW119214   3.874   1.953   9.870 -1.8350  0.8406  2.1558
 2585SOL    HW219215   3.793   2.072   9.885  1.1062  1.6144 -0.2284
 2586SOL     OW19216   1.831   0.709   7.240 -0.5242 -0.0840 -0.1416
 2586SOL    HW119217   1.874   0.653   7.175  2.7441  1.3178  0.8136
 2586SOL    HW219218   1.841   0.658   7.320  0.9320  0.1980 -0.1463
 2587SOL     OW19219   0.695   4.629   2.032  0.4586 -0.4634  0.6148
 2587SOL    HW119220   0.709   4.588   1.946  1.2206 -1.0515  1.0242
 2587SOL    HW219221   0.703   4.721   2.010 -0.0814 -0.7813 -0.9232
 2588SOL     OW19222   2.255   4.562   8.205  0.5664 -0.1770  0.3107
 2588SOL    HW119223   2.328   4.529   8.153  0.9879 -0.4475  1.0619
 2588SOL    HW219224   2.308   4.596   8.277  1.5896  0.4545 -0.7421
 2589SOL     OW19225   0.318   1.705  16.877  0.1166  0.0781 -0.0564
 2589SOL    HW119226   0.348   1.635  16.818 -0.2367 -1.3644  1.4728
 2589SOL    HW219227   0.233   1.723  16.837  0.8801 -1.5855 -2.4487
 2590SOL     OW19228   4.148   3.536   4.544 -0.0356  0.1227  0.0397
 2590SOL    HW119229   4.236   3.569   4.564  0.0201 -0.3930  0.6245
 2590SOL    HW219230   4.169   3.515   4.453  1.3181  2.9832 -0.2970
 2591SOL     OW19231   3.879   1.892  14.217 -0.4345  0.0770 -0.8251
 2591SOL    HW119232   3.913   1.802  14.215  1.2973  0.6993  0.5396
 2591SOL    HW219233   3.929   1.922  14.293 -0.3668  1.2759 -1.3576
 2592SOL     OW19234   0.900   2.071   7.535  0.1962  0.7130  0.0793
 2592SOL    HW119235   0.954   2.148   7.515  3.2001 -0.8782  2.0323
 2592SOL    HW219236   0.822   2.115   7.570  0.9014  0.5738  1.8607
 2593SOL     OW19237   0.597   2.557   8.949  0.2696  0.2177 -0.2395
 2593SOL    HW119238   0.511   2.526   8.978  1.9723 -3.1698  1.1222
 2593SOL    HW219239   0.661   2.487   8.946  2.6516  2.3717  0.2373
 2594SOL     OW19240   1.531   0.480   0.813 -0.1229 -0.6056 -0.3819
 2594SOL    HW119241   1.588   0.403   0.805 -1.4034 -1.7199  1.3993
 2594SOL    HW219242   1.566   0.533   0.741 -0.0043 -1.2102 -0.7647
 2595SOL     OW19243   2.626   4.346  11.367 -0.0828 -0.1701  0.5643
 2595SOL    HW119244   2.576   4.428  11.363  0.9660  0.3397 -1.9272
 2595SOL    HW219245   2.634   4.333  11.461  1.0401  1.2985  0.6716
 2596SOL     OW19246   2.400   0.786   4.686 -0.0166 -0.3847 -0.4576
 2596SOL    HW119247   2.387   0.810   4.594  2.7617 -0.1550 -0.8165
 2596SOL    HW219248   2.364   0.862   4.731  0.8800 -0.0604 -0.2855
 2597SOL     OW19249   3.491   0.512   7.432  0.3237 -0.1782  0.2561
 2597SOL    HW119250   3.566   0.453   7.423 -0.6405 -1.5486  1.3405
 2597SOL    HW219251   3.501   0.562   7.351  0.5314 -1.7228 -0.6697
 2598SOL     OW19252   2.402   2.264   7.262  0.3809  0.2658  0.2219
 2598SOL    HW119253   2.498   2.256   7.268  0.3261 -0.5087  0.0909
 2598SOL    HW219254   2.394   2.265   7.167  0.2699  1.2734  0.2446
 2599SOL     OW19255   3.699   0.574   5.155 -0.1581 -0.0956 -0.3260
 2599SOL    HW119256   3.764   0.596   5.221  1.7556 -3.3127 -1.1432
 2599SOL    HW219257   3.675   0.482   5.167  0.6353 -0.1422  0.8166
 2600SOL     OW19258   2.952   2.904   2.059 -0.1321 -0.5896 -0.1022
 2600SOL    HW119259   2.936   2.962   1.984  1.5583  0.2438  0.1697
 2600SOL    HW219260   2.862   2.873   2.070 -0.1230 -0.7488 -0.4732
 2601SOL     OW19261   1.597   2.139   4.812 -0.4782  0.0651  0.4455
 2601SOL    HW119262   1.508   2.147   4.777  0.0457 -1.8249 -1.3149
 2601SOL    HW219263   1.579   2.183   4.895 -0.2865 -0.5676  0.8284
 2602SOL     OW19264   0.459   2.471   8.130 -0.1103  0.7240  0.0605
 2602SOL    HW119265   0.443   2.387   8.085  0.5906  0.8857 -0.4905
 2602SOL    HW219266   0.392   2.516   8.078  0.5812  0.3009 -1.2038
 2603SOL     OW19267   0.640   1.613   7.242  0.3679 -0.3308 -0.2747
 2603SOL    HW119268   0.568   1.567   7.285  0.7320 -1.4864 -0.9077
 2603SOL    HW219269   0.631   1.702   7.277  0.1555 -0.0958 -0.9239
 2604SOL     OW19270   2.092   1.385   5.313 -0.1702 -0.3934  0.0800
 2604SOL    HW119271   2.046   1.425   5.388 -1.6318  0.1615 -1.1095
 2604SOL    HW219272   2.158   1.329   5.354  1.6731  1.0470 -0.9544
 2605SOL     OW19273   0.726   4.029  16.127 -0.1032  0.0466 -0.5800
 2605SOL    HW119274   0.651   4.060  16.177 -1.1761 -0.0219 -2.1359
 2605SOL    HW219275   0.792   4.091  16.158  0.1289  0.6119 -2.1958
 2606SOL     OW19276   0.236   2.452  16.918  0.0384  0.2005  0.1080
 2606SOL    HW119277   0.256   2.392  16.846 -0.2789  1.1691 -0.7832
 2606SOL    HW219278   0.145   2.483  16.913  0.1715  0.2452 -2.2836
 2607SOL     OW19279   4.007   0.316   5.394  0.0468  0.1682 -0.2383
 2607SOL    HW119280   3.948   0.355   5.459  1.1754  0.5439  0.5630
 2607SOL    HW219281   4.092   0.352   5.420 -0.7356  2.0465 -0.2298
 2608SOL     OW19282   2.208   1.864   8.013 -0.4728  0.1176 -0.5239
 2608SOL    HW119283   2.134   1.816   7.974 -0.5574  0.0332 -0.2634
 2608SOL    HW219284   2.201   1.827   8.101  1.4493  1.5210  0.2074
 2609SOL     OW19285   2.488   3.376   7.140  0.0996 -0.4854  0.5644
 2609SOL    HW119286   2.426   3.328   7.084  1.8892 -0.6952 -1.2269
 2609SOL    HW219287   2.520   3.450   7.089 -0.0530 -0.4561  0.5102
 2610SOL     OW19288   0.383   3.860   7.031  0.1042  0.2851 -0.3954
 2610SOL    HW119289   0.371   3.834   7.123 -0.9619 -2.1728 -1.2117
 2610SOL    HW219290   0.418   3.948   7.042  0.9524  0.0464 -1.2226
 2611SOL     OW19291   4.561   1.678  10.219 -0.0193  0.3739 -0.1173
 2611SOL    HW119292   4.546   1.584  10.209 -2.3648  0.7861 -0.2778
 2611SOL    HW219293   4.474   1.715  10.210  0.0866  0.3328 -1.3746
 2612SOL     OW19294   2.555   0.754   3.562 -0.2765 -0.7151  0.5274
 2612SOL    HW119295   2.581   0.818   3.496  1.9189 -1.4065  0.7304
 2612SOL    HW219296   2.603   0.784   3.639  0.0478 -1.3085  0.5523
 2613SOL     OW19297   1.324   3.863   1.714 -0.6726 -0.5975 -0.1922
 2613SOL    HW119298   1.398   3.920   1.734 -1.0161 -0.8841  1.9333
 2613SOL    HW219299   1.366   3.778   1.701 -0.0234 -0.0748 -1.5178
 2614SOL     OW19300   4.302   1.756   7.346 -0.1451 -0.1739  0.7426
 2614SOL    HW119301   4.333   1.804   7.269  1.6800 -0.2385  1.4237
 2614SOL    HW219302   4.371   1.782   7.408  1.1814 -1.0813 -0.3438
 2615SOL     OW19303   1.112   1.813  10.483 -0.0955 -0.5451 -0.0879
 2615SOL    HW119304   1.145   1.892  10.440  0.7514 -1.0806 -0.4301
 2615SOL    HW219305   1.019   1.836  10.490  0.0571  0.5082 -1.3489
 2616SOL     OW19306   0.220   4.717   2.760 -0.7723  0.0283  0.7366
 2616SOL    HW119307   0.305   4.675   2.750  0.5321  3.3198 -1.9375
 2616SOL    HW219308   0.240   0.087   2.750  0.5936 -0.2502  0.9136
 2617SOL     OW19309   1.261   4.291   3.870  0.6524 -0.2203  0.1542
 2617SOL    HW119310   1.249   4.309   3.777 -0.3846 -1.1082  0.1103
 2617SOL    HW219311   1.354   4.268   3.863  0.8385  0.8542 -0.7490
 2618SOL     OW19312   0.786   0.715   2.546  0.4421  0.2434  0.4117
 2618SOL    HW119313   0.694   0.711   2.570  0.8800 -2.5260  1.6147
 2618SOL    HW219314   0.816   0.747   2.631 -0.4465  0.7108  0.5400
 2619SOL     OW19315   2.580   4.367   7.469 -0.5073  0.3273  0.4427
 2619SOL    HW119316   2.604   4.432   7.403  3.3874 -1.3768  0.1881
 2619SOL    HW219317   2.486   4.387   7.475 -0.0141  1.4914  4.7694
 2620SOL     OW19318   0.877   1.357   8.219  0.1524  0.3313 -0.2288
 2620SOL    HW119319   0.889   1.280   8.276 -0.5480 -0.1391 -0.7229
 2620SOL    HW219320   0.855   1.419   8.289  0.5722  0.7434 -0.4629
 2621SOL     OW19321   3.436   2.462   2.893  0.1183  0.3380  0.0140
 2621SOL    HW119322   3.441   2.441   2.800 -2.5065  0.8647 -0.2404
 2621SOL    HW219323   3.387   2.544   2.897  1.4789  1.1103  1.0644
 2622SOL     OW19324   3.039   0.135   5.868 -0.2872  0.2365  0.0061
 2622SOL    HW119325   3.074   0.138   5.957 -0.8186  0.4447  0.2051
 2622SOL    HW219326   3.101   0.087   5.813 -2.8295 -2.9312 -0.1276
 2623SOL     OW19327   1.620   2.086   6.150  0.0296  0.0350 -0.0935
 2623SOL    HW119328   1.691   2.137   6.189  1.4212 -1.9185 -0.0639
 2623SOL    HW219329   1.639   2.006   6.200  0.7628 -0.8538 -1.7910
 2624SOL     OW19330   2.000   2.516   5.458  0.3137  0.0928  0.0460
 2624SOL    HW119331   1.968   2.476   5.539 -0.6483 -1.0467 -0.8874
 2624SOL    HW219332   2.061   2.580   5.494 -0.1014 -0.4473  1.7170
 2625SOL     OW19333   0.948   3.384   8.586 -0.0659 -0.0089  0.4403
 2625SOL    HW119334   1.000   3.365   8.664 -0.6680 -3.8148 -0.0828
 2625SOL    HW219335   1.017   3.423   8.531 -0.5941 -0.2967 -0.4360
 2626SOL     OW19336   0.454   1.531  14.506 -0.4572 -0.1458  0.2422
 2626SOL    HW119337   0.379   1.511  14.563 -0.6258 -2.5431 -0.8280
 2626SOL    HW219338   0.401   1.534  14.426  0.1316  1.4753 -0.0681
 2627SOL     OW19339   1.889   0.703   3.896 -0.1426  0.3399 -0.3060
 2627SOL    HW119340   1.927   0.735   3.815 -1.8113 -1.7024 -1.8722
 2627SOL    HW219341   1.895   0.781   3.951 -2.3375  0.8163 -0.7290
 2628SOL     OW19342   4.424   3.620   5.718 -0.5006 -0.0674  0.2833
 2628SOL    HW119343   4.463   3.615   5.631  5.1121  0.5263  2.7689
 2628SOL    HW219344   4.378   3.537   5.725 -0.9558  0.1684  0.1115
 2629SOL     OW19345   2.868   3.025   4.840 -0.0890  0.0303  0.4616
 2629SOL    HW119346   2.938   3.065   4.891  1.1123 -0.1311 -1.0459
 2629SOL    HW219347   2.856   3.082   4.764  0.6202  0.0649  0.3749
 2630SOL     OW19348   2.386   0.123   7.884  0.2132 -0.1033 -0.2233
 2630SOL    HW119349   2.466   0.152   7.840 -0.7018  2.9919  0.1862
 2630SOL    HW219350   2.408   0.030   7.875  2.2422  0.5076 -1.3670
 2631SOL     OW19351   0.003   2.656   1.610  0.0568  0.7655  0.5310
 2631SOL    HW119352   0.080   2.699   1.573  0.3046  0.6643  0.9324
 2631SOL    HW219353   0.024   2.563   1.596 -0.5281  0.4959  1.4868
 2632SOL     OW19354   1.201   0.118  14.419 -0.3245  0.1352 -0.1222
 2632SOL    HW119355   1.219   0.099  14.327 -1.0630 -0.3502 -0.1652
 2632SOL    HW219356   1.283   0.147  14.459  0.3113 -3.2210  1.0034
 2633SOL     OW19357   0.135   4.040   3.349 -0.1519 -0.5088 -0.2652
 2633SOL    HW119358   0.084   3.998   3.419  0.9537  1.3846  1.6828
 2633SOL    HW219359   0.222   4.005   3.367 -1.1612 -1.7824  2.1896
 2634SOL     OW19360   2.203   1.608   7.178 -0.3121  0.5336  0.3657
 2634SOL    HW119361   2.267   1.679   7.187  2.2725 -1.9243  1.2131
 2634SOL    HW219362   2.166   1.634   7.094 -1.6564 -1.5897  0.2998
 2635SOL     OW19363   1.736   4.424   1.964 -0.0252  0.3088  0.5791
 2635SOL    HW119364   1.710   4.458   1.879  1.1807 -1.0472 -0.3340
 2635SOL    HW219365   1.649   4.406   2.001 -0.2619  2.1067  0.9010
 2636SOL     OW19366   0.006   4.719   3.860 -0.9946  0.1552  0.6195
 2636SOL    HW119367   0.038   4.630   3.877 -0.3948 -0.1044 -1.8622
 2636SOL    HW219368   0.061   0.045   3.921  2.0446 -1.9765 -0.3726
 2637SOL     OW19369   2.560   2.961   8.290 -0.3276  0.3573 -0.2115
 2637SOL    HW119370   2.506   2.885   8.309  1.1103 -0.3369  1.1333
 2637SOL    HW219371   2.639   2.910   8.274  0.5230  0.7833  2.5718
 2638SOL     OW19372   4.375   1.978   1.090  0.4581  0.4937  0.1561
 2638SOL    HW119373   4.304   2.040   1.078  0.0010  0.8087  4.8819
 2638SOL    HW219374   4.386   1.991   1.184  1.1169  1.9790 -0.1306
 2639SOL     OW19375   3.793   0.857   8.073 -0.4183  0.4517  0.2711
 2639SOL    HW119376   3.815   0.863   7.980 -1.8221 -1.7438 -0.1995
 2639SOL    HW219377   3.839   0.777   8.099 -0.9953  0.2753  0.7412
 2640SOL     OW19378   0.594   0.736  10.655 -0.0882 -0.7579  0.0010
 2640SOL    HW119379   0.518   0.685  10.683 -0.6269  0.7482  1.3224
 2640SOL    HW219380   0.654   0.701  10.721  0.4029 -2.7282 -1.5260
 2641SOL     OW19381   1.512   1.376   7.964 -0.4805 -0.5302  0.7681
 2641SOL    HW119382   1.581   1.440   7.947 -0.6974  0.3735  3.1892
 2641SOL    HW219383   1.450   1.388   7.892  0.6211  1.4241  0.1378
 2642SOL     OW19384   2.924   0.086   6.517  0.5365 -0.0568  0.2350
 2642SOL    HW119385   2.903   0.026   6.589 -2.4586  0.1735 -0.4465
 2642SOL    HW219386   2.949   0.153   6.581  2.0828 -0.1771 -0.2506
 2643SOL     OW19387   1.689   3.658  17.259  0.0862  0.1123 -0.0078
 2643SOL    HW119388   1.682   3.586  17.322 -0.4632  2.1554  2.2757
 2643SOL    HW219389   1.608   3.708  17.272 -0.7353 -1.4206  0.8264
 2644SOL     OW19390   3.001   3.204   6.427 -0.2255  0.4927  0.2542
 2644SOL    HW119391   3.051   3.278   6.391 -1.7289  2.0397  1.3316
 2644SOL    HW219392   3.045   3.127   6.392 -0.0580  1.4532 -1.6632
 2645SOL     OW19393   3.485   3.634  16.827  0.4063 -0.4578  0.2629
 2645SOL    HW119394   3.535   3.638  16.745  1.3357 -0.9225  0.8107
 2645SOL    HW219395   3.550   3.615  16.894 -0.9044 -0.1287  1.6229
 2646SOL     OW19396   2.839   2.148   9.783  0.5143  0.0340  0.0522
 2646SOL    HW119397   2.770   2.177   9.723 -0.2150  0.8852  1.2973
 2646SOL    HW219398   2.803   2.171   9.869 -0.2648 -1.5347  0.1349
 2647SOL     OW19399   0.155   4.659   7.357 -0.6798  0.3452  0.3634
 2647SOL    HW119400   0.106   4.722   7.305 -4.0160 -1.7653  0.9701
 2647SOL    HW219401   0.169   4.708   7.438  1.2387 -2.7647  1.9356
 2648SOL     OW19402   4.496   0.014   5.037  0.0180  0.5097  0.4043
 2648SOL    HW119403   4.431   0.011   4.967  2.5515 -1.3589 -1.9058
 2648SOL    HW219404   4.463   4.677   5.104  0.5103 -0.2804 -0.0519
 2649SOL     OW19405   3.988   3.801  14.670  0.2195 -0.6492 -0.5853
 2649SOL    HW119406   3.931   3.799  14.748 -1.7551  0.3933 -2.0050
 2649SOL    HW219407   3.950   3.730  14.619 -2.3014  0.3488 -0.1040
 2650SOL     OW19408   2.560   1.276   2.214 -0.5735  0.2248  0.0018
 2650SOL    HW119409   2.465   1.266   2.209 -0.6362  0.1507  1.4474
 2650SOL    HW219410   2.590   1.341   2.149  1.6325  0.4751  1.2692
 2651SOL     OW19411   0.007   3.915   4.294  0.1206 -0.0177 -0.0728
 2651SOL    HW119412   0.028   4.008   4.309 -0.3299  0.0713  0.0139
 2651SOL    HW219413   4.673   3.904   4.371 -2.2196  0.9289 -1.6747
 2652SOL     OW19414   2.242   0.089  11.987  0.0850  0.0108  0.1932
 2652SOL    HW119415   2.200   0.005  12.006 -1.4423  0.8741  0.6310
 2652SOL    HW219416   2.170   0.141  12.021  1.1306  1.4969  0.1538
 2653SOL     OW19417   1.973   0.818  14.973 -1.0097  0.3344  0.2280
 2653SOL    HW119418   1.983   0.762  15.050  0.6557 -0.4246 -0.5243
 2653SOL    HW219419   2.022   0.773  14.904 -0.6359  1.3913 -0.2102
 2654SOL     OW19420   0.091   0.289   5.528 -0.0851 -0.3682 -0.1970
 2654SOL    HW119421   0.050   0.294   5.614  1.0706  0.2452  0.3116
 2654SOL    HW219422   0.179   0.285   5.564  0.5369  0.7802 -1.5615
 2655SOL     OW19423   2.423   0.372   3.562 -0.7712  0.4630  0.1254
 2655SOL    HW119424   2.437   0.282   3.592 -2.8248  0.0195 -0.2962
 2655SOL    HW219425   2.399   0.419   3.642 -2.5535  0.1922 -0.2460
 2656SOL     OW19426   1.925   2.068   7.476  0.0863 -0.0709 -0.3160
 2656SOL    HW119427   2.015   2.073   7.443  0.4432 -1.4741  0.4432
 2656SOL    HW219428   1.933   2.113   7.560 -0.8585 -0.1086 -0.2142
 2657SOL     OW19429   2.658   3.713   2.066  0.1177 -0.2019 -0.0095
 2657SOL    HW119430   2.596   3.681   2.001 -0.1503 -0.7578  0.5184
 2657SOL    HW219431   2.691   3.792   2.023  0.1007  0.2969  0.8823
 2658SOL     OW19432   0.234   0.562  12.478  0.0714 -0.1362 -0.0222
 2658SOL    HW119433   0.183   0.502  12.425  0.1644 -1.0807  0.9555
 2658SOL    HW219434   0.317   0.570  12.431  0.2626  1.1222  0.5389
 2659SOL     OW19435   2.429   0.313  11.080  0.0964 -0.1423  0.2208
 2659SOL    HW119436   2.438   0.299  11.174  0.6920  0.4879  0.2571
 2659SOL    HW219437   2.446   0.407  11.082  1.9441 -0.5097  1.7384
 2660SOL     OW19438   0.110   3.820   6.845  0.7446 -0.4929 -0.6455
 2660SOL    HW119439   0.191   3.821   6.896  1.1429  1.0339 -1.3046
 2660SOL    HW219440   0.078   3.903   6.880  0.9159 -0.0458 -1.5326
 2661SOL     OW19441   4.593   3.562   6.402 -0.0536 -0.2774  0.3258
 2661SOL    HW119442   4.675   3.551   6.354  0.7405 -0.5566  1.7495
 2661SOL    HW219443   4.579   3.471   6.430 -3.3055 -0.2818 -1.3221
 2662SOL     OW19444   1.352   4.293   5.388  0.2237 -0.3371  0.6684
 2662SOL    HW119445   1.404   4.317   5.465 -0.1548 -2.5291  1.6181
 2662SOL    HW219446   1.264   4.305   5.425  0.5844 -0.9145  1.7038
 2663SOL     OW19447   1.195   1.414   3.184 -0.0029 -0.3597  0.4770
 2663SOL    HW119448   1.135   1.478   3.223  0.0635 -0.2874  0.4602
 2663SOL    HW219449   1.201   1.344   3.249 -1.8089 -0.4531  0.5303
 2664SOL     OW19450   0.744   2.594   7.662 -0.0187  0.2499  0.1735
 2664SOL    HW119451   0.730   2.558   7.574 -1.5953 -0.0170  0.5301
 2664SOL    HW219452   0.817   2.652   7.644  0.7171 -0.4072  1.0658
 2665SOL     OW19453   3.398   0.445  17.051  0.2216 -0.0757 -0.2538
 2665SOL    HW119454   3.476   0.404  17.013  0.2990  1.4048 -1.6713
 2665SOL    HW219455   3.434   0.492  17.126 -1.3615 -0.2819  0.6345
 2666SOL     OW19456   1.585   1.309   3.343  0.3456 -0.0053  0.6095
 2666SOL    HW119457   1.583   1.382   3.405  1.4573 -0.3863  1.0847
 2666SOL    HW219458   1.669   1.272   3.369  0.0291  0.9163  2.9348
 2667SOL     OW19459   3.417   3.153   2.956  0.5758 -0.4395 -0.5090
 2667SOL    HW119460   3.476   3.112   2.893  0.1522  1.4243 -2.1230
 2667SOL    HW219461   3.385   3.076   3.003 -1.4850 -0.0406 -1.2225
 2668SOL     OW19462   4.082   1.758   5.227  0.9028  0.0583  0.0314
 2668SOL    HW119463   4.056   1.666   5.222  1.2256  0.0236 -1.3037
 2668SOL    HW219464   4.134   1.762   5.307  1.1956 -1.3493 -0.0943
 2669SOL     OW19465   2.859   3.465  11.711 -1.0997 -0.4343  0.9072
 2669SOL    HW119466   2.938   3.416  11.730 -0.5292  0.8683  1.8764
 2669SOL    HW219467   2.884   3.543  11.760 -3.0687  0.7596  0.0498
 2670SOL     OW19468   3.558   1.588   0.411  0.0997 -0.3857  0.0929
 2670SOL    HW119469   3.596   1.506   0.443  0.6497  0.2297  1.0328
 2670SOL    HW219470   3.532   1.549   0.329  1.3176  0.2408 -0.5959
 2671SOL     OW19471   2.266   4.131   3.640 -0.1319  0.1047  0.4818
 2671SOL    HW119472   2.238   4.069   3.573  0.4003  1.5254 -1.0522
 2671SOL    HW219473   2.342   4.166   3.592  0.4983  0.7049  1.9183
 2672SOL     OW19474   2.809   1.933   7.215  0.0464 -0.4309  0.2541
 2672SOL    HW119475   2.848   1.890   7.139  0.9179  0.4845  0.1995
 2672SOL    HW219476   2.718   1.906   7.200  0.3890 -1.1092 -0.5768
 2673SOL     OW19477   4.290   3.577  15.221  0.1503  0.3907 -0.2112
 2673SOL    HW119478   4.345   3.627  15.281  0.9905  0.6207 -1.1753
 2673SOL    HW219479   4.361   3.550  15.163  0.6225  1.3512 -0.0832
 2674SOL     OW19480   4.137   0.182  10.208  0.2065  0.2331 -1.0127
 2674SOL    HW119481   4.071   0.114  10.205 -1.3203  1.6903 -0.4202
 2674SOL    HW219482   4.105   0.235  10.281 -0.0582  0.7950 -1.5340
 2675SOL     OW19483   4.136   4.051   3.042 -0.5318  0.3785  0.0713
 2675SOL    HW119484   4.146   4.132   2.992  1.4273  1.2586  1.8742
 2675SOL    HW219485   4.046   4.030   3.016  1.1183 -4.2471 -1.7850
 2676SOL     OW19486   3.653   4.316   0.961 -0.0954 -0.4322  0.0317
 2676SOL    HW119487   3.695   4.364   0.890 -0.9728  0.6924  0.2731
 2676SOL    HW219488   3.652   4.224   0.933  0.3516  0.4333 -2.8102
 2677SOL     OW19489   0.087   3.316   0.764  0.2597  0.0182  0.7558
 2677SOL    HW119490   0.003   3.361   0.766 -1.7852 -3.6952 -0.3201
 2677SOL    HW219491   0.054   3.233   0.728  0.5376 -0.4820  1.6400
 2678SOL     OW19492   4.289   0.018   4.833 -0.0288 -0.0450 -0.1067
 2678SOL    HW119493   4.323   0.070   4.761  1.7563 -0.8954  0.1097
 2678SOL    HW219494   4.250   4.670   4.782 -0.3589  0.5474 -0.6737
 2679SOL     OW19495   3.419   4.596   7.056 -0.1360  0.2762  0.4413
 2679SOL    HW119496   3.512   4.619   7.055  0.1843 -1.0647 -0.5949
 2679SOL    HW219497   3.417   4.565   7.147  2.4191  1.7239  0.9850
 2680SOL     OW19498   0.525   0.654  16.510  0.4859  0.2619  0.4910
 2680SOL    HW119499   0.512   0.560  16.526 -1.3732  0.3149 -0.6777
 2680SOL    HW219500   0.448   0.686  16.556 -1.5943 -0.7556 -2.2537
 2681SOL     OW19501   0.600   3.254   0.798 -0.2425  0.4862 -0.2124
 2681SOL    HW119502   0.509   3.282   0.798 -1.0329 -2.0743 -1.3940
 2681SOL    HW219503   0.639   3.328   0.751  0.2789  0.3088 -0.0666
 2682SOL     OW19504   1.408   1.463  14.866 -0.0673 -1.0281  0.3738
 2682SOL    HW119505   1.481   1.446  14.806  0.2672  0.1159  0.4697
 2682SOL    HW219506   1.357   1.520  14.808 -2.0319  0.1715  3.3152
 2683SOL     OW19507   0.657   1.168   7.064 -0.1706  0.6452  0.2954
 2683SOL    HW119508   0.631   1.204   7.149  1.7013  2.2035  0.2136
 2683SOL    HW219509   0.715   1.239   7.035 -1.1073  1.5777  0.6960
 2684SOL     OW19510   3.267   1.769   3.586 -0.0964 -0.2335  0.5085
 2684SOL    HW119511   3.317   1.823   3.647  2.0874 -0.8261 -0.7165
 2684SOL    HW219512   3.193   1.827   3.566  1.8288  1.3366 -2.1924
 2685SOL     OW19513   4.447   0.223   3.109 -0.0279  0.0234  0.9537
 2685SOL    HW119514   4.362   0.195   3.076  0.0797  0.0469  0.6634
 2685SOL    HW219515   4.511   0.184   3.049  0.2183  3.5945 -1.0967
 2686SOL     OW19516   1.982   0.461  13.603  0.1357  0.0644 -0.5731
 2686SOL    HW119517   2.011   0.503  13.522 -0.0336  2.0353  0.3684
 2686SOL    HW219518   1.887   0.460  13.592  0.1929  0.4292 -1.1005
 2687SOL     OW19519   3.277   4.552  15.206  0.0109 -0.1190  0.3406
 2687SOL    HW119520   3.365   4.551  15.244  0.3703  1.6153 -0.4621
 2687SOL    HW219521   3.263   4.647  15.203 -1.4306 -0.3089  0.7584
 2688SOL     OW19522   3.217   1.837   5.402 -0.2357 -0.2657  0.0472
 2688SOL    HW119523   3.167   1.820   5.482 -0.2911 -1.9971 -0.3611
 2688SOL    HW219524   3.305   1.844   5.441  0.1502  0.7988 -1.0337
 2689SOL     OW19525   1.117   1.470  12.236  0.0990  0.5868  0.2019
 2689SOL    HW119526   1.096   1.451  12.145  0.5167  3.0583 -0.3930
 2689SOL    HW219527   1.205   1.432  12.240  0.8239  2.0040 -2.1442
 2690SOL     OW19528   1.862   2.747  15.779  0.4618 -0.1986 -0.3355
 2690SOL    HW119529   1.858   2.786  15.692 -0.6250  0.0014 -0.2067
 2690SOL    HW219530   1.951   2.769  15.808 -0.3054 -0.5226  2.3183
 2691SOL     OW19531   3.177   2.648   4.452  0.5728  0.3556  0.3818
 2691SOL    HW119532   3.252   2.696   4.485  0.8227  0.9792 -1.0717
 2691SOL    HW219533   3.231   2.603   4.387 -1.1882 -0.2363 -0.6800
 2692SOL     OW19534   0.145   3.464   2.102  0.2281  0.0927 -0.1098
 2692SOL    HW119535   0.128   3.373   2.079  0.1400  0.3441 -1.0198
 2692SOL    HW219536   0.170   3.490   2.014 -1.0704 -3.5907 -1.5648
 2693SOL     OW19537   3.250   0.485   0.858  0.0590 -0.1105 -0.0644
 2693SOL    HW119538   3.277   0.553   0.796  3.1869  0.2577  1.7057
 2693SOL    HW219539   3.162   0.471   0.825  0.0585  0.1404 -0.1679
 2694SOL     OW19540   3.375   2.385  13.894 -0.1008 -0.2584 -0.7016
 2694SOL    HW119541   3.392   2.349  13.981 -0.0201 -0.4968 -0.8159
 2694SOL    HW219542   3.399   2.477  13.904 -0.7837 -0.0992 -0.5393
 2695SOL     OW19543   4.123   3.703   9.579  0.1192  0.3763 -0.3561
 2695SOL    HW119544   4.135   3.617   9.539 -2.2126 -0.5106  0.8331
 2695SOL    HW219545   4.086   3.754   9.506  1.2223 -1.1032 -1.9346
 2696SOL     OW19546   2.304   2.050   6.719 -0.8125 -0.2879 -0.3016
 2696SOL    HW119547   2.331   2.131   6.677  0.7989  0.2642  1.8222
 2696SOL    HW219548   2.296   1.988   6.647 -0.3848  0.3865 -0.9256
 2697SOL     OW19549   4.046   0.113   5.212  0.9476 -0.3974  0.6206
 2697SOL    HW119550   4.014   0.182   5.270 -0.6601 -0.2008 -0.5174
 2697SOL    HW219551   4.141   0.127   5.205  0.4570  1.6417 -1.7004
 2698SOL     OW19552   3.646   0.040  17.278  0.1644  0.6705  0.0869
 2698SOL    HW119553   3.562   0.046  17.234  1.3216 -0.0874 -2.2700
 2698SOL    HW219554   3.615   0.030  17.368  1.3732  0.5767  0.4944
 2699SOL     OW19555   3.729   4.561   6.588 -0.0897  0.4648 -0.1374
 2699SOL    HW119556   3.755   4.544   6.497 -1.3402 -1.1304 -0.2067
 2699SOL    HW219557   3.776   4.496   6.639 -0.2310 -1.9782 -3.0864
 2700SOL     OW19558   1.004   1.371   5.316 -0.1558  0.4551  0.6143
 2700SOL    HW119559   0.940   1.436   5.286 -0.3231 -0.1642 -0.3777
 2700SOL    HW219560   0.942   1.310   5.357 -0.9319  1.0557  0.3443
 2701SOL     OW19561   3.406   0.728   5.181  0.0298  0.1942  0.2667
 2701SOL    HW119562   3.353   0.788   5.129  0.4844  0.0217 -0.3958
 2701SOL    HW219563   3.492   0.763   5.157 -0.1027  0.1329 -0.2979
 2702SOL     OW19564   4.578   0.229   4.534  0.0909  0.1353 -0.0155
 2702SOL    HW119565   4.643   0.208   4.467 -0.3890  1.1218 -0.7943
 2702SOL    HW219566   4.624   0.311   4.556 -0.7519  1.4026 -2.8952
 2703SOL     OW19567   1.262   0.186  11.402 -0.3268  0.0796  0.6525
 2703SOL    HW119568   1.222   0.181  11.314  0.8478  0.7439  0.0868
 2703SOL    HW219569   1.334   0.122  11.400  0.1760  0.6654 -0.1224
 2704SOL     OW19570   3.968   3.445   3.580 -0.1127 -0.2323 -0.1472
 2704SOL    HW119571   4.017   3.470   3.501 -0.0622  1.2855  0.3728
 2704SOL    HW219572   3.884   3.484   3.560 -0.9053 -1.6499  0.4038
 2705SOL     OW19573   4.074   3.312   0.581 -0.3698 -0.0272  0.1035
 2705SOL    HW119574   3.998   3.323   0.523  0.5834 -1.1053 -1.3521
 2705SOL    HW219575   4.131   3.260   0.524 -0.5149  0.1822 -0.2298
 2706SOL     OW19576   0.183   3.027   4.635  0.6458 -0.6408 -0.2889
 2706SOL    HW119577   0.113   3.041   4.571  0.1797  0.1330  0.3938
 2706SOL    HW219578   0.242   3.100   4.612 -0.7625  1.9574  4.3418
 2707SOL     OW19579   2.009   1.014   7.427 -0.5598  0.3965  0.0471
 2707SOL    HW119580   2.086   0.968   7.459 -1.6072 -0.3794  1.4355
 2707SOL    HW219581   1.934   0.967   7.464  0.6386 -1.8980 -0.4700
 2708SOL     OW19582   0.685   0.944  10.489  0.1199 -0.4008  0.4025
 2708SOL    HW119583   0.674   1.025  10.539  0.3720  0.2525 -0.5839
 2708SOL    HW219584   0.646   0.883  10.551  2.3632 -1.2293  0.9958
 2709SOL     OW19585   0.183   2.330   4.159 -0.1986  0.0893  0.4935
 2709SOL    HW119586   0.137   2.361   4.237  0.6266 -2.2374  1.9170
 2709SOL    HW219587   0.117   2.266   4.130 -1.0681  2.5615 -2.9489
 2710SOL     OW19588   2.718   4.307   3.577 -0.1017  0.2094 -0.1813
 2710SOL    HW119589   2.768   4.330   3.655  0.5740 -2.0363  0.0345
 2710SOL    HW219590   2.792   4.312   3.517 -1.9549 -2.1715 -2.6625
 2711SOL     OW19591   3.632   4.379   5.698  0.4715 -0.6526  0.0654
 2711SOL    HW119592   3.617   4.472   5.682 -2.0659 -0.8643  1.2313
 2711SOL    HW219593   3.586   4.334   5.627  1.2070  0.3770 -1.0729
 2712SOL     OW19594   4.220   0.875  16.920 -0.1919 -0.2297 -0.3982
 2712SOL    HW119595   4.293   0.827  16.882 -0.7884 -2.0075  0.6949
 2712SOL    HW219596   4.160   0.806  16.949 -1.0030  1.0464  0.9772
 2713SOL     OW19597   3.561   4.152  14.347 -0.2367  0.0106  0.4648
 2713SOL    HW119598   3.649   4.128  14.376  0.6385 -1.3975 -3.4305
 2713SOL    HW219599   3.525   4.209  14.416  0.9836  0.9612  0.3242
 2714SOL     OW19600   1.866   4.103   9.677  0.3861 -0.0485 -0.2621
 2714SOL    HW119601   1.777   4.071   9.690 -0.0778  1.4924  0.3231
 2714SOL    HW219602   1.850   4.189   9.716  0.1831 -1.1405  2.0743
 2715SOL     OW19603   0.096   1.590  10.060  0.3067 -0.0605 -1.0309
 2715SOL    HW119604   0.084   1.551   9.974  1.0815 -0.4020 -0.9831
 2715SOL    HW219605   0.187   1.619  10.059  0.0877  0.5939 -1.6269
 2716SOL     OW19606   0.872   3.052  16.154  0.4175  0.2911  0.1320
 2716SOL    HW119607   0.803   3.057  16.220 -0.0012  0.5217 -0.3245
 2716SOL    HW219608   0.839   3.128  16.106 -1.5607  0.2782  1.4711
 2717SOL     OW19609   1.891   0.716   4.426  0.1607 -0.2325  0.0282
 2717SOL    HW119610   1.843   0.643   4.466 -1.3218 -0.4143 -2.0880
 2717SOL    HW219611   1.963   0.669   4.384 -1.1267 -1.5755 -0.6563
 2718SOL     OW19612   3.004   2.354  12.521 -0.3466 -0.2494 -0.2651
 2718SOL    HW119613   2.943   2.294  12.565 -1.7170 -0.3387 -2.3091
 2718SOL    HW219614   3.007   2.424  12.586 -0.7413 -0.5151  0.0379
 2719SOL     OW19615   4.593   1.529   6.734  0.1984 -0.6828  0.4316
 2719SOL    HW119616   4.553   1.523   6.821 -2.0463 -0.7649 -0.6121
 2719SOL    HW219617   4.618   1.622   6.735 -3.1072  0.2174 -1.2493
 2720SOL     OW19618   4.599   1.653   8.863  0.5870  0.1893 -0.2145
 2720SOL    HW119619   4.651   1.575   8.842  1.8448  0.4095  2.0813
 2720SOL    HW219620   4.590   1.690   8.775  0.9207  1.7168  0.3999
 2721SOL     OW19621   0.489   2.452   2.212  0.0794 -0.1791 -0.0992
 2721SOL    HW119622   0.417   2.443   2.274 -2.1202  2.6012 -2.2377
 2721SOL    HW219623   0.541   2.374   2.228  1.8884  1.1312  0.4224
 2722SOL     OW19624   2.870   1.659   3.504  0.4633 -0.4330 -0.0800
 2722SOL    HW119625   2.797   1.675   3.444 -1.2942  1.5513  2.5788
 2722SOL    HW219626   2.873   1.564   3.489 -2.3911 -0.5866  0.3627
 2723SOL     OW19627   0.558   3.732  14.189 -0.2140 -0.5209  0.3502
 2723SOL    HW119628   0.651   3.747  14.171  0.2029 -3.0898  0.4159
 2723SOL    HW219629   0.531   3.814  14.148 -1.0851 -0.0829  1.7848
 2724SOL     OW19630   1.232   0.594  10.073 -0.0894 -0.6647  0.7292
 2724SOL    HW119631   1.157   0.539  10.095 -0.2839  0.1237  1.9940
 2724SOL    HW219632   1.281   0.582  10.154 -0.7547 -0.0897  1.2182
 2725SOL     OW19633   0.299   2.527   4.946 -0.4225  0.0761 -0.2225
 2725SOL    HW119634   0.318   2.617   4.918 -1.1416  0.7366  1.4050
 2725SOL    HW219635   0.382   2.497   4.983  0.9291  2.3479 -1.4200
 2726SOL     OW19636   0.816   3.981  12.918 -0.7587  0.2175  0.6372
 2726SOL    HW119637   0.760   4.046  12.959 -1.5595  0.5092 -0.9346
 2726SOL    HW219638   0.849   3.937  12.997  1.8090  0.0724 -0.4945
 2727SOL     OW19639   0.074   1.961   2.965  0.1769 -0.0676 -0.2119
 2727SOL    HW119640   0.006   1.894   2.960  0.6923 -0.6184  0.2692
 2727SOL    HW219641   0.083   1.992   2.875 -0.4205  3.3300  0.8896
 2728SOL     OW19642   4.335   1.965  12.831 -0.0647  0.1535 -0.3158
 2728SOL    HW119643   4.328   1.961  12.927  3.1021 -0.6328 -0.1130
 2728SOL    HW219644   4.374   1.878  12.823 -2.7881 -1.5920  4.8941
 2729SOL     OW19645   3.876   0.287   6.367  0.2564 -0.4389  0.1701
 2729SOL    HW119646   3.952   0.284   6.424 -0.6869  0.2145  1.4760
 2729SOL    HW219647   3.849   0.196   6.379  1.0696 -0.3789  2.4053
 2730SOL     OW19648   3.386   2.038  15.731  0.8567 -0.2269 -0.2970
 2730SOL    HW119649   3.319   2.078  15.674  0.8321  0.6785  0.3651
 2730SOL    HW219650   3.461   2.008  15.680 -0.0653 -1.4148 -0.9478
 2731SOL     OW19651   1.455   1.140   6.829 -0.6442 -0.6084  0.2222
 2731SOL    HW119652   1.495   1.215   6.785 -1.7367 -0.5678 -0.6971
 2731SOL    HW219653   1.395   1.107   6.762 -1.4762 -0.1264  0.7296
 2732SOL     OW19654   1.157   1.637   7.864 -0.3568  0.2625 -0.4064
 2732SOL    HW119655   1.168   1.604   7.775  1.9966 -0.2442  0.0518
 2732SOL    HW219656   1.184   1.726   7.842  1.0000 -0.1062 -0.2549
 2733SOL     OW19657   2.041   1.897   0.809  0.0585  0.1612  0.6104
 2733SOL    HW119658   2.061   1.862   0.896 -0.9391  0.3929  0.9328
 2733SOL    HW219659   2.027   1.988   0.833  1.1034  0.2033  1.0639
 2734SOL     OW19660   2.624   4.462   6.724  0.2890 -0.5802  0.0159
 2734SOL    HW119661   2.583   4.478   6.810 -0.6982  1.1161 -0.7692
 2734SOL    HW219662   2.637   4.367   6.722  0.8375 -0.5594  2.2084
 2735SOL     OW19663   1.889   2.581  16.095  0.0287  0.3959 -0.7164
 2735SOL    HW119664   1.881   2.561  16.001  0.9477 -1.9036 -0.3086
 2735SOL    HW219665   1.833   2.514  16.135  0.3752  1.4230  1.4891
 2736SOL     OW19666   4.284   1.978  10.729  0.0873 -0.0409 -0.4033
 2736SOL    HW119667   4.237   1.927  10.663  0.1156  1.7713 -1.8284
 2736SOL    HW219668   4.281   1.912  10.798  1.7484 -0.6453 -0.9306
 2737SOL     OW19669   0.605   3.111   6.531  0.3982 -0.7114  0.4071
 2737SOL    HW119670   0.561   3.129   6.447  1.3540  0.3050  0.1374
 2737SOL    HW219671   0.669   3.177   6.554 -2.2731  2.1540 -0.3739
 2738SOL     OW19672   0.222   3.559   6.484 -0.0243  0.3972  0.3351
 2738SOL    HW119673   0.148   3.597   6.532  2.2394  2.0230  2.5080
 2738SOL    HW219674   0.293   3.577   6.545  2.4418  3.3417 -3.3961
 2739SOL     OW19675   4.133   0.975   9.785  0.2215  0.6115  0.3634
 2739SOL    HW119676   4.092   1.059   9.764 -2.5788 -0.1126  2.9296
 2739SOL    HW219677   4.192   0.966   9.710  1.8796  0.5382  1.6838
 2740SOL     OW19678   4.303   4.142  14.426 -0.3371  0.5051  0.6643
 2740SOL    HW119679   4.300   4.211  14.359 -0.0577  0.4100  0.5494
 2740SOL    HW219680   4.326   4.198  14.500  0.7851 -2.8444  2.8491
 2741SOL     OW19681   1.324   1.020   4.690 -0.4791  0.3320  0.3004
 2741SOL    HW119682   1.312   1.114   4.703  1.2799  0.7808 -1.4616
 2741SOL    HW219683   1.333   0.985   4.779  0.1111  1.3267  0.6345
 2742SOL     OW19684   1.914   4.663   3.768 -0.3774  0.0594 -0.0371
 2742SOL    HW119685   1.932   0.033   3.781 -1.2994  0.2594 -0.1730
 2742SOL    HW219686   2.003   4.629   3.760 -0.5978 -0.1608 -1.5087
 2743SOL     OW19687   0.837   3.663   2.532 -0.1225  0.0201 -0.8594
 2743SOL    HW119688   0.765   3.726   2.528 -1.9290 -2.1072 -1.4107
 2743SOL    HW219689   0.848   3.636   2.441 -0.2916  0.1183 -0.9076
 2744SOL     OW19690   4.237   1.167  14.489 -0.2276  0.4824  0.2620
 2744SOL    HW119691   4.156   1.116  14.490 -0.1816  0.3810 -2.1529
 2744SOL    HW219692   4.215   1.221  14.414  0.7026 -1.4167 -1.3766
 2745SOL     OW19693   3.853   2.586   2.797 -0.1490 -0.5080 -0.2604
 2745SOL    HW119694   3.821   2.654   2.856 -0.9651 -1.7385  0.7229
 2745SOL    HW219695   3.854   2.639   2.718  0.7236 -0.0465  0.0654
 2746SOL     OW19696   2.451   3.390   6.638 -0.9283 -0.9862  0.0453
 2746SOL    HW119697   2.449   3.323   6.705 -0.2550 -1.6226 -0.5631
 2746SOL    HW219698   2.538   3.421   6.663 -0.6104 -1.1478 -0.8437
 2747SOL     OW19699   1.489   3.308   1.832  0.0565 -0.7291 -0.6703
 2747SOL    HW119700   1.405   3.313   1.878  1.4209  2.1426  1.5319
 2747SOL    HW219701   1.539   3.286   1.910 -0.7793 -3.0217 -0.7813
 2748SOL     OW19702   3.578   3.528   3.788 -0.1866 -0.4848 -0.2601
 2748SOL    HW119703   3.490   3.524   3.823  0.5075 -2.9127  1.1839
 2748SOL    HW219704   3.604   3.436   3.796  0.7111 -0.5459 -3.5684
 2749SOL     OW19705   1.065   1.751   9.777  0.8381 -0.0701 -0.2461
 2749SOL    HW119706   1.004   1.716   9.712  1.1973 -1.0686 -0.0426
 2749SOL    HW219707   1.059   1.683   9.845  1.7562 -1.3726 -1.4649
 2750SOL     OW19708   2.073   3.004   1.682 -0.1744  0.0135 -0.2656
 2750SOL    HW119709   2.015   2.929   1.691  1.0198 -0.8023  0.5235
 2750SOL    HW219710   2.157   2.958   1.673 -1.0096 -1.1204 -2.3308
 2751SOL     OW19711   0.020   2.002   5.698  0.3876 -0.1452  0.0097
 2751SOL    HW119712   0.034   2.090   5.735  0.0142 -0.0009 -0.1884
 2751SOL    HW219713   4.679   2.030   5.632  0.8563  1.7056  0.3381
 2752SOL     OW19714   3.765   0.503   2.374 -0.7326 -0.7236  0.3162
 2752SOL    HW119715   3.706   0.496   2.299 -0.5288  0.5664  0.0392
 2752SOL    HW219716   3.843   0.540   2.333 -1.6019  1.6148  0.8142
 2753SOL     OW19717   1.172   0.729   2.978  0.3743  0.3047  0.0054
 2753SOL    HW119718   1.099   0.777   3.017 -0.8110 -1.0809 -0.5144
 2753SOL    HW219719   1.206   0.704   3.064 -0.8820 -0.9010  0.1537
 2754SOL     OW19720   3.310   0.922   5.827  0.0142  0.1205 -0.0402
 2754SOL    HW119721   3.219   0.911   5.856 -0.1075 -0.0776 -0.4849
 2754SOL    HW219722   3.357   0.912   5.909 -3.7471 -1.2052  1.9841
 2755SOL     OW19723   3.266   2.039   4.989  0.3663  0.2563 -0.0318
 2755SOL    HW119724   3.255   1.946   5.007 -1.9381 -0.1682 -3.6043
 2755SOL    HW219725   3.237   2.053   4.899 -1.5086  0.0880  0.5375
 2756SOL     OW19726   1.681   0.761   6.511  0.0482  0.9959 -0.0473
 2756SOL    HW119727   1.658   0.675   6.545  2.3235  0.4710  0.1979
 2756SOL    HW219728   1.638   0.819   6.574 -0.9299 -0.0270  0.2069
 2757SOL     OW19729   1.571   1.192   5.709 -0.0640  0.0521  0.6310
 2757SOL    HW119730   1.492   1.246   5.708  0.3622  0.5911 -2.5993
 2757SOL    HW219731   1.542   1.110   5.671  0.8512  0.3795 -0.7427
 2758SOL     OW19732   3.849   1.799   3.752  0.1782  0.4873 -0.2406
 2758SOL    HW119733   3.765   1.825   3.789 -0.4349 -0.4393 -0.9668
 2758SOL    HW219734   3.902   1.780   3.829  0.8508  1.4868 -0.4533
 2759SOL     OW19735   4.403   0.154   6.490 -0.6827  0.1756 -0.3362
 2759SOL    HW119736   4.442   0.093   6.553  0.3969  1.3509  0.1403
 2759SOL    HW219737   4.390   0.096   6.415 -1.0280  0.4112 -0.4610
 2760SOL     OW19738   3.313   2.993  17.525  0.2342 -0.3824 -0.1588
 2760SOL    HW119739   3.296   2.964  17.614 -1.9543 -0.5514 -0.6386
 2760SOL    HW219740   3.368   3.072  17.535 -2.0502  1.2581 -0.5425
 2761SOL     OW19741   2.447   1.538   6.172 -0.4160 -0.2874  0.6103
 2761SOL    HW119742   2.381   1.473   6.193 -1.7260  0.5994 -0.7246
 2761SOL    HW219743   2.386   1.610   6.192 -0.8554 -0.1063 -1.4008
 2762SOL     OW19744   2.983   0.013   5.248 -0.7267  0.0568  0.2238
 2762SOL    HW119745   2.949   0.078   5.309 -1.5540 -0.2285  0.0649
 2762SOL    HW219746   2.901   4.688   5.236 -1.0008  0.1759  1.6150
 2763SOL     OW19747   2.263   2.171   0.339 -0.6924  0.0857 -0.1781
 2763SOL    HW119748   2.206   2.187   0.264 -1.3691 -2.3479 -0.1876
 2763SOL    HW219749   2.336   2.231   0.325 -0.7148  0.1970  0.1795
 2764SOL     OW19750   4.078   4.549   7.281  0.4256 -0.0102 -0.4562
 2764SOL    HW119751   3.997   4.498   7.283  0.6254 -0.2912  1.0294
 2764SOL    HW219752   4.123   4.493   7.345 -0.5822  0.8028  0.9847
 2765SOL     OW19753   1.400   0.073  12.980  0.3298  0.4400  0.1023
 2765SOL    HW119754   1.353   4.715  12.958 -0.3784  0.4788  1.4478
 2765SOL    HW219755   1.492   0.057  12.959  0.2226  0.7941 -0.6522
 2766SOL     OW19756   0.086   2.808   4.191 -0.3762 -0.0527 -0.5932
 2766SOL    HW119757   0.123   2.782   4.276 -1.6230  0.0244 -0.0340
 2766SOL    HW219758   0.080   2.721   4.152 -0.4550 -0.6158  0.6786
 2767SOL     OW19759   1.276   1.935   6.115  0.8876 -0.4899 -0.0231
 2767SOL    HW119760   1.344   1.929   6.049  2.1261  1.9651  1.0300
 2767SOL    HW219761   1.198   1.912   6.064  0.6134 -0.5803  0.4326
 2768SOL     OW19762   1.198   1.820  16.006  0.0255 -0.0227  0.4825
 2768SOL    HW119763   1.232   1.909  15.995  0.8340 -0.2009  1.5127
 2768SOL    HW219764   1.105   1.839  16.019  0.2720  0.7769  1.0519
 2769SOL     OW19765   1.396   3.296   5.282 -0.3270 -0.1287  0.4505
 2769SOL    HW119766   1.408   3.216   5.231 -0.5408  0.4472 -0.5148
 2769SOL    HW219767   1.471   3.354   5.266 -0.6146  0.6321  1.8609
 2770SOL     OW19768   3.583   0.646   3.902  0.5313 -0.3416 -0.0786
 2770SOL    HW119769   3.595   0.658   3.996  1.5892 -1.5592 -0.0602
 2770SOL    HW219770   3.665   0.599   3.885  1.3781  0.3682  2.1553
 2771SOL     OW19771   3.991   2.538   0.785  0.1328 -0.0157 -0.4451
 2771SOL    HW119772   3.953   2.452   0.805  2.8578 -1.2507 -0.4968
 2771SOL    HW219773   3.960   2.546   0.695  0.8903 -1.1988 -0.8111
 2772SOL     OW19774   1.314   4.360   7.641 -0.4445  0.0623  0.3907
 2772SOL    HW119775   1.268   4.368   7.725 -0.3116  2.2447  0.2518
 2772SOL    HW219776   1.403   4.376   7.672 -0.9121 -0.5102  2.0362
 2773SOL     OW19777   0.894   1.680  11.725 -0.2266 -0.1307  0.1118
 2773SOL    HW119778   0.986   1.708  11.731  0.4913 -2.2770 -0.8155
 2773SOL    HW219779   0.855   1.726  11.799 -1.1563  1.1466 -1.1633
 2774SOL     OW19780   4.335   2.437   2.724 -0.4422  0.0699  0.1440
 2774SOL    HW119781   4.363   2.524   2.695 -1.0242  0.2129  0.0179
 2774SOL    HW219782   4.240   2.442   2.715 -0.4045  1.2220  0.3998
 2775SOL     OW19783   1.000   0.275   7.713 -0.2572 -0.2096  0.5653
 2775SOL    HW119784   0.947   0.342   7.670 -0.7295 -0.0104  1.4533
 2775SOL    HW219785   1.094   0.293   7.706 -0.2984  0.3095  1.3665
 2776SOL     OW19786   1.905   2.665   3.401  0.0869 -0.4088 -0.3399
 2776SOL    HW119787   1.955   2.736   3.361  0.6264  0.1772  1.3803
 2776SOL    HW219788   1.840   2.711   3.454  1.0383  0.0472  0.4437
 2777SOL     OW19789   2.454   4.289   8.712  0.4574  0.5520  0.1408
 2777SOL    HW119790   2.447   4.319   8.802  1.0094  1.8826 -0.2628
 2777SOL    HW219791   2.516   4.351   8.675  1.7487 -0.3508  0.7916
 2778SOL     OW19792   4.398   3.947   7.629  0.1443 -0.1699 -0.1641
 2778SOL    HW119793   4.460   3.916   7.695 -0.8331  1.0451  1.3202
 2778SOL    HW219794   4.453   3.999   7.571  0.5757 -0.3355  0.0994
 2779SOL     OW19795   1.459   0.050   6.380 -0.6456  0.5928 -0.2688
 2779SOL    HW119796   1.405   0.116   6.423  0.3090  0.2633  1.4341
 2779SOL    HW219797   1.387   0.006   6.334  0.5123 -0.1940 -1.3241
 2780SOL     OW19798   1.239   3.082   2.740  0.6527  0.3487  0.0671
 2780SOL    HW119799   1.228   2.987   2.743 -0.4361  0.4748  0.1514
 2780SOL    HW219800   1.144   3.091   2.742  0.6879  1.0289 -1.0361
 2781SOL     OW19801   2.908   3.715   3.519  0.1216 -0.0708  0.2875
 2781SOL    HW119802   2.942   3.667   3.443 -2.7136 -1.5891 -0.0054
 2781SOL    HW219803   2.943   3.800   3.491 -2.5925  0.5181 -1.2575
 2782SOL     OW19804   0.156   4.721   3.617  0.0708 -0.0786  0.0585
 2782SOL    HW119805   0.121   0.002   3.706 -1.8498  2.2000 -0.8169
 2782SOL    HW219806   0.208   4.641   3.612  0.7907  0.4342 -0.5917
 2783SOL     OW19807   2.182   2.756   6.292 -0.6967 -0.3456 -0.4546
 2783SOL    HW119808   2.140   2.712   6.366 -2.5846  0.1649 -1.2404
 2783SOL    HW219809   2.263   2.706   6.279 -0.8240 -0.5948 -0.2895
 2784SOL     OW19810   3.922   4.421   8.811 -0.1914  0.1105  0.4378
 2784SOL    HW119811   3.831   4.440   8.831 -1.3331 -2.4432 -2.3898
 2784SOL    HW219812   3.967   4.457   8.888 -0.0588 -0.5787  0.6793
 2785SOL     OW19813   1.184   1.010  11.999  0.4339 -0.1439 -0.0389
 2785SOL    HW119814   1.221   0.942  11.943 -0.2831 -0.0999 -0.5634
 2785SOL    HW219815   1.268   1.052  12.017  0.3207 -0.2709  0.7900
 2786SOL     OW19816   2.328   4.269   6.562 -0.0416 -0.0313 -0.1740
 2786SOL    HW119817   2.370   4.279   6.647 -1.6703 -0.1131  0.6250
 2786SOL    HW219818   2.287   4.356   6.554 -0.4154 -0.0764  1.2971
 2787SOL     OW19819   2.448   4.085   8.489  0.2918  0.3743  0.6160
 2787SOL    HW119820   2.382   4.126   8.545 -0.0598  2.4218 -1.2967
 2787SOL    HW219821   2.404   4.000   8.483 -0.3090  0.7110  0.2572
 2788SOL     OW19822   2.408   4.475   3.694 -0.1743 -0.5616 -0.0079
 2788SOL    HW119823   2.496   4.493   3.661 -1.0950  0.7236 -1.7921
 2788SOL    HW219824   2.349   4.472   3.618  1.2376  2.1682 -1.2450
 2789SOL     OW19825   1.226   1.486   6.533  0.0126 -0.1967 -0.4004
 2789SOL    HW119826   1.199   1.511   6.444  2.0262 -1.1060 -1.2839
 2789SOL    HW219827   1.145   1.464   6.578  0.3052 -1.1320 -0.3258
 2790SOL     OW19828   4.031   0.019  12.251 -0.4293 -0.0721 -0.2784
 2790SOL    HW119829   3.956   0.067  12.285  0.4757  1.3250 -0.2753
 2790SOL    HW219830   4.019   4.656  12.291  0.2269  0.4312  0.9657
 2791SOL     OW19831   3.004   0.746  13.284 -0.0064  0.1140  0.2648
 2791SOL    HW119832   2.926   0.796  13.261 -1.3767 -1.2340  1.9615
 2791SOL    HW219833   3.040   0.810  13.345  1.0679  1.9696 -2.3552
 2792SOL     OW19834   2.639   2.633   8.036 -0.0695  0.2492  0.2955
 2792SOL    HW119835   2.573   2.580   8.080 -1.1217 -0.4535 -2.0949
 2792SOL    HW219836   2.701   2.569   8.001 -0.2371 -0.4167  1.2266
 2793SOL     OW19837   3.637   2.278   7.072 -0.1692 -0.1451 -0.2430
 2793SOL    HW119838   3.584   2.351   7.040  0.4423  0.7983  0.8959
 2793SOL    HW219839   3.719   2.299   7.027  1.0766 -1.3201  1.4907
 2794SOL     OW19840   0.540   3.843   8.006  0.5034 -0.0259 -0.0484
 2794SOL    HW119841   0.605   3.778   8.032 -1.1767 -1.1255  1.4218
 2794SOL    HW219842   0.550   3.903   8.079 -1.4227  1.2630 -0.8292
 2795SOL     OW19843   1.039   0.354  13.972 -0.3483 -0.2766 -0.3819
 2795SOL    HW119844   1.125   0.345  14.014  0.4644  2.3374 -1.4965
 2795SOL    HW219845   0.987   0.318  14.044  0.4195 -1.5345 -0.4607
 2796SOL     OW19846   0.150   2.356   5.204  0.3987 -0.0661  0.0635
 2796SOL    HW119847   0.168   2.328   5.115  0.1917  2.7996 -0.8621
 2796SOL    HW219848   0.136   2.269   5.242 -1.0079  1.2766  2.6533
 2797SOL     OW19849   0.775   2.661   3.094  0.9095  0.5509 -0.0676
 2797SOL    HW119850   0.762   2.723   3.022 -1.3432 -0.9412 -0.9512
 2797SOL    HW219851   0.869   2.669   3.108  0.9790  1.5433 -1.0839
 2798SOL     OW19852   0.301   3.353   5.964  0.5042 -0.0169  0.4510
 2798SOL    HW119853   0.323   3.289   6.032 -0.7360 -1.6395 -0.6662
 2798SOL    HW219854   0.347   3.320   5.887  1.9727 -0.7870  1.6564
 2799SOL     OW19855   0.628   3.928  11.631 -0.0430 -0.0283 -0.5099
 2799SOL    HW119856   0.574   3.979  11.692 -0.2031 -2.2019  1.1702
 2799SOL    HW219857   0.609   3.837  11.653 -0.1672  0.7193  2.5522
 2800SOL     OW19858   4.046   1.437   6.712 -0.4353  0.0710  0.4414
 2800SOL    HW119859   3.967   1.461   6.665 -1.3030 -2.9870  0.3365
 2800SOL    HW219860   4.108   1.478   6.651  0.1390 -1.5672 -0.0685
 2801SOL     OW19861   3.278   1.186   6.850 -0.5848 -0.4115  0.2885
 2801SOL    HW119862   3.281   1.237   6.931  0.6462 -0.6553  0.4005
 2801SOL    HW219863   3.240   1.104   6.880  0.4155 -0.8970  0.2123
 2802SOL     OW19864   1.321   2.865  10.101  0.3889 -0.1283  0.1991
 2802SOL    HW119865   1.279   2.816  10.030 -0.6046 -0.9995  1.3812
 2802SOL    HW219866   1.410   2.838  10.083  0.7462  1.5914 -0.5877
 2803SOL     OW19867   3.780   0.772   8.937 -0.3641 -0.8839  0.2456
 2803SOL    HW119868   3.843   0.827   8.890 -1.0692 -0.6555 -0.4284
 2803SOL    HW219869   3.803   0.690   8.895  0.8236  0.2046 -1.2308
 2804SOL     OW19870   0.193   4.607  14.613  0.6528 -0.6709 -0.0627
 2804SOL    HW119871   0.127   4.599  14.682  1.6615 -1.9080  0.7729
 2804SOL    HW219872   0.146   4.574  14.537 -1.8265  0.6850  0.8709
 2805SOL     OW19873   2.779   4.642   4.629 -0.0237  0.0492 -0.2105
 2805SOL    HW119874   2.794   4.720   4.682 -0.6803 -1.0189  1.5534
 2805SOL    HW219875   2.786   4.663   4.536 -2.1111  0.7411 -0.2181
 2806SOL     OW19876   1.635   3.348   4.289 -0.3252  0.4131  0.1547
 2806SOL    HW119877   1.548   3.377   4.264  0.0424 -0.3302 -1.9992
 2806SOL    HW219878   1.643   3.259   4.254 -0.0079  0.1804  0.8154
 2807SOL     OW19879   0.117   0.465  12.758  0.3582 -0.2141  0.0012
 2807SOL    HW119880   0.187   0.526  12.737  0.7620  0.0878  2.2412
 2807SOL    HW219881   0.111   0.435  12.667 -0.0777 -1.1005  0.3221
 2808SOL     OW19882   1.598   0.849   8.835  0.5142  0.3595 -0.0100
 2808SOL    HW119883   1.620   0.899   8.757  0.8768 -1.0636 -0.8300
 2808SOL    HW219884   1.607   0.913   8.905  1.8675  0.4117 -0.2325
 2809SOL     OW19885   4.606   4.526   7.377  0.5559  0.4683  0.0631
 2809SOL    HW119886   4.667   4.463   7.416  0.4177 -0.5688 -1.3680
 2809SOL    HW219887   4.569   4.471   7.307 -1.7445  3.9096 -1.4212
 2810SOL     OW19888   0.388   0.643  10.848 -0.4499  0.0752  0.0360
 2810SOL    HW119889   0.362   0.582  10.917 -0.9116  2.6761  2.1259
 2810SOL    HW219890   0.347   0.724  10.877 -0.3910  0.5847 -1.3024
 2811SOL     OW19891   4.039   3.468  14.351  0.3958 -0.5550 -0.4172
 2811SOL    HW119892   4.124   3.440  14.318  1.6082  0.8758  1.4748
 2811SOL    HW219893   3.987   3.436  14.277 -0.7844 -0.5593  0.4108
 2812SOL     OW19894   4.164   3.501   7.807  1.0613 -0.0120 -0.4151
 2812SOL    HW119895   4.194   3.418   7.844 -0.2389  0.2355  1.1817
 2812SOL    HW219896   4.128   3.529   7.891 -0.8468  0.2028 -1.3105
 2813SOL     OW19897   2.603   1.806   9.563 -0.2641  0.1836  0.0898
 2813SOL    HW119898   2.674   1.802   9.498 -1.2550  0.5698 -1.0191
 2813SOL    HW219899   2.623   1.727   9.613  0.2141  0.1359 -0.1714
 2814SOL     OW19900   0.732   0.928   6.956  0.3756  0.2092 -0.0247
 2814SOL    HW119901   0.687   1.006   6.989  0.8491  0.1010  0.8605
 2814SOL    HW219902   0.807   0.968   6.912 -0.2989  0.0175 -1.3734
 2815SOL     OW19903   4.670   0.112  11.830 -0.4987 -0.4324  0.3130
 2815SOL    HW119904   4.650   0.035  11.776 -1.1834 -0.0829  0.0731
 2815SOL    HW219905   0.043   0.109  11.823 -0.4042  2.4698  0.2272
 2816SOL     OW19906   2.088   2.336   4.819  0.5119 -0.2248  0.0966
 2816SOL    HW119907   2.120   2.401   4.882  0.1318  0.9683 -0.9562
 2816SOL    HW219908   2.050   2.275   4.883 -0.4921 -1.2945 -1.5155
 2817SOL     OW19909   0.608   3.368   0.214 -0.2161 -0.1149  0.8239
 2817SOL    HW119910   0.675   3.300   0.217  1.7419  1.8520  1.5375
 2817SOL    HW219911   0.556   3.343   0.290 -0.6535 -0.1720  0.5058
 2818SOL     OW19912   2.351   0.522   8.549  0.0104 -0.0731  0.5584
 2818SOL    HW119913   2.360   0.602   8.496 -0.8099 -0.1214  0.3466
 2818SOL    HW219914   2.408   0.471   8.491 -0.6012  0.1911 -0.2761
 2819SOL     OW19915   2.899   3.243   4.657 -0.3131 -0.3782  0.3923
 2819SOL    HW119916   2.877   3.313   4.718 -3.4540 -0.4093 -0.6677
 2819SOL    HW219917   2.829   3.258   4.592  0.4689 -2.0275 -0.8295
 2820SOL     OW19918   3.013   2.694   2.977 -0.2346 -0.3239  0.0709
 2820SOL    HW119919   2.987   2.766   3.034  0.1828  0.0339 -0.1920
 2820SOL    HW219920   2.939   2.639   2.951 -1.0944  0.6058  0.5995
 2821SOL     OW19921   1.806   3.855   4.900 -0.2413 -0.4140 -0.4008
 2821SOL    HW119922   1.890   3.868   4.855 -0.1181 -1.0526 -0.3616
 2821SOL    HW219923   1.768   3.941   4.885 -1.4235 -1.5317 -3.7349
 2822SOL     OW19924   4.077   1.956  14.954 -0.0540 -0.0513  0.1860
 2822SOL    HW119925   3.997   1.945  14.903  0.6539  0.8570 -1.1306
 2822SOL    HW219926   4.083   1.876  15.006 -2.1332 -0.9845 -0.9857
 2823SOL     OW19927   4.338   1.523   7.217 -0.1061  0.3549 -0.2687
 2823SOL    HW119928   4.381   1.599   7.256  0.4617  0.1514 -0.5057
 2823SOL    HW219929   4.249   1.557   7.205  1.2805  4.0575  0.0387
 2824SOL     OW19930   3.699   3.146  15.704  0.0489  0.0523  0.2326
 2824SOL    HW119931   3.607   3.121  15.699  0.5499 -2.2190  2.2558
 2824SOL    HW219932   3.711   3.220  15.646  3.3536 -0.3272  0.4433
 2825SOL     OW19933   0.512   1.160   6.436  0.3259 -0.7579  0.1906
 2825SOL    HW119934   0.452   1.235   6.438  0.4321 -0.6881  0.6489
 2825SOL    HW219935   0.485   1.103   6.508  1.8982 -1.5972  0.1006
 2826SOL     OW19936   4.028   2.781   2.996  0.0359 -0.0422  0.0846
 2826SOL    HW119937   3.984   2.778   3.081 -1.1066  0.8298 -0.4795
 2826SOL    HW219938   4.074   2.699   3.012 -0.5700 -0.0168  2.0246
 2827SOL     OW19939   0.490   1.166   6.860 -0.0390 -0.5890 -0.2478
 2827SOL    HW119940   0.534   1.158   6.944  1.3430  0.5633 -0.8420
 2827SOL    HW219941   0.494   1.261   6.845  2.4494 -0.4485  1.3071
 2828SOL     OW19942   3.995   2.661   4.115  0.4178 -0.2938 -0.4442
 2828SOL    HW119943   4.024   2.750   4.096  1.4219 -0.4588  0.3249
 2828SOL    HW219944   3.907   2.640   4.082 -0.2508  1.2548  0.3692
 2829SOL     OW19945   3.570   0.061   6.412 -0.3328  0.5853  0.1978
 2829SOL    HW119946   3.552   0.044   6.504 -0.0451 -0.9679 -0.0324
 2829SOL    HW219947   3.583   0.154   6.428 -2.6708  0.4119  3.0657
 2830SOL     OW19948   2.014   1.307  12.148 -0.1570 -0.1148  0.4862
 2830SOL    HW119949   2.105   1.323  12.123  0.4462 -2.0626  1.4288
 2830SOL    HW219950   2.023   1.274  12.237 -3.3874  0.1867  0.9176
 2831SOL     OW19951   1.092   0.105  15.926  0.2869 -0.0107  0.1056
 2831SOL    HW119952   1.069   0.143  15.841  0.1017  1.0527  0.6408
 2831SOL    HW219953   1.186   0.123  15.934 -0.0154  1.3376  0.5660
 2832SOL     OW19954   4.225   2.139  15.262  0.2035 -0.3548 -0.4816
 2832SOL    HW119955   4.142   2.153  15.217 -1.8150 -1.9899  2.7387
 2832SOL    HW219956   4.276   2.212  15.228  1.9935 -0.7763  1.2656
 2833SOL     OW19957   3.391   4.369   8.595 -0.3589 -0.1335  0.1626
 2833SOL    HW119958   3.386   4.329   8.682  0.4895  4.7607  2.5059
 2833SOL    HW219959   3.412   4.295   8.539 -1.0577  0.3349 -0.7174
 2834SOL     OW19960   1.453   3.630   1.677  0.5655 -0.0124  0.2537
 2834SOL    HW119961   1.544   3.603   1.687  0.8662  0.0380 -2.3813
 2834SOL    HW219962   1.416   3.557   1.726 -0.1728  1.0539  1.2925
 2835SOL     OW19963   4.393   1.311  15.166  0.4352  0.3613  0.0526
 2835SOL    HW119964   4.351   1.242  15.217 -2.4079  1.0172 -1.4350
 2835SOL    HW219965   4.483   1.277  15.170 -0.5105 -2.0836  0.4606
 2836SOL     OW19966   2.013   0.255  16.571 -0.2925  0.1206 -0.2067
 2836SOL    HW119967   1.986   0.172  16.532 -0.6477 -0.6817  1.7353
 2836SOL    HW219968   2.085   0.219  16.624 -0.2037 -0.9981 -1.0824
 2837SOL     OW19969   1.815   3.380   6.115  0.0277  0.1727 -0.1199
 2837SOL    HW119970   1.783   3.401   6.203  0.2386 -1.7055  0.4096
 2837SOL    HW219971   1.908   3.385   6.138 -0.1167  1.2922  0.1971
 2838SOL     OW19972   1.911   2.182  17.578 -0.3695 -0.2149 -0.1353
 2838SOL    HW119973   1.914   2.249  17.646  0.5236 -1.4110  0.9965
 2838SOL    HW219974   1.994   2.186  17.530 -0.6514 -1.5846 -0.7251
 2839SOL     OW19975   1.505   0.539   7.366 -0.9591  0.7432  0.3707
 2839SOL    HW119976   1.562   0.462   7.356 -3.1328 -0.8805  0.6524
 2839SOL    HW219977   1.489   0.533   7.460 -1.4887  1.2702  0.3074
 2840SOL     OW19978   0.007   4.379  10.621  0.2491  0.4512  0.1562
 2840SOL    HW119979   0.010   4.392  10.715 -0.4629 -2.4891  0.5905
 2840SOL    HW219980   4.714   4.285  10.625  1.9320  0.1355 -0.1263
 2841SOL     OW19981   2.661   3.308   2.666 -0.0819 -0.0250 -0.6092
 2841SOL    HW119982   2.643   3.215   2.684 -1.4430  0.3341 -0.1301
 2841SOL    HW219983   2.579   3.342   2.702  0.0392  0.5188 -0.8439
 2842SOL     OW19984   2.997   4.466   8.526 -0.2089  0.8145  0.0455
 2842SOL    HW119985   3.053   4.405   8.478  1.2950  3.1787 -1.2244
 2842SOL    HW219986   2.974   4.435   8.614  3.2709 -1.5138  0.1142
 2843SOL     OW19987   2.031   3.319   7.385  0.3894  0.3422 -0.3805
 2843SOL    HW119988   2.020   3.268   7.465  0.3725  2.5008  0.9894
 2843SOL    HW219989   1.941   3.338   7.358 -0.0497 -0.2481  0.6729
 2844SOL     OW19990   0.734   1.450   7.009 -0.4771  0.0621 -0.4241
 2844SOL    HW119991   0.683   1.474   7.087  0.1201 -3.3369  1.0112
 2844SOL    HW219992   0.819   1.491   7.026 -1.4227  2.3926 -1.2973
 2845SOL     OW19993   4.446   4.506   3.834  0.0875 -0.1371 -0.5194
 2845SOL    HW119994   4.369   4.538   3.786 -0.4907 -2.0853 -0.9153
 2845SOL    HW219995   4.486   4.586   3.866 -0.5230  0.2408 -0.6912
 2846SOL     OW19996   0.813   3.840  14.100  0.2081 -0.0715 -0.3086
 2846SOL    HW119997   0.848   3.901  14.164 -0.3625  1.2446 -1.2314
 2846SOL    HW219998   0.834   3.889  14.020 -0.7847 -0.4961 -0.8302
 2847SOL     OW19999   2.389   4.178  15.658  0.3262  0.2537  0.7039
 2847SOL    HW120000   2.394   4.099  15.604  2.2094  0.7275  0.1679
 2847SOL    HW220001   2.437   4.245  15.608 -1.2598  0.3669 -0.6720
 2848SOL     OW20002   0.987   4.451   5.823  0.4357  0.7192 -0.0495
 2848SOL    HW120003   0.898   4.420   5.806  0.8000 -0.2035 -0.2879
 2848SOL    HW220004   1.008   4.509   5.750  0.3655  0.1019 -0.5597
 2849SOL     OW20005   3.480   2.458   6.962  0.0500  0.3951  0.4470
 2849SOL    HW120006   3.491   2.475   6.868 -0.2562  0.8902  0.4994
 2849SOL    HW220007   3.395   2.497   6.983 -0.7526 -1.3057  0.3487
 2850SOL     OW20008   0.561   1.506   1.896 -0.3169  1.0819 -0.2107
 2850SOL    HW120009   0.637   1.451   1.914 -1.2429 -0.2068 -0.2601
 2850SOL    HW220010   0.508   1.439   1.851  1.2079  0.4672 -1.0842
 2851SOL     OW20011   3.784   1.132   4.381 -0.1111 -0.1154  0.0340
 2851SOL    HW120012   3.790   1.223   4.411  0.7490 -0.3965  0.7315
 2851SOL    HW220013   3.843   1.134   4.305 -1.7994  1.4497 -1.2227
 2852SOL     OW20014   4.091   3.534   8.980  0.0940  0.3052  0.0381
 2852SOL    HW120015   4.025   3.578   8.926 -0.4927  0.6885  1.0585
 2852SOL    HW220016   4.035   3.470   9.024 -0.6616 -0.1971 -1.6596
 2853SOL     OW20017   3.390   4.697   7.974  0.3521 -0.3499 -0.5464
 2853SOL    HW120018   3.312   4.657   7.935  0.3719  1.6105 -2.5616
 2853SOL    HW220019   3.357   0.024   8.049 -0.9248 -0.0081 -1.3387
 2854SOL     OW20020   1.295   3.698   4.814 -0.4058 -0.2263  0.1536
 2854SOL    HW120021   1.338   3.636   4.872  1.8946  0.8648 -0.3885
 2854SOL    HW220022   1.228   3.644   4.772  0.5637 -2.4459  1.4781
 2855SOL     OW20023   1.761   2.902   3.480  0.1691  0.3184  0.5519
 2855SOL    HW120024   1.844   2.948   3.472  0.1826  0.1347 -0.3860
 2855SOL    HW220025   1.714   2.966   3.534 -1.9007  1.5830 -2.7937
 2856SOL     OW20026   0.096   3.673   0.231  0.1667 -0.9508 -0.2833
 2856SOL    HW120027   0.147   3.718   0.299 -0.4120  0.4595 -0.7785
 2856SOL    HW220028   0.159   3.606   0.205  0.5692 -1.3004  1.5507
 2857SOL     OW20029   0.192   0.379  11.434  0.4043 -0.1336  0.2183
 2857SOL    HW120030   0.115   0.417  11.476  1.5038 -0.6504  2.6641
 2857SOL    HW220031   0.158   0.358  11.347 -1.4227  1.9144  0.4221
 2858SOL     OW20032   3.927   0.705   7.106  0.3782 -0.0839 -0.3398
 2858SOL    HW120033   3.870   0.705   7.183 -1.0066  0.1364 -1.3547
 2858SOL    HW220034   3.988   0.634   7.123  1.0191  0.6580  0.4383
 2859SOL     OW20035   3.660   1.728  16.943  0.3641 -0.4135  0.0477
 2859SOL    HW120036   3.712   1.764  17.015 -2.2420  1.9064  0.7752
 2859SOL    HW220037   3.714   1.733  16.864 -1.0521 -1.1624 -0.9578
 2860SOL     OW20038   1.829   2.216   6.260 -0.4770  0.1374  0.0450
 2860SOL    HW120039   1.914   2.249   6.230 -0.3204 -1.4110 -1.1888
 2860SOL    HW220040   1.828   2.233   6.354 -2.0249  2.0222 -0.3215
 2861SOL     OW20041   1.009   3.602   5.014 -0.8356  0.3681 -0.5940
 2861SOL    HW120042   0.914   3.605   5.030 -0.8347 -0.1050 -0.4815
 2861SOL    HW220043   1.024   3.676   4.956 -1.5548 -0.5821 -2.0186
 2862SOL     OW20044   0.561   0.176  12.972  0.4612  0.0418  0.7981
 2862SOL    HW120045   0.512   0.118  13.030 -0.2096 -1.2775 -1.0782
 2862SOL    HW220046   0.491   0.221  12.925 -1.0317  0.3256  3.2916
 2863SOL     OW20047   2.060   1.230   5.850  0.2791 -0.0227 -0.6059
 2863SOL    HW120048   2.095   1.147   5.815 -0.2276 -0.5714  0.1999
 2863SOL    HW220049   2.109   1.291   5.795  0.6231 -1.3302 -1.7567
 2864SOL     OW20050   3.049   0.518   7.527 -0.3259 -0.4342 -0.3682
 2864SOL    HW120051   3.003   0.481   7.603  2.3891 -3.3099 -0.1431
 2864SOL    HW220052   3.129   0.467   7.534  1.2642  2.0424 -0.6109
 2865SOL     OW20053   0.814   1.771   9.440  0.2856 -0.2471  0.2627
 2865SOL    HW120054   0.842   1.695   9.491 -1.8169 -1.2220 -0.0397
 2865SOL    HW220055   0.774   1.824   9.508 -0.5326  1.1033 -1.2592
 2866SOL     OW20056   3.366   1.552  13.235  0.1407  0.2664  0.5787
 2866SOL    HW120057   3.417   1.618  13.283  1.8706 -0.8267  0.2211
 2866SOL    HW220058   3.279   1.593  13.235  0.4203  0.9016  2.6060
 2867SOL     OW20059   2.665   3.010  11.558 -1.0193  0.0176 -0.0088
 2867SOL    HW120060   2.656   2.921  11.524 -1.6632 -0.6228  1.8864
 2867SOL    HW220061   2.709   3.053  11.485 -2.5902  0.2847 -0.8103
 2868SOL     OW20062   1.537   1.341  11.623 -0.0411  0.0399 -0.4452
 2868SOL    HW120063   1.491   1.328  11.540 -2.3945 -0.5760  0.9535
 2868SOL    HW220064   1.461   1.344  11.681 -0.1786 -2.1524 -0.5210
 2869SOL     OW20065   3.128   2.953   3.374  0.1797 -0.3131 -0.2806
 2869SOL    HW120066   3.180   3.031   3.353 -0.0365  0.4716  2.0958
 2869SOL    HW220067   3.083   2.945   3.290  1.5702  1.2435 -1.1746
 2870SOL     OW20068   1.217   3.358   3.186  0.1276 -0.3717  0.0631
 2870SOL    HW120069   1.237   3.388   3.097  1.1230  0.7973  0.6702
 2870SOL    HW220070   1.236   3.264   3.185  0.6577 -0.2606 -0.2630
 2871SOL     OW20071   1.234   4.148   2.520  0.1759  0.2569  0.3675
 2871SOL    HW120072   1.211   4.166   2.429 -2.8902  0.5591  1.2036
 2871SOL    HW220073   1.287   4.227   2.528 -1.5451  1.2155  2.4130
 2872SOL     OW20074   2.029   1.334   2.098  0.0272 -0.1424  0.2600
 2872SOL    HW120075   1.959   1.399   2.105  1.3942  1.3136  0.3460
 2872SOL    HW220076   2.000   1.267   2.036 -0.8823  0.4247  0.0754
 2873SOL     OW20077   2.021   1.471   2.671  0.4861 -0.1843 -0.5275
 2873SOL    HW120078   1.982   1.410   2.608  0.2436  0.3956 -0.9398
 2873SOL    HW220079   2.020   1.553   2.622  2.0422  0.5849  0.7441
 2874SOL     OW20080   1.334   1.769   4.349  0.5751  0.1454 -0.0703
 2874SOL    HW120081   1.362   1.701   4.288  0.9052 -1.0438  1.3975
 2874SOL    HW220082   1.377   1.731   4.426  0.1104 -1.2728 -0.5061
 2875SOL     OW20083   1.279   4.272  16.382  0.2669 -0.1676  0.0227
 2875SOL    HW120084   1.300   4.304  16.295 -2.0595 -1.1347 -0.9094
 2875SOL    HW220085   1.366   4.292  16.417  0.9044 -0.2725 -1.5313
 2876SOL     OW20086   1.004   4.642  12.245  0.7241  0.3325 -0.4300
 2876SOL    HW120087   1.096   4.662  12.225  0.6645  0.0157 -1.0446
 2876SOL    HW220088   0.976   4.720  12.292  0.7157  0.2784 -0.3449
 2877SOL     OW20089   1.088   0.996   3.325  0.0025  0.3084  0.2460
 2877SOL    HW120090   1.067   0.907   3.351  1.5954 -0.3640 -0.7539
 2877SOL    HW220091   1.182   0.993   3.308  0.2386  0.3222  1.5847
 2878SOL     OW20092   3.636   2.012   9.404 -0.5050  0.1489  0.0341
 2878SOL    HW120093   3.578   1.961   9.459  0.9310  0.3498  1.7271
 2878SOL    HW220094   3.718   1.963   9.402 -2.5361 -3.2674  0.8445
 2879SOL     OW20095   3.081   1.388  12.967  0.3945  0.3830 -0.1945
 2879SOL    HW120096   3.012   1.452  12.985 -1.3825 -1.4572 -0.4805
 2879SOL    HW220097   3.067   1.330  13.042  0.4935 -1.4421 -1.5910
 2880SOL     OW20098   0.959   1.332  14.546 -0.0084 -0.1002 -0.0379
 2880SOL    HW120099   0.937   1.255  14.599  0.6506 -0.2058  0.0917
 2880SOL    HW220100   0.884   1.387  14.566 -0.4483 -1.8472  3.1521
 2881SOL     OW20101   4.085   2.069   2.733 -0.3584 -0.7069  0.5175
 2881SOL    HW120102   4.092   2.047   2.825 -0.4248 -1.8563  0.2516
 2881SOL    HW220103   4.048   1.984   2.707  0.2594 -0.7162 -0.3335
 2882SOL     OW20104   3.016   4.366   3.064  0.9695  0.4705  0.0900
 2882SOL    HW120105   3.018   4.411   2.980  1.3619 -0.4706 -0.4108
 2882SOL    HW220106   3.097   4.316   3.050  1.8393  1.6301  0.9791
 2883SOL     OW20107   3.162   2.788  12.555 -0.2849 -0.2190  0.1857
 2883SOL    HW120108   3.147   2.863  12.612  0.3316  1.2661 -1.6223
 2883SOL    HW220109   3.090   2.787  12.492  0.5622 -0.9648 -0.7622
 2884SOL     OW20110   1.184   4.479   8.115  0.4513 -0.1300  0.1765
 2884SOL    HW120111   1.203   4.539   8.188 -0.1672 -0.7298  0.8353
 2884SOL    HW220112   1.247   4.414   8.147  1.8127  0.7413 -0.7505
 2885SOL     OW20113   0.088   1.690   2.736  0.9346 -0.3714 -0.3722
 2885SOL    HW120114   0.181   1.707   2.719  0.6263  1.6787  0.1316
 2885SOL    HW220115   0.094   1.601   2.771  0.3619  0.9636  3.0884
 2886SOL     OW20116   2.368   4.266   2.052  0.3705 -0.1388  0.0839
 2886SOL    HW120117   2.367   4.348   2.003 -1.1417 -0.0843  0.1818
 2886SOL    HW220118   2.424   4.210   1.999  0.0417 -0.2293 -0.1712
 2887SOL     OW20119   2.084   0.077   2.733  0.4012 -0.0657  0.1187
 2887SOL    HW120120   2.147   0.143   2.702  0.1864 -0.0418 -0.2631
 2887SOL    HW220121   2.048   0.033   2.656 -0.9560  1.5903 -0.1726
 2888SOL     OW20122   1.813   0.747   0.324  0.4359  0.5761 -0.1714
 2888SOL    HW120123   1.819   0.668   0.379 -0.4005 -0.8456 -2.1005
 2888SOL    HW220124   1.840   0.713   0.238 -3.0728 -2.6838  0.0034
 2889SOL     OW20125   3.303   0.726   2.040  0.0134 -0.3688 -0.2898
 2889SOL    HW120126   3.294   0.817   2.068 -1.4261 -0.6211  0.0470
 2889SOL    HW220127   3.297   0.731   1.945 -0.2598 -1.9728 -0.3585
 2890SOL     OW20128   1.763   2.644   9.546  0.3206 -0.2265 -0.4317
 2890SOL    HW120129   1.707   2.588   9.491  0.6194 -1.2172  0.2590
 2890SOL    HW220130   1.797   2.602   9.625 -1.6176 -0.2976  0.3814
 2891SOL     OW20131   0.825   2.637  13.040 -0.3908  0.1822  0.1838
 2891SOL    HW120132   0.751   2.660  13.096  0.8815 -0.2218  2.0214
 2891SOL    HW220133   0.787   2.567  12.987  0.2442 -1.4387  1.8524
 2892SOL     OW20134   1.607   2.543   8.801  0.1659 -0.2583  0.0947
 2892SOL    HW120135   1.610   2.567   8.893  0.5020 -0.1100  0.0446
 2892SOL    HW220136   1.531   2.586   8.762  0.8501  1.8303  1.0496
 2893SOL     OW20137   3.715   2.230   4.910 -0.1924  0.5522 -0.1154
 2893SOL    HW120138   3.725   2.136   4.894 -1.5920  0.7077 -1.9064
 2893SOL    HW220139   3.640   2.253   4.855 -0.2698 -1.7642 -1.0003
 2894SOL     OW20140   0.542   2.847  14.234  0.0296 -0.0271 -0.2360
 2894SOL    HW120141   0.464   2.900  14.250 -0.1255  0.3472 -2.2027
 2894SOL    HW220142   0.600   2.898  14.178  0.6601 -1.3205 -0.7633
 2895SOL     OW20143   2.584   4.354  15.950 -0.1151 -0.1173 -0.1262
 2895SOL    HW120144   2.591   4.305  16.032  0.5064 -0.9686 -0.6986
 2895SOL    HW220145   2.490   4.375  15.953 -0.4880 -1.6369 -1.3766
 2896SOL     OW20146   3.589   4.612  13.665  0.7007 -0.0020 -0.3505
 2896SOL    HW120147   3.670   4.564  13.680  1.8201  2.0298  0.1433
 2896SOL    HW220148   3.523   4.546  13.645  0.8946 -0.5172  0.6982
 2897SOL     OW20149   4.634   0.340  11.005 -0.7492  0.5052 -0.0823
 2897SOL    HW120150   4.581   0.397  10.949 -0.2441  1.4172  0.3638
 2897SOL    HW220151   4.574   0.285  11.056  0.2546  1.2209  1.8601
 2898SOL     OW20152   1.102   3.570   0.598 -0.3093  0.3649  0.1310
 2898SOL    HW120153   1.173   3.519   0.637  0.3237  0.4231 -0.9503
 2898SOL    HW220154   1.132   3.579   0.508 -1.3623 -0.9662 -0.3688
 2899SOL     OW20155   4.081   0.445   8.958 -0.3742 -0.3660  0.1143
 2899SOL    HW120156   4.123   0.492   9.030 -1.8851  1.6481 -0.3224
 2899SOL    HW220157   4.090   0.511   8.890  2.0806 -0.0390  0.7621
 2900SOL     OW20158   4.387   2.712  12.227  0.6390 -0.7270  0.7293
 2900SOL    HW120159   4.469   2.739  12.268  1.2473 -1.1920 -0.1599
 2900SOL    HW220160   4.342   2.668  12.300 -1.5058  0.1107 -0.0969
 2901SOL     OW20161   1.286   0.306  17.238  0.0401 -0.1783 -0.0420
 2901SOL    HW120162   1.229   0.383  17.235 -0.7188 -0.6979  1.1574
 2901SOL    HW220163   1.372   0.344  17.255 -0.3342 -0.0354  1.5875
 2902SOL     OW20164   3.115   2.590  15.705  0.3901  0.1599 -0.0916
 2902SOL    HW120165   3.126   2.500  15.675  0.0868 -0.1664  0.7672
 2902SOL    HW220166   3.078   2.571  15.791  1.2516  4.6106  1.2534
 2903SOL     OW20167   0.168   4.680   6.815  0.1032 -0.1186 -0.0785
 2903SOL    HW120168   0.126   0.018   6.754 -1.0011  0.7451  1.5563
 2903SOL    HW220169   0.096   4.671   6.877 -0.1415  0.9449 -0.2014
 2904SOL     OW20170   3.164   4.288  12.400 -0.5760 -0.0573  0.4914
 2904SOL    HW120171   3.224   4.305  12.328  0.7585 -1.9503  1.1659
 2904SOL    HW220172   3.079   4.297  12.357  0.7197 -1.6930 -2.4009
 2905SOL     OW20173   4.142   0.246  17.231  0.0851  0.1490  0.2792
 2905SOL    HW120174   4.188   0.162  17.223  3.1909  1.9557 -1.0985
 2905SOL    HW220175   4.055   0.220  17.201  1.1107 -2.4392 -0.4904
 2906SOL     OW20176   0.727   0.939  13.951  0.0122 -0.5566  0.1386
 2906SOL    HW120177   0.816   0.946  13.917 -0.5393 -0.4668 -1.2632
 2906SOL    HW220178   0.751   0.895  14.033 -1.6387 -0.4094  0.7085
 2907SOL     OW20179   1.097   0.634   3.523  0.3551  0.5081  0.1225
 2907SOL    HW120180   1.050   0.684   3.457 -1.6527 -0.8017  0.5517
 2907SOL    HW220181   1.182   0.678   3.524  1.2983 -1.2471 -1.5041
 2908SOL     OW20182   4.424   1.185   9.589  0.1797 -0.1235 -0.4885
 2908SOL    HW120183   4.487   1.186   9.660  1.0764 -3.4587 -1.2396
 2908SOL    HW220184   4.375   1.106   9.615 -1.0226  0.9866  0.5858
 2909SOL     OW20185   1.367   4.289   8.224  0.1419  0.0434  0.3252
 2909SOL    HW120186   1.406   4.357   8.279  0.4431  1.0991 -1.2016
 2909SOL    HW220187   1.359   4.221   8.292  0.1779  0.4565  0.7461
 2910SOL     OW20188   1.969   1.442   7.985 -0.1964 -0.1929  0.1526
 2910SOL    HW120189   1.998   1.482   8.067  2.3935  1.9524 -1.7726
 2910SOL    HW220190   1.878   1.437   8.013 -1.0977  2.6718 -2.2095
 2911SOL     OW20191   1.976   3.329  16.817 -0.5219  0.5131  0.0105
 2911SOL    HW120192   1.952   3.409  16.863  2.0096  1.2287  0.1040
 2911SOL    HW220193   2.071   3.339  16.817 -0.4864  0.1411  0.3487
 2912SOL     OW20194   0.674   2.643   4.202 -0.6349 -0.5055 -0.0704
 2912SOL    HW120195   0.767   2.667   4.206 -1.0527  1.4217 -1.9852
 2912SOL    HW220196   0.637   2.730   4.187 -0.7573 -0.3245  1.2879
 2913SOL     OW20197   4.152   1.389   1.038 -0.4713 -0.0531 -0.3732
 2913SOL    HW120198   4.171   1.304   1.079  0.6689 -0.3379 -1.4959
 2913SOL    HW220199   4.099   1.421   1.111  0.4929  0.5908  0.0516
 2914SOL     OW20200   0.103   1.069   6.316 -0.2299  0.5090  0.2755
 2914SOL    HW120201   0.164   1.016   6.264 -1.4460  0.0779 -0.7255
 2914SOL    HW220202   0.023   1.019   6.300 -0.4722  0.5298  1.4663
 2915SOL     OW20203   3.444   1.748   6.327 -0.1689 -0.1283 -0.5787
 2915SOL    HW120204   3.511   1.816   6.319 -0.1311 -0.0274  0.6774
 2915SOL    HW220205   3.502   1.676   6.304 -0.4315  1.0990 -5.2438
 2916SOL     OW20206   2.976   3.330  12.144  0.2364 -0.2752  0.2733
 2916SOL    HW120207   3.007   3.399  12.087 -0.7387 -0.8415 -0.9561
 2916SOL    HW220208   3.003   3.352  12.233  2.6244 -2.0737 -0.0093
 2917SOL     OW20209   1.494   2.687   8.419  0.4382 -0.2764  0.2135
 2917SOL    HW120210   1.538   2.761   8.378 -1.4563  1.0338  0.5640
 2917SOL    HW220211   1.413   2.690   8.369  0.7422 -0.5214 -0.2961
 2918SOL     OW20212   4.108   4.308   0.968 -0.1537  0.9321  0.3908
 2918SOL    HW120213   4.186   4.258   0.992 -1.5536 -1.4988 -0.0375
 2918SOL    HW220214   4.060   4.312   1.051  0.3281  0.6022  0.6830
 2919SOL     OW20215   0.939   4.498   1.228 -0.2552  0.5041  0.5406
 2919SOL    HW120216   0.880   4.447   1.172 -0.4186  0.1398  1.0367
 2919SOL    HW220217   0.885   4.576   1.237  1.0541  1.4716  0.0175
 2920SOL     OW20218   0.258   3.197   3.214 -0.3443 -0.2935 -0.8280
 2920SOL    HW120219   0.193   3.145   3.168  0.4318  0.7978 -3.1527
 2920SOL    HW220220   0.212   3.279   3.235 -0.6012 -0.8299  0.7258
 2921SOL     OW20221   1.508   2.335   6.288 -0.4675  0.6585  0.2293
 2921SOL    HW120222   1.435   2.300   6.237  0.9125 -0.1707 -1.1851
 2921SOL    HW220223   1.558   2.254   6.299 -2.3075 -0.3028  1.5354
 2922SOL     OW20224   1.751   3.487   7.830 -0.3680 -0.3740 -0.3539
 2922SOL    HW120225   1.823   3.507   7.889 -0.0570 -2.2799 -0.0970
 2922SOL    HW220226   1.704   3.570   7.822  0.9345  0.4578  0.5931
 2923SOL     OW20227   0.465   0.890  17.442  0.2715 -0.3496 -0.0534
 2923SOL    HW120228   0.476   0.869  17.535  0.5599 -3.1427 -0.7258
 2923SOL    HW220229   0.504   0.978  17.442  1.5109 -0.8945 -2.4814
 2924SOL     OW20230   1.554   2.877   2.307 -1.2545  0.1149  0.3151
 2924SOL    HW120231   1.543   2.963   2.349  1.4501  0.4625  0.3557
 2924SOL    HW220232   1.544   2.908   2.217 -1.3213  2.2282  1.0262
 2925SOL     OW20233   3.447   0.732  12.261 -0.6441 -0.2361  0.2700
 2925SOL    HW120234   3.503   0.691  12.326  0.1301 -0.0643 -0.2848
 2925SOL    HW220235   3.439   0.658  12.201  0.8109  0.6157 -1.0003
 2926SOL     OW20236   3.660   0.737   4.163 -0.0661  0.3716  0.5856
 2926SOL    HW120237   3.674   0.774   4.251  0.4570 -2.9178  1.9061
 2926SOL    HW220238   3.720   0.797   4.119  1.9929 -0.6321  2.0077
 2927SOL     OW20239   3.837   2.937   4.351 -0.0342 -0.6589  0.2961
 2927SOL    HW120240   3.887   3.000   4.300 -0.9797  0.2991  0.5590
 2927SOL    HW220241   3.812   2.990   4.427  1.5519 -0.2152  0.5099
 2928SOL     OW20242   2.515   2.947  14.621  0.2530 -0.0865  0.1016
 2928SOL    HW120243   2.419   2.942  14.626  0.3532 -1.6195  0.2651
 2928SOL    HW220244   2.528   2.853  14.626  3.9503  0.4685  0.9603
 2929SOL     OW20245   1.424   0.284  12.763  0.3558 -0.3762 -0.1051
 2929SOL    HW120246   1.486   0.266  12.692  0.1778  2.3459 -0.9614
 2929SOL    HW220247   1.397   0.193  12.775  0.6685  0.0016  3.3361
 2930SOL     OW20248   1.642   1.214  10.177  0.3129 -0.0687  0.1559
 2930SOL    HW120249   1.655   1.281  10.244 -0.8992  1.5630 -1.2355
 2930SOL    HW220250   1.549   1.221  10.154  0.2274  0.9530  0.8421
 2931SOL     OW20251   1.211   3.634   8.772 -0.0096 -0.4509 -0.0890
 2931SOL    HW120252   1.300   3.605   8.751  0.7053  2.5811 -1.2467
 2931SOL    HW220253   1.172   3.549   8.788 -2.8305  0.8455 -0.0326
 2932SOL     OW20254   0.773   3.707   2.900 -0.3408  0.5048 -0.1082
 2932SOL    HW120255   0.818   3.759   2.967 -2.0773 -1.0069  2.2423
 2932SOL    HW220256   0.789   3.756   2.819 -1.2803 -0.2017 -0.7183
 2933SOL     OW20257   3.222   1.771  10.454  0.3304 -0.5666  0.8456
 2933SOL    HW120258   3.223   1.808  10.542 -2.9389 -0.0883  0.6879
 2933SOL    HW220259   3.127   1.768  10.445  0.4275 -0.7789 -0.1818
 2934SOL     OW20260   1.085   4.335   5.499  0.3698  0.3404  0.2573
 2934SOL    HW120261   1.044   4.421   5.508 -1.5145 -0.6487  0.9977
 2934SOL    HW220262   1.006   4.285   5.519  0.3452  0.1303 -0.3740
 2935SOL     OW20263   3.835   3.968   5.989  0.0289 -0.3749 -0.2756
 2935SOL    HW120264   3.901   4.037   5.996 -1.2703  0.7183  1.1620
 2935SOL    HW220265   3.888   3.891   6.010  0.0915  0.5305  2.8816
 2936SOL     OW20266   1.646   0.837   4.622 -0.8994  0.5806  0.2151
 2936SOL    HW120267   1.654   0.806   4.712  1.0653  0.4781 -0.0030
 2936SOL    HW220268   1.709   0.776   4.585  0.3959  1.2324  1.3797
 2937SOL     OW20269   4.559   4.323   5.511 -0.1950  0.5054  0.5809
 2937SOL    HW120270   4.509   4.360   5.584 -0.4532  2.9345 -0.8503
 2937SOL    HW220271   4.499   4.317   5.437  0.2498  0.5239  0.2228
 2938SOL     OW20272   2.297   2.804   8.977 -0.5627  0.0519  0.1138
 2938SOL    HW120273   2.338   2.890   8.986 -1.2034  0.3738 -0.0161
 2938SOL    HW220274   2.271   2.802   8.885 -2.6840 -2.0566  0.7377
 2939SOL     OW20275   1.325   2.813  13.430  0.2545  0.6222 -0.8298
 2939SOL    HW120276   1.235   2.816  13.463  1.2232 -0.6875  1.9400
 2939SOL    HW220277   1.316   2.847  13.341  0.9397 -2.0689 -1.9189
 2940SOL     OW20278   1.956   3.980   6.293 -0.3388  0.3545 -0.1674
 2940SOL    HW120279   1.906   4.011   6.218 -0.0216  2.1179  0.3721
 2940SOL    HW220280   2.002   3.902   6.260  0.4233  0.7354 -0.0194
 2941SOL     OW20281   0.829   2.014   3.988 -0.0451  0.4116  0.4079
 2941SOL    HW120282   0.735   2.010   4.004  0.1962 -0.4504  1.5872
 2941SOL    HW220283   0.824   2.041   3.896 -1.0837 -0.7619  0.1211
 2942SOL     OW20284   1.927   1.704   3.342 -0.1438  0.4035  0.2746
 2942SOL    HW120285   1.847   1.694   3.290 -1.0840  2.2870  1.3360
 2942SOL    HW220286   1.897   1.761   3.414 -0.4708  1.1857 -0.4790
 2943SOL     OW20287   2.519   3.629   3.884  0.0716  0.0409  0.4739
 2943SOL    HW120288   2.547   3.586   3.965 -1.0370 -0.2629  0.7060
 2943SOL    HW220289   2.553   3.563   3.824 -0.1224 -0.0626  0.4776
 2944SOL     OW20290   1.734   3.921  15.459  0.8739  0.0579  0.4746
 2944SOL    HW120291   1.736   3.923  15.554 -2.2949 -0.3381  0.5589
 2944SOL    HW220292   1.665   3.983  15.436  1.5798  0.3897 -0.7619
 2945SOL     OW20293   4.182   4.523   1.333 -0.0890  0.9810 -0.1534
 2945SOL    HW120294   4.127   4.563   1.265  0.9323  0.8124 -1.0722
 2945SOL    HW220295   4.114   4.484   1.389 -0.1763  1.3959  0.0296
 2946SOL     OW20296   0.757   4.017   8.805 -0.3177  0.0212  0.1901
 2946SOL    HW120297   0.756   3.936   8.755  1.7424 -0.0510  0.2793
 2946SOL    HW220298   0.664   4.031   8.787 -0.3424 -1.9255 -1.1922
 2947SOL     OW20299   4.051   3.934   7.407  0.2689  0.0714  0.6722
 2947SOL    HW120300   4.101   3.854   7.392  0.8771  0.6304 -0.2364
 2947SOL    HW220301   4.113   3.996   7.369  1.3102 -0.5467  1.3874
 2948SOL     OW20302   4.439   1.291   5.940 -0.2456 -0.4376  0.0932
 2948SOL    HW120303   4.407   1.316   6.027  0.6957  1.6859 -0.1671
 2948SOL    HW220304   4.469   1.203   5.962 -1.1494 -0.7805 -0.0270
 2949SOL     OW20305   0.426   3.853   9.081  0.2526 -0.2869 -0.3035
 2949SOL    HW120306   0.443   3.911   9.007  1.9861 -0.4175 -0.0050
 2949SOL    HW220307   0.354   3.894   9.129  1.3382  1.0444  0.1903
 2950SOL     OW20308   1.634   2.953   3.216  0.3502 -0.6956  0.4737
 2950SOL    HW120309   1.658   2.906   3.296 -1.2433 -1.6229  0.4065
 2950SOL    HW220310   1.540   2.957   3.233  0.4195  0.2611  0.6412
 2951SOL     OW20311   3.137   0.449  15.271  0.1430  0.0284 -0.5358
 2951SOL    HW120312   3.091   0.398  15.338 -1.4131  0.0482 -1.5697
 2951SOL    HW220313   3.080   0.526  15.275  0.1854  0.0177  0.2153
 2952SOL     OW20314   0.353   1.944  16.740  0.1743  0.0840 -0.6130
 2952SOL    HW120315   0.342   1.863  16.790 -0.0910  0.1245 -0.6103
 2952SOL    HW220316   0.277   1.948  16.683  0.4824 -0.9615 -1.0931
 2953SOL     OW20317   0.305   4.657   4.991 -0.5773  0.7480 -0.5380
 2953SOL    HW120318   0.250   4.628   5.063  1.2462 -0.7922  0.2413
 2953SOL    HW220319   0.249   0.004   4.959 -0.5350  2.0594  2.3372
 2954SOL     OW20320   0.376   2.417   5.850  0.4869  0.1360  0.2082
 2954SOL    HW120321   0.435   2.490   5.832 -1.4540  1.8268  0.6139
 2954SOL    HW220322   0.316   2.415   5.775  1.4247  0.4606 -0.5563
 2955SOL     OW20323   0.249   2.423   6.099 -0.0136  0.0609 -0.1313
 2955SOL    HW120324   0.310   2.412   6.026 -0.6879  0.2878 -0.7323
 2955SOL    HW220325   0.224   2.512   6.073 -1.1732 -0.3744 -0.5323
 2956SOL     OW20326   3.190   1.794   2.567  0.3182 -0.3314  0.2102
 2956SOL    HW120327   3.121   1.751   2.617  0.1571 -1.0832 -0.6522
 2956SOL    HW220328   3.140   1.844   2.502  0.1936 -0.0944  0.4902
 2957SOL     OW20329   4.639   0.481  12.950 -0.0183 -0.3857 -0.0024
 2957SOL    HW120330   4.704   0.453  12.886 -0.8506  1.0588 -1.4744
 2957SOL    HW220331   4.645   0.577  12.946  2.2880 -0.4811  0.8309
 2958SOL     OW20332   3.140   0.090  10.915 -0.1021  0.1311  0.3935
 2958SOL    HW120333   3.109   0.017  10.970  1.6527 -1.3118 -0.5435
 2958SOL    HW220334   3.228   0.057  10.897 -1.2668 -3.0026  0.4428
 2959SOL     OW20335   2.451   0.464   6.675 -0.0370  0.2989  0.1187
 2959SOL    HW120336   2.369   0.482   6.629  0.8160 -0.9617 -1.8636
 2959SOL    HW220337   2.511   0.505   6.613 -1.4258  1.0388 -0.7289
 2960SOL     OW20338   4.415   0.005   4.447  0.7384 -0.1635 -0.3114
 2960SOL    HW120339   4.479   0.009   4.376  1.5816  0.0044  0.4652
 2960SOL    HW220340   4.431   0.089   4.490  0.5404  0.7110 -1.9408
 2961SOL     OW20341   2.668   0.620   8.014 -0.1654  0.1111  0.3235
 2961SOL    HW120342   2.700   0.632   7.925  0.9875  0.2947  0.7521
 2961SOL    HW220343   2.732   0.554   8.040 -0.2469  0.4110  1.2898
 2962SOL     OW20344   4.611   3.772  15.159 -0.2823 -0.0395 -0.1419
 2962SOL    HW120345   4.594   3.802  15.070  1.5447  0.6392 -0.2751
 2962SOL    HW220346   4.586   3.680  15.152  1.0030 -0.5143  1.3377
 2963SOL     OW20347   3.441   4.109   6.732  0.4612 -0.0444 -0.4750
 2963SOL    HW120348   3.437   4.044   6.803 -0.3378  0.7219  0.2006
 2963SOL    HW220349   3.355   4.103   6.690 -0.4086 -0.1430  1.2806
 2964SOL     OW20350   0.897   4.548   4.272  0.1886  0.6025 -0.0268
 2964SOL    HW120351   0.979   4.500   4.259  0.7822  1.7916 -0.6959
 2964SOL    HW220352   0.902   4.587   4.359  0.6224 -0.1465  0.2825
 2965SOL     OW20353   1.126   4.324   6.325 -0.1922 -0.5803  0.5516
 2965SOL    HW120354   1.069   4.367   6.389 -0.2427  2.5962 -1.6699
 2965SOL    HW220355   1.134   4.394   6.260 -0.7187 -1.0347  0.0011
 2966SOL     OW20356   1.028   2.077   4.336 -0.9188 -0.2367  0.9815
 2966SOL    HW120357   1.107   2.120   4.303 -1.8838 -0.6137 -1.7852
 2966SOL    HW220358   1.008   2.130   4.413  3.4688  0.6104  1.5158
 2967SOL     OW20359   3.949   0.394   3.222  0.2559 -0.4639  0.0938
 2967SOL    HW120360   3.866   0.378   3.178  1.0424 -0.3184 -1.4568
 2967SOL    HW220361   3.918   0.429   3.305  0.8779  0.3189 -0.0042
 2968SOL     OW20362   3.143   3.465   6.717  0.1899  0.7191  0.1378
 2968SOL    HW120363   3.212   3.486   6.654  0.0901  1.4334  0.2698
 2968SOL    HW220364   3.094   3.546   6.727 -0.9197 -0.1199  1.4611
 2969SOL     OW20365   0.316   0.898  16.219  0.0089  0.1990 -0.0388
 2969SOL    HW120366   0.274   0.981  16.197 -1.2688  0.1326  2.1237
 2969SOL    HW220367   0.237   0.845  16.226  1.9267 -2.3736  2.0874
 2970SOL     OW20368   0.838   0.177   2.021 -0.3768 -0.0084 -0.4400
 2970SOL    HW120369   0.862   0.266   1.994  2.3196 -0.1572  1.4186
 2970SOL    HW220370   0.840   0.135   1.935 -1.3611 -2.0752  0.5459
 2971SOL     OW20371   1.100   3.182   9.944 -0.0788 -0.5714  0.7919
 2971SOL    HW120372   1.118   3.276   9.946  0.0662 -0.5018 -2.5352
 2971SOL    HW220373   1.117   3.161  10.035 -0.1803  2.1098  1.4388
 2972SOL     OW20374   1.376   1.115  14.388 -0.4577 -0.5202 -0.3375
 2972SOL    HW120375   1.374   1.160  14.473  3.6220  0.7411 -0.9081
 2972SOL    HW220376   1.313   1.168  14.339 -2.2510 -1.9083  0.4779
 2973SOL     OW20377   4.650   2.545   9.274  1.0020  0.3977 -0.1647
 2973SOL    HW120378   4.604   2.492   9.210 -0.5962  0.4913  0.9100
 2973SOL    HW220379   0.004   2.492   9.293  0.4330 -0.2939  0.2010
 2974SOL     OW20380   2.995   3.827   7.328 -0.5307  0.0467 -0.1581
 2974SOL    HW120381   2.930   3.869   7.384  2.5252  1.6521  2.1343
 2974SOL    HW220382   3.070   3.816   7.386  0.1459 -0.8778 -1.2149
 2975SOL     OW20383   1.461   3.589   3.103 -0.1882  0.6320  0.1219
 2975SOL    HW120384   1.534   3.629   3.149 -0.2146 -0.3638  1.0253
 2975SOL    HW220385   1.433   3.518   3.160 -0.5296  0.0775 -0.7250
 2976SOL     OW20386   2.422   3.263   7.423 -0.3238 -0.1467  0.2414
 2976SOL    HW120387   2.417   3.295   7.333  2.3001  0.6330  0.3498
 2976SOL    HW220388   2.511   3.228   7.412 -1.1452 -2.2659  0.4637
 2977SOL     OW20389   4.340   1.157  16.123  0.4743 -0.0041  0.1815
 2977SOL    HW120390   4.256   1.201  16.110  1.0019  0.5962 -1.1943
 2977SOL    HW220391   4.382   1.207  16.194 -0.3588  0.1805  0.5383
 2978SOL     OW20392   0.861   3.918   6.085 -0.0242 -0.0355  0.2660
 2978SOL    HW120393   0.865   3.997   6.138 -0.7456  0.7941 -0.9244
 2978SOL    HW220394   0.767   3.903   6.086 -0.0332  0.0334  0.3955
 2979SOL     OW20395   0.754   1.075   9.058  0.9757  0.4806 -0.5043
 2979SOL    HW120396   0.834   1.023   9.052  1.8579  1.9229 -1.2719
 2979SOL    HW220397   0.735   1.082   9.151  2.7495  0.9626 -0.1889
 2980SOL     OW20398   4.007   2.301   4.969  0.0413  0.3039 -0.4199
 2980SOL    HW120399   3.997   2.393   4.992 -3.2728 -0.7628  2.4216
 2980SOL    HW220400   3.917   2.271   4.955 -0.2901  0.8764  0.5118
 2981SOL     OW20401   3.281   1.550   5.661 -0.3645  0.0212 -0.3023
 2981SOL    HW120402   3.224   1.552   5.738 -0.0831 -0.2622 -0.0884
 2981SOL    HW220403   3.354   1.490   5.675 -0.6056 -0.0925  0.4605
 2982SOL     OW20404   1.332   1.387   1.077 -0.1528  0.2429  0.1421
 2982SOL    HW120405   1.393   1.387   1.004  1.9200 -0.3597  1.8697
 2982SOL    HW220406   1.389   1.362   1.149  1.4706  2.7450 -0.2740
 2983SOL     OW20407   1.901   0.413   5.686 -0.2012  0.1445 -0.5021
 2983SOL    HW120408   1.910   0.365   5.768 -1.5570 -0.7645 -0.8800
 2983SOL    HW220409   1.910   0.503   5.717  1.3652 -0.3679  0.5213
 2984SOL     OW20410   2.219   2.889   5.908 -0.3692  0.1194  0.2256
 2984SOL    HW120411   2.216   2.944   5.986  2.1419 -0.1228  0.5130
 2984SOL    HW220412   2.263   2.948   5.846 -2.3339  1.2329 -0.1074
 2985SOL     OW20413   0.113   2.779   6.723  0.4417 -0.5191  0.2072
 2985SOL    HW120414   0.165   2.713   6.767 -0.6130 -2.5206 -1.5497
 2985SOL    HW220415   0.112   2.842   6.795  0.2680  1.6100 -1.6293
 2986SOL     OW20416   0.751   0.438   5.940  0.2875 -0.2729 -0.0310
 2986SOL    HW120417   0.678   0.494   5.967  0.2290 -0.9844  1.2658
 2986SOL    HW220418   0.747   0.372   6.009 -1.0029 -1.4650 -1.2445
 2987SOL     OW20419   1.197   1.476   6.872 -0.0891 -0.3146 -0.2613
 2987SOL    HW120420   1.235   1.390   6.886 -1.5424 -0.8721  0.2480
 2987SOL    HW220421   1.255   1.508   6.803 -0.4434  0.5993 -0.1449
 2988SOL     OW20422   1.929   3.642   6.283 -0.6631  0.2359  0.2038
 2988SOL    HW120423   1.847   3.613   6.324 -0.3530  0.3201  0.8764
 2988SOL    HW220424   1.984   3.664   6.358  0.2554 -0.6625 -0.2037
 2989SOL     OW20425   2.207   1.068   3.658 -0.2708  0.7792  0.2999
 2989SOL    HW120426   2.155   1.112   3.726  3.3900  0.6777  3.1232
 2989SOL    HW220427   2.148   1.085   3.583 -0.3691 -0.2396  0.1467
 2990SOL     OW20428   2.580   3.746   6.002 -0.1521  0.1737 -0.6544
 2990SOL    HW120429   2.531   3.746   6.084 -1.5485 -0.4395 -1.4893
 2990SOL    HW220430   2.668   3.761   6.036  0.2543 -0.8311 -1.2654
 2991SOL     OW20431   1.538   2.462  11.264 -0.4733 -0.4181  0.5696
 2991SOL    HW120432   1.591   2.410  11.324  1.2845  1.5488  0.7435
 2991SOL    HW220433   1.511   2.392  11.204 -0.9253 -0.6899  1.0832
 2992SOL     OW20434   2.296   1.736   7.515  0.1741  0.0671  0.4219
 2992SOL    HW120435   2.262   1.780   7.594  0.5929 -1.4906  1.4736
 2992SOL    HW220436   2.356   1.673   7.556 -0.9881 -0.9343  0.5864
 2993SOL     OW20437   1.944   2.736   0.297 -0.5280  0.2136  0.2904
 2993SOL    HW120438   1.978   2.676   0.363 -1.0476  0.5526  0.8629
 2993SOL    HW220439   1.890   2.673   0.249 -1.2900 -0.4560  2.0159
 2994SOL     OW20440   2.787   1.856  13.467  0.3738  0.3750  0.1350
 2994SOL    HW120441   2.784   1.763  13.490  0.4940 -0.3129 -2.6118
 2994SOL    HW220442   2.881   1.868  13.461  0.4017  0.4479  0.7066
 2995SOL     OW20443   1.260   3.545   0.380  0.3011  0.3393 -0.2664
 2995SOL    HW120444   1.330   3.502   0.430 -0.4905  3.6881  3.7244
 2995SOL    HW220445   1.306   3.553   0.296  0.6109 -0.3558 -0.1584
 2996SOL     OW20446   2.175   1.438   7.523  0.4536 -0.1070  0.3625
 2996SOL    HW120447   2.256   1.488   7.534  0.5623 -0.4183  0.9672
 2996SOL    HW220448   2.118   1.509   7.491  1.1639 -0.9105 -2.7084
 2997SOL     OW20449   3.554   4.452   0.192  0.2289 -0.7522  0.4445
 2997SOL    HW120450   3.479   4.485   0.242  0.0875  0.0899 -0.3233
 2997SOL    HW220451   3.510   4.431   0.109 -1.2759  1.9032  0.5927
 2998SOL     OW20452   1.499   4.684   6.634  0.1049  0.4510 -0.0109
 2998SOL    HW120453   1.492   4.698   6.540  1.8801 -0.0029 -0.2175
 2998SOL    HW220454   1.480   4.590   6.640 -0.2007  0.4376 -1.1612
 2999SOL     OW20455   3.424   3.117   2.431  0.3931 -0.3438  0.2222
 2999SOL    HW120456   3.405   3.034   2.473  1.1895  0.9856  3.2362
 2999SOL    HW220457   3.432   3.097   2.338 -0.5788 -1.2898  0.3399
 3000SOL     OW20458   2.494   4.449   8.043 -0.1376 -0.1944 -0.3438
 3000SOL    HW120459   2.574   4.468   8.092 -1.2368  0.4729  1.1973
 3000SOL    HW220460   2.474   4.356   8.049  1.3538 -0.5122 -0.3471
 3001SOL     OW20461   2.809   4.044   5.053  0.0917  0.1751  0.5323
 3001SOL    HW120462   2.833   4.077   4.967  2.6842 -2.5252  0.2252
 3001SOL    HW220463   2.715   4.061   5.059  0.1859  1.4015 -1.5680
 3002SOL     OW20464   1.810   4.648   0.632 -0.2728  0.3087 -0.7525
 3002SOL    HW120465   1.760   4.645   0.551 -1.2102 -0.1587 -0.1528
 3002SOL    HW220466   1.900   4.651   0.600 -0.8546 -0.2597 -2.3995
 3003SOL     OW20467   4.380   0.753   4.185  0.2772 -0.2798  0.2078
 3003SOL    HW120468   4.391   0.802   4.267  2.3670  0.7621 -0.6714
 3003SOL    HW220469   4.344   0.824   4.132 -0.0322 -1.9100 -1.7829
 3004SOL     OW20470   0.817   1.242   8.880  0.6335 -0.5052 -0.0766
 3004SOL    HW120471   0.867   1.183   8.823 -0.2217 -2.6124  1.3684
 3004SOL    HW220472   0.802   1.184   8.954 -0.2078 -0.1733  0.0127
 3005SOL     OW20473   1.055   2.085  16.714 -0.1086  0.3456 -0.4761
 3005SOL    HW120474   0.964   2.111  16.729  0.5307  1.5855  1.3226
 3005SOL    HW220475   1.092   2.173  16.718  1.7775 -0.4994  0.5429
 3006SOL     OW20476   2.015   1.628   2.466 -0.1685  0.7725  0.5479
 3006SOL    HW120477   2.003   1.604   2.374  0.0825  0.4290  0.6081
 3006SOL    HW220478   2.102   1.668   2.461  0.5304 -0.6004  1.8830
 3007SOL     OW20479   3.010   3.813   1.964 -0.1480 -0.1276  0.0588
 3007SOL    HW120480   2.992   3.855   2.048  0.2977  0.0559  0.0633
 3007SOL    HW220481   3.105   3.825   1.959 -0.3563  1.3870 -0.3116
 3008SOL     OW20482   3.278   2.652  13.579 -0.4359  0.4360  0.0046
 3008SOL    HW120483   3.242   2.685  13.661  0.4224  0.7068  0.2676
 3008SOL    HW220484   3.367   2.685  13.587 -0.8280  1.3213  0.6792
 3009SOL     OW20485   4.307   2.381   5.455 -0.2475 -0.3875 -0.0948
 3009SOL    HW120486   4.257   2.461   5.445  0.5067  0.2474  1.2443
 3009SOL    HW220487   4.283   2.349   5.368  1.8849 -1.2636 -0.3677
 3010SOL     OW20488   2.205   0.077   6.248  0.4370 -0.2541  0.3623
 3010SOL    HW120489   2.255   4.721   6.265 -1.9283 -1.6785  0.7627
 3010SOL    HW220490   2.116   0.050   6.272  1.2539 -1.2949  2.1727
 3011SOL     OW20491   2.921   3.078  15.925  0.1181  0.0298  0.6299
 3011SOL    HW120492   2.987   3.054  15.860 -0.0946 -1.8013  1.1006
 3011SOL    HW220493   2.868   3.142  15.877  0.0833 -1.4886 -1.3477
 3012SOL     OW20494   0.122   3.209   5.679 -0.6632  0.1403 -1.2845
 3012SOL    HW120495   0.192   3.147   5.662 -2.0436 -1.8406  0.2486
 3012SOL    HW220496   0.160   3.294   5.655  0.6914 -0.9749 -3.0735
 3013SOL     OW20497   4.603   0.066   5.815 -0.1270  0.2151  0.1339
 3013SOL    HW120498   4.649   4.719   5.767 -1.0874 -1.7322  2.0806
 3013SOL    HW220499   4.520   0.024   5.835  0.0106 -0.4328 -0.6412
 3014SOL     OW20500   1.528   3.541   5.988 -0.1386  0.5763 -0.6251
 3014SOL    HW120501   1.541   3.552   6.083 -1.4716 -2.7878 -0.0431
 3014SOL    HW220502   1.437   3.572   5.988  0.2611  1.7433 -1.4245
 3015SOL     OW20503   0.649   1.342   6.190  0.3080  0.3550 -1.1031
 3015SOL    HW120504   0.659   1.377   6.278  3.7672  0.6582 -1.6302
 3015SOL    HW220505   0.620   1.254   6.216  1.1109  0.6627  0.8183
 3016SOL     OW20506   2.788   4.493   2.140  0.2607 -0.0447  0.3918
 3016SOL    HW120507   2.763   4.479   2.232 -0.1568  2.0293  0.6036
 3016SOL    HW220508   2.702   4.517   2.106  0.3744  3.2430  2.4438
 3017SOL     OW20509   2.589   3.470   3.047  0.4561 -0.3820 -0.0499
 3017SOL    HW120510   2.626   3.556   3.027 -2.3707  1.0129  0.7535
 3017SOL    HW220511   2.536   3.484   3.126  1.0546 -0.1847  0.3266
 3018SOL     OW20512   2.054   3.288   3.485  0.5066 -0.0602  0.8576
 3018SOL    HW120513   2.032   3.362   3.428  1.0333 -0.6149 -0.0676
 3018SOL    HW220514   2.049   3.323   3.574  0.5608  0.5028  0.6385
 3019SOL     OW20515   2.661   1.379   5.823 -0.1511 -0.2900  0.4946
 3019SOL    HW120516   2.678   1.435   5.899 -0.3716  2.2742 -1.3480
 3019SOL    HW220517   2.696   1.295   5.855  1.3962  0.0277 -0.3834
 3020SOL     OW20518   0.036   1.448   8.127  0.7432 -0.2887 -0.5051
 3020SOL    HW120519   0.120   1.403   8.115  1.3431  1.1854 -1.8198
 3020SOL    HW220520   0.033   1.439   8.223  0.1155  1.6750 -0.3478
 3021SOL     OW20521   4.715   1.689   2.115  0.0152  1.0821 -0.7294
 3021SOL    HW120522   4.624   1.705   2.140  0.9898  0.0598  3.4641
 3021SOL    HW220523   0.014   1.776   2.081  1.0563  0.3943 -1.7824
 3022SOL     OW20524   0.575   0.773  16.263  0.3288  0.5368 -0.3390
 3022SOL    HW120525   0.553   0.712  16.334  1.1499  2.2754  1.4015
 3022SOL    HW220526   0.488   0.806  16.241  0.3546 -0.2825 -1.6544
 3023SOL     OW20527   0.283   4.190   4.452  0.2839  0.1168  0.1564
 3023SOL    HW120528   0.353   4.233   4.402 -0.8145  2.5410  0.6970
 3023SOL    HW220529   0.197   4.209   4.414  0.1925 -0.2622  0.1711
 3024SOL     OW20530   4.663   4.458   8.806  0.6260 -0.2859 -0.2709
 3024SOL    HW120531   4.590   4.503   8.850 -0.9637  0.2986 -3.5031
 3024SOL    HW220532   4.723   4.531   8.791  0.9783 -0.7401 -1.0300
 3025SOL     OW20533   2.824   1.023   3.055  0.1247  0.2110  0.3576
 3025SOL    HW120534   2.846   1.115   3.067  0.6471  0.0443  0.6499
 3025SOL    HW220535   2.904   0.996   3.010  0.8214 -0.1567  1.8310
 3026SOL     OW20536   2.307   3.878   2.776  0.3143  0.2496  0.2496
 3026SOL    HW120537   2.214   3.868   2.794  0.6383 -1.9468  0.7106
 3026SOL    HW220538   2.321   3.972   2.770 -1.2578  0.6243  2.5602
 3027SOL     OW20539   1.661   1.469  11.961  0.3767 -0.2729 -0.4080
 3027SOL    HW120540   1.679   1.556  11.925  0.2178  0.4137  1.1539
 3027SOL    HW220541   1.755   1.452  11.951  0.5237  1.0986 -1.3752
 3028SOL     OW20542   2.000   1.884   6.251  0.0230  0.2334  0.1883
 3028SOL    HW120543   2.024   1.921   6.336  1.0834 -1.1266  0.4686
 3028SOL    HW220544   1.959   1.963   6.216 -1.0353  0.1419  1.2064
 3029SOL     OW20545   1.147   0.282   5.936  0.2939  0.0128 -0.3300
 3029SOL    HW120546   1.056   0.255   5.948 -0.0345  1.7992  1.2199
 3029SOL    HW220547   1.161   0.257   5.845 -0.7846  0.9860 -0.7773
 3030SOL     OW20548   0.454   1.799  13.197 -0.6480  0.6109  0.1410
 3030SOL    HW120549   0.383   1.736  13.185 -0.7620  0.7107  0.2803
 3030SOL    HW220550   0.489   1.813  13.110 -2.3856 -1.3213 -0.8781
 3031SOL     OW20551   2.156   0.388   6.316  1.5101 -0.3506 -0.4169
 3031SOL    HW120552   2.068   0.351   6.307  0.9924  0.0398  3.2520
 3031SOL    HW220553   2.201   0.336   6.249 -0.7144  0.0299 -2.2037
 3032SOL     OW20554   4.034   1.982  14.422 -0.1760  0.7423 -0.1058
 3032SOL    HW120555   4.056   1.924  14.495  1.1599  1.1932 -0.1473
 3032SOL    HW220556   4.107   1.961  14.363 -0.3246 -2.2082  0.7536
 3033SOL     OW20557   2.320   0.715  10.594  0.0606 -0.1530 -0.6711
 3033SOL    HW120558   2.315   0.705  10.499  0.2352  0.8323 -0.7885
 3033SOL    HW220559   2.253   0.783  10.603  1.5730  1.3344 -0.6408
 3034SOL     OW20560   3.341   2.075   2.900 -0.2621  0.3817 -0.6259
 3034SOL    HW120561   3.405   2.038   2.840  0.3167  1.0710 -0.4377
 3034SOL    HW220562   3.368   2.039   2.985 -3.7527 -0.7385  0.0187
 3035SOL     OW20563   2.585   2.350   0.214  0.7315 -0.3563 -0.0975
 3035SOL    HW120564   2.533   2.406   0.157 -1.5758 -0.3822  1.9745
 3035SOL    HW220565   2.559   2.263   0.183 -0.3809  0.4164 -1.3267
 3036SOL     OW20566   2.953   1.166  14.875  0.1743  0.0520  0.0964
 3036SOL    HW120567   2.925   1.129  14.791 -2.8260 -1.7611  1.8635
 3036SOL    HW220568   2.922   1.098  14.936 -2.6206 -0.6384 -2.0941
 3037SOL     OW20569   0.951   4.584   5.596  0.5819 -0.3716 -0.0362
 3037SOL    HW120570   0.959   4.679   5.589  0.4168 -0.2306  1.6228
 3037SOL    HW220571   0.881   4.569   5.533  3.2275 -0.4371 -2.9740
 3038SOL     OW20572   3.348   0.789   3.860 -0.6453 -0.0390 -0.4763
 3038SOL    HW120573   3.427   0.735   3.859  0.1353  1.0932  0.5577
 3038SOL    HW220574   3.300   0.739   3.794 -2.2499  0.9941 -0.0784
 3039SOL     OW20575   0.740   2.132   0.858 -0.2791  0.1682 -0.0394
 3039SOL    HW120576   0.771   2.204   0.912 -0.0772 -0.4068  0.6104
 3039SOL    HW220577   0.717   2.062   0.920  0.6361  1.2103  1.4599
 3040SOL     OW20578   4.534   1.224   0.162  0.2194  0.0096  0.1060
 3040SOL    HW120579   4.597   1.151   0.157 -0.6335 -0.5663 -1.9438
 3040SOL    HW220580   4.504   1.220   0.253  1.8699 -2.1453  0.5846
 3041SOL     OW20581   2.187   1.577   4.150  0.4801 -0.0818 -0.1811
 3041SOL    HW120582   2.275   1.607   4.172  0.4556 -0.8386  0.9561
 3041SOL    HW220583   2.148   1.651   4.103  0.9904  1.2804  1.5469
 3042SOL     OW20584   2.206   0.650  16.909 -0.1269  0.0851 -0.8647
 3042SOL    HW120585   2.257   0.571  16.923 -1.2300 -0.4905 -0.0610
 3042SOL    HW220586   2.126   0.630  16.957  1.3618 -2.7112  0.3673
 3043SOL     OW20587   3.880   3.845   2.679 -0.0456  0.0295 -0.5024
 3043SOL    HW120588   3.927   3.836   2.596  1.7093 -0.6676  0.5642
 3043SOL    HW220589   3.852   3.759   2.708 -0.3556  0.7770  1.4365
 3044SOL     OW20590   3.485   2.814  13.569 -0.3796  0.0915 -0.2122
 3044SOL    HW120591   3.542   2.845  13.639 -0.0651 -2.6130  0.7077
 3044SOL    HW220592   3.538   2.738  13.543 -2.0253 -1.6753  1.6230
 3045SOL     OW20593   2.538   4.592   6.954 -0.2755  0.4550 -0.1350
 3045SOL    HW120594   2.608   4.551   7.004 -0.7336 -0.5742 -0.3445
 3045SOL    HW220595   2.484   4.623   7.026  2.4444  0.7533  1.7687
 3046SOL     OW20596   2.353   3.656   6.639  0.5377 -0.0681  0.0534
 3046SOL    HW120597   2.366   3.562   6.648 -1.2533 -0.3910 -0.9033
 3046SOL    HW220598   2.441   3.687   6.660 -0.1500  1.8550  0.1100
 3047SOL     OW20599   2.470   1.668  13.889  0.3831 -0.5263 -0.6310
 3047SOL    HW120600   2.437   1.729  13.956  2.3392  1.4905 -1.5328
 3047SOL    HW220601   2.425   1.590  13.921  0.9022  0.5518  2.7906
 3048SOL     OW20602   2.262   0.072  17.657  0.7349 -0.4627  0.6950
 3048SOL    HW120603   2.187   0.131  17.653  1.2763  0.1055 -1.0839
 3048SOL    HW220604   2.218   4.717  17.691 -1.3321  0.7428  0.7843
 3049SOL     OW20605   4.443   1.644   3.138  0.1426  0.9507 -0.4570
 3049SOL    HW120606   4.350   1.661   3.150  0.0666  0.0337  0.1987
 3049SOL    HW220607   4.489   1.716   3.181 -1.2734 -0.3052  3.0761
 3050SOL     OW20608   4.651   0.812   8.806  0.4097  0.6864 -0.5388
 3050SOL    HW120609   4.618   0.805   8.717  2.3026 -3.1840 -0.9401
 3050SOL    HW220610   4.707   0.889   8.793  0.9795  0.3713  0.0321
 3051SOL     OW20611   1.583   0.688   3.266 -0.4411 -0.4771  0.2248
 3051SOL    HW120612   1.601   0.603   3.307 -0.2649  0.3751  1.8909
 3051SOL    HW220613   1.654   0.686   3.202 -1.4801 -1.3925 -0.9112
 3052SOL     OW20614   2.153   1.957  13.367 -0.0116 -0.4087  0.7126
 3052SOL    HW120615   2.161   2.047  13.399  0.5212  0.1460 -0.9544
 3052SOL    HW220616   2.239   1.944  13.326 -0.1111 -1.7121  0.9118
 3053SOL     OW20617   0.672   1.482   6.748  0.1757 -0.2043  0.3876
 3053SOL    HW120618   0.717   1.483   6.833 -1.0574 -0.2603  1.0470
 3053SOL    HW220619   0.579   1.474   6.769  0.8428 -2.2657  2.5300
 3054SOL     OW20620   4.228   4.489   7.021  0.1235 -0.0218  0.3428
 3054SOL    HW120621   4.192   4.540   7.094 -0.5521 -2.2533  1.5823
 3054SOL    HW220622   4.304   4.449   7.063 -0.4634 -2.2461 -0.7510
 3055SOL     OW20623   2.077   4.650  11.812 -0.1681  0.5745  0.2246
 3055SOL    HW120624   2.156   4.629  11.762 -1.0652  0.1353 -0.9993
 3055SOL    HW220625   2.084   4.598  11.892 -0.0554 -2.0150 -1.4999
 3056SOL     OW20626   1.091   3.515   8.400  0.3245 -0.0723 -0.2427
 3056SOL    HW120627   1.132   3.574   8.464  0.5705  2.0002 -2.3201
 3056SOL    HW220628   1.158   3.524   8.332 -0.7566  0.8731 -1.1741
 3057SOL     OW20629   3.761   2.960   5.890 -0.7653  0.1899 -0.4417
 3057SOL    HW120630   3.776   2.966   5.795  0.1063 -0.4148 -0.3411
 3057SOL    HW220631   3.741   3.052   5.905 -2.5397 -0.3900  0.7100
 3058SOL     OW20632   4.542   4.161   7.166  0.1397 -0.4110 -0.2781
 3058SOL    HW120633   4.559   4.077   7.208  0.0081 -0.1386  0.3114
 3058SOL    HW220634   4.589   4.145   7.084  0.2833  0.0703 -0.2929
 3059SOL     OW20635   4.504   1.063  17.649  0.2247 -0.4005 -0.2888
 3059SOL    HW120636   4.419   1.066  17.605 -0.3924  0.7069  0.9775
 3059SOL    HW220637   4.501   1.132   0.021  1.3995 -0.3022 -0.3352
 3060SOL     OW20638   2.673   0.481   4.874 -0.4444 -0.2151  0.0485
 3060SOL    HW120639   2.648   0.495   4.965  1.0226 -0.9124  0.5620
 3060SOL    HW220640   2.729   0.555   4.852 -0.5234 -0.0339  0.4615
 3061SOL     OW20641   3.159   1.988  16.881  0.1787 -0.4788  0.6405
 3061SOL    HW120642   3.072   2.005  16.918 -0.7596 -2.3905 -0.6953
 3061SOL    HW220643   3.134   1.923  16.815  0.9140  0.5945 -0.7068
 3062SOL     OW20644   4.535   0.524   4.076 -0.8178  0.2701  0.2500
 3062SOL    HW120645   4.502   0.613   4.086 -0.2287  0.3727  1.2906
 3062SOL    HW220646   4.616   0.543   4.028  0.2871 -0.0391  2.0118
 3063SOL     OW20647   2.125   0.323  16.915  0.3678 -0.6655 -0.2853
 3063SOL    HW120648   2.101   0.354  17.002  2.4880  1.3572 -0.4004
 3063SOL    HW220649   2.115   0.228  16.925 -0.5266 -0.6613 -1.1558
 3064SOL     OW20650   3.846   2.544   8.100  0.6887 -0.5307  0.2018
 3064SOL    HW120651   3.856   2.606   8.028  0.0129  0.8668  1.3204
 3064SOL    HW220652   3.872   2.593   8.178 -0.5220 -2.1563  1.6392
 3065SOL     OW20653   4.711   3.171   1.817  0.6776 -0.7805 -0.1292
 3065SOL    HW120654   0.062   3.227   1.842 -0.9785  0.9090  1.0391
 3065SOL    HW220655   0.020   3.119   1.743  1.2658  0.6534 -0.8855
 3066SOL     OW20656   0.039   3.520  11.196  0.1176 -0.0611 -0.8254
 3066SOL    HW120657   0.072   3.450  11.253  1.4207  0.0078 -1.4934
 3066SOL    HW220658   0.043   3.588  11.264 -2.1927  0.8656 -1.6166
 3067SOL     OW20659   0.596   4.672  14.644  0.0836  0.3973 -0.3789
 3067SOL    HW120660   0.649   4.593  14.639 -0.5859 -0.0788  0.1147
 3067SOL    HW220661   0.516   4.627  14.671 -0.5159  1.5119 -0.2916
 3068SOL     OW20662   1.017   0.826  16.784 -0.3976 -0.3786  1.1247
 3068SOL    HW120663   0.965   0.750  16.756 -1.5398  1.2946 -1.3158
 3068SOL    HW220664   0.965   0.899  16.750  0.1512 -2.1669 -3.6618
 3069SOL     OW20665   3.709   3.914   5.695 -0.3853  0.1189 -0.1648
 3069SOL    HW120666   3.719   3.897   5.789 -1.8435  0.8804  0.1241
 3069SOL    HW220667   3.625   3.959   5.686 -1.1859 -1.3828 -0.1847
 3070SOL     OW20668   0.539   4.571   3.514 -0.8733 -0.2166 -0.2197
 3070SOL    HW120669   0.577   4.483   3.519  0.8914  0.6427  1.0348
 3070SOL    HW220670   0.578   4.606   3.434  1.3357  1.6982  1.7149
 3071SOL     OW20671   2.005   0.278  12.044 -0.5120  0.6586 -0.1525
 3071SOL    HW120672   1.978   0.309  12.130  0.6561  0.7045  0.1867
 3071SOL    HW220673   1.997   0.361  11.997  0.4949  0.6041 -0.4205
 3072SOL     OW20674   3.715   3.817  11.770  0.0187  0.3610 -0.0794
 3072SOL    HW120675   3.794   3.766  11.787 -0.9841 -0.7449  1.2804
 3072SOL    HW220676   3.734   3.822  11.676  0.9132 -2.1858 -0.0378
 3073SOL     OW20677   0.768   0.408  16.924  0.3723 -0.4936  0.0549
 3073SOL    HW120678   0.787   0.330  16.872  4.2680 -0.5905  1.6275
 3073SOL    HW220679   0.739   0.355  16.999 -0.2524  2.2826  1.7926
 3074SOL     OW20680   4.584   1.746   5.694 -0.4368  0.4145 -0.6095
 3074SOL    HW120681   4.626   1.809   5.752 -1.1853 -1.7913  2.3599
 3074SOL    HW220682   4.498   1.786   5.678 -0.8804  1.0162  3.1332
 3075SOL     OW20683   3.248   1.380   2.627 -0.8185  0.0681 -0.4266
 3075SOL    HW120684   3.296   1.442   2.681 -1.1680  1.4785 -1.7330
 3075SOL    HW220685   3.312   1.312   2.606  2.2107  1.7475  3.3009
 3076SOL     OW20686   1.711   2.296  13.263 -0.4363 -0.7507  0.1910
 3076SOL    HW120687   1.710   2.295  13.359  2.0138  1.6461  0.2573
 3076SOL    HW220688   1.623   2.314  13.231 -0.9930 -0.1927  2.0416
 3077SOL     OW20689   3.198   1.005  14.185  0.2695 -0.2938 -0.5049
 3077SOL    HW120690   3.282   1.015  14.139  0.3051  1.0747 -0.1254
 3077SOL    HW220691   3.215   1.016  14.279 -3.4907  2.6113 -0.1773
 3078SOL     OW20692   2.204   0.147   8.482 -0.4305  0.0885 -0.1509
 3078SOL    HW120693   2.157   0.191   8.411 -0.3408  2.1046  1.0227
 3078SOL    HW220694   2.158   0.174   8.561 -0.7028  0.7854 -0.5429
 3079SOL     OW20695   4.698   1.118  13.235 -0.3476  0.2841  0.2143
 3079SOL    HW120696   4.608   1.108  13.269 -0.8440  1.8452 -0.6217
 3079SOL    HW220697   0.030   1.143  13.309  0.4271  2.2864 -1.0460
 3080SOL     OW20698   2.946   3.343   2.902 -0.1108  0.1696  0.2851
 3080SOL    HW120699   2.926   3.436   2.914 -0.0946  0.2538 -0.3425
 3080SOL    HW220700   3.040   3.341   2.918 -0.3595  2.2550  1.9610
 3081SOL     OW20701   3.617   0.865   1.829 -0.5268  0.2758 -0.1207
 3081SOL    HW120702   3.611   0.951   1.870 -1.2438 -0.0543  0.4818
 3081SOL    HW220703   3.654   0.892   1.745 -2.9517 -0.8699 -1.5933
 3082SOL     OW20704   4.680   1.424   3.551  0.4399  0.2715 -0.1089
 3082SOL    HW120705   4.706   1.425   3.459 -3.1173  0.5330 -1.1068
 3082SOL    HW220706   0.013   1.498   3.576 -0.2803  0.5104  0.8043
 3083SOL     OW20707   1.719   4.484   6.170  0.0747 -0.3084  0.0682
 3083SOL    HW120708   1.628   4.454   6.175  0.1268 -0.3641  0.6649
 3083SOL    HW220709   1.718   4.533   6.088  0.7190  0.0051  0.2478
 3084SOL     OW20710   3.208   4.321  15.052 -0.0439 -0.1640 -0.3179
 3084SOL    HW120711   3.233   4.389  15.115  2.3594  0.2293 -1.6801
 3084SOL    HW220712   3.291   4.313  15.004  0.6765 -0.5914  1.0047
 3085SOL     OW20713   0.219   2.215   1.772 -0.0545 -0.4131 -0.1166
 3085SOL    HW120714   0.216   2.202   1.866 -1.3586  0.6871 -0.0070
 3085SOL    HW220715   0.313   2.217   1.753 -0.1967  1.0202 -0.7148
 3086SOL     OW20716   4.575   4.494   0.795  0.0140  0.7603 -0.3445
 3086SOL    HW120717   4.500   4.469   0.848 -0.9879 -0.4465 -2.3709
 3086SOL    HW220718   4.554   4.453   0.711  0.0104 -0.0901  0.0769
 3087SOL     OW20719   1.161   1.846   2.828 -0.1033  0.1253  0.2890
 3087SOL    HW120720   1.221   1.920   2.837 -3.1254  2.9234 -2.5914
 3087SOL    HW220721   1.221   1.789   2.876 -1.9639 -1.9245  0.2006
 3088SOL     OW20722   0.564   4.669   3.777 -0.0990 -0.1767 -0.3341
 3088SOL    HW120723   0.557   4.634   3.688 -1.1267  1.5714 -0.9481
 3088SOL    HW220724   0.655   4.698   3.782  0.0526 -0.3893 -1.7485
 3089SOL     OW20725   4.003   3.041   6.725  0.1576  0.3557  0.3188
 3089SOL    HW120726   3.936   2.991   6.770  0.2445 -0.2117 -0.1800
 3089SOL    HW220727   4.036   3.103   6.790  0.8925  0.8576 -0.5200
 3090SOL     OW20728   2.910   4.407  16.570  0.5349  0.8382 -0.2690
 3090SOL    HW120729   2.877   4.494  16.593  1.6736  1.4652 -1.0597
 3090SOL    HW220730   2.952   4.438  16.490  2.4404  0.0239  0.4185
 3091SOL     OW20731   3.941   0.367  12.835  0.2713  0.1477  0.5220
 3091SOL    HW120732   3.884   0.292  12.853 -0.1975  0.2908 -0.3844
 3091SOL    HW220733   3.907   0.429  12.899 -2.7123 -0.6136 -0.3083
 3092SOL     OW20734   2.683   1.559   1.560  0.4752 -0.6452 -0.2854
 3092SOL    HW120735   2.607   1.503   1.571  1.9955 -2.7291 -0.3543
 3092SOL    HW220736   2.688   1.595   1.649 -1.3355 -0.4284 -0.2793
 3093SOL     OW20737   2.921   3.873   5.212  0.3523  0.0830 -0.3778
 3093SOL    HW120738   2.884   3.938   5.152  1.1665  0.3043 -0.6411
 3093SOL    HW220739   2.844   3.841   5.259 -1.0214 -0.5461 -3.0289
 3094SOL     OW20740   3.010   1.295  12.137 -0.2072  0.1752  0.5333
 3094SOL    HW120741   2.990   1.213  12.091 -2.7271  0.7210  0.6577
 3094SOL    HW220742   2.933   1.304  12.193 -1.2519 -1.4902 -0.6079
 3095SOL     OW20743   0.884   1.442   7.332  0.0833  0.7296  0.1466
 3095SOL    HW120744   0.799   1.480   7.307 -0.1872  0.6410  0.9372
 3095SOL    HW220745   0.884   1.473   7.422  2.4479  0.5258  0.2146
 3096SOL     OW20746   0.450   1.935   0.887 -0.3560 -0.0689  0.4507
 3096SOL    HW120747   0.427   1.844   0.866  0.1309 -0.5303  1.9301
 3096SOL    HW220748   0.364   1.978   0.888 -0.4381 -0.1987 -0.5460
 3097SOL     OW20749   2.134   1.491  16.764 -0.1525  0.7534 -0.0042
 3097SOL    HW120750   2.131   1.402  16.799  1.3614  0.6604 -0.1104
 3097SOL    HW220751   2.075   1.527  16.831 -1.1227 -4.2550  1.7713
 3098SOL     OW20752   1.485   3.285   3.196 -0.6119  0.0573 -0.5942
 3098SOL    HW120753   1.426   3.210   3.203 -2.1425  1.4648  1.7577
 3098SOL    HW220754   1.511   3.265   3.106  1.8791  2.3059 -0.3832
 3099SOL     OW20755   0.812   2.799   2.359 -0.4742  0.2126  0.1361
 3099SOL    HW120756   0.796   2.771   2.269 -0.6820 -0.8038  0.4842
 3099SOL    HW220757   0.770   2.885   2.361 -2.3245 -0.6787 -0.8844
 3100SOL     OW20758   3.391   3.379   9.405  0.3545  0.0794  0.5058
 3100SOL    HW120759   3.313   3.435   9.409 -0.2880 -0.7813 -0.0864
 3100SOL    HW220760   3.426   3.389   9.316  2.8608  0.2353  1.5232
 3101SOL     OW20761   1.739   2.813   3.982 -0.4646 -0.2972  0.5042
 3101SOL    HW120762   1.770   2.858   3.904  1.8093 -2.3880  0.1889
 3101SOL    HW220763   1.816   2.783   4.030 -0.6818 -0.5712  0.6795
 3102SOL     OW20764   3.640   1.784   7.310 -0.4875  0.4215 -0.2621
 3102SOL    HW120765   3.640   1.689   7.319 -1.1665  0.5177  0.7834
 3102SOL    HW220766   3.547   1.803   7.328 -0.2682 -0.1279  1.4668
 3103SOL     OW20767   3.118   3.650   4.509 -0.3675 -0.6801  0.3564
 3103SOL    HW120768   3.106   3.605   4.593 -1.6936 -1.4012 -0.2183
 3103SOL    HW220769   3.202   3.693   4.522 -0.9661  0.1350  1.5583
 3104SOL     OW20770   0.428   4.657   4.280  0.2495  0.1890  0.1830
 3104SOL    HW120771   0.445   4.607   4.200  0.4946  1.5511 -0.6242
 3104SOL    HW220772   0.333   4.650   4.288 -0.0767  2.2996 -1.7576
 3105SOL     OW20773   4.339   1.822   5.686  0.4159  0.1337 -0.2102
 3105SOL    HW120774   4.247   1.848   5.692  0.0367 -0.9752 -1.1433
 3105SOL    HW220775   4.328   1.739   5.640  1.9612 -0.2247  0.0761
 3106SOL     OW20776   1.886   0.639   5.122 -0.1198  0.2129 -0.0022
 3106SOL    HW120777   1.901   0.686   5.204 -0.0635 -0.8195  0.5761
 3106SOL    HW220778   1.952   0.677   5.064 -1.0283 -1.1379 -1.9605
 3107SOL     OW20779   3.200   3.508  14.276  0.5214 -0.1463  0.6560
 3107SOL    HW120780   3.196   3.434  14.337  0.5948  1.6838  2.9115
 3107SOL    HW220781   3.180   3.583  14.332  0.0689  0.5027 -0.3670
 3108SOL     OW20782   0.326   3.464   6.267 -0.4217  0.2894 -0.6311
 3108SOL    HW120783   0.284   3.495   6.347  2.1113  0.6364  0.5641
 3108SOL    HW220784   0.296   3.539   6.217 -0.5765 -0.0601 -1.0656
 3109SOL     OW20785   0.752   0.434   3.595  0.1361 -0.7184  0.0912
 3109SOL    HW120786   0.702   0.501   3.548  0.1098  0.5340  1.9109
 3109SOL    HW220787   0.694   0.359   3.580  1.6459 -1.9669  0.5165
 3110SOL     OW20788   1.226   4.209   5.694 -0.0702 -0.2246 -0.1301
 3110SOL    HW120789   1.177   4.213   5.613  1.6336  1.5879 -1.0693
 3110SOL    HW220790   1.159   4.237   5.756 -0.6525  1.6568 -1.6556
 3111SOL     OW20791   4.312   0.735  17.365  0.5297 -0.3017 -0.5593
 3111SOL    HW120792   4.309   0.644  17.335 -0.2832 -0.2157 -0.7618
 3111SOL    HW220793   4.403   0.757  17.345  0.7335  0.0643  0.7907
 3112SOL     OW20794   3.146   1.796   3.948 -0.5562  0.1243  0.3217
 3112SOL    HW120795   3.079   1.756   3.893  0.7584 -0.3772 -0.9050
 3112SOL    HW220796   3.188   1.841   3.875 -0.9937  2.9284  1.7718
 3113SOL     OW20797   0.436   0.319   7.980  0.2453 -0.1430  0.2894
 3113SOL    HW120798   0.526   0.301   8.007 -0.4375 -1.2561  1.7806
 3113SOL    HW220799   0.442   0.414   7.973  1.7590 -0.2369  0.3270
 3114SOL     OW20800   1.494   0.671  13.906  0.1730  0.1646  0.4212
 3114SOL    HW120801   1.450   0.733  13.847 -0.6630  0.2167  1.0985
 3114SOL    HW220802   1.500   0.606  13.836 -1.8547 -0.3525  0.7306
 3115SOL     OW20803   4.557   4.439   9.693 -0.0804  0.2806 -0.1919
 3115SOL    HW120804   4.504   4.470   9.619  0.4392 -1.5827 -1.3634
 3115SOL    HW220805   4.544   4.511   9.754  1.6584 -0.0484  0.5723
 3116SOL     OW20806   1.251   0.453   7.287 -0.4204 -0.6603  0.3290
 3116SOL    HW120807   1.319   0.513   7.254 -0.1167 -1.6786 -0.8708
 3116SOL    HW220808   1.245   0.493   7.374  2.6396  2.1070 -0.6905
 3117SOL     OW20809   1.901   2.796  12.094 -0.5812 -0.6753 -0.2096
 3117SOL    HW120810   1.837   2.815  12.026 -0.3032 -3.0345 -1.1178
 3117SOL    HW220811   1.890   2.702  12.102  1.4370 -0.6826  2.5131
 3118SOL     OW20812   1.509   4.124   1.688 -0.3239 -0.7723 -0.3347
 3118SOL    HW120813   1.551   4.210   1.689  2.0416 -1.9643  0.9166
 3118SOL    HW220814   1.555   4.073   1.621 -0.3423  0.6955 -1.4668
 3119SOL     OW20815   1.992   3.548   7.937 -0.6045  0.0634  0.0695
 3119SOL    HW120816   2.015   3.593   7.856 -2.3995 -1.1566 -1.1127
 3119SOL    HW220817   2.080   3.518   7.961 -0.2777 -0.4043 -1.6754
 3120SOL     OW20818   0.490   0.674  13.556 -0.1059  0.0653 -0.7484
 3120SOL    HW120819   0.528   0.677  13.644 -1.1803  0.1433 -0.2946
 3120SOL    HW220820   0.423   0.742  13.563 -0.5315 -0.1656 -2.6473
 3121SOL     OW20821   1.995   1.734  17.184  0.2566  0.3833 -0.0715
 3121SOL    HW120822   2.065   1.781  17.230  0.2840 -0.1837  0.4630
 3121SOL    HW220823   1.922   1.744  17.245 -0.4236 -1.0795 -0.6633
 3122SOL     OW20824   3.752   4.493   6.145 -0.3054 -0.5390  0.4871
 3122SOL    HW120825   3.750   4.421   6.082 -1.0113 -0.1818  0.1030
 3122SOL    HW220826   3.665   4.492   6.186 -0.0676  0.2910  1.0102
 3123SOL     OW20827   2.390   0.971   6.561 -0.2313 -0.1953 -0.0592
 3123SOL    HW120828   2.338   0.903   6.604 -0.1709 -0.3706 -0.2580
 3123SOL    HW220829   2.403   0.935   6.473  1.8246 -0.5175  0.3722
 3124SOL     OW20830   2.107   4.650  14.261 -0.3762 -0.3666 -0.1131
 3124SOL    HW120831   2.181   4.685  14.310  0.4522 -1.6228 -0.4721
 3124SOL    HW220832   2.038   4.634  14.324  0.4127  0.3354  0.9333
 3125SOL     OW20833   0.080   1.566   1.819 -0.3696 -0.5677 -0.0401
 3125SOL    HW120834   0.124   1.642   1.780  1.5875 -0.5885  2.1795
 3125SOL    HW220835   0.013   1.557   1.751 -0.7696  1.3310  0.1052
 3126SOL     OW20836   4.542   4.478   4.550 -0.0748 -0.8035 -0.3145
 3126SOL    HW120837   4.638   4.477   4.542 -0.0256  0.5049  0.1315
 3126SOL    HW220838   4.517   4.568   4.569  0.4714 -0.8178  0.4473
 3127SOL     OW20839   3.339   1.052  13.929  0.6445  0.0293 -0.7163
 3127SOL    HW120840   3.404   1.069  13.998 -0.3217 -0.0003  0.2023
 3127SOL    HW220841   3.358   0.958  13.924  1.8779  0.1634  1.0320
 3128SOL     OW20842   1.865   2.518   6.840 -0.9660 -0.1415  0.1039
 3128SOL    HW120843   1.837   2.467   6.916 -1.5512  0.0103 -0.0059
 3128SOL    HW220844   1.786   2.508   6.786 -0.0497  1.7012 -1.5998
 3129SOL     OW20845   3.219   1.263  13.863 -0.9201 -0.1878  0.3270
 3129SOL    HW120846   3.145   1.240  13.919 -1.6469  2.2494  0.3539
 3129SOL    HW220847   3.267   1.181  13.870 -1.1141 -0.2860  0.5145
 3130SOL     OW20848   1.616   0.080   1.084 -0.0996 -0.6593 -0.1484
 3130SOL    HW120849   1.651   0.093   0.996 -0.9025  0.2997 -0.3267
 3130SOL    HW220850   1.522   0.100   1.082  0.0100 -0.1275 -0.0792
 3131SOL     OW20851   1.321   0.820   0.702  0.3550  0.5888  0.0480
 3131SOL    HW120852   1.401   0.822   0.649  0.8416 -1.0782  0.7080
 3131SOL    HW220853   1.267   0.748   0.669  0.1840  0.4400  0.6483
 3132SOL     OW20854   2.329   4.551  11.741 -0.6353  0.1317 -0.0723
 3132SOL    HW120855   2.383   4.620  11.779 -0.9562  1.3929 -1.8715
 3132SOL    HW220856   2.372   4.475  11.781  1.3955  0.0765 -2.3432
 3133SOL     OW20857   4.484   4.451   6.105  0.0969  0.4201 -0.1044
 3133SOL    HW120858   4.431   4.499   6.042  0.0855 -0.2695 -0.6201
 3133SOL    HW220859   4.559   4.422   6.053 -0.4371 -3.4114  1.2543
 3134SOL     OW20860   1.806   3.242   2.864  0.5369  0.1626 -0.6726
 3134SOL    HW120861   1.840   3.221   2.777 -0.8570  0.4625 -1.2905
 3134SOL    HW220862   1.813   3.157   2.908 -3.8180  0.0521 -0.2307
 3135SOL     OW20863   4.542   4.122   0.894  0.0544 -0.2488 -0.0066
 3135SOL    HW120864   4.562   4.214   0.878 -0.8315  0.3556  2.3056
 3135SOL    HW220865   4.625   4.083   0.867  0.4549  0.1792  0.6075
 3136SOL     OW20866   1.142   0.023   9.431  0.3373  0.3460  0.6080
 3136SOL    HW120867   1.203   0.077   9.381 -0.3799 -1.4261 -2.1598
 3136SOL    HW220868   1.067   0.083   9.427  1.0168  1.2574  1.2859
 3137SOL     OW20869   3.480   4.022   2.473 -0.2293  0.2481  0.6884
 3137SOL    HW120870   3.399   4.061   2.440 -0.2545 -0.5751 -0.2674
 3137SOL    HW220871   3.454   3.978   2.553 -1.1367 -2.0304 -0.8421
 3138SOL     OW20872   3.518   1.089   2.022 -0.2171  0.4862 -0.2168
 3138SOL    HW120873   3.535   1.173   2.065 -0.2368  1.1269 -1.4755
 3138SOL    HW220874   3.423   1.077   2.030 -0.1982  1.4392  1.3346
 3139SOL     OW20875   2.287   0.816  15.204 -0.8730 -0.7573 -0.4926
 3139SOL    HW120876   2.258   0.753  15.138  2.9809 -2.2796 -0.7302
 3139SOL    HW220877   2.331   0.889  15.159 -0.6638 -0.8574 -0.4486
 3140SOL     OW20878   2.686   1.444   3.362  0.7321 -0.4320  0.2484
 3140SOL    HW120879   2.623   1.413   3.297 -2.0002  1.2528  2.1270
 3140SOL    HW220880   2.643   1.529   3.368 -2.9724 -2.3849  1.3901
 3141SOL     OW20881   1.790   4.485   8.238 -0.0812 -0.3429 -0.1353
 3141SOL    HW120882   1.870   4.524   8.273 -0.3359  0.5166 -0.5042
 3141SOL    HW220883   1.744   4.565   8.211 -1.4880 -1.0447  0.2066
 3142SOL     OW20884   1.206   0.856   0.163 -0.5139 -0.2140 -0.2085
 3142SOL    HW120885   1.206   0.931   0.223 -0.2299  0.0224 -0.5086
 3142SOL    HW220886   1.301   0.852   0.153 -0.5143 -0.0653 -0.2688
 3143SOL     OW20887   0.676   1.067  12.672  0.3470  0.2363 -0.0222
 3143SOL    HW120888   0.602   1.008  12.686  0.6708 -0.2467 -0.3759
 3143SOL    HW220889   0.756   1.016  12.683  1.1670  1.4101 -0.5100
 3144SOL     OW20890   4.666   2.640   4.834  0.6366  0.0443  0.2894
 3144SOL    HW120891   4.686   2.675   4.747  0.8332  1.4720  0.9193
 3144SOL    HW220892   0.008   2.569   4.833 -0.2755 -0.7975  1.2298
 3145SOL     OW20893   3.369   1.039  16.736 -0.2225 -0.2811  0.8421
 3145SOL    HW120894   3.312   1.058  16.661  0.4917  0.5932  0.5192
 3145SOL    HW220895   3.384   1.128  16.769  1.3792 -0.0231 -0.5685
 3146SOL     OW20896   0.347   2.669   5.634 -0.5270  0.0961  0.2649
 3146SOL    HW120897   0.432   2.698   5.668 -0.5400  0.5605 -0.0968
 3146SOL    HW220898   0.366   2.652   5.542  0.3793  0.4245  0.3901
 3147SOL     OW20899   3.756   1.755  15.566  0.2445 -0.5995 -0.3950
 3147SOL    HW120900   3.819   1.820  15.597 -1.5493  1.6086 -1.4289
 3147SOL    HW220901   3.792   1.726  15.482  2.2261  0.2104  0.1602
 3148SOL     OW20902   2.056   3.722   0.308 -0.3208 -0.0291  0.0841
 3148SOL    HW120903   2.091   3.641   0.345 -3.4905 -0.4474  2.1574
 3148SOL    HW220904   2.111   3.724   0.230 -0.5927 -0.2055 -0.1120
 3149SOL     OW20905   4.063   3.416   5.173 -0.4029  0.3273  0.1627
 3149SOL    HW120906   4.045   3.344   5.234 -0.6272  2.1373  2.2441
 3149SOL    HW220907   4.110   3.480   5.226  0.0518 -1.2682  1.6867
 3150SOL     OW20908   1.517   4.146   6.784 -0.2321 -0.3024 -0.1006
 3150SOL    HW120909   1.520   4.052   6.768 -1.0423 -0.6174  1.5555
 3150SOL    HW220910   1.483   4.146   6.874 -0.9990 -0.0664 -0.3946
 3151SOL     OW20911   1.882   2.376   3.129  0.2683 -0.7061  0.6097
 3151SOL    HW120912   1.885   2.358   3.035  2.6652 -2.0215  0.9431
 3151SOL    HW220913   1.831   2.457   3.141  1.2407  0.5875 -4.1791
 3152SOL     OW20914   2.750   1.638  14.747 -0.3446 -0.1690 -0.3920
 3152SOL    HW120915   2.826   1.584  14.767 -2.1208 -2.6421 -0.3459
 3152SOL    HW220916   2.722   1.609  14.660 -1.3755 -0.2928 -0.0192
 3153SOL     OW20917   1.242   0.018   7.645  0.1240  0.3309  0.0943
 3153SOL    HW120918   1.168   4.680   7.651 -1.2991  1.8908 -1.3404
 3153SOL    HW220919   1.225   0.046   7.555 -0.7365  1.9299  0.7494
 3154SOL     OW20920   2.458   2.841  17.187 -0.1120  0.0633 -0.0983
 3154SOL    HW120921   2.470   2.898  17.111 -1.2534  0.5728  0.0959
 3154SOL    HW220922   2.540   2.848  17.237 -1.1439 -1.2113  1.8081
 3155SOL     OW20923   0.872   3.728   0.537  0.6350  0.0811  0.5891
 3155SOL    HW120924   0.936   3.659   0.553 -0.9946 -1.2130  1.5599
 3155SOL    HW220925   0.797   3.701   0.591  1.0903  0.3654  1.3585
 3156SOL     OW20926   0.131   4.071   6.131  0.6934 -0.5461  0.2290
 3156SOL    HW120927   0.172   3.993   6.094  1.6747  0.7933 -1.5486
 3156SOL    HW220928   0.039   4.049   6.135  0.1288  1.6296 -0.5069
 3157SOL     OW20929   0.200   3.832   6.020  0.6379  0.3983  0.2885
 3157SOL    HW120930   0.249   3.751   6.010  0.3406  0.4934 -1.9846
 3157SOL    HW220931   0.178   3.842   5.928  1.7217 -0.0656 -0.0245
 3158SOL     OW20932   4.196   3.403   1.018  0.5822  0.0821 -0.1445
 3158SOL    HW120933   4.100   3.402   1.014  0.5732  1.3478 -0.2797
 3158SOL    HW220934   4.204   3.396   1.114  3.6640  0.0923 -0.3903
 3159SOL     OW20935   3.865   2.816   9.176 -0.4754  0.2395  0.3764
 3159SOL    HW120936   3.914   2.735   9.165 -0.0990  0.7721 -1.7098
 3159SOL    HW220937   3.879   2.844   9.267  4.0082 -0.6344 -0.0811
 3160SOL     OW20938   0.015   3.033   6.631  0.3504  0.4454 -0.0376
 3160SOL    HW120939   0.047   2.964   6.573  0.6601 -1.4755  2.4223
 3160SOL    HW220940   0.008   2.984   6.713  0.7255  1.6333  0.7094
 3161SOL     OW20941   1.006   0.787   6.230 -0.4973  0.1033 -0.2128
 3161SOL    HW120942   1.009   0.738   6.312  0.9967  0.8789  0.2013
 3161SOL    HW220943   0.934   0.744   6.183 -0.1454 -1.4376  0.6703
 3162SOL     OW20944   1.441   1.176  15.416  0.3386  0.1774  0.0021
 3162SOL    HW120945   1.427   1.109  15.483 -0.5284  1.0192  0.6576
 3162SOL    HW220946   1.424   1.118  15.341 -0.0031 -0.1619  0.3422
 3163SOL     OW20947   4.102   4.306   2.939 -0.1707  0.5221  0.3907
 3163SOL    HW120948   4.073   4.396   2.956 -0.1301  0.4412  0.9061
 3163SOL    HW220949   4.027   4.286   2.883  0.8926 -1.7195 -0.2228
 3164SOL     OW20950   3.183   3.802   6.023  0.2625 -0.0145  0.0228
 3164SOL    HW120951   3.166   3.866   5.954  1.9839  0.7500  0.3048
 3164SOL    HW220952   3.121   3.732   6.001  0.8015 -0.0283 -1.4540
 3165SOL     OW20953   0.390   4.137  11.095 -0.3826  0.6311 -0.1095
 3165SOL    HW120954   0.470   4.185  11.117 -0.9157  0.5070  2.1280
 3165SOL    HW220955   0.379   4.165  11.004  0.5991 -1.0572 -0.7302
 3166SOL     OW20956   2.090   2.933  10.033 -0.5025  0.2550 -0.0371
 3166SOL    HW120957   2.140   2.904   9.957  1.3551  0.8260  0.9842
 3166SOL    HW220958   2.158   2.926  10.100 -1.0119 -1.8384  0.2618
 3167SOL     OW20959   1.891   1.074   6.000  0.2835  0.0786 -0.4180
 3167SOL    HW120960   1.945   1.130   5.943 -0.4538  1.1245 -0.0871
 3167SOL    HW220961   1.812   1.127   6.011  2.4433  2.9020  1.5188
 3168SOL     OW20962   4.597   2.428   2.646 -0.0255 -0.1040  0.0880
 3168SOL    HW120963   4.625   2.336   2.644  2.0625  0.5648 -2.1366
 3168SOL    HW220964   4.513   2.416   2.690 -0.3469 -1.3688 -0.8748
 3169SOL     OW20965   1.449   3.947   7.375 -1.0203  0.0584  0.1690
 3169SOL    HW120966   1.388   4.012   7.411 -0.8997  1.4050 -2.0429
 3169SOL    HW220967   1.441   3.872   7.434 -0.3969 -1.7704 -2.0788
 3170SOL     OW20968   1.937   4.183  11.640 -0.4601 -0.0297  0.6819
 3170SOL    HW120969   1.856   4.161  11.595  0.6936  0.7439 -1.7302
 3170SOL    HW220970   1.935   4.279  11.637 -1.1872 -0.0106  1.6556
 3171SOL     OW20971   0.402   1.830  14.834 -0.4814  0.0672 -0.0210
 3171SOL    HW120972   0.320   1.781  14.824 -0.8774  0.4369  1.3956
 3171SOL    HW220973   0.431   1.799  14.920  0.6556  1.1734 -0.0173
 3172SOL     OW20974   3.274   0.874  11.773  0.0246  0.1039  0.3088
 3172SOL    HW120975   3.260   0.844  11.683 -1.5522 -1.3813  1.0546
 3172SOL    HW220976   3.342   0.941  11.762  0.5506 -0.5555 -0.4349
 3173SOL     OW20977   2.168   4.301   5.362  0.5548 -0.3689  0.1500
 3173SOL    HW120978   2.137   4.218   5.397 -0.6054 -1.4229 -3.3898
 3173SOL    HW220979   2.194   4.276   5.273 -1.7740 -1.0599 -0.3150
 3174SOL     OW20980   4.225   0.348  16.255 -0.1757  0.5549  0.6078
 3174SOL    HW120981   4.152   0.299  16.218  1.3584 -0.1988 -1.4022
 3174SOL    HW220982   4.233   0.312  16.343 -1.6741  1.0657  0.9616
 3175SOL     OW20983   2.888   0.562   8.922  0.4726  0.4077  0.0624
 3175SOL    HW120984   2.843   0.646   8.911  0.3036  0.4117  0.7542
 3175SOL    HW220985   2.887   0.569   9.018  1.8699  0.8839  0.0478
 3176SOL     OW20986   4.062   2.953  10.198 -0.1174 -0.1294  0.0993
 3176SOL    HW120987   4.142   2.998  10.168  0.0676 -0.8037 -0.4173
 3176SOL    HW220988   4.019   2.912  10.123  3.5714  0.6423 -2.4404
 3177SOL     OW20989   4.649   0.518  11.702  0.7006  0.3991  0.4401
 3177SOL    HW120990   4.662   0.532  11.608 -1.9407 -0.4473 -0.0464
 3177SOL    HW220991   4.646   0.610  11.730 -1.3165  1.3269 -2.8199
 3178SOL     OW20992   3.525   2.701   0.473  1.2074 -0.0495 -0.5870
 3178SOL    HW120993   3.601   2.673   0.524 -0.0031 -1.1674  0.5913
 3178SOL    HW220994   3.530   2.641   0.398  1.0265 -1.2318  0.3428
 3179SOL     OW20995   1.733   3.057   1.391  0.0837  0.1034 -0.4760
 3179SOL    HW120996   1.702   3.125   1.331 -1.5420 -0.6851 -0.5417
 3179SOL    HW220997   1.781   3.116   1.450 -1.2138  0.6335  0.0625
 3180SOL     OW20998   1.375   2.722   9.475  0.3579  0.0841  0.0751
 3180SOL    HW120999   1.326   2.654   9.521 -0.3332  0.9901  0.6815
 3180SOL    HW221000   1.422   2.669   9.411 -1.5780  1.6257 -2.6237
 3181SOL     OW21001   1.995   1.902  16.829 -0.1207  0.3425  0.1088
 3181SOL    HW121002   2.053   1.978  16.836  0.7355 -0.5377  2.6600
 3181SOL    HW221003   2.047   1.845  16.772  0.5843  0.2709  0.8193
 3182SOL     OW21004   0.923   1.645  13.075 -0.2885 -0.7776  0.6078
 3182SOL    HW121005   0.987   1.647  13.004 -1.0129  2.1843  0.0251
 3182SOL    HW221006   0.865   1.574  13.048 -0.3971 -0.1478 -0.8342
 3183SOL     OW21007   0.953   3.796   6.801 -0.1481  0.5303 -0.1334
 3183SOL    HW121008   0.991   3.884   6.798  0.9127  0.0274 -1.6264
 3183SOL    HW221009   0.988   3.767   6.717  0.0652  0.2760  0.0432
 3184SOL     OW21010   3.589   2.169  17.285 -0.7056 -0.0155 -0.4563
 3184SOL    HW121011   3.605   2.196  17.375 -0.6211 -1.1494 -0.1312
 3184SOL    HW221012   3.551   2.082  17.298 -2.3650  0.8262  0.2232
 3185SOL     OW21013   2.273   3.101   3.383  0.4743 -0.3302 -0.2888
 3185SOL    HW121014   2.218   3.169   3.422  1.9593 -0.7910  2.5420
 3185SOL    HW221015   2.254   3.125   3.292 -0.2802  0.2461  0.0162
 3186SOL     OW21016   4.345   4.574  13.584  0.2753 -0.0147  0.3328
 3186SOL    HW121017   4.422   4.623  13.557  0.2145  0.7348  1.5369
 3186SOL    HW221018   4.386   4.490  13.603  0.8615  0.3207  0.5439
 3187SOL     OW21019   4.463   1.954   8.894 -0.0960  0.1364 -0.4239
 3187SOL    HW121020   4.383   1.903   8.908 -1.2433  0.9155 -4.0751
 3187SOL    HW221021   4.535   1.896   8.916  0.7510  0.3873 -2.4742
 3188SOL     OW21022   1.762   2.277  12.960  0.0681  0.1063 -0.4660
 3188SOL    HW121023   1.784   2.184  12.950 -1.0882 -0.4349  1.8956
 3188SOL    HW221024   1.800   2.304  12.876 -1.3766 -0.7511 -1.3847
 3189SOL     OW21025   0.063   0.626  10.211  0.0399 -0.1542  0.1738
 3189SOL    HW121026   0.140   0.637  10.156 -0.3743 -1.1813 -0.6192
 3189SOL    HW221027   0.005   0.572  10.157 -0.7752 -0.3487  1.2331
 3190SOL     OW21028   3.621   0.038   7.832 -0.1732 -0.1039  0.1865
 3190SOL    HW121029   3.639   4.676   7.871 -0.0825  0.1791  0.7649
 3190SOL    HW221030   3.533   0.054   7.866  0.7387  1.1061  1.9681
 3191SOL     OW21031   3.383   3.031   6.377  0.1650 -0.1927 -0.3958
 3191SOL    HW121032   3.393   2.938   6.355  1.5917 -0.3216  0.6960
 3191SOL    HW221033   3.291   3.050   6.361 -0.4928 -1.3189  1.9894
 3192SOL     OW21034   2.667   2.363   2.351 -0.2326 -0.3521 -0.0098
 3192SOL    HW121035   2.749   2.376   2.399 -0.1352 -0.2162 -0.2100
 3192SOL    HW221036   2.666   2.268   2.339  0.5747 -0.3488 -0.1511
 3193SOL     OW21037   1.564   2.434  12.762 -0.5324  0.5382  0.1186
 3193SOL    HW121038   1.654   2.408  12.745 -0.8908 -0.2261 -0.6488
 3193SOL    HW221039   1.565   2.417  12.856 -1.2028 -4.1505 -0.7049
 3194SOL     OW21040   1.627   3.057   5.498 -0.0694 -0.0455 -0.1658
 3194SOL    HW121041   1.681   3.069   5.576  1.0165 -0.0947 -0.9164
 3194SOL    HW221042   1.542   3.087   5.531  0.2161  1.6991 -0.9859
 3195SOL     OW21043   3.072   3.162   4.204 -0.0821  0.0367 -0.6722
 3195SOL    HW121044   3.158   3.199   4.183 -0.3397  1.6697  1.1532
 3195SOL    HW221045   3.065   3.191   4.295 -0.7702 -2.1549 -0.0293
 3196SOL     OW21046   2.676   3.869   5.356  0.2279  0.4560 -0.3045
 3196SOL    HW121047   2.664   3.932   5.285  1.7155  0.3692 -0.6305
 3196SOL    HW221048   2.691   3.921   5.435  2.6908 -2.0647  0.8810
 3197SOL     OW21049   3.090   0.887   8.376 -0.2696  0.1819  0.1527
 3197SOL    HW121050   3.159   0.933   8.423  0.2351 -2.0887  1.6311
 3197SOL    HW221051   3.101   0.920   8.287 -0.0112  0.3785  0.2582
 3198SOL     OW21052   3.099   1.487   5.393  0.6977  0.3125  0.6931
 3198SOL    HW121053   3.133   1.398   5.401  0.2001  0.1553  1.0979
 3198SOL    HW221054   3.155   1.531   5.457  0.3225  1.8200 -0.0252
 3199SOL     OW21055   4.157   2.226   6.322  0.4690  0.1076 -0.2973
 3199SOL    HW121056   4.229   2.180   6.278 -0.2765 -1.6682  0.3268
 3199SOL    HW221057   4.186   2.314   6.299  0.1599 -0.0365 -1.2698
 3200SOL     OW21058   2.450   4.283   7.766 -0.0202 -0.1759 -0.2384
 3200SOL    HW121059   2.503   4.240   7.833 -0.7261 -1.7566 -0.6998
 3200SOL    HW221060   2.488   4.370   7.754 -0.8047 -0.0596 -1.8646
 3201SOL     OW21061   4.684   3.114   3.429  0.1907 -0.0518 -0.3120
 3201SOL    HW121062   4.595   3.089   3.455  0.1235  0.9944  0.4340
 3201SOL    HW221063   4.673   3.205   3.401 -1.0500  0.2701  1.2056
 3202SOL     OW21064   3.911   1.441   1.518 -0.3977  0.0467  0.9230
 3202SOL    HW121065   3.903   1.385   1.441  0.7169 -0.4389  1.1698
 3202SOL    HW221066   4.005   1.456   1.517 -0.4814  0.5519  0.6006
 3203SOL     OW21067   0.266   0.620  13.024  0.2089 -0.0822 -0.0953
 3203SOL    HW121068   0.243   0.678  13.096 -2.0986 -1.6265  0.4210
 3203SOL    HW221069   0.188   0.642  12.973  0.1324 -3.1743 -1.3419
 3204SOL     OW21070   1.843   3.896   6.516  0.1013 -0.8764  0.4313
 3204SOL    HW121071   1.897   3.918   6.440 -2.9670  0.7636 -1.2751
 3204SOL    HW221072   1.793   3.977   6.526  1.7394 -0.0961  2.2694
 3205SOL     OW21073   4.004   1.092   2.651  0.1696  0.4739  0.2293
 3205SOL    HW121074   3.948   1.122   2.579 -1.2476  0.0019  1.1590
 3205SOL    HW221075   4.043   1.008   2.627 -0.1381  0.8788 -1.7018
 3206SOL     OW21076   2.496   1.312   5.491  0.2577  0.0919  0.0347
 3206SOL    HW121077   2.557   1.384   5.509 -2.4792  2.0629  1.4510
 3206SOL    HW221078   2.414   1.357   5.511 -1.2974 -2.3584 -0.8337
 3207SOL     OW21079   0.124   2.184   8.234 -0.3594 -0.2885  0.2363
 3207SOL    HW121080   0.117   2.095   8.267 -0.1354 -0.0806  0.8381
 3207SOL    HW221081   0.200   2.174   8.176  0.0798 -0.6933  0.8827
 3208SOL     OW21082   3.087   2.389   7.304 -0.4113 -0.1999 -0.1276
 3208SOL    HW121083   3.096   2.381   7.399  2.8630  0.5268 -0.3635
 3208SOL    HW221084   3.046   2.305   7.283 -1.8492  0.6050 -0.5423
 3209SOL     OW21085   0.884   2.867   8.853 -0.4070 -0.2912  0.1911
 3209SOL    HW121086   0.799   2.866   8.897  0.7823  1.9738  2.5672
 3209SOL    HW221087   0.894   2.777   8.822  1.7038  0.2329 -0.6473
 3210SOL     OW21088   4.078   2.223   2.127 -0.2241 -0.1359 -0.0555
 3210SOL    HW121089   4.055   2.191   2.040 -0.0430  3.3262 -1.3777
 3210SOL    HW221090   4.161   2.268   2.109  0.0838 -0.6666  0.0558
 3211SOL     OW21091   4.573   0.603   3.681  0.2828 -0.0661  0.4375
 3211SOL    HW121092   4.482   0.611   3.710  0.6468 -0.8824  1.7974
 3211SOL    HW221093   4.562   0.650   3.599 -1.8729 -1.6613 -0.1954
 3212SOL     OW21094   1.137   1.759   6.378  0.3264 -0.3619 -0.1721
 3212SOL    HW121095   1.066   1.808   6.336  0.5048  1.4028  1.6077
 3212SOL    HW221096   1.107   1.766   6.468 -0.6472  1.2266 -0.6298
 3213SOL     OW21097   1.674   1.121   7.880 -0.0922  0.2110 -0.4024
 3213SOL    HW121098   1.579   1.119   7.873 -0.2355  0.6947  1.3710
 3213SOL    HW221099   1.686   1.215   7.864 -0.5787  0.7677  2.5582
 3214SOL     OW21100   3.974   3.902   9.106  0.1218 -1.0160 -0.6478
 3214SOL    HW121101   3.880   3.910   9.090  0.1867  0.6151 -0.2083
 3214SOL    HW221102   4.013   3.987   9.086  1.9757 -1.8924 -0.7113
 3215SOL     OW21103   1.243   0.375   2.795  0.0389  0.0268 -1.3515
 3215SOL    HW121104   1.300   0.380   2.872 -0.5135  0.7034 -0.9841
 3215SOL    HW221105   1.295   0.319   2.738  1.9563 -0.4985  0.9348
 3216SOL     OW21106   3.215   4.037   2.186  0.1393  0.2792  0.2347
 3216SOL    HW121107   3.138   3.985   2.208 -0.3039  1.6836  1.9740
 3216SOL    HW221108   3.206   4.102   2.256  1.6596  0.7470 -0.0061
 3217SOL     OW21109   3.336   0.943   9.579  0.4442 -0.3223 -0.4874
 3217SOL    HW121110   3.275   0.920   9.648  3.0667 -2.3671  1.1506
 3217SOL    HW221111   3.355   0.852   9.557 -1.5842 -0.8463 -0.0228
 3218SOL     OW21112   0.806   1.338  13.594 -0.2118  0.0911  0.6046
 3218SOL    HW121113   0.778   1.265  13.648  0.0366 -0.4586 -0.0095
 3218SOL    HW221114   0.811   1.296  13.508 -2.5858  0.2924  0.3621
 3219SOL     OW21115   2.815   4.313   9.346  0.1371  0.4236 -0.5041
 3219SOL    HW121116   2.791   4.220   9.347  0.0872  0.4512  1.1441
 3219SOL    HW221117   2.733   4.362   9.336 -0.5873 -0.1152  3.0234
 3220SOL     OW21118   1.680   1.248  16.660 -0.2899  0.6318  0.1513
 3220SOL    HW121119   1.757   1.242  16.716 -1.5842 -1.2379  1.7321
 3220SOL    HW221120   1.635   1.319  16.706 -0.6345  0.1377  0.5909
 3221SOL     OW21121   2.562   1.003   6.771 -0.2692 -0.1411 -0.4865
 3221SOL    HW121122   2.499   0.993   6.699  0.2946 -0.6871 -0.9029
 3221SOL    HW221123   2.645   0.959   6.751  0.5888  0.7452  1.1326
 3222SOL     OW21124   0.175   1.758   4.022  0.6168 -0.8919 -0.2869
 3222SOL    HW121125   0.110   1.746   3.952  0.2735  0.6821 -0.2502
 3222SOL    HW221126   0.239   1.802   3.966  0.7281  0.4251  0.8713
 3223SOL     OW21127   3.383   2.490   7.321  0.1119 -0.4526  0.9528
 3223SOL    HW121128   3.383   2.575   7.366  1.5545 -0.4864  1.0291
 3223SOL    HW221129   3.292   2.487   7.290  0.5755 -1.9662 -0.2674
 3224SOL     OW21130   2.677   2.507   5.117 -0.0267  0.0352  0.3334
 3224SOL    HW121131   2.736   2.472   5.185 -1.6795  0.0038  1.7501
 3224SOL    HW221132   2.693   2.600   5.129 -1.0142  0.0459  1.5143
 3225SOL     OW21133   2.003   0.576  17.054  0.2072 -1.0416  0.1534
 3225SOL    HW121134   1.990   0.505  17.116  0.6360 -0.2883  1.1178
 3225SOL    HW221135   1.933   0.638  17.076 -0.4027 -1.7518  0.2088
 3226SOL     OW21136   0.923   2.339   5.434 -0.0596 -0.3738 -0.0284
 3226SOL    HW121137   1.015   2.329   5.409 -0.6355 -3.4625 -0.8453
 3226SOL    HW221138   0.886   2.252   5.448 -0.2717 -0.1493  0.7757
 3227SOL     OW21139   0.356   4.123   4.725  0.1348 -0.2884  0.0575
 3227SOL    HW121140   0.289   4.057   4.707  1.5790 -0.9070 -3.1836
 3227SOL    HW221141   0.359   4.163   4.638 -1.1514 -0.6239 -0.1420
 3228SOL     OW21142   2.211   2.655   7.548  0.2132 -0.4419 -0.9832
 3228SOL    HW121143   2.197   2.651   7.454 -0.0395  0.2025 -0.9754
 3228SOL    HW221144   2.306   2.656   7.546  0.1570  0.6718 -2.5577
 3229SOL     OW21145   3.199   3.725   3.779  0.1033 -0.0521 -0.3058
 3229SOL    HW121146   3.109   3.712   3.810  0.1837  2.9755  1.1660
 3229SOL    HW221147   3.218   3.813   3.810 -1.4551 -0.5932  2.2052
 3230SOL     OW21148   4.317   0.858   3.068 -0.0554  0.1830  0.1245
 3230SOL    HW121149   4.359   0.788   3.018  0.9866  0.4373  0.6436
 3230SOL    HW221150   4.225   0.840   3.051  0.0758 -0.0590 -0.3168
 3231SOL     OW21151   1.968   2.374   1.576  0.0816  0.0282 -0.5240
 3231SOL    HW121152   1.989   2.359   1.484 -1.5414 -1.2041 -0.7058
 3231SOL    HW221153   1.912   2.450   1.562  0.1825 -0.0184 -1.1769
 3232SOL     OW21154   0.264   2.483   4.397 -0.3554  0.0523  0.0123
 3232SOL    HW121155   0.241   2.417   4.462  2.3929 -1.4160 -0.5028
 3232SOL    HW221156   0.360   2.489   4.405  0.0009 -2.9740 -2.0439
 3233SOL     OW21157   3.051   1.256   2.836 -0.1359 -0.4782  0.4549
 3233SOL    HW121158   2.990   1.279   2.766 -1.7186 -0.6915  1.7445
 3233SOL    HW221159   3.031   1.163   2.845  0.0596 -0.3583  2.2955
 3234SOL     OW21160   0.542   3.357   7.807  0.3176  0.2971  0.4488
 3234SOL    HW121161   0.583   3.365   7.893  0.4694 -2.4157  0.6311
 3234SOL    HW221162   0.570   3.439   7.767  1.0225 -0.2317 -0.1338
 3235SOL     OW21163   2.653   2.333  12.095 -0.1623 -0.0607  0.0887
 3235SOL    HW121164   2.627   2.423  12.116 -0.5612 -0.2545  0.4156
 3235SOL    HW221165   2.698   2.291  12.169  0.4923  1.9706  0.8624
 3236SOL     OW21166   4.059   1.968   7.618  0.3618 -0.9040  0.4665
 3236SOL    HW121167   3.976   1.927   7.593 -1.0252  1.5406  1.0220
 3236SOL    HW221168   4.038   2.020   7.696  0.6848 -0.2925  0.1493
 3237SOL     OW21169   3.709   3.293   1.830 -0.5081  0.7727 -0.1545
 3237SOL    HW121170   3.663   3.288   1.914  2.2063  0.3628  1.3308
 3237SOL    HW221171   3.783   3.235   1.849 -0.8034  0.3485 -0.2932
 3238SOL     OW21172   2.573   2.191   6.319  0.2639 -0.5148 -0.6415
 3238SOL    HW121173   2.479   2.183   6.335  0.1320  1.7260 -0.3259
 3238SOL    HW221174   2.590   2.285   6.330 -0.8631 -0.5684  1.4189
 3239SOL     OW21175   2.481   0.736  14.188 -0.1653 -0.0768 -0.1751
 3239SOL    HW121176   2.489   0.665  14.124  2.3855 -1.9354  2.1988
 3239SOL    HW221177   2.567   0.778  14.181 -0.1196 -0.2363 -0.5296
 3240SOL     OW21178   0.838   2.314   3.067  0.1684  0.1714 -0.4618
 3240SOL    HW121179   0.896   2.385   3.042 -2.1413  2.7273  1.4912
 3240SOL    HW221180   0.886   2.231   3.068 -1.6303 -0.9155 -2.7704
 3241SOL     OW21181   2.257   4.260  11.765  0.3883  0.0774  0.0290
 3241SOL    HW121182   2.330   4.313  11.796 -1.0825  1.2760  1.4554
 3241SOL    HW221183   2.275   4.176  11.807 -1.5297 -0.1264  0.4584
 3242SOL     OW21184   2.967   4.246   7.544 -0.2394 -0.1539 -0.1328
 3242SOL    HW121185   2.998   4.297   7.469 -0.0523 -2.1692 -1.4352
 3242SOL    HW221186   3.045   4.193   7.561 -0.0075  0.6753  1.3444
 3243SOL     OW21187   4.702   0.021   6.287  0.0765  0.5506 -0.4464
 3243SOL    HW121188   4.614   4.710   6.303 -0.4619  1.7600 -0.8300
 3243SOL    HW221189   4.684   0.084   6.217 -0.5422  0.2461 -0.5661
 3244SOL     OW21190   0.105   2.302   2.440 -0.8281  0.1943 -0.0995
 3244SOL    HW121191   0.113   2.208   2.453 -0.8554  0.3358  0.9409
 3244SOL    HW221192   0.023   2.321   2.486 -0.1965 -0.0526  1.1307
 3245SOL     OW21193   1.696   3.966  13.842 -0.4645  0.4320  0.1781
 3245SOL    HW121194   1.668   3.876  13.828 -2.1560  0.7663  1.5116
 3245SOL    HW221195   1.765   3.947  13.906  0.0885  2.7154  0.2508
 3246SOL     OW21196   3.040   1.272  10.277  0.3002 -1.0865 -0.3006
 3246SOL    HW121197   3.104   1.294  10.210 -0.4129  1.6630 -0.0783
 3246SOL    HW221198   2.980   1.347  10.289  0.0482 -1.0442 -1.8892
 3247SOL     OW21199   3.847   2.058   7.822  0.0043 -0.1958 -0.0834
 3247SOL    HW121200   3.803   1.973   7.830 -2.6264  1.2250  0.5965
 3247SOL    HW221201   3.785   2.104   7.879  0.0389  0.7168 -0.7853
 3248SOL     OW21202   4.016   3.705  11.210 -0.5492  0.1882 -0.4067
 3248SOL    HW121203   4.058   3.705  11.124 -0.9732  0.0153 -0.6123
 3248SOL    HW221204   4.091   3.735  11.262 -0.6929 -0.0561 -0.0575
 3249SOL     OW21205   0.356   0.390  16.523  0.2601 -0.1473  0.6341
 3249SOL    HW121206   0.371   0.329  16.451 -1.0437 -0.6350  0.7718
 3249SOL    HW221207   0.265   0.364  16.539  0.6682 -1.6964  0.4719
 3250SOL     OW21208   3.934   2.233   3.300 -0.1390  0.2951  0.2177
 3250SOL    HW121209   3.859   2.284   3.329 -1.7238 -2.1085  0.3429
 3250SOL    HW221210   3.890   2.151   3.278  0.1614  0.9930 -2.9263
 3251SOL     OW21211   2.936   4.290  15.019 -0.0143  0.0829 -0.1814
 3251SOL    HW121212   3.026   4.321  15.016  0.0048 -0.1437 -2.2354
 3251SOL    HW221213   2.900   4.374  15.046  1.5034  0.7344 -0.1879
 3252SOL     OW21214   4.408   0.572  10.091 -0.3442  0.3300  0.1230
 3252SOL    HW121215   4.353   0.493  10.093  0.4010 -0.2256 -1.4175
 3252SOL    HW221216   4.392   0.629  10.166  1.0804  1.5981 -0.5402
 3253SOL     OW21217   4.390   0.637  16.707  0.1151  0.0959  0.0389
 3253SOL    HW121218   4.414   0.550  16.676 -0.5494 -0.3500  0.7871
 3253SOL    HW221219   4.423   0.637  16.797 -2.2987 -0.3250  0.9203
 3254SOL     OW21220   1.888   2.823  14.183  0.2176 -0.2195  0.1715
 3254SOL    HW121221   1.841   2.783  14.256  0.1880 -1.0603 -0.3121
 3254SOL    HW221222   1.855   2.765  14.114 -0.1493 -0.4830  0.5697
 3255SOL     OW21223   2.040   0.439   0.292 -0.0611  0.8812  0.3035
 3255SOL    HW121224   2.007   0.508   0.234 -0.6059  1.4081  1.2397
 3255SOL    HW221225   2.128   0.475   0.306  0.5668 -0.5182  0.0084
 3256SOL     OW21226   1.704   1.649   4.385  0.7215  0.4902 -0.6119
 3256SOL    HW121227   1.734   1.675   4.298  0.8800 -0.1612 -0.7548
 3256SOL    HW221228   1.687   1.737   4.418  1.5963  0.3976  0.1076
 3257SOL     OW21229   3.702   4.411   1.231 -0.4814 -0.5100 -0.0085
 3257SOL    HW121230   3.655   4.332   1.257 -0.9313 -0.5865 -1.0509
 3257SOL    HW221231   3.704   4.392   1.137  0.9559 -0.9853  0.1115
 3258SOL     OW21232   1.338   2.718   3.171 -0.4431 -0.4761 -0.2852
 3258SOL    HW121233   1.356   2.760   3.255  1.6607  0.4367 -1.1830
 3258SOL    HW221234   1.420   2.716   3.121  0.6141 -2.6218  1.5517
 3259SOL     OW21235   0.029   3.077  11.716 -0.2645  0.7672 -0.5138
 3259SOL    HW121236   0.050   3.146  11.654 -0.9997 -1.1788 -2.9088
 3259SOL    HW221237   0.020   2.998  11.662  2.1605 -1.2858  2.0553
 3260SOL     OW21238   2.680   1.140   3.807 -0.0299  0.1514 -0.1094
 3260SOL    HW121239   2.608   1.078   3.821  0.1763 -0.0874 -0.0925
 3260SOL    HW221240   2.676   1.146   3.712  0.3505 -2.4917 -0.2998
 3261SOL     OW21241   0.593   1.387   4.686 -0.0940  0.0767 -0.4170
 3261SOL    HW121242   0.651   1.445   4.637 -0.2449  1.2458  0.8102
 3261SOL    HW221243   0.547   1.350   4.611 -0.1578 -0.4820 -0.1002
 3262SOL     OW21244   1.564   3.765   5.302  0.1160 -0.2670  0.5534
 3262SOL    HW121245   1.552   3.822   5.378  3.5076  2.5773 -1.0392
 3262SOL    HW221246   1.473   3.770   5.273  0.5782  3.9819 -0.1839
 3263SOL     OW21247   3.396   1.797   6.920  0.6693 -0.3104  0.1904
 3263SOL    HW121248   3.428   1.886   6.929  2.5328 -0.8537 -1.0697
 3263SOL    HW221249   3.323   1.805   6.980  0.0298  1.1751 -0.8126
 3264SOL     OW21250   1.100   3.640   1.697 -0.2769  0.6035 -0.1631
 3264SOL    HW121251   1.134   3.591   1.772 -1.4508 -1.6835 -1.1086
 3264SOL    HW221252   1.125   3.730   1.717  0.9616  0.3085 -0.4041
 3265SOL     OW21253   2.268   3.085   6.093  0.7146  0.0388  0.0640
 3265SOL    HW121254   2.251   3.070   6.186  1.0894  0.1747  0.1520
 3265SOL    HW221255   2.363   3.092   6.086  0.4994 -0.6962 -3.5041
 3266SOL     OW21256   0.040   3.287   2.916 -0.7573 -0.2600  0.0599
 3266SOL    HW121257   0.050   3.211   2.974  0.5970 -0.0846  0.0623
 3266SOL    HW221258   4.702   3.244   2.856 -1.8129  2.0584 -0.5257
 3267SOL     OW21259   2.000   3.255   9.190  0.1248  0.5616 -0.6202
 3267SOL    HW121260   1.965   3.252   9.279 -0.6999  0.8329 -0.9340
 3267SOL    HW221261   2.052   3.175   9.182 -2.9369 -1.6840  1.3500
 3268SOL     OW21262   2.854   3.989   7.503  0.1663  0.1478  0.3019
 3268SOL    HW121263   2.798   4.041   7.444 -0.3461  0.9607  1.4958
 3268SOL    HW221264   2.890   4.054   7.563  0.3754 -0.5415  0.9196
 3269SOL     OW21265   3.941   3.673  11.861 -0.2228  0.0660 -0.6724
 3269SOL    HW121266   4.031   3.679  11.893 -0.6708  0.2586  0.5212
 3269SOL    HW221267   3.946   3.613  11.786 -0.7457 -1.5589  0.6021
 3270SOL     OW21268   2.086   0.373   2.712  0.0764  0.3939 -0.0121
 3270SOL    HW121269   2.024   0.367   2.639 -0.0655 -1.0051  0.2345
 3270SOL    HW221270   2.170   0.360   2.669 -0.0790 -1.1353  0.1707
 3271SOL     OW21271   1.925   2.169   7.030 -0.3326 -0.0316 -0.4565
 3271SOL    HW121272   1.852   2.231   7.019  1.3837  1.8987 -1.0988
 3271SOL    HW221273   1.896   2.099   7.088  2.0268 -1.1679 -0.6676
 3272SOL     OW21274   0.903   0.352   5.170  0.0758  0.0998  0.4185
 3272SOL    HW121275   0.817   0.395   5.176  0.2430  0.5302 -0.2086
 3272SOL    HW221276   0.876   0.275   5.120  1.1138 -0.8974  1.4130
 3273SOL     OW21277   4.191   2.484   6.245  0.1492 -0.1066  0.1755
 3273SOL    HW121278   4.197   2.579   6.255  1.1367 -0.2009  0.4197
 3273SOL    HW221279   4.263   2.473   6.183 -0.5705 -3.4779 -0.0572
 3274SOL     OW21280   4.394   4.186   6.077  0.2439  0.3143 -0.3880
 3274SOL    HW121281   4.305   4.211   6.103  0.5966 -0.3559  1.4482
 3274SOL    HW221282   4.440   4.270   6.083  1.2602 -0.1346 -1.7717
 3275SOL     OW21283   0.660   3.508  16.095  0.3947  0.2796  0.1861
 3275SOL    HW121284   0.627   3.596  16.077  0.1259  0.3170  0.8698
 3275SOL    HW221285   0.754   3.524  16.090  0.1227  1.7481 -0.2361
 3276SOL     OW21286   3.181   0.953   0.466  0.2790  0.5856  0.4370
 3276SOL    HW121287   3.169   1.048   0.462  1.2857  0.7155  0.6019
 3276SOL    HW221288   3.095   0.939   0.505  0.6231  0.9912  1.3390
 3277SOL     OW21289   3.112   3.030  10.198  0.3023  0.0977 -0.2641
 3277SOL    HW121290   3.192   3.081  10.213  0.0238  0.0157  1.5015
 3277SOL    HW221291   3.127   2.960  10.262  2.2703 -1.1283 -2.0862
 3278SOL     OW21292   2.290   4.557   3.444  0.2496 -0.1709  0.0262
 3278SOL    HW121293   2.199   4.527   3.446  0.4019 -0.7348 -1.4844
 3278SOL    HW221294   2.308   4.543   3.351  0.6556  0.4632  0.0110
 3279SOL     OW21295   0.469   2.200   9.338 -0.5910 -0.1963  0.3499
 3279SOL    HW121296   0.537   2.135   9.357 -0.6367  0.4959  2.9386
 3279SOL    HW221297   0.389   2.153   9.362 -0.6958 -1.6638 -2.9715
 3280SOL     OW21298   3.495   2.782  11.002  0.1085 -0.5656 -0.3758
 3280SOL    HW121299   3.553   2.710  11.026 -0.8996 -0.5599  2.1053
 3280SOL    HW221300   3.501   2.780  10.906  0.9262 -0.0882 -0.3317
 3281SOL     OW21301   3.813   3.645   3.882  0.1347  0.1643 -0.2764
 3281SOL    HW121302   3.887   3.643   3.822  0.6068 -0.5088  0.3260
 3281SOL    HW221303   3.747   3.600   3.830 -0.1552 -1.1614  1.2393
 3282SOL     OW21304   2.486   2.675   7.558 -0.0548  0.1808  0.5669
 3282SOL    HW121305   2.523   2.724   7.632 -0.9048  0.4951  0.7828
 3282SOL    HW221306   2.569   2.639   7.527  0.4102  0.5211  1.4221
 3283SOL     OW21307   3.588   3.242   4.340  0.1917  0.0167  0.1431
 3283SOL    HW121308   3.569   3.149   4.343 -3.7059  0.8011 -0.1919
 3283SOL    HW221309   3.540   3.273   4.417  0.4462  1.5283 -0.2995
 3284SOL     OW21310   3.772   1.169   4.010  0.6741  0.2351  0.7919
 3284SOL    HW121311   3.688   1.129   4.032 -0.0780  0.9140 -0.8602
 3284SOL    HW221312   3.766   1.251   4.058 -1.0192 -0.0598  1.0657
 3285SOL     OW21313   4.375   0.675   2.882  0.1465  0.0900 -0.6933
 3285SOL    HW121314   4.308   0.659   2.815 -0.3776  2.4539 -0.7115
 3285SOL    HW221315   4.450   0.684   2.824  1.8584 -1.3023  1.3108
 3286SOL     OW21316   1.142   2.005   4.983  0.0617 -0.2263 -0.1814
 3286SOL    HW121317   1.088   1.972   5.055  1.3368 -1.3331  0.2624
 3286SOL    HW221318   1.065   2.021   4.928 -0.6521 -2.3968  0.2037
 3287SOL     OW21319   4.309   4.162   6.543  0.4586 -0.4358 -0.0048
 3287SOL    HW121320   4.332   4.117   6.624 -2.6716 -3.9296 -1.0675
 3287SOL    HW221321   4.286   4.098   6.476  0.0271 -2.3903  1.9940
 3288SOL     OW21322   1.536   2.589   7.837 -0.0489 -0.0202 -0.3953
 3288SOL    HW121323   1.610   2.646   7.816  0.4146 -1.4045 -2.5711
 3288SOL    HW221324   1.560   2.580   7.929  0.1162  0.0844 -0.4290
 3289SOL     OW21325   2.407   0.014   5.725 -0.1899 -0.0397 -0.2594
 3289SOL    HW121326   2.371   0.088   5.675 -3.2214 -0.2705  1.6022
 3289SOL    HW221327   2.479   0.054   5.775  2.4493 -2.1896 -2.3331
 3290SOL     OW21328   3.028   3.975   6.402  0.4536 -0.0873 -0.0653
 3290SOL    HW121329   2.974   3.900   6.375  0.0218 -0.3086  1.4202
 3290SOL    HW221330   3.037   4.028   6.323 -1.1434  0.8775  0.3974
 3291SOL     OW21331   1.039   0.525   0.981 -0.2256  0.0317 -0.5119
 3291SOL    HW121332   1.118   0.497   0.935 -0.8786  1.0051 -2.2143
 3291SOL    HW221333   0.988   0.447   1.002  1.4753 -0.3469  2.2765
 3292SOL     OW21334   3.786   0.167   1.964  0.0409  0.6229 -0.1899
 3292SOL    HW121335   3.829   0.097   1.915 -1.0536 -0.6505  0.6624
 3292SOL    HW221336   3.710   0.127   2.007  0.7707 -0.6928 -0.1249
 3293SOL     OW21337   1.741   1.108  15.595  0.5754 -0.2329 -0.4982
 3293SOL    HW121338   1.806   1.100  15.526 -0.1140 -3.1270 -0.7985
 3293SOL    HW221339   1.688   1.031  15.576  2.2227 -1.7752  1.1758
 3294SOL     OW21340   2.335   0.975   8.374  0.1620  0.8313 -0.3589
 3294SOL    HW121341   2.270   1.027   8.327  0.8440 -1.5333 -3.9521
 3294SOL    HW221342   2.416   0.969   8.322 -0.5908  1.4561 -1.6055
 3295SOL     OW21343   0.592   2.968   6.952  0.6918  0.7936 -0.1431
 3295SOL    HW121344   0.607   2.931   6.865  1.7245  2.9046 -0.8404
 3295SOL    HW221345   0.550   3.050   6.927  0.6174  0.3609 -1.4385
 3296SOL     OW21346   4.613   1.069   2.638 -0.5565 -0.1828  0.0748
 3296SOL    HW121347   4.558   1.024   2.703  0.7804 -1.0170  0.6137
 3296SOL    HW221348   4.557   1.058   2.561  2.7022 -1.6087 -2.0610
 3297SOL     OW21349   3.035   0.860   5.937  0.1607 -0.1972  0.6294
 3297SOL    HW121350   2.992   0.845   5.853  2.9832 -2.6586 -0.3945
 3297SOL    HW221351   3.006   0.951   5.949  0.1871 -0.3780  2.0888
 3298SOL     OW21352   2.236   1.097   9.149 -0.1193 -0.5881  0.3872
 3298SOL    HW121353   2.332   1.094   9.158  0.0670  1.2441 -0.9884
 3298SOL    HW221354   2.219   1.150   9.227  1.6472  0.2808  0.1828
 3299SOL     OW21355   3.222   4.097   5.612 -0.0085 -0.1881  0.1411
 3299SOL    HW121356   3.183   4.063   5.531  1.9141 -2.1252  0.0165
 3299SOL    HW221357   3.192   4.187   5.601  1.9911  0.0930 -2.9035
 3300SOL     OW21358   3.397   2.920  11.734 -0.1320 -0.1282  0.1970
 3300SOL    HW121359   3.461   2.849  11.742  0.5589  0.2966 -1.5903
 3300SOL    HW221360   3.324   2.900  11.794 -0.4035  2.7045  0.8078
 3301SOL     OW21361   3.827   2.510   4.585 -0.1524 -0.1759 -0.2671
 3301SOL    HW121362   3.847   2.577   4.519  1.3870 -0.7148 -0.3418
 3301SOL    HW221363   3.751   2.474   4.541  0.1811 -2.8116  1.3463
 3302SOL     OW21364   0.131   0.450   2.659 -0.0780  0.4326  0.0834
 3302SOL    HW121365   0.101   0.364   2.690  2.1937  0.0105  1.1280
 3302SOL    HW221366   0.113   0.441   2.566  0.3153 -1.9855  0.2260
 3303SOL     OW21367   2.683   3.648   4.809  0.1080  0.5780 -0.1330
 3303SOL    HW121368   2.612   3.648   4.872  0.1207 -1.7982 -0.1110
 3303SOL    HW221369   2.646   3.670   4.724  0.4162  2.2792  0.1777
 3304SOL     OW21370   3.903   2.343  12.459  0.2644 -0.4625  0.1620
 3304SOL    HW121371   3.986   2.370  12.419 -0.3886 -0.3449 -1.1152
 3304SOL    HW221372   3.935   2.268  12.509  1.8905  0.2834  0.2598
 3305SOL     OW21373   3.729   1.389   2.627  0.0592  0.1734 -0.9230
 3305SOL    HW121374   3.768   1.341   2.554  0.2393  1.8892 -1.9493
 3305SOL    HW221375   3.717   1.318   2.690 -1.4124  1.1825 -0.0766
 3306SOL     OW21376   4.685   2.603   0.742  0.7558  0.2136 -0.5220
 3306SOL    HW121377   4.701   2.685   0.789 -0.6657  1.4895 -2.2718
 3306SOL    HW221378   4.595   2.614   0.710  1.2430  2.5192 -1.0824
 3307SOL     OW21379   1.437   1.724  15.924  0.0112  0.2257 -0.5630
 3307SOL    HW121380   1.432   1.635  15.960 -1.2273  0.6422  0.2770
 3307SOL    HW221381   1.361   1.769  15.959 -0.2624  0.1832 -1.1102
 3308SOL     OW21382   2.212   0.657   9.321  0.0728  0.1737 -0.5453
 3308SOL    HW121383   2.180   0.682   9.234  0.2580  3.4227  0.3094
 3308SOL    HW221384   2.294   0.626   9.281  0.4385  2.5915 -1.6487
 3309SOL     OW21385   4.420   0.831   4.496 -0.1307  0.0792 -0.0729
 3309SOL    HW121386   4.343   0.860   4.546  2.2700  0.5946  3.2800
 3309SOL    HW221387   4.420   0.735   4.500 -1.3032 -0.0112 -2.0000
 3310SOL     OW21388   3.608   3.010  14.533 -0.0673 -0.0205  0.3346
 3310SOL    HW121389   3.654   2.929  14.554 -1.4152 -0.7860  0.3375
 3310SOL    HW221390   3.675   3.059  14.485  0.2964 -0.0464  0.8142
 3311SOL     OW21391   4.021   3.869   8.102  0.5006 -0.0402 -0.6489
 3311SOL    HW121392   4.114   3.850   8.093  0.3754 -0.4062 -1.1436
 3311SOL    HW221393   4.009   3.960   8.076  1.9291  0.8082  1.7229
 3312SOL     OW21394   2.414   2.872   9.361 -0.2182 -0.0737  0.1455
 3312SOL    HW121395   2.321   2.895   9.363 -0.8116 -2.6655  2.8014
 3312SOL    HW221396   2.407   2.791   9.311 -1.7284 -0.7086  1.3857
 3313SOL     OW21397   3.826   1.703  14.990 -0.9923  0.4951 -0.0972
 3313SOL    HW121398   3.800   1.648  14.916  1.8539 -3.8562  2.1105
 3313SOL    HW221399   3.834   1.786  14.944 -0.6068  1.1362  1.1345
 3314SOL     OW21400   1.572   1.946   9.240  0.1992 -0.1970  0.2406
 3314SOL    HW121401   1.507   1.889   9.199 -1.1233  3.0614 -2.1910
 3314SOL    HW221402   1.647   1.888   9.248 -1.0551 -1.6410  1.5866
 3315SOL     OW21403   1.788   0.877  12.456  0.0259  0.2423  0.3241
 3315SOL    HW121404   1.775   0.968  12.482 -0.2871 -0.2258  1.8499
 3315SOL    HW221405   1.869   0.856  12.503  0.1068 -1.5051 -0.6108
 3316SOL     OW21406   0.600   0.945   4.948  0.6425 -0.1264  0.2216
 3316SOL    HW121407   0.540   0.945   4.874  0.9423 -1.3883 -0.0232
 3316SOL    HW221408   0.642   1.030   4.937 -0.0784  0.1755 -0.2050
 3317SOL     OW21409   2.717   2.543   2.005  0.3923  0.4622 -0.1926
 3317SOL    HW121410   2.639   2.497   2.037  0.5969  0.0895 -0.2198
 3317SOL    HW221411   2.775   2.477   1.965 -0.2269 -1.9442  2.9163
 3318SOL     OW21412   2.705   0.417  14.099  0.2375  0.1575 -0.2392
 3318SOL    HW121413   2.630   0.459  14.056 -0.2896 -2.5159 -1.9644
 3318SOL    HW221414   2.702   0.338  14.045 -0.8703  1.2964 -1.8674
 3319SOL     OW21415   1.013   4.328  16.346  0.1257 -0.0829  0.5404
 3319SOL    HW121416   0.956   4.291  16.278  2.0045 -1.4641 -0.2588
 3319SOL    HW221417   1.098   4.286  16.334 -1.1913 -2.3632 -0.7980
 3320SOL     OW21418   4.256   3.910   8.749 -0.1508  0.4559  0.1793
 3320SOL    HW121419   4.265   4.002   8.776 -1.2821  0.9681 -1.1372
 3320SOL    HW221420   4.340   3.877   8.778 -0.9399  2.2657  4.4924
 3321SOL     OW21421   1.906   3.208   4.216  0.3685 -0.7150  0.5589
 3321SOL    HW121422   1.888   3.199   4.122 -1.9107 -1.2149  1.0472
 3321SOL    HW221423   1.832   3.162   4.255  1.2695 -0.1558  2.9440
 3322SOL     OW21424   2.438   1.915  13.361  0.2196 -0.0180  0.2320
 3322SOL    HW121425   2.439   1.984  13.427  1.2390  1.6750 -1.5547
 3322SOL    HW221426   2.501   1.946  13.296  2.1646 -0.8005  1.7838
 3323SOL     OW21427   2.495   2.883   6.305 -0.0677 -0.0228 -0.6206
 3323SOL    HW121428   2.491   2.899   6.211 -2.7907  0.1937 -0.4503
 3323SOL    HW221429   2.432   2.941   6.347 -0.1569 -0.1019 -0.6462
 3324SOL     OW21430   0.466   3.117   3.698 -0.1380  0.1985 -0.6658
 3324SOL    HW121431   0.376   3.107   3.666 -0.6290  1.2832  0.3991
 3324SOL    HW221432   0.472   3.090   3.789  1.5088  1.1106 -0.5171
 3325SOL     OW21433   0.789   4.479  14.681  0.3138  0.4582 -0.4799
 3325SOL    HW121434   0.857   4.546  14.676  0.3729  0.2713 -2.2783
 3325SOL    HW221435   0.832   4.407  14.727 -0.1698  0.2273 -0.3961
 3326SOL     OW21436   4.057   3.221   7.266 -0.1786  0.2241  0.4585
 3326SOL    HW121437   4.141   3.188   7.299 -0.2562  0.3207  0.7499
 3326SOL    HW221438   4.068   3.307   7.308 -0.6738  1.3761 -1.7603
 3327SOL     OW21439   4.714   3.550   1.789 -0.0445 -0.6967  0.6741
 3327SOL    HW121440   0.078   3.536   1.825  0.9080 -0.5355 -1.5174
 3327SOL    HW221441   0.008   3.574   1.698 -0.3987 -0.1985  0.7388
 3328SOL     OW21442   2.653   1.727   3.364 -0.1002  0.1116 -0.6958
 3328SOL    HW121443   2.558   1.714   3.360 -0.3684  1.9670 -0.3208
 3328SOL    HW221444   2.650   1.817   3.396 -0.8279 -0.7682  1.7427
 3329SOL     OW21445   2.494   0.938   6.138 -0.0346  0.2299 -0.7268
 3329SOL    HW121446   2.517   0.858   6.184 -0.6936  1.4062  1.6272
 3329SOL    HW221447   2.575   0.988   6.149  0.1839 -0.0517 -1.0425
 3330SOL     OW21448   2.857   2.654  11.238 -0.6057 -0.8501  0.0953
 3330SOL    HW121449   2.924   2.651  11.170 -1.0009 -0.4013 -0.3109
 3330SOL    HW221450   2.908   2.685  11.313 -0.5971 -0.2254 -0.1703
 3331SOL     OW21451   2.876   2.302   1.750 -0.2904 -0.1429 -0.2636
 3331SOL    HW121452   2.958   2.254   1.742  0.3777  0.7813  0.9757
 3331SOL    HW221453   2.846   2.267   1.834 -0.4841  0.4570 -0.0788
 3332SOL     OW21454   3.446   2.548  15.837  0.0877  0.7935  0.0670
 3332SOL    HW121455   3.386   2.527  15.908 -0.8558 -1.4839 -1.3719
 3332SOL    HW221456   3.454   2.642  15.851  2.7611  0.5065  0.4168
 3333SOL     OW21457   1.259   0.241  14.700 -0.2693  0.3592  0.5358
 3333SOL    HW121458   1.258   0.167  14.760 -1.1586 -0.1027 -0.0527
 3333SOL    HW221459   1.330   0.217  14.641 -1.5195  0.9892 -1.2107
 3334SOL     OW21460   2.745   0.869   4.539  0.2110 -0.2601  0.1354
 3334SOL    HW121461   2.840   0.869   4.552  0.0523 -0.3839  1.2187
 3334SOL    HW221462   2.722   0.849   4.629  1.5721  1.0041  0.7526
 3335SOL     OW21463   2.615   0.090   8.600 -0.4096 -0.0620  0.0549
 3335SOL    HW121464   2.674   0.041   8.542 -0.0733  0.3853  0.0130
 3335SOL    HW221465   2.591   0.165   8.546  0.7400  1.6987  1.9794
 3336SOL     OW21466   1.392   3.573   3.417 -0.8354 -0.2636 -0.2075
 3336SOL    HW121467   1.349   3.488   3.425 -1.4136  0.0738  0.2486
 3336SOL    HW221468   1.344   3.621   3.485 -0.1633 -0.8887  0.7187
 3337SOL     OW21469   3.582   0.469   1.348  0.0512  0.1197 -0.2598
 3337SOL    HW121470   3.573   0.442   1.257  0.1830 -0.5145 -0.0879
 3337SOL    HW221471   3.657   0.413   1.367  0.0946 -0.2404 -1.4889
 3338SOL     OW21472   0.783   3.572   6.130  0.0737  0.4904  0.1683
 3338SOL    HW121473   0.727   3.637   6.088 -1.0328 -0.9472 -0.5540
 3338SOL    HW221474   0.719   3.529   6.186  0.3472 -0.6681 -0.4200
 3339SOL     OW21475   4.665   2.434  17.233 -0.1126  0.2443  0.4417
 3339SOL    HW121476   4.603   2.390  17.291  1.7158 -1.1515  1.3620
 3339SOL    HW221477   4.611   2.437  17.155 -1.0817 -0.2277  1.0941
 3340SOL     OW21478   1.369   4.054   4.461 -0.1638  0.1903  0.5112
 3340SOL    HW121479   1.366   3.959   4.455  1.3094 -0.0386  3.2132
 3340SOL    HW221480   1.362   4.075   4.554 -1.6708  1.8773  0.0222
 3341SOL     OW21481   4.558   2.784   6.592 -0.4388 -0.9474 -0.4688
 3341SOL    HW121482   4.518   2.698   6.601 -0.9064 -0.6830 -0.0738
 3341SOL    HW221483   4.647   2.769   6.625 -0.4628 -4.0506 -1.8319
 3342SOL     OW21484   2.517   1.158   7.500  0.3563 -0.3746  0.4718
 3342SOL    HW121485   2.608   1.132   7.511  0.4868 -0.0198  0.2440
 3342SOL    HW221486   2.503   1.185   7.409  0.5602  0.2445  0.6180
 3343SOL     OW21487   2.592   0.311   8.047  0.2769 -0.1758 -0.4854
 3343SOL    HW121488   2.629   0.228   8.018  1.5878 -0.0265  0.8069
 3343SOL    HW221489   2.520   0.326   7.985 -0.1714 -1.1000 -0.1863
 3344SOL     OW21490   1.106   3.746   8.049  0.0410 -0.5896 -0.0572
 3344SOL    HW121491   1.076   3.813   7.988  0.3143  0.2754  0.7456
 3344SOL    HW221492   1.047   3.674   8.027 -0.9786  0.0757  0.5140
 3345SOL     OW21493   3.122   3.990  15.393 -0.6615 -0.7633  0.3315
 3345SOL    HW121494   3.102   4.041  15.472  1.9931  1.0291 -0.1151
 3345SOL    HW221495   3.041   4.007  15.344  1.7761  2.4519 -2.5916
 3346SOL     OW21496   3.153   1.744   3.170 -0.5314 -0.2869 -0.4267
 3346SOL    HW121497   3.058   1.738   3.168 -0.5902  0.5689 -0.3235
 3346SOL    HW221498   3.176   1.703   3.086  0.7136  0.2578 -0.3452
 3347SOL     OW21499   4.505   1.668   1.156 -0.0556 -0.9066 -0.3887
 3347SOL    HW121500   4.452   1.724   1.214 -1.9613 -2.5492 -0.5639
 3347SOL    HW221501   4.488   1.699   1.067 -2.5522  1.2719  0.8395
 3348SOL     OW21502   2.038   4.135   4.594  0.3108  0.1570 -0.5935
 3348SOL    HW121503   2.031   4.218   4.547  0.9417 -0.4919 -1.8459
 3348SOL    HW221504   1.946   4.109   4.595  0.6990 -1.1403  1.4223
 3349SOL     OW21505   0.893   1.397   9.250  0.3901 -0.0174 -0.1098
 3349SOL    HW121506   0.808   1.358   9.270  0.1548  0.8176  0.5382
 3349SOL    HW221507   0.938   1.389   9.334  0.8497 -1.8370 -0.5494
 3350SOL     OW21508   3.248   1.000  12.021  0.7814 -0.4162 -0.0665
 3350SOL    HW121509   3.153   1.018  12.020  1.2125  1.9854  1.0960
 3350SOL    HW221510   3.256   0.960  11.934 -2.1207  1.2735 -1.1398
 3351SOL     OW21511   0.101   3.736   3.198 -0.2717  0.0835  0.1377
 3351SOL    HW121512   0.091   3.764   3.106  0.4474 -1.3580 -0.3787
 3351SOL    HW221513   0.063   3.649   3.187 -0.3287  0.3388 -1.7011
 3352SOL     OW21514   1.563   3.746   6.964  0.6205 -0.6402 -0.0328
 3352SOL    HW121515   1.629   3.770   7.030 -0.0799  0.5117  0.2544
 3352SOL    HW221516   1.548   3.655   6.989  1.8167 -0.6802  0.5423
 3353SOL     OW21517   2.320   1.794  12.819  0.7449 -0.1762 -0.0192
 3353SOL    HW121518   2.368   1.719  12.852  2.3552  0.1972 -1.5175
 3353SOL    HW221519   2.272   1.806  12.901  1.0874 -2.3343  0.4828
 3354SOL     OW21520   1.244   3.517   8.173  0.5584 -0.2335 -0.1301
 3354SOL    HW121521   1.307   3.482   8.110 -0.7208  2.2683 -2.8271
 3354SOL    HW221522   1.221   3.602   8.134 -0.4948 -0.4056  0.0978
 3355SOL     OW21523   2.292   3.822   9.435  0.0383 -0.2415 -0.3720
 3355SOL    HW121524   2.262   3.890   9.495 -2.0157 -0.6793 -0.8901
 3355SOL    HW221525   2.244   3.848   9.356 -1.2337  1.9022  1.1078
 3356SOL     OW21526   3.715   3.611   2.600 -0.3910 -0.1111 -0.1811
 3356SOL    HW121527   3.625   3.581   2.591 -1.2695  2.3983  0.3594
 3356SOL    HW221528   3.764   3.535   2.630  1.9081  2.3256  2.2241
 3357SOL     OW21529   0.083   0.900   2.128 -0.1689  0.4206 -0.2909
 3357SOL    HW121530   0.090   0.806   2.140 -0.4721  0.4577  0.1678
 3357SOL    HW221531   0.004   0.911   2.076 -0.7095 -0.5620  0.3532
 3358SOL     OW21532   0.886   0.153   3.486  0.7275 -0.4820  0.3011
 3358SOL    HW121533   0.852   0.112   3.565  1.1159 -3.6812 -1.2143
 3358SOL    HW221534   0.926   0.236   3.511 -0.2690 -0.3394  1.4185
 3359SOL     OW21535   0.696   0.213  17.116  0.5015  0.3964 -1.0033
 3359SOL    HW121536   0.607   0.198  17.150  1.3279  0.3537  1.1677
 3359SOL    HW221537   0.750   0.150  17.164  0.4254  0.0053 -1.4302
 3360SOL     OW21538   0.735   4.375   5.729  0.7360 -0.7033 -0.0190
 3360SOL    HW121539   0.669   4.359   5.795  1.7540 -0.3578  1.0789
 3360SOL    HW221540   0.700   4.453   5.685  1.3448  0.3463  1.3358
 3361SOL     OW21541   0.419   0.627   1.372 -0.5838 -0.4073 -0.0455
 3361SOL    HW121542   0.507   0.605   1.343 -0.6795  1.9555 -2.0396
 3361SOL    HW221543   0.429   0.613   1.466 -1.2571  0.2795  0.1271
 3362SOL     OW21544   0.595   1.707   6.120 -0.0012  0.2324 -0.0615
 3362SOL    HW121545   0.544   1.785   6.140 -0.0892  0.1976 -0.1498
 3362SOL    HW221546   0.633   1.690   6.206  2.3904 -2.4921 -1.6343
 3363SOL     OW21547   1.608   2.330   7.561 -0.2185  0.8775  0.2376
 3363SOL    HW121548   1.642   2.273   7.492  0.1850 -0.2844  1.4006
 3363SOL    HW221549   1.514   2.323   7.542  0.0928  0.2885 -1.0802
 3364SOL     OW21550   1.927   2.818   8.443 -0.2097 -0.2679  0.5298
 3364SOL    HW121551   1.872   2.743   8.464 -0.3561 -0.5090 -0.7356
 3364SOL    HW221552   1.928   2.863   8.528 -0.8778 -1.4074  1.1370
 3365SOL     OW21553   4.313   4.432  10.300  0.3502  0.4807 -0.1788
 3365SOL    HW121554   4.322   4.527  10.293  2.6899  0.3315  0.8984
 3365SOL    HW221555   4.407   4.418  10.315 -0.0342 -2.8320 -0.9760
 3366SOL     OW21556   2.028   1.312   9.027  0.0273 -0.0796  0.7005
 3366SOL    HW121557   2.097   1.255   9.063  0.5523  0.9489  1.3257
 3366SOL    HW221558   2.054   1.397   9.063  0.1145  0.3214 -0.3097
 3367SOL     OW21559   2.809   1.627   8.258 -0.4760  0.1470  0.0536
 3367SOL    HW121560   2.898   1.645   8.229  1.1871 -1.6870  3.9350
 3367SOL    HW221561   2.807   1.537   8.292  2.4506  0.6148  1.4216
 3368SOL     OW21562   4.437   4.395   5.068 -0.2685 -0.0081 -0.2551
 3368SOL    HW121563   4.351   4.429   5.043 -0.3823 -0.7070 -0.7857
 3368SOL    HW221564   4.447   4.429   5.157  0.0164 -0.4884 -0.1060
 3369SOL     OW21565   0.761   3.239  16.003 -0.6651 -0.3494 -0.4826
 3369SOL    HW121566   0.737   3.332  16.007 -2.6298 -0.8640 -0.3077
 3369SOL    HW221567   0.739   3.223  15.912  0.3234 -2.7025 -0.3140
 3370SOL     OW21568   2.507   1.710   6.645 -0.1582 -0.0924 -0.1524
 3370SOL    HW121569   2.603   1.706   6.640 -0.2257 -0.3726 -1.2875
 3370SOL    HW221570   2.492   1.695   6.738  0.7261  0.7160  0.1210
 3371SOL     OW21571   4.017   1.071   7.197  0.4264  0.7284  0.2204
 3371SOL    HW121572   4.021   1.152   7.147 -3.4529 -0.2653 -1.7273
 3371SOL    HW221573   4.051   1.001   7.142 -1.7619 -0.1762  0.0232
 3372SOL     OW21574   2.045   1.433   0.986 -0.1537  0.6641 -0.1178
 3372SOL    HW121575   2.072   1.346   1.015 -0.9561 -0.0739 -1.5244
 3372SOL    HW221576   2.130   1.461   0.952  1.4603  1.6534  4.8804
 3373SOL     OW21577   3.995   3.535   5.719  0.6233  0.4054 -0.3241
 3373SOL    HW121578   3.907   3.567   5.700  0.0842 -1.0699 -0.2645
 3373SOL    HW221579   3.996   3.445   5.687  0.8722  0.6685 -1.0466
 3374SOL     OW21580   4.168   2.092   7.017 -0.2074 -0.4331  0.1189
 3374SOL    HW121581   4.254   2.110   7.055  0.3736 -1.8740 -0.5240
 3374SOL    HW221582   4.187   2.033   6.944 -0.8188  0.0622 -0.4544
 3375SOL     OW21583   1.323   3.513   5.014  0.1936  0.0936 -0.2743
 3375SOL    HW121584   1.247   3.456   5.004 -0.0307  1.0507 -3.9887
 3375SOL    HW221585   1.302   3.574   5.084 -0.0501  0.3267 -0.5525
 3376SOL     OW21586   2.073   3.095  15.178 -0.4063  0.1861  0.4824
 3376SOL    HW121587   2.167   3.100  15.196 -0.2501 -3.3153  0.5839
 3376SOL    HW221588   2.044   3.028  15.240 -1.0264  0.3190  0.3367
 3377SOL     OW21589   2.992   1.896   0.794 -0.3003 -0.1574 -0.0597
 3377SOL    HW121590   2.917   1.911   0.852  1.5510  2.2102  1.7300
 3377SOL    HW221591   2.997   1.981   0.751  0.0809 -1.3601 -2.3620
 3378SOL     OW21592   4.093   3.254   5.661  0.5417  0.4707  0.1317
 3378SOL    HW121593   4.035   3.264   5.585  2.7605  0.4448 -1.6048
 3378SOL    HW221594   4.175   3.295   5.631  1.3474 -1.1185  0.1999
 3379SOL     OW21595   4.094   2.158   7.398  0.1541 -0.0505  0.0002
 3379SOL    HW121596   4.126   2.242   7.431  0.4464  0.0422 -0.5141
 3379SOL    HW221597   4.103   2.096   7.470 -0.9151 -1.3717 -1.0078
 3380SOL     OW21598   3.667   4.163   9.615  0.2696 -0.6234 -0.3156
 3380SOL    HW121599   3.644   4.071   9.631  0.2836 -0.7043 -0.7510
 3380SOL    HW221600   3.762   4.154   9.617  0.4286  1.0041 -0.5559
 3381SOL     OW21601   4.641   3.269   5.024  0.2581  0.4733  0.0632
 3381SOL    HW121602   4.719   3.241   4.976 -0.3357  0.0154 -0.6377
 3381SOL    HW221603   4.589   3.307   4.954  1.1166  0.9462 -0.3186
 3382SOL     OW21604   3.703   2.831  13.736 -0.6345  0.5273 -0.7390
 3382SOL    HW121605   3.671   2.742  13.723 -0.4110  0.2071  0.8239
 3382SOL    HW221606   3.741   2.809  13.822  0.2091  0.1227 -1.2154
 3383SOL     OW21607   4.470   0.383  16.128  0.2603 -0.4288 -0.0998
 3383SOL    HW121608   4.394   0.376  16.186  0.8477 -1.1795  0.5653
 3383SOL    HW221609   4.518   0.444  16.184 -2.7292  1.0864  0.7937
 3384SOL     OW21610   2.342   2.398  16.692 -0.0853  0.4413  0.3698
 3384SOL    HW121611   2.296   2.444  16.762 -0.8778  0.1912  0.0060
 3384SOL    HW221612   2.410   2.464  16.678 -1.4556  1.8832  0.5875
 3385SOL     OW21613   0.349   3.635   7.534  0.1115 -0.0295  0.4338
 3385SOL    HW121614   0.355   3.700   7.605 -2.0057  1.3358 -0.6234
 3385SOL    HW221615   0.356   3.551   7.579 -1.4975 -2.0361 -3.0874
 3386SOL     OW21616   4.684   2.630   8.930  0.1334  0.2701  0.6790
 3386SOL    HW121617   0.015   2.669   8.999 -0.2967  0.1582  1.0813
 3386SOL    HW221618   4.620   2.573   8.973 -1.0089  3.5280  3.4159
 3387SOL     OW21619   1.534   3.047  10.886  0.0164 -0.1459 -0.2305
 3387SOL    HW121620   1.497   2.981  10.827 -0.3496 -1.8882  1.9601
 3387SOL    HW221621   1.470   3.037  10.956 -0.6875  0.9248 -0.7191
 3388SOL     OW21622   1.002   1.459   8.669 -0.1048  0.1741 -0.0989
 3388SOL    HW121623   1.089   1.485   8.699  0.1949  0.4660 -1.2393
 3388SOL    HW221624   0.937   1.491   8.732 -1.5094 -0.2551 -1.3288
 3389SOL     OW21625   4.033   1.479  17.370 -0.2588  0.0627 -0.1737
 3389SOL    HW121626   4.025   1.532  17.290 -1.5401 -1.5210 -1.0859
 3389SOL    HW221627   4.104   1.422  17.341 -0.7988 -0.4034 -0.5557
 3390SOL     OW21628   2.368   1.902  14.993 -0.1165  0.3360  0.0961
 3390SOL    HW121629   2.346   1.837  15.061  0.9549  0.3064  0.4103
 3390SOL    HW221630   2.436   1.865  14.937  0.5163 -0.1648  1.1898
 3391SOL     OW21631   3.012   2.176  10.972  0.4184  0.0557 -0.9142
 3391SOL    HW121632   2.917   2.186  10.971  0.9031  4.6348 -1.0889
 3391SOL    HW221633   3.039   2.219  11.053 -1.7489 -0.1091 -0.1126
 3392SOL     OW21634   0.133   2.356   9.288 -0.0084  0.1885 -0.8123
 3392SOL    HW121635   0.065   2.291   9.308  1.2641 -1.2331 -1.1726
 3392SOL    HW221636   0.164   2.319   9.206 -2.0912 -1.1979 -0.9870
 3393SOL     OW21637   3.985   2.170  15.131  0.1907  0.3021 -0.1603
 3393SOL    HW121638   3.901   2.125  15.117 -0.8364  1.3715  2.6260
 3393SOL    HW221639   4.024   2.136  15.050  1.8734 -2.6143  1.8880
 3394SOL     OW21640   3.235   0.918   1.748 -0.9043  0.2351 -0.2933
 3394SOL    HW121641   3.151   0.881   1.776 -0.9001  0.1098 -0.4478
 3394SOL    HW221642   3.295   0.844   1.755 -0.8095  0.3355 -0.0135
 3395SOL     OW21643   3.299   2.243   9.185 -0.4283  0.1634 -0.4328
 3395SOL    HW121644   3.321   2.334   9.165 -1.3699  0.5578  0.3222
 3395SOL    HW221645   3.386   2.206   9.197  0.3254  2.3097  0.9143
 3396SOL     OW21646   0.875   2.048  11.818 -0.1713  0.3381 -0.4259
 3396SOL    HW121647   0.877   2.073  11.910  0.2872 -3.1545  0.5200
 3396SOL    HW221648   0.944   2.105  11.786  1.1422 -0.8360  0.3396
 3397SOL     OW21649   2.720   4.349   3.054 -0.2918  0.3267  0.4753
 3397SOL    HW121650   2.691   4.437   3.079 -1.3941 -0.0926  0.6726
 3397SOL    HW221651   2.813   4.348   3.077  0.1983  0.3776 -1.5173
 3398SOL     OW21652   2.958   4.624   6.826 -0.6132 -0.1564 -0.2434
 3398SOL    HW121653   2.988   4.559   6.762  0.3472 -0.2804  0.3324
 3398SOL    HW221654   3.029   4.688   6.816 -1.1614  0.3257 -1.0951
 3399SOL     OW21655   1.018   3.588   1.182 -0.0575 -0.1105 -0.3019
 3399SOL    HW121656   1.064   3.671   1.194 -2.1438  0.8700  1.1507
 3399SOL    HW221657   0.934   3.607   1.226  0.2539 -0.7383  0.5543
 3400SOL     OW21658   0.435   2.175   3.612  0.5347 -0.0936 -0.5601
 3400SOL    HW121659   0.443   2.259   3.657  2.2250 -0.7534  0.4063
 3400SOL    HW221660   0.453   2.208   3.524  2.8774 -3.4671 -1.3399
 3401SOL     OW21661   3.201   4.000   6.877 -0.0576  0.1694 -0.1000
 3401SOL    HW121662   3.273   3.949   6.915  0.1908  0.3780 -0.2932
 3401SOL    HW221663   3.134   3.985   6.943 -0.3958 -1.0393 -0.7130
 3402SOL     OW21664   3.664   3.339   7.674 -0.1160 -0.3408  0.1933
 3402SOL    HW121665   3.700   3.373   7.592 -1.7899  1.0195  0.0016
 3402SOL    HW221666   3.623   3.419   7.708 -1.7516 -0.7031 -0.8873
 3403SOL     OW21667   2.120   4.450   7.806  0.3894  0.1225  0.0662
 3403SOL    HW121668   2.083   4.424   7.891 -0.7367  0.2411 -0.3890
 3403SOL    HW221669   2.062   4.521   7.779 -1.0334 -0.7223  0.8972
 3404SOL     OW21670   2.248   3.520   7.344  0.5221 -0.4939 -0.5557
 3404SOL    HW121671   2.284   3.475   7.268  1.9762  1.4956 -1.0252
 3404SOL    HW221672   2.184   3.454   7.372  0.1489  0.1173  0.0165
 3405SOL     OW21673   2.010   4.616   1.815 -0.0706  0.1964  0.2416
 3405SOL    HW121674   2.004   4.697   1.764 -2.0105 -0.1917 -0.1330
 3405SOL    HW221675   1.968   4.556   1.754  1.4236 -0.1933 -0.4129
 3406SOL     OW21676   3.814   3.943   7.538 -0.5513  0.4583  0.3596
 3406SOL    HW121677   3.889   3.941   7.479  0.0629  0.6936  1.1200
 3406SOL    HW221678   3.857   3.952   7.623 -0.0666 -1.0952  0.2727
 3407SOL     OW21679   1.836   0.985   8.377 -0.0691 -0.0264  0.2837
 3407SOL    HW121680   1.766   0.994   8.313 -2.1016  2.0555  2.8327
 3407SOL    HW221681   1.908   1.033   8.336  0.8798 -2.1788 -0.5907
 3408SOL     OW21682   0.336   3.021   1.745  0.1491  0.2332  0.5815
 3408SOL    HW121683   0.407   3.028   1.808  1.3413  1.2601 -0.8694
 3408SOL    HW221684   0.285   3.103   1.749 -0.5216 -0.2176  1.2210
 3409SOL     OW21685   0.043   1.667   5.028 -0.2572  0.2794 -0.2929
 3409SOL    HW121686   0.055   1.706   4.941 -1.8046 -1.1181 -1.1429
 3409SOL    HW221687   0.056   1.575   5.004 -1.2086 -0.4627  2.0417
 3410SOL     OW21688   1.760   1.756   2.531 -0.3251 -0.0391  0.5574
 3410SOL    HW121689   1.792   1.814   2.600  1.0872  1.1224 -1.0843
 3410SOL    HW221690   1.840   1.714   2.501 -0.0042 -1.3961  3.3020
 3411SOL     OW21691   0.969   2.036   9.455  0.2126 -0.1561 -0.4603
 3411SOL    HW121692   1.007   2.124   9.455  2.1505 -0.9816 -2.0450
 3411SOL    HW221693   0.987   2.003   9.543 -1.7628  2.0528  0.7815
 3412SOL     OW21694   3.280   4.069   1.166  0.7114 -0.3574  0.4941
 3412SOL    HW121695   3.195   4.074   1.122  0.7310 -0.2663  0.4679
 3412SOL    HW221696   3.321   4.154   1.149  1.6228 -0.9380 -0.2264
 3413SOL     OW21697   4.442   4.722   9.729  0.5300  0.0732  0.4803
 3413SOL    HW121698   4.382   4.647   9.741 -0.2401  0.7935  1.1821
 3413SOL    HW221699   4.374   0.062   9.704  1.2283  0.5054 -0.3000
 3414SOL     OW21700   4.559   4.695   4.204 -0.1207  0.6190  0.0081
 3414SOL    HW121701   4.477   4.698   4.156  0.6919 -1.2074 -1.4898
 3414SOL    HW221702   4.591   4.618   4.156  0.8169  0.1559  1.3896
 3415SOL     OW21703   3.147   0.121  11.818  0.2969 -0.4170  0.0521
 3415SOL    HW121704   3.075   0.167  11.860 -1.9535 -1.2079 -2.9234
 3415SOL    HW221705   3.212   0.134  11.886  0.6746 -0.1309 -0.3611
 3416SOL     OW21706   3.215   2.683  17.049  0.7183  0.4417 -0.3034
 3416SOL    HW121707   3.262   2.647  17.125 -1.6883  2.9146  2.3694
 3416SOL    HW221708   3.244   2.618  16.985 -1.8398 -2.5375  1.5475
 3417SOL     OW21709   2.782   2.877   6.326 -0.4114  0.4288 -0.0677
 3417SOL    HW121710   2.790   2.972   6.339 -0.2518  0.3958  0.0731
 3417SOL    HW221711   2.687   2.871   6.311 -0.1582 -0.5176 -1.2830
 3418SOL     OW21712   0.237   0.709   4.731  0.3762  0.1706  0.8208
 3418SOL    HW121713   0.242   0.687   4.638 -1.3885  0.5266  0.6504
 3418SOL    HW221714   0.330   0.700   4.756  0.4285  2.9788  1.6252
 3419SOL     OW21715   4.137   2.724   7.756  0.3591  0.7025 -0.9941
 3419SOL    HW121716   4.064   2.662   7.765  1.7004 -0.7409 -0.0936
 3419SOL    HW221717   4.148   2.754   7.666 -1.2119  1.0757 -1.0571
 3420SOL     OW21718   2.260   4.521  14.648  0.4806 -0.1033  0.5411
 3420SOL    HW121719   2.346   4.555  14.673  1.1183  0.6213 -2.6726
 3420SOL    HW221720   2.224   4.534  14.736 -0.6981  1.4011 -0.1753
 3421SOL     OW21721   0.246   1.702   3.396  0.1603  0.2315 -0.4408
 3421SOL    HW121722   0.199   1.733   3.319 -0.7737  1.4761  0.6136
 3421SOL    HW221723   0.312   1.771   3.393 -0.2080  0.6471  1.0013
 3422SOL     OW21724   1.670   0.943  16.982 -0.0023  0.3296  0.2143
 3422SOL    HW121725   1.629   1.029  16.992 -0.5432  0.1742 -0.6866
 3422SOL    HW221726   1.613   0.901  16.918  0.6016 -0.5628  0.2686
 3423SOL     OW21727   0.177   1.388   0.972  0.2674 -0.0827  0.0489
 3423SOL    HW121728   0.165   1.396   0.877 -0.1460  1.1743  0.2026
 3423SOL    HW221729   0.166   1.293   0.973  0.1466 -0.0555  0.8864
 3424SOL     OW21730   1.371   4.367   2.512  0.1919  1.0826  0.0162
 3424SOL    HW121731   1.347   4.450   2.470 -1.4078 -0.1140 -1.4314
 3424SOL    HW221732   1.452   4.388   2.559  0.8533  0.3373 -0.7948
 3425SOL     OW21733   1.682   0.224   7.522 -0.0593 -0.0059 -0.2292
 3425SOL    HW121734   1.623   0.296   7.544 -0.7340 -0.4040 -0.7022
 3425SOL    HW221735   1.631   0.153   7.562  0.5999 -1.3093 -1.6861
 3426SOL     OW21736   0.467   1.513   8.370  0.1311 -0.0720  0.0440
 3426SOL    HW121737   0.423   1.587   8.411 -1.1508 -0.0357 -1.3871
 3426SOL    HW221738   0.558   1.524   8.394  0.8157 -4.9725 -0.3219
 3427SOL     OW21739   2.826   2.569   4.020  0.0566  0.0065 -0.1267
 3427SOL    HW121740   2.876   2.595   3.943  0.0062 -1.5426 -0.6759
 3427SOL    HW221741   2.864   2.485   4.045 -0.6008  0.0292  0.9542
 3428SOL     OW21742   2.199   4.199  16.282  0.4423 -0.0388 -0.2600
 3428SOL    HW121743   2.130   4.148  16.239  0.1199 -0.3999  0.7048
 3428SOL    HW221744   2.163   4.241  16.360 -0.3348  0.5074 -0.9123
 3429SOL     OW21745   3.294   3.571   8.241  0.3195  0.6382  0.7682
 3429SOL    HW121746   3.253   3.536   8.320  1.3604 -1.0428  0.5683
 3429SOL    HW221747   3.300   3.665   8.259  1.1349  0.7034  0.1548
 3430SOL     OW21748   0.154   0.050  12.370 -0.0043  0.3283 -0.1989
 3430SOL    HW121749   0.063   0.082  12.369  0.2127  0.9821  1.1588
 3430SOL    HW221750   0.147   4.694  12.316  0.2376  0.0038  0.2510
 3431SOL     OW21751   0.107   2.595   1.288 -0.1169 -0.3844  0.4065
 3431SOL    HW121752   0.169   2.643   1.233 -0.3572 -2.6716 -1.8504
 3431SOL    HW221753   0.138   2.505   1.280  1.1704  0.1579 -0.7395
 3432SOL     OW21754   2.948   2.636   3.746 -0.5224  0.3859  0.1748
 3432SOL    HW121755   3.024   2.691   3.763 -0.4929  0.6344 -0.7843
 3432SOL    HW221756   2.977   2.550   3.716  0.4532  0.2405  1.5423
 3433SOL     OW21757   4.606   3.863  10.148 -0.0145 -0.0989 -0.2859
 3433SOL    HW121758   4.639   3.945  10.111  1.3980 -0.1398  0.8787
 3433SOL    HW221759   4.513   3.876  10.168  0.2780  1.5255 -0.0044
 3434SOL     OW21760   0.952   2.443   6.071  0.4968 -0.6648 -0.0449
 3434SOL    HW121761   0.940   2.475   5.982 -0.8075 -0.5764  0.1592
 3434SOL    HW221762   0.969   2.521   6.124  0.2031 -1.6695  1.5384
 3435SOL     OW21763   1.968   3.343   2.652 -0.0604  0.0247  0.0274
 3435SOL    HW121764   1.884   3.384   2.631 -1.4988 -2.3947  1.1187
 3435SOL    HW221765   2.032   3.403   2.614  2.2019 -3.2056 -1.2340
 3436SOL     OW21766   4.169   2.886   4.039 -0.0904 -0.2187  0.1356
 3436SOL    HW121767   4.256   2.858   4.070 -0.5477  0.2057  1.7729
 3436SOL    HW221768   4.177   2.871   3.945 -1.2826 -1.1196  0.1836
 3437SOL     OW21769   3.979   4.083  17.489 -0.3783  0.3573 -0.2608
 3437SOL    HW121770   3.890   4.048  17.482  0.2632 -1.1939 -0.6040
 3437SOL    HW221771   3.966   4.173  17.520  0.3365  0.9904 -1.8085
 3438SOL     OW21772   4.531   1.016   3.500  0.1985  0.0687 -0.1276
 3438SOL    HW121773   4.472   0.941   3.513 -0.0226  0.1543 -0.6356
 3438SOL    HW221774   4.612   0.995   3.545 -0.5241  1.3023  1.7386
 3439SOL     OW21775   1.237   2.634   4.630  0.2322 -0.0652 -0.4939
 3439SOL    HW121776   1.198   2.707   4.582 -1.4115 -0.7374 -0.1752
 3439SOL    HW221777   1.255   2.577   4.554  0.7021 -0.3259 -0.1901
 3440SOL     OW21778   3.909   1.469   9.169 -0.3480  0.3831 -0.3872
 3440SOL    HW121779   3.878   1.413   9.240 -1.5395  2.4759  0.7337
 3440SOL    HW221780   3.985   1.422   9.135 -0.2433 -1.0790  1.8513
 3441SOL     OW21781   1.206   2.257   3.664  0.0879  0.0575  0.7638
 3441SOL    HW121782   1.236   2.239   3.753  1.8723  0.4809  0.2390
 3441SOL    HW221783   1.236   2.179   3.617 -0.7390  0.2780 -0.1289
 3442SOL     OW21784   3.551   4.244   3.299  0.0024 -0.1760  0.0799
 3442SOL    HW121785   3.577   4.154   3.319 -0.0748 -0.0626  0.7042
 3442SOL    HW221786   3.618   4.301   3.338  0.1075 -2.1081  2.6895
 3443SOL     OW21787   0.394   2.790  13.186  0.9448  0.4038  0.7360
 3443SOL    HW121788   0.355   2.797  13.273 -0.7058 -2.4764  0.1993
 3443SOL    HW221789   0.311   2.777  13.140  0.9323  0.8074  0.6388
 3444SOL     OW21790   2.437   2.082   3.189  0.1117  0.1141 -0.1190
 3444SOL    HW121791   2.500   2.023   3.230  0.5962 -1.6133 -3.3239
 3444SOL    HW221792   2.497   2.126   3.129 -0.0202  1.8360  1.0263
 3445SOL     OW21793   0.112   3.931   5.386  0.0901  0.0521  0.0242
 3445SOL    HW121794   0.095   3.845   5.348 -0.2562 -0.2512  0.8755
 3445SOL    HW221795   0.023   3.957   5.411  0.0097 -1.7458  1.5600
 3446SOL     OW21796   0.898   0.755   9.557 -0.4730  0.2692  0.0679
 3446SOL    HW121797   0.853   0.792   9.481  0.6264  0.7103 -0.3703
 3446SOL    HW221798   0.834   0.711   9.612  0.2297 -0.6224  0.1676
 3447SOL     OW21799   1.030   4.190   0.109 -0.1657  0.0703 -0.2192
 3447SOL    HW121800   1.071   4.250   0.046  0.1024  0.9792  0.8228
 3447SOL    HW221801   0.938   4.211   0.120  0.4955  1.6384  2.4300
 3448SOL     OW21802   0.434   1.572  11.771  0.1898 -0.4043  0.2771
 3448SOL    HW121803   0.360   1.514  11.791  0.6553 -0.5039  1.6546
 3448SOL    HW221804   0.384   1.654  11.769 -0.8791 -1.0754 -0.8642
 3449SOL     OW21805   1.132   3.360   8.803  0.5936  0.5151  0.1535
 3449SOL    HW121806   1.067   3.356   8.873  0.4845  1.3791  0.1060
 3449SOL    HW221807   1.167   3.271   8.805 -0.0891  0.2664  1.1601
 3450SOL     OW21808   3.358   3.631   7.779 -0.0809  0.3972  0.0289
 3450SOL    HW121809   3.301   3.612   7.854  0.5480 -0.2250  0.3524
 3450SOL    HW221810   3.440   3.594   7.813 -1.9451 -0.8066  3.2441
 3451SOL     OW21811   2.738   0.930   1.039 -0.2952 -0.3254 -1.2028
 3451SOL    HW121812   2.808   0.945   1.102 -1.8234  2.6430 -0.2017
 3451SOL    HW221813   2.720   1.020   1.013  0.6513  0.2535  0.1775
 3452SOL     OW21814   3.102   0.404   3.551  0.0163 -0.3150 -0.4348
 3452SOL    HW121815   3.019   0.435   3.588  0.6079  0.6998  0.0693
 3452SOL    HW221816   3.162   0.399   3.625  0.5101 -0.6559 -0.8648
 3453SOL     OW21817   2.199   1.478   3.747 -0.1532  0.5100 -0.2448
 3453SOL    HW121818   2.285   1.450   3.718 -1.6371 -5.4021  0.9372
 3453SOL    HW221819   2.148   1.509   3.672 -0.5166  1.6502  0.4743
 3454SOL     OW21820   4.381   2.564   6.569 -0.0083  0.5423 -0.2438
 3454SOL    HW121821   4.309   2.627   6.574 -0.0304  0.4263  0.8677
 3454SOL    HW221822   4.394   2.562   6.474  1.2476 -0.2937 -0.0496
 3455SOL     OW21823   4.173   2.823   7.427  0.0173  0.3397 -0.2837
 3455SOL    HW121824   4.079   2.816   7.439  0.0162  0.9632  0.0712
 3455SOL    HW221825   4.168   2.910   7.387  2.4112 -0.0954 -1.5549
 3456SOL     OW21826   1.895   4.142  11.007 -0.1914  0.0047 -0.2733
 3456SOL    HW121827   1.861   4.218  11.054  0.5037 -0.5744  1.1481
 3456SOL    HW221828   1.815   4.119  10.959 -0.5737  1.1169 -0.1782
 3457SOL     OW21829   4.636   1.390   1.975  0.2377 -0.3981 -0.4243
 3457SOL    HW121830   4.654   1.448   1.901  0.8618  0.3020  0.2829
 3457SOL    HW221831   4.686   1.428   2.047  1.3029  0.3930 -1.5779
 3458SOL     OW21832   2.175   3.768   4.277 -0.2154 -0.6904  0.1629
 3458SOL    HW121833   2.263   3.749   4.245 -0.9499 -2.8406 -0.6075
 3458SOL    HW221834   2.118   3.729   4.211 -0.7824  0.0866  0.1956
 3459SOL     OW21835   2.790   4.306   0.513  0.0216  0.5774 -0.8185
 3459SOL    HW121836   2.816   4.350   0.594 -0.9953 -1.4891  0.6106
 3459SOL    HW221837   2.726   4.373   0.487 -1.1944 -0.4465 -0.4430
 3460SOL     OW21838   0.369   3.664   9.354 -0.2851 -0.2575  0.3869
 3460SOL    HW121839   0.451   3.619   9.335 -1.0958 -1.3004 -0.6773
 3460SOL    HW221840   0.312   3.587   9.365 -1.7310  0.6737 -0.5559
 3461SOL     OW21841   3.628   3.697   1.495 -0.2959  0.0402  0.6272
 3461SOL    HW121842   3.637   3.613   1.540 -1.5603 -0.0061  0.7785
 3461SOL    HW221843   3.533   3.704   1.505 -0.1789  0.3288  1.5255
 3462SOL     OW21844   4.192   3.101   3.366 -0.3516  0.2503  0.3795
 3462SOL    HW121845   4.111   3.080   3.413 -0.5514  0.4705  0.1367
 3462SOL    HW221846   4.154   3.164   3.305 -1.2983  0.8238  1.5371
 3463SOL     OW21847   3.644   1.912  16.168  0.2133 -0.0878 -0.1066
 3463SOL    HW121848   3.724   1.902  16.117  0.5686  2.4002 -0.0008
 3463SOL    HW221849   3.582   1.921  16.096 -0.7147  0.0282  0.6980
 3464SOL     OW21850   3.442   2.420   8.317  0.4911  0.2437 -0.0298
 3464SOL    HW121851   3.398   2.464   8.245 -0.9537  0.0396  0.7276
 3464SOL    HW221852   3.396   2.339   8.336  0.4586  0.6953  1.8596
 3465SOL     OW21853   1.055   0.153   7.302 -0.3659  0.1487 -0.0361
 3465SOL    HW121854   1.098   0.235   7.328 -2.3931  1.5373 -1.0348
 3465SOL    HW221855   1.128   0.101   7.268  0.4745  0.1868  1.7052
 3466SOL     OW21856   0.005   1.763   7.336 -0.3356 -0.0169  0.3723
 3466SOL    HW121857   0.075   1.698   7.330  1.2140  1.5214  1.7868
 3466SOL    HW221858   4.702   1.765   7.244  2.5310 -1.7751 -0.5016
 3467SOL     OW21859   2.839   3.634   0.156  0.3931  0.1768 -0.8884
 3467SOL    HW121860   2.764   3.685   0.187  1.7756  1.2286  0.7415
 3467SOL    HW221861   2.809   3.604   0.070  3.8475 -2.8146 -1.0442
 3468SOL     OW21862   0.867   3.695  10.047  0.6685  0.3095  0.0477
 3468SOL    HW121863   0.838   3.604  10.060  2.5782 -0.3259 -0.2021
 3468SOL    HW221864   0.782   3.737  10.037  0.0288 -0.6700  1.3453
 3469SOL     OW21865   3.754   3.710   9.786  0.6779 -0.5725 -0.5301
 3469SOL    HW121866   3.740   3.715   9.692  2.9324  2.5518 -0.6950
 3469SOL    HW221867   3.741   3.617   9.804  0.1108 -0.2351  0.8171
 3470SOL     OW21868   4.211   1.879   1.499 -0.0301 -0.0294 -0.3281
 3470SOL    HW121869   4.282   1.897   1.437  1.1836 -1.1803  0.7231
 3470SOL    HW221870   4.147   1.943   1.468  1.7468  2.1086  0.3949
 3471SOL     OW21871   4.676   0.796   2.964 -0.3364 -0.6280  0.5178
 3471SOL    HW121872   4.657   0.765   2.875  1.8974  0.3442 -0.2951
 3471SOL    HW221873   4.625   0.877   2.961  2.3211  1.0647  1.0760
 3472SOL     OW21874   2.013   2.618   9.256  0.6218  0.3843  0.2060
 3472SOL    HW121875   2.052   2.594   9.172 -2.1388  0.2761 -1.0265
 3472SOL    HW221876   1.928   2.650   9.227  0.3710  2.3480  3.1288
 3473SOL     OW21877   3.031   1.323   8.976 -0.0425 -0.5429 -0.4441
 3473SOL    HW121878   3.098   1.368   9.028  0.9096 -0.5628 -1.6409
 3473SOL    HW221879   2.992   1.395   8.927 -1.3538  0.2213  1.7500
 3474SOL     OW21880   0.525   1.871   1.677  0.2349  0.3383 -0.5747
 3474SOL    HW121881   0.496   1.919   1.755 -1.0002 -1.8900  0.3478
 3474SOL    HW221882   0.620   1.888   1.679  0.2930  0.1490 -1.7127
 3475SOL     OW21883   2.770   0.810   8.923 -0.2430 -0.2612  0.6390
 3475SOL    HW121884   2.844   0.869   8.908  0.3986 -1.4203 -0.7668
 3475SOL    HW221885   2.709   0.862   8.975  1.1457  1.5548  0.4665
 3476SOL     OW21886   4.025   1.247   4.246  0.2801 -0.2030  0.3725
 3476SOL    HW121887   4.104   1.289   4.280  1.1426 -3.0321  1.8495
 3476SOL    HW221888   4.057   1.165   4.210  2.9509  0.7127  0.6315
 3477SOL     OW21889   2.336   3.678   0.237  0.7010 -0.0490 -0.1786
 3477SOL    HW121890   2.403   3.735   0.275 -0.1592 -0.9841  2.7386
 3477SOL    HW221891   2.354   3.593   0.278  0.5284  0.0248  0.0517
 3478SOL     OW21892   2.704   4.467   4.331  0.2668  0.0846 -0.0772
 3478SOL    HW121893   2.725   4.559   4.312  1.7846 -0.4375 -0.8868
 3478SOL    HW221894   2.779   4.426   4.290 -0.1407  1.3643 -2.1343
 3479SOL     OW21895   4.652   3.891   8.628 -0.7693 -0.6914  0.0059
 3479SOL    HW121896   4.631   3.893   8.721 -1.1632  0.4031 -0.1071
 3479SOL    HW221897   4.721   3.827   8.640 -0.7058 -0.4433  1.0069
 3480SOL     OW21898   2.436   1.573  12.925  0.1395  0.2989  0.4795
 3480SOL    HW121899   2.394   1.503  12.974  0.3395  0.0011  0.2261
 3480SOL    HW221900   2.521   1.531  12.932  0.6220  1.1280 -0.3063
 3481SOL     OW21901   2.319   4.542   3.157 -0.3614  0.0132  0.0707
 3481SOL    HW121902   2.239   4.533   3.106 -0.3682 -0.7932  0.2233
 3481SOL    HW221903   2.383   4.569   3.091 -1.5478  0.9483 -0.6942
 3482SOL     OW21904   4.582   2.455   2.343  0.4918 -0.0441  0.2491
 3482SOL    HW121905   4.580   2.475   2.437  1.3410  1.4101 -0.0339
 3482SOL    HW221906   4.659   2.501   2.308  0.6193 -0.5023 -0.0669
 3483SOL     OW21907   3.845   0.652  11.670 -0.1551  0.3310 -0.4831
 3483SOL    HW121908   3.807   0.575  11.629  0.5769 -0.2724 -0.0223
 3483SOL    HW221909   3.770   0.712  11.675 -0.4424 -0.2047  1.7467
 3484SOL     OW21910   1.083   1.222   9.040  0.5291  0.3971  0.0494
 3484SOL    HW121911   1.115   1.245   8.953 -1.7032  0.7673 -0.6852
 3484SOL    HW221912   1.047   1.307   9.064  0.0506 -0.2844  1.7242
 3485SOL     OW21913   2.559   2.805   3.639  0.0061  0.5123 -0.3652
 3485SOL    HW121914   2.484   2.864   3.632 -0.7647 -0.4914 -0.4776
 3485SOL    HW221915   2.524   2.725   3.601  2.8795 -0.6566 -0.5474
 3486SOL     OW21916   1.926   1.860   3.032  0.0862  0.4159  0.1401
 3486SOL    HW121917   1.878   1.809   3.096 -0.9742  1.3967  0.1436
 3486SOL    HW221918   2.016   1.831   3.035  1.0220  3.2437 -0.2153
 3487SOL     OW21919   0.651   0.921   5.608 -0.0375 -0.1706  0.1475
 3487SOL    HW121920   0.605   0.966   5.679 -1.4320 -1.1105 -0.1720
 3487SOL    HW221921   0.731   0.972   5.594 -1.7758  2.4751 -0.1436
 3488SOL     OW21922   0.760   1.584   3.489  0.2219  0.3735  0.5606
 3488SOL    HW121923   0.791   1.635   3.565  0.7120 -0.4902  0.9387
 3488SOL    HW221924   0.811   1.504   3.502  0.1447  0.1448 -0.5665
 3489SOL     OW21925   3.146   1.135   3.744 -0.2055 -0.3229 -0.0353
 3489SOL    HW121926   3.241   1.136   3.738 -0.3111  1.8845 -1.3095
 3489SOL    HW221927   3.132   1.096   3.658 -0.1701  0.3356 -0.3364
 3490SOL     OW21928   2.971   4.584  16.345 -0.6734  0.1927 -0.1363
 3490SOL    HW121929   2.944   4.631  16.267 -1.1811 -1.0768 -0.7253
 3490SOL    HW221930   3.056   4.548  16.318 -0.2298  2.7970 -2.1476
 3491SOL     OW21931   1.349   0.087   7.362 -0.4355 -0.4290  0.4619
 3491SOL    HW121932   1.398   0.144   7.420  0.2234  0.9331 -1.4519
 3491SOL    HW221933   1.417   0.032   7.323 -0.7479 -1.9844  2.0667
 3492SOL     OW21934   2.353   0.533   6.913 -0.2265 -1.0724  0.2313
 3492SOL    HW121935   2.380   0.472   6.981 -0.7203 -2.3082 -0.6927
 3492SOL    HW221936   2.387   0.511   6.827  0.8873  1.0332  0.1199
 3493SOL     OW21937   4.112   2.183   4.750  0.4548 -0.2836  0.0820
 3493SOL    HW121938   4.033   2.196   4.698  0.9956 -0.0045 -0.6654
 3493SOL    HW221939   4.093   2.241   4.824  2.2365  0.1169  0.2292
 3494SOL     OW21940   0.183   0.319   6.248 -1.0032 -0.1780 -0.4322
 3494SOL    HW121941   0.240   0.250   6.214  1.2433  0.6480  1.6519
 3494SOL    HW221942   0.134   0.339   6.169 -0.0811  1.2351 -0.6571
 3495SOL     OW21943   1.329   0.892   5.869 -0.0267 -0.4878 -0.1627
 3495SOL    HW121944   1.249   0.941   5.850  0.3659 -0.7920 -2.6076
 3495SOL    HW221945   1.298   0.813   5.913  1.3471 -1.8923 -1.7445
 3496SOL     OW21946   3.421   2.280   9.858 -0.2208  0.2407  0.0895
 3496SOL    HW121947   3.472   2.200   9.844  0.6152  0.3150  2.7270
 3496SOL    HW221948   3.367   2.253   9.932 -3.7312  0.4550 -2.3973
 3497SOL     OW21949   3.649   2.052  15.569 -0.1093  0.2715  0.4893
 3497SOL    HW121950   3.682   2.000  15.496 -1.9916 -0.7710  0.3666
 3497SOL    HW221951   3.655   2.141  15.534 -0.6043  0.4749  0.9151
 3498SOL     OW21952   3.211   3.485  10.709  0.0828  0.7185 -0.5488
 3498SOL    HW121953   3.136   3.461  10.764  0.1556  1.0183 -0.3195
 3498SOL    HW221954   3.209   3.578  10.728  1.9134  0.9801 -1.5642
 3499SOL     OW21955   4.599   2.489  16.093  0.2234  0.3068  0.1765
 3499SOL    HW121956   4.649   2.523  16.019  2.6159 -0.8983  1.2181
 3499SOL    HW221957   4.564   2.562  16.144  0.7804  0.9746 -0.3958
 3500SOL     OW21958   2.785   0.609   8.374  0.6070 -0.2080 -0.3003
 3500SOL    HW121959   2.793   0.568   8.460  1.5692 -1.2003 -0.8568
 3500SOL    HW221960   2.770   0.702   8.390  0.4247 -0.6470  1.9825
 3501SOL     OW21961   2.386   3.006   3.823 -0.1264 -0.1345  0.1791
 3501SOL    HW121962   2.336   3.001   3.742  1.1080 -1.5227 -0.5013
 3501SOL    HW221963   2.466   3.055   3.803 -0.6669  0.4674 -0.4951
 3502SOL     OW21964   3.983   4.247   8.330 -0.1840 -0.6034  0.3446
 3502SOL    HW121965   3.968   4.342   8.330 -1.3683 -0.7921 -0.6775
 3502SOL    HW221966   4.026   4.242   8.416 -0.1391 -1.6538  0.2613
 3503SOL     OW21967   1.629   3.571  16.434  0.2360 -0.3562 -0.2009
 3503SOL    HW121968   1.568   3.613  16.495 -0.0930 -1.0814 -0.0403
 3503SOL    HW221969   1.679   3.514  16.491 -0.4748 -1.4248 -0.6447
 3504SOL     OW21970   4.234   0.870   2.569  0.6924  0.2354 -0.0495
 3504SOL    HW121971   4.312   0.924   2.554  2.1258 -2.4847 -2.3491
 3504SOL    HW221972   4.260   0.809   2.637 -0.4956  0.7249  0.8530
 3505SOL     OW21973   1.866   1.386   4.985 -0.4041 -0.2945  0.4612
 3505SOL    HW121974   1.850   1.340   5.068  1.4190  1.3679  1.7204
 3505SOL    HW221975   1.795   1.447   4.969 -1.2522 -1.5989 -0.7907
 3506SOL     OW21976   4.122   3.850   4.133 -0.6452 -0.2717 -0.4647
 3506SOL    HW121977   4.185   3.800   4.082 -2.0826  0.1682 -2.6735
 3506SOL    HW221978   4.049   3.789   4.146 -1.5897  1.2897  1.5736
 3507SOL     OW21979   3.790   4.467   7.748 -0.0720  0.2369 -0.3908
 3507SOL    HW121980   3.755   4.470   7.837  0.0384  1.5906 -0.4047
 3507SOL    HW221981   3.884   4.479   7.761 -0.0246 -1.2638  0.6617
 3508SOL     OW21982   3.255   0.233   1.156  0.6424 -0.2559  0.2557
 3508SOL    HW121983   3.196   0.178   1.207  1.3691  1.5384  2.9784
 3508SOL    HW221984   3.328   0.238   1.217 -1.4798  5.0114  2.3391
 3509SOL     OW21985   4.014   1.655   2.932 -0.0997  0.3662 -0.0440
 3509SOL    HW121986   3.971   1.613   2.857 -0.2346 -0.1924  0.3495
 3509SOL    HW221987   4.057   1.578   2.969 -1.0212 -1.4386 -2.7405
 3510SOL     OW21988   4.623   1.487  15.325  0.4374 -0.5078  0.2921
 3510SOL    HW121989   4.685   1.552  15.293 -2.7460  2.7211  0.6837
 3510SOL    HW221990   4.659   1.408  15.285 -1.4527 -0.4120 -1.6267
 3511SOL     OW21991   2.380   0.914   7.041 -0.4508  0.1508  0.4719
 3511SOL    HW121992   2.463   0.928   6.996  0.3948  0.4748  2.1389
 3511SOL    HW221993   2.419   0.876   7.120  0.6586  1.5152  0.5714
 3512SOL     OW21994   1.790   4.375  11.201 -0.5861  0.5802  0.2271
 3512SOL    HW121995   1.711   4.428  11.210 -0.5658  1.4002 -4.5661
 3512SOL    HW221996   1.847   4.399  11.273 -1.8074 -0.7700  1.6403
 3513SOL     OW21997   4.196   3.591   7.554  0.0733  0.5423 -0.7264
 3513SOL    HW121998   4.263   3.524   7.542  1.0627  1.3201  0.5136
 3513SOL    HW221999   4.195   3.581   7.649 -1.0922 -0.1423 -0.8074
 3514SOL     OW22000   1.594   4.149   2.400  0.3524 -0.1762 -0.1273
 3514SOL    HW122001   1.610   4.066   2.445 -0.7192 -0.2496  0.1044
 3514SOL    HW222002   1.568   4.206   2.472  0.1350  1.4269 -1.4746
 3515SOL     OW22003   0.236   1.381   5.449  0.1997  0.3649  0.0867
 3515SOL    HW122004   0.250   1.379   5.354 -0.0371 -0.9218  0.0807
 3515SOL    HW222005   0.293   1.306   5.468  0.8908  0.5805 -1.1414
 3516SOL     OW22006   4.593   4.599   4.795 -0.0800  0.3458  0.3960
 3516SOL    HW122007   4.588   4.612   4.890 -1.4017  0.6531  0.2872
 3516SOL    HW222008   4.616   4.691   4.781 -1.0407  0.4483 -0.4840
 3517SOL     OW22009   2.699   4.619   1.773 -0.1342  0.5867  0.0262
 3517SOL    HW122010   2.657   4.703   1.753 -1.8738  0.2119  2.1152
 3517SOL    HW222011   2.676   4.570   1.694  1.5050 -0.5729  0.2583
 3518SOL     OW22012   1.279   2.409  11.230 -0.2379  0.4122  0.1217
 3518SOL    HW122013   1.351   2.372  11.178 -1.9348  0.2548 -2.1211
 3518SOL    HW222014   1.202   2.362  11.200 -0.1124 -0.4335  1.1432
 3519SOL     OW22015   2.233   2.699   5.321  0.8874 -0.5159  0.1034
 3519SOL    HW122016   2.219   2.758   5.395 -1.2126  1.1692 -1.6513
 3519SOL    HW222017   2.184   2.749   5.256 -0.1304 -1.6202  0.0294
 3520SOL     OW22018   1.451   1.825   8.687  0.1189  0.3453  0.5459
 3520SOL    HW122019   1.434   1.870   8.604 -2.9164  1.0309  1.5354
 3520SOL    HW222020   1.431   1.891   8.753  0.0401 -0.0976  0.9698
 3521SOL     OW22021   2.537   1.331   3.163  0.6180 -0.1896 -0.2904
 3521SOL    HW122022   2.470   1.268   3.139  1.6226 -0.6994 -1.7453
 3521SOL    HW222023   2.494   1.404   3.119  1.7882  0.4640 -0.3518
 3522SOL     OW22024   3.461   3.205   4.648  0.2489 -0.5796 -0.1333
 3522SOL    HW122025   3.367   3.187   4.656 -0.1644  0.5899 -2.3954
 3522SOL    HW222026   3.472   3.292   4.609  2.2509 -0.6232  0.3249
 3523SOL     OW22027   0.270   2.958   6.318  0.0827  0.1033 -0.1468
 3523SOL    HW122028   0.193   2.905   6.341 -0.3678  0.0920 -1.6618
 3523SOL    HW222029   0.343   2.907   6.354 -0.6933 -2.6604 -2.3952
 3524SOL     OW22030   1.392   0.879  12.239 -0.4510  0.3504  0.2436
 3524SOL    HW122031   1.477   0.839  12.254  0.2117  0.5384 -2.8520
 3524SOL    HW222032   1.359   0.824  12.167 -3.1609  1.3198  0.7268
 3525SOL     OW22033   4.261   0.518   7.711 -0.6898 -0.7590 -0.6140
 3525SOL    HW122034   4.289   0.566   7.789  1.1563  1.9598 -2.9418
 3525SOL    HW222035   4.257   0.431   7.750 -3.0682 -1.5632 -2.7048
 3526SOL     OW22036   0.813   1.209   7.515  1.0668 -0.2496  0.1868
 3526SOL    HW122037   0.863   1.153   7.575 -0.7385 -2.2370 -0.1977
 3526SOL    HW222038   0.846   1.180   7.430 -0.4958  0.7728 -0.7665
 3527SOL     OW22039   3.216   2.232  13.699  0.2483 -0.6021 -0.5970
 3527SOL    HW122040   3.252   2.148  13.672  1.4741  0.6568 -2.8826
 3527SOL    HW222041   3.254   2.244  13.786  0.3188 -0.1383 -0.6929
 3528SOL     OW22042   0.948   1.864   6.216  0.0058  0.1297  0.1024
 3528SOL    HW122043   0.962   1.861   6.121 -0.2314  3.3079 -0.0531
 3528SOL    HW222044   0.859   1.831   6.223 -0.0805 -0.1972 -2.5793
 3529SOL     OW22045   1.529   2.956   2.863 -0.5800 -0.4235  0.3849
 3529SOL    HW122046   1.486   3.026   2.913  0.4492 -0.1901  0.9295
 3529SOL    HW222047   1.462   2.930   2.800  1.4417  1.9679 -2.7507
 3530SOL     OW22048   0.895   4.022   6.509 -0.2022  0.0177 -0.1846
 3530SOL    HW122049   0.929   4.041   6.422  2.2290  1.2403  1.0321
 3530SOL    HW222050   0.970   3.969   6.533 -0.8272 -1.1596 -0.8278
 3531SOL     OW22051   1.122   0.286   5.667  0.5604  0.5302  0.2420
 3531SOL    HW122052   1.181   0.361   5.674  0.6929  0.6844 -2.6924
 3531SOL    HW222053   1.042   0.339   5.675 -1.8629 -2.8640 -1.2776
 3532SOL     OW22054   3.414   4.074   4.428  0.4789 -0.3611 -0.0148
 3532SOL    HW122055   3.349   4.072   4.498  1.0050  0.7133  0.5152
 3532SOL    HW222056   3.462   4.155   4.448 -0.6373  1.0045 -2.8427
 3533SOL     OW22057   2.262   3.290  13.572  0.1990 -0.1885  0.1361
 3533SOL    HW122058   2.290   3.379  13.553  2.1162 -0.6893  0.6361
 3533SOL    HW222059   2.337   3.242  13.536  0.9739  1.9005 -1.0476
 3534SOL     OW22060   0.402   2.362   7.663  0.4135  0.1467 -0.0322
 3534SOL    HW122061   0.417   2.383   7.570 -0.3317 -0.9725 -0.4100
 3534SOL    HW222062   0.316   2.404   7.664 -0.1296 -0.9889  0.1878
 3535SOL     OW22063   2.539   0.902   8.064 -0.1756  0.2070 -0.6219
 3535SOL    HW122064   2.580   0.817   8.045 -1.0452 -0.5112  0.6782
 3535SOL    HW222065   2.582   0.923   8.147  0.3198  0.1803 -0.8710
 3536SOL     OW22066   3.214   4.139   3.153  0.3883  0.0855 -0.1807
 3536SOL    HW122067   3.178   4.061   3.195 -0.9203  0.8466  0.1043
 3536SOL    HW222068   3.217   4.197   3.229  0.0874 -0.5027  0.2775
 3537SOL     OW22069   0.620   4.428   6.637  0.3075  0.0633 -0.1993
 3537SOL    HW122070   0.647   4.381   6.715 -0.1693  1.7897  1.0052
 3537SOL    HW222071   0.614   4.515   6.677 -0.9093  0.1100 -0.4928
 3538SOL     OW22072   0.376   1.307   2.815  0.1006 -0.3440  0.2251
 3538SOL    HW122073   0.372   1.328   2.908 -0.6925 -2.1462  0.6053
 3538SOL    HW222074   0.302   1.247   2.804  0.1147 -0.7486  2.3232
 3539SOL     OW22075   1.353   3.151  16.025 -0.7385  0.4542  0.2355
 3539SOL    HW122076   1.438   3.163  15.983 -0.6141  1.4699  0.7686
 3539SOL    HW222077   1.321   3.075  15.977  0.2257 -0.6438  1.3255
 3540SOL     OW22078   4.429   0.113   9.356  0.0740 -0.2116  0.1373
 3540SOL    HW122079   4.444   0.196   9.402  0.9952 -1.2916  1.7867
 3540SOL    HW222080   4.516   0.078   9.342  1.3605  2.1310  2.1674
 3541SOL     OW22081   2.281   1.541   0.925  0.0081  0.0154  0.0266
 3541SOL    HW122082   2.323   1.613   0.972  2.3306 -1.1046 -0.3560
 3541SOL    HW222083   2.278   1.569   0.833  1.0202  0.0028 -0.0101
 3542SOL     OW22084   3.872   4.100   1.920 -0.2161 -0.2562  0.1649
 3542SOL    HW122085   3.781   4.070   1.925 -0.0678 -1.0515 -1.8211
 3542SOL    HW222086   3.883   4.124   2.012 -0.9138 -0.1707  0.2258
 3543SOL     OW22087   2.593   2.113  16.161 -0.5443  0.4854  0.2432
 3543SOL    HW122088   2.588   2.181  16.228 -1.2905 -0.7835  1.4551
 3543SOL    HW222089   2.549   2.048  16.215  1.3205 -1.9052 -1.0972
 3544SOL     OW22090   0.320   3.167   5.131 -0.2929  0.2354 -0.0395
 3544SOL    HW122091   0.298   3.077   5.156 -1.2220 -0.4137 -3.2094
 3544SOL    HW222092   0.244   3.189   5.078  0.0208 -1.3233 -1.1506
 3545SOL     OW22093   1.017   0.570  14.359  0.2604  0.0544 -0.4012
 3545SOL    HW122094   1.079   0.512  14.315  3.6349  4.7433 -1.7525
 3545SOL    HW222095   0.942   0.512  14.374  0.8166 -0.0986  1.8828
 3546SOL     OW22096   4.657   3.921   4.032  0.3889 -0.0333 -0.1663
 3546SOL    HW122097   4.694   3.947   4.117  0.1419  0.2479 -0.1458
 3546SOL    HW222098   4.682   3.828   4.035 -0.2721 -0.2891 -2.8779
 3547SOL     OW22099   0.074   1.449  12.883  0.6412 -0.2695 -0.0114
 3547SOL    HW122100   0.143   1.400  12.928  1.7912 -0.0171 -1.5203
 3547SOL    HW222101   0.121   1.511  12.828 -0.4956  1.1293  0.5886
 3548SOL     OW22102   1.801   4.046   2.233 -0.2470  0.2343  0.2277
 3548SOL    HW122103   1.729   4.084   2.282 -0.3976  0.8809 -0.4869
 3548SOL    HW222104   1.770   3.956   2.231  0.1129  0.1198 -0.3974
 3549SOL     OW22105   1.890   1.880   2.747 -0.1079 -0.3870 -0.4783
 3549SOL    HW122106   1.969   1.933   2.748 -0.8495  0.7070 -0.4266
 3549SOL    HW222107   1.891   1.864   2.841 -1.9746  3.2599  0.1469
 3550SOL     OW22108   1.569   1.420  14.390  0.0492 -0.8686 -0.1517
 3550SOL    HW122109   1.655   1.413  14.347  0.1245 -0.2260 -0.1146
 3550SOL    HW222110   1.591   1.411  14.483 -0.6504 -1.3612 -0.0430
 3551SOL     OW22111   4.172   3.170   6.929 -0.3774  0.2957  0.5556
 3551SOL    HW122112   4.209   3.118   7.000  1.4264  2.3036  1.0848
 3551SOL    HW222113   4.254   3.212   6.906  0.4216 -1.7221 -0.2620
 3552SOL     OW22114   3.256   4.615   8.420  0.0112 -0.1888  0.0238
 3552SOL    HW122115   3.264   4.664   8.502  1.5683  2.8022 -1.9491
 3552SOL    HW222116   3.274   4.527   8.454  1.6031 -0.1502 -0.7083
 3553SOL     OW22117   1.308   0.718  12.983  0.4605 -0.6108  0.6194
 3553SOL    HW122118   1.341   0.662  12.912 -1.9937 -0.4771 -0.6359
 3553SOL    HW222119   1.316   0.655  13.055 -3.8575 -1.2270  0.5477
 3554SOL     OW22120   2.088   3.395   2.171  0.0905  0.3524  0.3870
 3554SOL    HW122121   2.183   3.401   2.162 -0.1201  0.8454 -1.5062
 3554SOL    HW222122   2.082   3.320   2.230  0.3621  1.0167  1.2739
 3555SOL     OW22123   3.175   2.288  12.321 -0.1882  0.0662 -0.0182
 3555SOL    HW122124   3.136   2.328  12.399 -0.1373  2.2835 -1.1371
 3555SOL    HW222125   3.175   2.197  12.351  1.0610 -0.3095 -1.1564
 3556SOL     OW22126   2.994   2.216   6.890 -0.8638 -0.3383  0.0703
 3556SOL    HW122127   3.052   2.205   6.815  2.4691  2.9663  2.1443
 3556SOL    HW222128   3.006   2.309   6.906 -2.6427 -0.0839 -0.1463
 3557SOL     OW22129   1.292   2.033   4.283  0.2718 -0.2690  0.6280
 3557SOL    HW122130   1.289   1.988   4.367  0.1002 -1.0076  0.2319
 3557SOL    HW222131   1.381   2.017   4.251  0.4000 -2.2141  1.9488
 3558SOL     OW22132   3.146   4.484   3.834 -0.2726 -0.1757 -0.0769
 3558SOL    HW122133   3.198   4.408   3.858 -2.2674 -1.8860 -1.1446
 3558SOL    HW222134   3.127   4.512   3.924 -1.4313 -0.3949 -0.2561
 3559SOL     OW22135   3.057   2.263  11.222 -0.2728 -0.3990  0.1532
 3559SOL    HW122136   3.124   2.311  11.270 -0.1684  0.3019 -0.6860
 3559SOL    HW222137   3.065   2.180  11.268 -1.7394 -1.1372 -0.9163
 3560SOL     OW22138   0.238   1.798   9.432  0.5090  0.2607 -0.4010
 3560SOL    HW122139   0.238   1.741   9.355 -2.6929 -0.3864  0.0927
 3560SOL    HW222140   0.330   1.798   9.459  0.2009  0.2106  0.6672
 3561SOL     OW22141   2.377   0.729   4.107 -0.0599  0.4449  0.2361
 3561SOL    HW122142   2.436   0.798   4.136 -1.1760  1.4495  0.1192
 3561SOL    HW222143   2.321   0.777   4.046 -0.8955 -0.5952  0.1790
 3562SOL     OW22144   1.084   4.378   3.004 -0.0108 -0.4103 -0.0535
 3562SOL    HW122145   1.022   4.366   2.931  1.1321  2.8413 -1.5758
 3562SOL    HW222146   1.025   4.363   3.078  1.6982  1.9122  1.7817
 3563SOL     OW22147   0.081   1.361   3.966 -0.3279 -0.3516  0.2596
 3563SOL    HW122148   0.086   1.373   4.060  1.7186  1.9292 -0.1219
 3563SOL    HW222149   0.161   1.311   3.949  0.2908  1.2274 -1.5007
 3564SOL     OW22150   1.327   4.611   0.998  0.5525 -0.3378  0.0475
 3564SOL    HW122151   1.334   4.629   0.905 -2.6720  2.8531  0.4289
 3564SOL    HW222152   1.343   4.696   1.038  0.8439 -0.4056  0.0789
 3565SOL     OW22153   4.267   4.261   8.947 -0.1864 -0.1670  0.2249
 3565SOL    HW122154   4.187   4.235   8.902  0.8163 -2.1444 -0.4344
 3565SOL    HW222155   4.284   4.192   9.011 -0.3709  0.9053  1.4173
 3566SOL     OW22156   4.364   1.982   3.092 -0.0905  0.2106  0.1228
 3566SOL    HW122157   4.287   1.940   3.054  0.9599 -1.8763  0.2705
 3566SOL    HW222158   4.422   1.990   3.016  0.8548  0.2952  0.8467
 3567SOL     OW22159   4.588   2.502  11.749 -0.3722 -0.4362  0.0722
 3567SOL    HW122160   4.500   2.467  11.748 -0.4654 -0.1707 -1.1295
 3567SOL    HW222161   4.575   2.584  11.700  2.1099  0.4810  0.9245
 3568SOL     OW22162   0.482   2.080   2.507  0.0693 -0.2216  0.0955
 3568SOL    HW122163   0.521   2.012   2.453  1.0949 -0.5280  1.2310
 3568SOL    HW222164   0.558   2.128   2.539 -1.6305  3.2177 -1.0066
 3569SOL     OW22165   2.075   2.475   8.745 -0.3081 -0.0426 -0.2900
 3569SOL    HW122166   1.996   2.462   8.693 -1.7645 -0.6213  2.0198
 3569SOL    HW222167   2.059   2.563   8.779 -2.9776  0.4247 -2.7858
 3570SOL     OW22168   3.149   0.621  16.766  0.2276  0.2920 -0.1450
 3570SOL    HW122169   3.242   0.634  16.782  0.3264 -1.3124  0.5885
 3570SOL    HW222170   3.149   0.526  16.770 -0.6509  0.2306 -1.4552
 3571SOL     OW22171   2.851   0.679   2.795 -0.0106  0.4853 -0.2022
 3571SOL    HW122172   2.762   0.686   2.761  0.3625  1.2333 -0.9969
 3571SOL    HW222173   2.831   0.638   2.880  3.5038  0.9942  0.8597
 3572SOL     OW22174   3.403   1.040   3.772  0.2442  0.2623 -0.0455
 3572SOL    HW122175   3.380   0.947   3.767 -1.6413  0.6427  1.9891
 3572SOL    HW222176   3.431   1.036   3.863  0.6985 -5.1069 -0.4118
 3573SOL     OW22177   1.983   3.930  17.132  0.2244 -0.1854  0.4783
 3573SOL    HW122178   1.904   3.878  17.119  0.0029  0.2476  0.0789
 3573SOL    HW222179   2.040   3.875  17.186  1.1479  1.5922  1.3092
 3574SOL     OW22180   2.110   4.127   3.386 -0.5712  0.3378  0.4336
 3574SOL    HW122181   2.158   4.157   3.309  1.4143 -0.1874  1.4457
 3574SOL    HW222182   2.060   4.051   3.356  1.4008 -0.8905  0.2137
 3575SOL     OW22183   4.689   3.739   0.596 -0.6716  0.0032  0.4414
 3575SOL    HW122184   4.691   3.797   0.672 -0.2944 -0.7022  0.9740
 3575SOL    HW222185   0.018   3.783   0.529 -1.1802 -1.5963 -0.9910
 3576SOL     OW22186   3.789   3.193   6.238 -0.4389 -0.1566 -0.2397
 3576SOL    HW122187   3.857   3.163   6.298 -2.0911  0.0157  1.6925
 3576SOL    HW222188   3.712   3.211   6.291 -0.4434 -1.9498  0.3580
 3577SOL     OW22189   1.084   1.139   0.700  0.2822  0.1610  0.4595
 3577SOL    HW122190   1.032   1.139   0.619  0.8425  1.2446  0.1175
 3577SOL    HW222191   1.072   1.049   0.732 -0.9274  0.3265  0.4843
 3578SOL     OW22192   2.405   2.352   6.620 -0.1498 -1.4798  0.1623
 3578SOL    HW122193   2.494   2.321   6.634 -0.2655 -0.6378  2.7513
 3578SOL    HW222194   2.411   2.434   6.669 -0.4643 -0.5761 -1.3239
 3579SOL     OW22195   0.226   3.000  15.414 -0.0871  0.0015  0.4169
 3579SOL    HW122196   0.258   2.920  15.457  0.0537  0.4757  1.2092
 3579SOL    HW222197   0.302   3.029  15.363  0.6663 -0.5581  1.2149
 3580SOL     OW22198   1.693   1.150  10.661 -0.6366  0.3893 -0.7582
 3580SOL    HW122199   1.602   1.152  10.633 -0.8830 -0.4801 -0.0377
 3580SOL    HW222200   1.680   1.080  10.725 -1.3605  0.1124 -1.2112
 3581SOL     OW22201   4.137   1.992   5.976  0.4900  0.4996  0.4644
 3581SOL    HW122202   4.110   2.023   5.889  0.2908 -0.9383  0.0104
 3581SOL    HW222203   4.230   2.006   5.961  0.4265 -1.1675 -1.5941
 3582SOL     OW22204   2.603   4.044  15.310  0.3716 -0.3748  0.0368
 3582SOL    HW122205   2.640   3.999  15.234  1.4575  1.2466 -0.4004
 3582SOL    HW222206   2.674   4.080  15.363  1.1369  0.1054 -1.3160
 3583SOL     OW22207   4.336   0.934   5.906  0.6414 -0.0940 -0.4880
 3583SOL    HW122208   4.397   0.974   5.968 -0.0820  0.9625 -0.4548
 3583SOL    HW222209   4.397   0.937   5.832  1.2513 -2.8353 -0.1159
 3584SOL     OW22210   1.124   3.638   9.480 -0.3088  0.6551 -0.3494
 3584SOL    HW122211   1.164   3.677   9.402  2.0893 -0.8752  0.1135
 3584SOL    HW222212   1.045   3.691   9.491 -0.9674 -0.0398 -1.6794
 3585SOL     OW22213   3.099   3.054   3.102  0.0187  0.7645 -0.3404
 3585SOL    HW122214   3.077   3.147   3.102 -0.4398  0.6607  0.6725
 3585SOL    HW222215   3.123   3.027   3.014 -2.9912 -2.3118 -0.1992
 3586SOL     OW22216   1.796   1.403  11.544 -0.5021  0.0450 -0.5690
 3586SOL    HW122217   1.713   1.380  11.584 -0.9850  0.0591 -1.5587
 3586SOL    HW222218   1.820   1.334  11.482 -0.9313  0.8687 -1.6478
 3587SOL     OW22219   1.565   0.452   4.751  0.1797  0.9191 -0.3477
 3587SOL    HW122220   1.511   0.490   4.821 -0.0170  0.3572 -0.1979
 3587SOL    HW222221   1.494   0.435   4.689 -0.0376  2.0582 -0.4094
 3588SOL     OW22222   1.662   0.561   3.956 -0.0436  0.2774 -0.3172
 3588SOL    HW122223   1.711   0.480   3.971 -1.1324 -0.0744  1.3339
 3588SOL    HW222224   1.737   0.602   3.912  0.3915  0.5891  0.7108
 3589SOL     OW22225   2.678   3.152   7.367 -0.0673  0.1781  0.2220
 3589SOL    HW122226   2.746   3.190   7.313  0.3707 -2.2539 -0.9225
 3589SOL    HW222227   2.714   3.162   7.455  1.8636 -2.4078 -0.3001
 3590SOL     OW22228   3.255   4.241   6.019 -0.0973  0.0666 -0.4310
 3590SOL    HW122229   3.258   4.337   6.024 -0.4422  0.1562 -2.2943
 3590SOL    HW222230   3.345   4.211   6.031 -0.1539  0.9685  2.2427
 3591SOL     OW22231   3.518   2.865   1.295  0.2966  0.1784 -0.3215
 3591SOL    HW122232   3.430   2.831   1.281  0.0958 -0.0835  1.5190
 3591SOL    HW222233   3.498   2.959   1.300  1.4935  0.4421 -0.4361
 3592SOL     OW22234   1.265   4.127   8.416  0.0131  0.0888 -0.7369
 3592SOL    HW122235   1.268   4.040   8.377  1.2619 -0.1165 -0.1742
 3592SOL    HW222236   1.309   4.106   8.498 -0.5560  1.6176 -0.0327
 3593SOL     OW22237   3.548   1.785   3.197 -0.2061 -0.1650  0.7035
 3593SOL    HW122238   3.509   1.736   3.125  0.9709 -0.3898  0.2173
 3593SOL    HW222239   3.641   1.766   3.185  0.0143  1.1171  0.3696
 3594SOL     OW22240   3.462   2.126   5.366 -0.2070 -0.4078  0.3398
 3594SOL    HW122241   3.390   2.136   5.429 -1.0184 -0.7122 -0.5446
 3594SOL    HW222242   3.522   2.193   5.398  0.8853 -1.5261  0.6515
 3595SOL     OW22243   1.745   1.735   9.238  0.3502  0.4411  0.0789
 3595SOL    HW122244   1.724   1.641   9.239 -1.8414  0.9224 -0.9221
 3595SOL    HW222245   1.739   1.761   9.330  0.1873 -0.9949  0.4738
 3596SOL     OW22246   2.429   3.447  11.581 -0.7005 -0.3381  0.1070
 3596SOL    HW122247   2.516   3.409  11.594 -0.8606 -1.0569 -0.9994
 3596SOL    HW222248   2.391   3.433  11.668  0.6220 -0.2464  0.7117
 3597SOL     OW22249   3.149   2.487  12.987  0.5239  0.1648  0.4115
 3597SOL    HW122250   3.185   2.449  12.907  2.9239  0.1328  1.5009
 3597SOL    HW222251   3.131   2.578  12.966  1.3410 -0.7824 -4.2642
 3598SOL     OW22252   0.448   3.470   5.520  0.3562  0.1129  0.0838
 3598SOL    HW122253   0.470   3.453   5.428 -2.8838 -1.5623 -0.3826
 3598SOL    HW222254   0.439   3.565   5.526  1.0326  0.2089 -0.4975
 3599SOL     OW22255   1.789   4.109  10.482 -0.4705 -0.4742 -0.1898
 3599SOL    HW122256   1.725   4.179  10.468  0.3931  0.3702  0.0645
 3599SOL    HW222257   1.818   4.092  10.393 -0.1828  0.7653 -0.3290
 3600SOL     OW22258   1.609   2.640   2.458 -0.0929 -0.4568 -0.1117
 3600SOL    HW122259   1.561   2.699   2.399 -0.5849  0.2128  0.9466
 3600SOL    HW222260   1.599   2.691   2.538 -3.0210 -0.9030 -0.1824
 3601SOL     OW22261   3.099   0.921  11.487 -0.6908  0.4894  0.2229
 3601SOL    HW122262   3.135   1.008  11.506 -0.3068  0.2104  0.7435
 3601SOL    HW222263   3.009   0.943  11.459 -0.8443 -0.7760 -0.2649
 3602SOL     OW22264   4.128   1.272   0.529 -0.6909 -0.0551 -1.2381
 3602SOL    HW122265   4.047   1.282   0.579  0.0817 -1.8489  0.3924
 3602SOL    HW222266   4.187   1.304   0.597 -0.4721  1.5485 -2.2045
 3603SOL     OW22267   0.276   0.261  10.683  0.6565 -0.1903  0.6318
 3603SOL    HW122268   0.356   0.252  10.736  0.0893  0.2919  1.5590
 3603SOL    HW222269   0.317   0.300  10.606  0.3429 -0.4761  0.3209
 3604SOL     OW22270   0.264   2.252  16.673 -0.3477  0.0233  0.0854
 3604SOL    HW122271   0.355   2.220  16.679 -0.8235 -1.5857 -1.1866
 3604SOL    HW222272   0.226   2.180  16.623 -0.1926 -1.3479  1.9331
 3605SOL     OW22273   1.075   1.037  15.932  0.3690 -0.5990 -0.3753
 3605SOL    HW122274   1.050   0.949  15.961  1.3316 -1.7561 -3.1427
 3605SOL    HW222275   1.126   1.066  16.008  0.0481 -0.2974 -0.2728
 3606SOL     OW22276   0.808   4.450   5.406  0.2505 -0.1510  0.4983
 3606SOL    HW122277   0.786   4.357   5.401 -0.7201 -0.0029  1.8671
 3606SOL    HW222278   0.735   4.488   5.456 -0.0629 -1.3153  0.9379
 3607SOL     OW22279   3.059   4.505   1.550  0.2977  0.7900  0.2156
 3607SOL    HW122280   3.138   4.544   1.512  1.1510 -0.2426  0.9605
 3607SOL    HW222281   3.073   4.411   1.537 -0.1369  0.8550 -0.7163
 3608SOL     OW22282   2.578   0.446  17.586 -1.2715  0.3787  0.7545
 3608SOL    HW122283   2.484   0.462  17.576 -0.8477  1.1990 -1.8834
 3608SOL    HW222284   2.586   0.374  17.649 -0.1403 -0.7536 -0.6867
 3609SOL     OW22285   2.990   3.341  15.343  0.4193  0.2260 -0.2838
 3609SOL    HW122286   2.955   3.384  15.266  1.4056  1.1972 -0.1978
 3609SOL    HW222287   3.022   3.261  15.300 -1.1786  0.2812 -1.5390
 3610SOL     OW22288   0.777   4.358   1.059 -0.1912  0.6171  0.5946
 3610SOL    HW122289   0.715   4.395   0.996  0.3011  0.6504  0.1334
 3610SOL    HW222290   0.729   4.279   1.081 -0.1681  0.9392  1.8090
 3611SOL     OW22291   1.256   0.583   8.974  0.5720 -0.5747 -0.1052
 3611SOL    HW122292   1.295   0.620   8.896  0.8495 -0.0154  0.3018
 3611SOL    HW222293   1.162   0.596   8.960  1.1427  3.4873 -0.1946
 3612SOL     OW22294   2.441   1.665  13.250 -0.0303  0.0494  0.9568
 3612SOL    HW122295   2.417   1.723  13.322  1.2069 -0.0578  1.4518
 3612SOL    HW222296   2.376   1.691  13.185  0.7718  2.8600  1.3186
 3613SOL     OW22297   3.339   1.068   2.754  0.0211  0.2465  0.0878
 3613SOL    HW122298   3.348   0.977   2.726 -2.9764  0.4226 -1.4137
 3613SOL    HW222299   3.401   1.107   2.692  0.3204  0.3430  0.4496
 3614SOL     OW22300   3.072   2.046   1.770  0.4224 -0.1907  0.1711
 3614SOL    HW122301   3.047   1.979   1.833  0.2230 -1.0907 -0.8731
 3614SOL    HW222302   3.060   1.989   1.694  0.8155  1.2298 -0.9666
 3615SOL     OW22303   3.019   0.754   6.180  0.7355 -0.2103 -0.2501
 3615SOL    HW122304   3.024   0.827   6.242 -0.4099 -0.6210  0.3411
 3615SOL    HW222305   3.027   0.789   6.091  2.3631  1.4986  0.5545
 3616SOL     OW22306   3.550   4.292  13.442 -0.1269  0.0724  0.1007
 3616SOL    HW122307   3.499   4.220  13.405  1.2693 -1.3149  0.8593
 3616SOL    HW222308   3.497   4.316  13.518 -0.4146 -0.4879  0.0722
 3617SOL     OW22309   4.622   0.562   6.468 -0.0637 -0.0349 -0.3917
 3617SOL    HW122310   4.654   0.472   6.463 -1.2725 -0.4123 -1.5895
 3617SOL    HW222311   4.559   0.552   6.539 -0.5347  0.6026 -0.7230
 3618SOL     OW22312   1.528   0.892  15.533 -0.3775 -0.1591 -0.3069
 3618SOL    HW122313   1.564   0.804  15.534 -0.6544 -0.2743 -0.0590
 3618SOL    HW222314   1.458   0.874  15.470 -0.1099  1.9669 -1.1980
 3619SOL     OW22315   2.699   1.615   7.170  0.0497  0.4472 -0.5517
 3619SOL    HW122316   2.693   1.560   7.092 -2.1859 -0.1754  0.0764
 3619SOL    HW222317   2.623   1.672   7.162  1.2530  2.3685  1.6211
 3620SOL     OW22318   2.652   3.881  15.918  0.5819 -0.2159  0.5685
 3620SOL    HW122319   2.609   3.813  15.970  2.7861 -1.4201  0.7755
 3620SOL    HW222320   2.702   3.828  15.856 -0.6942 -1.4443  0.5962
 3621SOL     OW22321   3.883   0.203   8.568  0.4629 -0.3698 -0.0648
 3621SOL    HW122322   3.930   0.227   8.649  0.2597 -0.2540  0.0180
 3621SOL    HW222323   3.810   0.159   8.611 -0.0896  0.1794 -0.4435
 3622SOL     OW22324   3.404   1.788   5.578  0.1351 -0.2192  0.1334
 3622SOL    HW122325   3.365   1.714   5.625 -1.2169 -0.6898 -1.7618
 3622SOL    HW222326   3.444   1.837   5.651 -2.5076  0.2414  1.2568
 3623SOL     OW22327   0.169   1.518  15.189 -0.0063 -0.0870 -0.0720
 3623SOL    HW122328   0.250   1.547  15.147  0.3567  0.3674  0.9381
 3623SOL    HW222329   0.139   1.458  15.121 -3.2259  1.1116  0.2555
 3624SOL     OW22330   1.273   1.342   9.940  0.1906  0.3056  0.0949
 3624SOL    HW122331   1.320   1.325  10.021  0.5124  1.4548  0.1453
 3624SOL    HW222332   1.222   1.261   9.939 -0.0408  0.4275  1.7093
 3625SOL     OW22333   0.076   0.069   4.979 -0.4331  0.2138 -0.2679
 3625SOL    HW122334   0.041   0.118   5.054  0.6407 -0.9813  1.0137
 3625SOL    HW222335   0.025   0.108   4.909  2.0481  1.4222 -1.3976
 3626SOL     OW22336   4.349   3.387   7.538 -0.3769  0.1201 -0.1806
 3626SOL    HW122337   4.444   3.380   7.530 -0.7321 -3.0398 -1.9120
 3626SOL    HW222338   4.327   3.305   7.583  3.3288 -0.6719  0.1993
 3627SOL     OW22339   1.380   2.564  13.700  0.2879 -0.0257 -0.6068
 3627SOL    HW122340   1.475   2.576  13.691  0.4287 -0.6517  0.0153
 3627SOL    HW222341   1.358   2.547  13.608 -1.3275  3.0304 -0.7455
 3628SOL     OW22342   3.723   1.332   6.826  0.6726 -0.0317 -0.2253
 3628SOL    HW122343   3.689   1.285   6.750 -0.3019 -0.5369  0.5268
 3628SOL    HW222344   3.684   1.279   6.895  0.4847  0.3912 -0.0073
 3629SOL     OW22345   0.019   1.732   2.422 -0.0029 -0.3595 -0.4170
 3629SOL    HW122346   4.703   1.729   2.335  1.3888 -2.4114 -0.9768
 3629SOL    HW222347   0.014   1.640   2.447 -1.4613 -0.4142 -0.9353
 3630SOL     OW22348   3.934   2.264   2.601  0.5313 -0.3692  0.5213
 3630SOL    HW122349   4.007   2.312   2.637  0.5178 -0.9846  1.3595
 3630SOL    HW222350   3.952   2.178   2.640  1.5264  0.4735  1.8884
 3631SOL     OW22351   1.437   3.257   2.670  0.3109  0.4215  0.2411
 3631SOL    HW122352   1.395   3.341   2.649  2.0797  0.8255 -1.7533
 3631SOL    HW222353   1.363   3.197   2.677 -0.4018  1.3723  0.9895
 3632SOL     OW22354   3.923   0.711   0.704 -0.2366  0.5212 -0.3371
 3632SOL    HW122355   3.958   0.795   0.675  0.2963  0.5170  0.3009
 3632SOL    HW222356   3.831   0.729   0.722 -0.5366 -0.5355 -0.7890
 3633SOL     OW22357   0.557   1.619  10.910 -0.3074 -0.0891  0.3600
 3633SOL    HW122358   0.508   1.663  10.981 -1.4133 -1.1859  0.2883
 3633SOL    HW222359   0.550   1.533  10.952 -2.1925 -0.7555 -1.2951
 3634SOL     OW22360   3.071   0.876  11.174 -0.1886 -0.3804  0.1088
 3634SOL    HW122361   3.043   0.849  11.262  1.2560 -0.2156  0.6236
 3634SOL    HW222362   3.034   0.807  11.119  0.6868 -0.4520 -0.3925
 3635SOL     OW22363   3.996   1.564  17.069 -0.3172 -0.6388  0.2157
 3635SOL    HW122364   3.941   1.491  17.096 -2.1390 -0.0753 -2.0172
 3635SOL    HW222365   4.005   1.539  16.977 -1.9021  0.5721 -0.2656
 3636SOL     OW22366   3.645   2.215   7.953 -0.2129  0.3521  0.5233
 3636SOL    HW122367   3.559   2.178   7.972  0.0953 -0.2279  0.7558
 3636SOL    HW222368   3.671   2.257   8.035  1.6644  1.8125 -0.8205
 3637SOL     OW22369   2.436   3.884   3.941  0.4867  0.7735 -0.4110
 3637SOL    HW122370   2.500   3.936   3.891 -0.7846  0.1850 -2.6698
 3637SOL    HW222371   2.457   3.795   3.912 -0.6854  0.5802 -0.6663
 3638SOL     OW22372   0.321   3.259   4.705  0.6897 -0.0739 -0.4961
 3638SOL    HW122373   0.307   3.353   4.695 -0.9229 -0.4169 -1.5479
 3638SOL    HW222374   0.390   3.250   4.770  0.7608 -0.7949 -0.6794
 3639SOL     OW22375   2.561   0.905   2.225  1.0906  0.2139  1.0385
 3639SOL    HW122376   2.467   0.923   2.236  1.2496  2.3475 -1.2010
 3639SOL    HW222377   2.583   0.928   2.316  2.2591  2.7729  0.1099
 3640SOL     OW22378   3.105   3.201   6.792  0.4333 -0.3965  0.0312
 3640SOL    HW122379   3.119   3.294   6.775  0.6731 -0.5035 -0.3862
 3640SOL    HW222380   3.184   3.160   6.756 -0.6072 -1.3350 -1.1913
 3641SOL     OW22381   1.217   4.298   3.312  0.1882 -0.0283  0.6300
 3641SOL    HW122382   1.234   4.239   3.239 -1.3226  1.0956 -0.6276
 3641SOL    HW222383   1.307   4.327   3.325 -0.2884  0.8176  2.0514
 3642SOL     OW22384   4.554   0.428   2.666  0.0981 -0.8587  0.1157
 3642SOL    HW122385   4.619   0.497   2.677  0.6531 -1.2160 -1.0389
 3642SOL    HW222386   4.598   0.377   2.599  1.2103 -1.8759  1.6466
 3643SOL     OW22387   4.185   3.263   9.582  0.3645  0.3322 -0.5660
 3643SOL    HW122388   4.110   3.246   9.638  2.1898 -2.7994  0.9161
 3643SOL    HW222389   4.134   3.273   9.502 -2.2591  0.2918  1.1014
 3644SOL     OW22390   0.890   0.749   0.572  0.3819  0.1913  0.2929
 3644SOL    HW122391   0.844   0.757   0.488  1.7966  2.3152 -0.2852
 3644SOL    HW222392   0.865   0.660   0.597 -0.4353  0.0417 -1.0484
 3645SOL     OW22393   4.522   0.156  12.117  0.2171  0.4409  0.4714
 3645SOL    HW122394   4.427   0.163  12.108  0.4195 -0.9494 -2.7608
 3645SOL    HW222395   4.553   0.139  12.028  0.9888 -0.1451  0.8551
 3646SOL     OW22396   3.838   2.655   1.485  0.0526  0.4140 -0.0698
 3646SOL    HW122397   3.855   2.599   1.560  1.5170 -0.7068 -1.2435
 3646SOL    HW222398   3.743   2.646   1.479 -0.0387  0.4328  1.4725
 3647SOL     OW22399   3.773   3.062   7.629 -0.4944 -0.1836  0.4610
 3647SOL    HW122400   3.766   3.066   7.534 -3.4232  1.0577  0.7368
 3647SOL    HW222401   3.747   3.154   7.638 -1.4853 -0.3111 -1.2649
 3648SOL     OW22402   4.083   1.331   4.503 -0.1802 -0.1941 -0.1995
 3648SOL    HW122403   4.089   1.383   4.583  1.5393 -0.3007 -0.2557
 3648SOL    HW222404   3.993   1.346   4.475 -0.9007 -1.5438  1.4116
 3649SOL     OW22405   2.283   0.633   2.122  0.2654 -0.2354 -0.0446
 3649SOL    HW122406   2.276   0.554   2.175 -0.2893  0.2566  0.6167
 3649SOL    HW222407   2.218   0.614   2.054  2.6549  0.2044 -2.4714
 3650SOL     OW22408   0.333   0.483   3.437 -0.3936  0.6835 -0.1931
 3650SOL    HW122409   0.356   0.409   3.492  0.6154  1.4731  0.4446
 3650SOL    HW222410   0.312   0.550   3.503 -1.5499 -0.3919  0.5299
 3651SOL     OW22411   3.582   1.367   6.471  0.0969  0.2991  0.1824
 3651SOL    HW122412   3.638   1.312   6.526 -1.8361 -2.1285 -0.2806
 3651SOL    HW222413   3.537   1.416   6.540 -0.8350 -3.0068  1.8874
 3652SOL     OW22414   0.082   3.252   2.421  0.0448  0.3849 -0.0853
 3652SOL    HW122415   4.719   3.233   2.459  0.5829 -0.8460  0.4994
 3652SOL    HW222416   0.069   3.193   2.347  1.1267 -2.4845  2.0151
 3653SOL     OW22417   2.256   0.076   9.401 -0.2166 -0.9061 -0.3786
 3653SOL    HW122418   2.274   0.052   9.310  1.3944  0.0166 -0.2931
 3653SOL    HW222419   2.307   0.156   9.402  0.6042 -1.4414  0.7811
 3654SOL     OW22420   3.577   0.299   6.541 -0.2874 -0.7350 -0.5314
 3654SOL    HW122421   3.623   0.383   6.543 -1.2406 -0.2310 -0.0511
 3654SOL    HW222422   3.593   0.276   6.632 -0.2476  0.5873 -0.2000
 3655SOL     OW22423   2.228   3.032   6.347 -0.1098 -0.0468 -0.6629
 3655SOL    HW122424   2.211   3.050   6.440 -1.2168  1.0889 -1.0846
 3655SOL    HW222425   2.192   2.945   6.334  2.5336 -1.0407 -1.4268
 3656SOL     OW22426   1.305   0.860   6.212  0.5911 -0.1047  0.6919
 3656SOL    HW122427   1.212   0.865   6.190  0.9649  2.4251 -0.2836
 3656SOL    HW222428   1.307   0.779   6.263 -1.2882 -0.2513  0.5479
 3657SOL     OW22429   4.310   1.511   2.356 -0.3007 -0.1088 -0.3510
 3657SOL    HW122430   4.313   1.452   2.281 -0.0882  0.6987 -0.9642
 3657SOL    HW222431   4.343   1.447   2.420 -1.2278  0.5760  0.8235
 3658SOL     OW22432   1.918   0.615   6.280  0.2027 -0.3319  0.3726
 3658SOL    HW122433   1.976   0.607   6.204 -1.4974  0.4233 -0.9870
 3658SOL    HW222434   1.880   0.527   6.287 -0.2256 -0.0838  1.1899
 3659SOL     OW22435   3.423   0.498  10.173 -0.0445  0.1276  0.1911
 3659SOL    HW122436   3.334   0.527  10.151 -0.2885 -0.0506  0.9559
 3659SOL    HW222437   3.461   0.500  10.085 -1.0734  1.3961 -0.2183
 3660SOL     OW22438   4.641   3.177   7.592 -0.5286  0.3439  0.2794
 3660SOL    HW122439   4.657   3.107   7.529 -1.8199  0.5665 -0.2904
 3660SOL    HW222440   4.628   3.257   7.542  0.0182  0.4002  0.2292
 3661SOL     OW22441   2.159   3.778   8.115  0.0962  0.2894 -0.5358
 3661SOL    HW122442   2.232   3.720   8.096  0.4619  0.5309  0.1442
 3661SOL    HW222443   2.097   3.722   8.068 -0.7696 -1.3398  2.5371
 3662SOL     OW22444   4.087   4.690   8.436  0.7157 -0.6510 -0.5207
 3662SOL    HW122445   4.045   0.038   8.484 -1.1391 -1.3480 -1.0939
 3662SOL    HW222446   4.166   0.012   8.407 -0.1168  1.3746  0.3599
 3663SOL     OW22447   4.427   1.541   3.485  0.7771  0.1245  0.1426
 3663SOL    HW122448   4.507   1.564   3.439  0.3059 -0.0727 -0.7956
 3663SOL    HW222449   4.449   1.456   3.522 -1.8700 -0.9362 -0.6901
 3664SOL     OW22450   3.603   2.963  16.290  0.2061 -0.4013 -0.0728
 3664SOL    HW122451   3.630   2.956  16.198 -1.1379 -0.5457 -0.4460
 3664SOL    HW222452   3.537   2.894  16.288  0.2454 -0.4758  1.1146
 3665SOL     OW22453   3.773   1.550  10.474  1.1582  0.0204 -0.1225
 3665SOL    HW122454   3.733   1.482  10.528  0.5385  1.1525  0.8419
 3665SOL    HW222455   3.703   1.615  10.465  0.2629 -1.2148 -2.2169
 3666SOL     OW22456   1.140   0.740   5.155  0.3104  0.3492 -0.4179
 3666SOL    HW122457   1.231   0.711   5.167  0.0707  0.0122  0.5625
 3666SOL    HW222458   1.127   0.729   5.060  1.4717  1.2415 -0.6818
 3667SOL     OW22459   2.436   4.491   5.633  0.1100 -0.0455  0.4582
 3667SOL    HW122460   2.503   4.463   5.696  2.4431  0.3107 -1.8697
 3667SOL    HW222461   2.423   4.582   5.659  0.7174  0.3772 -0.7568
 3668SOL     OW22462   0.248   3.618   7.939 -0.2135 -1.0405  0.0466
 3668SOL    HW122463   0.250   3.564   8.018  2.1845  0.7750  1.1938
 3668SOL    HW222464   0.221   3.555   7.872  0.3905 -0.9186 -0.3080
 3669SOL     OW22465   1.619   1.455  14.699 -0.3445 -0.3160  0.1325
 3669SOL    HW122466   1.691   1.480  14.757  0.2292  1.1320 -1.1972
 3669SOL    HW222467   1.626   1.360  14.698 -0.5409 -0.3270 -0.1639
 3670SOL     OW22468   1.462   3.038   2.054  0.5634 -0.5857  0.1768
 3670SOL    HW122469   1.533   3.026   1.991 -0.0349 -0.8389 -0.4454
 3670SOL    HW222470   1.480   3.124   2.090  1.6491 -1.5743  1.9669
 3671SOL     OW22471   0.911   4.113   8.605  0.1204 -0.3789  0.8015
 3671SOL    HW122472   0.960   4.031   8.607  0.3229 -0.2266  2.0861
 3671SOL    HW222473   0.867   4.112   8.690 -0.7687 -0.0372  0.3435
 3672SOL     OW22474   0.587   1.142  17.035  0.0391 -0.1169 -0.1404
 3672SOL    HW122475   0.498   1.177  17.036  0.5479  1.1285  1.5294
 3672SOL    HW222476   0.585   1.053  17.000  1.6735  1.5150 -4.3845
 3673SOL     OW22477   3.539   4.033   3.569  0.0636 -0.2781  0.4181
 3673SOL    HW122478   3.602   4.022   3.497  1.2956 -0.2314  1.4849
 3673SOL    HW222479   3.583   4.105   3.615  2.8699 -2.2028  0.7801
 3674SOL     OW22480   4.364   3.498   0.586 -0.4556 -0.1529  0.1400
 3674SOL    HW122481   4.286   3.539   0.624  1.4109  3.1346  0.4620
 3674SOL    HW222482   4.337   3.407   0.578  0.9637 -0.6704  1.1651
 3675SOL     OW22483   0.805   3.033   0.475  0.0820 -0.2640 -0.2807
 3675SOL    HW122484   0.740   3.034   0.545  0.2855  2.7371 -0.1379
 3675SOL    HW222485   0.874   2.978   0.512  0.5032  0.9801  0.7695
 3676SOL     OW22486   1.672   1.050   7.514 -0.3705 -0.3089  0.0918
 3676SOL    HW122487   1.599   1.071   7.572  2.0619 -0.5039  3.2224
 3676SOL    HW222488   1.666   0.955   7.514 -0.0749 -0.3247 -0.8570
 3677SOL     OW22489   2.514   1.585   5.364 -0.0154  0.0711  0.4451
 3677SOL    HW122490   2.420   1.568   5.368 -0.3245  2.0078  1.5816
 3677SOL    HW222491   2.539   1.602   5.455 -0.1302  0.2869  0.4367
 3678SOL     OW22492   1.146   1.647   9.354  0.1258 -0.1159 -0.7231
 3678SOL    HW122493   1.160   1.702   9.431 -0.7823 -0.6006 -0.2167
 3678SOL    HW222494   1.052   1.662   9.347 -0.0198 -2.0108 -2.6300
 3679SOL     OW22495   1.369   4.046   8.657 -0.4950  0.2516  0.0023
 3679SOL    HW122496   1.455   4.034   8.617 -0.1641  0.8831  0.5197
 3679SOL    HW222497   1.375   4.000   8.740 -0.5447 -1.2022 -0.8122
 3680SOL     OW22498   0.144   1.956  12.734 -0.0623  0.5781  0.0702
 3680SOL    HW122499   0.186   1.875  12.708 -0.2389  0.2514  0.8021
 3680SOL    HW222500   0.193   2.021  12.684 -0.0084  0.6003  0.1519
 3681SOL     OW22501   1.740   4.605   7.394  0.3572 -0.1345 -0.6314
 3681SOL    HW122502   1.794   4.556   7.332  0.8867  0.8804 -0.9646
 3681SOL    HW222503   1.802   4.658   7.445 -0.5082 -1.4276  1.7799
 3682SOL     OW22504   3.237   0.052   2.636 -0.1778  0.1170  0.7385
 3682SOL    HW122505   3.288   0.129   2.611 -0.7929 -0.0574 -1.0409
 3682SOL    HW222506   3.231   0.063   2.731  1.3467  3.4777  0.4386
 3683SOL     OW22507   4.488   2.404   4.747  0.1600  0.8157 -0.0848
 3683SOL    HW122508   4.465   2.465   4.677  2.1372  2.0191  0.3331
 3683SOL    HW222509   4.561   2.448   4.789  0.1431 -0.4134  1.2075
 3684SOL     OW22510   0.293   2.143   6.231  0.7682 -0.4050 -0.0413
 3684SOL    HW122511   0.283   2.157   6.136  0.6953  0.0367  0.0319
 3684SOL    HW222512   0.380   2.103   6.232  0.5816 -0.8569 -1.4160
 3685SOL     OW22513   3.045   2.145  14.148 -0.3102  0.6065  0.0054
 3685SOL    HW122514   3.084   2.146  14.236  1.8894  0.7781 -0.9594
 3685SOL    HW222515   3.081   2.061  14.119 -1.4475 -0.0704  0.5623
 3686SOL     OW22516   1.954   2.521   2.434 -0.1140 -0.4421  0.5040
 3686SOL    HW122517   1.917   2.491   2.516 -2.6578  0.5124 -0.3029
 3686SOL    HW222518   2.028   2.461   2.424 -0.7764 -1.4915  1.7947
 3687SOL     OW22519   2.424   0.507   7.914  0.0384 -0.0570  0.0497
 3687SOL    HW122520   2.507   0.522   7.958 -0.1262 -4.8646  2.0428
 3687SOL    HW222521   2.367   0.471   7.982 -0.4127  3.5415  1.5420
 3688SOL     OW22522   0.092   2.020   6.376  0.0009 -0.3946  0.2764
 3688SOL    HW122523   0.128   1.935   6.350 -1.0362 -1.0493  0.9560
 3688SOL    HW222524   0.147   2.082   6.329 -1.3436 -0.7035 -1.7131
 3689SOL     OW22525   1.267   0.620   6.326  0.1256 -0.3445  0.3323
 3689SOL    HW122526   1.240   0.587   6.241 -0.6195 -2.2124  1.2827
 3689SOL    HW222527   1.339   0.561   6.349  0.7868  0.2159 -0.2768
 3690SOL     OW22528   3.305   3.841   0.886 -0.1009 -0.4575 -0.2325
 3690SOL    HW122529   3.308   3.748   0.908 -1.1959 -0.3960  0.2111
 3690SOL    HW222530   3.347   3.868   0.967 -2.8005 -1.0816  1.3984
 3691SOL     OW22531   1.156   0.118  14.046 -0.5224  0.2210 -0.3163
 3691SOL    HW122532   1.124   0.062  13.975 -0.0609  1.6858 -1.6813
 3691SOL    HW222533   1.084   0.141  14.104  0.9500 -0.8368  1.9267
 3692SOL     OW22534   3.841   1.294   3.199  0.1823 -0.2890  0.2653
 3692SOL    HW122535   3.919   1.273   3.147  0.3076  0.7762  0.0235
 3692SOL    HW222536   3.803   1.207   3.205  1.1146 -0.5577  2.3568
 3693SOL     OW22537   3.095   4.262   4.738 -0.5293  0.4899 -0.2603
 3693SOL    HW122538   3.021   4.261   4.798  0.5066 -0.5379  0.9953
 3693SOL    HW222539   3.066   4.319   4.667 -0.7779  0.8891  0.1617
 3694SOL     OW22540   3.312   3.889   7.357  0.3549 -0.7017 -0.0993
 3694SOL    HW122541   3.308   3.861   7.448  3.3667  2.6809  1.0827
 3694SOL    HW222542   3.373   3.827   7.316  0.3813 -0.6905 -0.0774
 3695SOL     OW22543   1.549   0.565   7.815  0.5160  0.0815 -0.1305
 3695SOL    HW122544   1.506   0.539   7.897 -2.4614 -0.8832 -1.9634
 3695SOL    HW222545   1.520   0.655   7.803  0.8251  0.0736 -0.9572
 3696SOL     OW22546   4.068   0.492   2.502  0.0142 -0.1340 -0.3031
 3696SOL    HW122547   4.103   0.403   2.495 -2.4617 -1.1715  0.6853
 3696SOL    HW222548   3.985   0.484   2.456  0.2398  2.6419 -1.2168
 3697SOL     OW22549   4.156   2.555   8.473 -0.2321  0.7554  0.3856
 3697SOL    HW122550   4.082   2.569   8.414 -0.4884 -0.3719  0.4322
 3697SOL    HW222551   4.229   2.595   8.426  0.3276 -0.3827  0.2940
 3698SOL     OW22552   0.714   2.489  10.352  0.4372  0.2325 -0.3300
 3698SOL    HW122553   0.667   2.424  10.405  0.7974 -0.1675 -0.5068
 3698SOL    HW222554   0.736   2.553  10.420  1.2502  0.0330 -0.4145
 3699SOL     OW22555   0.442   2.294   3.369 -0.1432  0.6123 -0.3133
 3699SOL    HW122556   0.442   2.387   3.350  1.6244  0.5610 -0.5572
 3699SOL    HW222557   0.529   2.276   3.335  0.2177  1.2872  0.2548
 3700SOL     OW22558   1.554   1.071  14.845 -0.4833 -0.5800 -0.2477
 3700SOL    HW122559   1.527   1.128  14.918 -0.3797  1.4058 -1.7806
 3700SOL    HW222560   1.474   1.024  14.821 -0.7191 -0.9797  1.2680
 3701SOL     OW22561   3.079   4.244   0.534  0.0688  0.1109  0.1821
 3701SOL    HW122562   2.989   4.221   0.558  0.1733 -3.0125 -2.4255
 3701SOL    HW222563   3.139   4.181   0.575  0.0445  0.1920  0.3449
 3702SOL     OW22564   1.224   3.724   3.595 -0.0778 -0.0641  0.1855
 3702SOL    HW122565   1.149   3.698   3.649 -1.2082  0.2610 -1.2203
 3702SOL    HW222566   1.177   3.769   3.525  0.8728  0.3232 -0.1934
 3703SOL     OW22567   0.302   1.257  11.656 -0.3977 -1.0513 -0.0177
 3703SOL    HW122568   0.392   1.253  11.624 -0.5105 -1.7951 -0.2429
 3703SOL    HW222569   0.308   1.331  11.717 -3.0115 -1.8053  1.1646
 3704SOL     OW22570   3.011   0.482   7.261 -0.9031  0.1281  0.1010
 3704SOL    HW122571   3.059   0.454   7.339 -1.3713  2.4121  1.2205
 3704SOL    HW222572   3.029   0.576   7.264 -0.0825  0.0436 -1.8994
 3705SOL     OW22573   3.017   4.344  12.878  0.0072  0.3281  0.3930
 3705SOL    HW122574   3.023   4.367  12.785  2.0450 -3.8639 -0.4885
 3705SOL    HW222575   3.105   4.308  12.881 -0.5173 -1.1565 -1.7992
 3706SOL     OW22576   2.455   2.813   4.328 -0.2021  0.1741  0.0974
 3706SOL    HW122577   2.363   2.795   4.310  0.0244  0.1911 -1.1037
 3706SOL    HW222578   2.495   2.795   4.243 -0.0799  2.8536 -0.4358
 3707SOL     OW22579   3.130   2.761  12.922  0.2613 -0.2520  0.7061
 3707SOL    HW122580   3.049   2.803  12.892  1.3378  2.9653  2.3855
 3707SOL    HW222581   3.179   2.841  12.941 -1.7550  1.1125  0.2081
 3708SOL     OW22582   3.234   0.088  13.156  0.4574 -0.3346 -0.5254
 3708SOL    HW122583   3.212   0.176  13.185 -0.1059 -0.5368 -0.3399
 3708SOL    HW222584   3.149   0.044  13.162  0.6632 -0.4247  1.6757
 3709SOL     OW22585   3.771   4.721   4.698  0.3745 -0.3230  0.7344
 3709SOL    HW122586   3.854   0.044   4.685  0.1611 -0.1109  0.0947
 3709SOL    HW222587   3.712   0.071   4.716  0.0144 -0.4774  0.1947
 3710SOL     OW22588   0.350   1.672  10.005  0.2743  0.5672 -0.3553
 3710SOL    HW122589   0.404   1.662   9.926 -0.5690  1.2732 -1.0266
 3710SOL    HW222590   0.361   1.767  10.011  1.4515  0.5250 -2.0110
 3711SOL     OW22591   1.265   1.216   6.138 -0.2726  0.2789 -1.0488
 3711SOL    HW122592   1.321   1.177   6.204  0.4286  0.3944 -1.5795
 3711SOL    HW222593   1.302   1.303   6.151 -1.4011  0.3170  1.9700
 3712SOL     OW22594   0.083   0.319   6.747  0.1577 -0.0552  0.4407
 3712SOL    HW122595   0.035   0.330   6.665 -0.9338  1.8399  1.3445
 3712SOL    HW222596   0.009   0.316   6.808  1.0320 -0.7274  1.4854
 3713SOL     OW22597   0.675   0.467   2.144 -0.1956  0.3971 -0.1628
 3713SOL    HW122598   0.744   0.478   2.078 -0.6592  2.1178 -0.3569
 3713SOL    HW222599   0.726   0.487   2.222  0.9284 -0.1619 -0.7477
 3714SOL     OW22600   2.140   0.261   3.442 -0.0177  0.2261  0.1717
 3714SOL    HW122601   2.112   0.190   3.384 -1.8510 -0.2453  1.6384
 3714SOL    HW222602   2.224   0.284   3.401 -0.3607 -0.6728 -1.0614
 3715SOL     OW22603   1.585   0.678   1.599 -0.2304 -0.2123 -0.0697
 3715SOL    HW122604   1.673   0.669   1.562 -0.2928 -0.3002 -0.1991
 3715SOL    HW222605   1.536   0.616   1.545 -1.8166 -1.0635  2.3362
 3716SOL     OW22606   0.070   4.496  12.631  0.1562  0.2221 -0.5966
 3716SOL    HW122607   0.140   4.510  12.567  1.0239 -1.7597 -0.0969
 3716SOL    HW222608   0.038   4.408  12.612  3.4873 -1.1206 -0.0382
 3717SOL     OW22609   3.930   1.958   8.188  0.3096  0.0496  0.3217
 3717SOL    HW122610   3.990   2.027   8.160 -0.7417  2.5225  4.1239
 3717SOL    HW222611   3.913   1.988   8.277 -0.8187  0.4379 -0.0223
 3718SOL     OW22612   2.255   3.045  14.129  0.3754 -0.7245 -0.2791
 3718SOL    HW122613   2.331   3.037  14.187  0.4843  0.6245 -0.2511
 3718SOL    HW222614   2.215   2.959  14.144  0.1222 -0.7961 -1.3932
 3719SOL     OW22615   1.764   0.123   7.796 -0.5235  0.0171  0.0799
 3719SOL    HW122616   1.670   0.137   7.784 -0.7407 -1.9020 -0.3951
 3719SOL    HW222617   1.784   0.215   7.782 -0.4495 -0.1724 -1.0299
 3720SOL     OW22618   2.286   3.727   1.747  0.3994 -0.0361  0.3922
 3720SOL    HW122619   2.253   3.801   1.697  0.8361  1.5749  2.4998
 3720SOL    HW222620   2.356   3.704   1.686 -0.1749  0.5932 -0.4979
 3721SOL     OW22621   4.590   3.089   3.960  0.0432  0.2669 -0.4023
 3721SOL    HW122622   4.516   3.108   4.018 -0.6016 -0.0631 -1.1255
 3721SOL    HW222623   4.634   3.042   4.032 -1.7174  0.0929  0.5646
 3722SOL     OW22624   1.835   1.816   3.578 -0.0308 -0.5969  0.0172
 3722SOL    HW122625   1.815   1.750   3.644  0.7434 -0.3747  0.4769
 3722SOL    HW222626   1.835   1.899   3.627 -0.7507 -0.6711  0.1413
 3723SOL     OW22627   4.432   2.876   7.593 -0.3948 -0.4161  0.6782
 3723SOL    HW122628   4.520   2.881   7.556 -0.5628 -1.7971  0.1142
 3723SOL    HW222629   4.398   2.833   7.515 -0.9830 -0.5490  1.0046
 3724SOL     OW22630   1.185   0.208   9.780 -0.8737 -0.4937 -0.8687
 3724SOL    HW122631   1.244   0.159   9.723  2.2097  1.3117  0.7768
 3724SOL    HW222632   1.154   0.282   9.728  0.1191  0.8907  0.5358
 3725SOL     OW22633   1.944   2.955   6.262  0.1695  0.5230 -0.0412
 3725SOL    HW122634   1.863   2.906   6.250 -0.3752  1.6742 -1.1196
 3725SOL    HW222635   1.939   2.977   6.355  1.7846  0.2854  0.0956
 3726SOL     OW22636   0.609   2.473   5.622  0.5365 -0.2327  0.4425
 3726SOL    HW122637   0.565   2.477   5.537  1.2861 -2.9995 -0.0755
 3726SOL    HW222638   0.596   2.561   5.659  1.7636  0.2076 -0.1615
 3727SOL     OW22639   0.556   0.703   1.887 -0.0924 -0.0930  0.0288
 3727SOL    HW122640   0.585   0.708   1.796 -0.7255 -0.4325 -0.1932
 3727SOL    HW222641   0.475   0.652   1.876 -1.1088  1.0960  1.9224
 3728SOL     OW22642   2.431   2.592   3.494  0.3662  0.6614 -0.3667
 3728SOL    HW122643   2.470   2.514   3.534  0.3623  1.4867  1.2337
 3728SOL    HW222644   2.355   2.560   3.445  0.0906  2.5566 -1.1772
 3729SOL     OW22645   3.935   1.141   7.921  0.0734 -0.0115  0.1224
 3729SOL    HW122646   3.968   1.199   7.853 -0.9195  1.3111  0.7579
 3729SOL    HW222647   3.901   1.209   7.980 -1.0316 -1.5834  1.3181
 3730SOL     OW22648   4.470   2.660   7.347  0.4780  0.1270 -0.0114
 3730SOL    HW122649   4.468   2.576   7.393 -1.9224 -0.5048 -1.3020
 3730SOL    HW222650   4.415   2.648   7.270  1.0415 -0.9629 -0.2481
 3731SOL     OW22651   3.571   0.360   5.512  0.1125  0.6275  0.0415
 3731SOL    HW122652   3.520   0.430   5.553 -0.0421  1.7253 -2.0328
 3731SOL    HW222653   3.531   0.370   5.425 -0.6259  1.6265  0.4939
 3732SOL     OW22654   1.912   1.573   0.756  0.5243 -0.1230 -0.3226
 3732SOL    HW122655   1.966   1.539   0.827  0.4358 -0.0856 -0.2374
 3732SOL    HW222656   1.834   1.518   0.767 -1.3551  2.2130 -1.9787
 3733SOL     OW22657   1.158   3.794   6.150 -0.8075  0.3279  0.0265
 3733SOL    HW122658   1.090   3.807   6.083 -2.2071 -2.0713  0.9746
 3733SOL    HW222659   1.203   3.878   6.138  1.2187 -1.1495 -2.7366
 3734SOL     OW22660   3.549   3.023   8.562  0.1695  0.4182 -0.2675
 3734SOL    HW122661   3.481   2.963   8.589  0.3711 -0.4254 -1.6134
 3734SOL    HW222662   3.505   3.103   8.533  1.2206  1.5920  1.3589
 3735SOL     OW22663   2.015   1.308   4.559  0.2020  0.5374 -0.6351
 3735SOL    HW122664   1.985   1.375   4.620  0.6302  2.2686 -2.3265
 3735SOL    HW222665   2.105   1.302   4.591  0.6046 -0.3903 -1.9285
 3736SOL     OW22666   3.531   1.414   1.013 -0.1500 -0.2064  0.5553
 3736SOL    HW122667   3.467   1.350   0.983 -1.6523  0.8720  1.4564
 3736SOL    HW222668   3.581   1.424   0.932 -0.1544  1.7997  0.7940
 3737SOL     OW22669   0.725   2.440   9.333  0.0913 -0.1306  0.0188
 3737SOL    HW122670   0.796   2.481   9.283 -0.0652 -0.9884 -0.9039
 3737SOL    HW222671   0.764   2.428   9.419 -0.5738 -2.7642 -0.0510
 3738SOL     OW22672   3.532   1.012   4.050 -0.0385  0.0032 -0.1627
 3738SOL    HW122673   3.523   0.920   4.074 -0.0759 -0.0160 -0.2481
 3738SOL    HW222674   3.503   1.063   4.126 -1.8306 -0.4516 -0.5355
 3739SOL     OW22675   2.513   0.512  13.959  0.4678 -0.7116  0.1669
 3739SOL    HW122676   2.558   0.554  13.885  0.6988 -0.5604  0.3969
 3739SOL    HW222677   2.491   0.425  13.925  3.0320 -0.9970 -0.7527
 3740SOL     OW22678   0.869   4.087  11.926 -0.3639 -0.1572  0.1512
 3740SOL    HW122679   0.831   4.044  12.002 -2.2758 -1.2655 -1.4244
 3740SOL    HW222680   0.946   4.131  11.961  1.5876 -3.1778 -0.3519
 3741SOL     OW22681   1.523   0.322   6.191 -0.7357  0.2026 -0.1281
 3741SOL    HW122682   1.514   0.367   6.275  0.9460 -1.0339  0.7120
 3741SOL    HW222683   1.453   0.257   6.193 -0.2430 -0.3045  0.7041
 3742SOL     OW22684   4.235   1.875   7.956 -0.2173 -0.2536 -0.1700
 3742SOL    HW122685   4.274   1.814   8.018  1.0487 -1.0819 -1.7721
 3742SOL    HW222686   4.307   1.892   7.895 -1.2781  0.4177 -1.2547
 3743SOL     OW22687   2.368   2.480   5.410 -0.1280  0.5584  0.1054
 3743SOL    HW122688   2.382   2.442   5.323 -0.1716 -0.1195  0.3889
 3743SOL    HW222689   2.309   2.553   5.394 -0.5245  0.3995  0.8293
 3744SOL     OW22690   3.746   2.337   8.847 -0.6896  0.2573  0.1689
 3744SOL    HW122691   3.801   2.368   8.775 -1.0024 -2.4984 -1.2565
 3744SOL    HW222692   3.817   2.299   8.899  0.1602  0.5802 -0.7316
 3745SOL     OW22693   0.701   0.273   7.996 -0.3264  0.0661  0.3682
 3745SOL    HW122694   0.706   0.231   7.910  1.7894 -0.1975  0.6154
 3745SOL    HW222695   0.747   0.210   8.051  0.0683  0.8001  0.8746
 3746SOL     OW22696   2.832   0.636   6.728 -0.3957 -0.2831 -0.1666
 3746SOL    HW122697   2.780   0.670   6.800  1.7640  1.4396  0.5739
 3746SOL    HW222698   2.811   0.544   6.741  2.8771 -0.6934  2.1888
 3747SOL     OW22699   1.198   1.188   3.614 -0.4108 -0.0292  0.1375
 3747SOL    HW122700   1.288   1.166   3.639 -0.4054  0.6155  0.6864
 3747SOL    HW222701   1.209   1.205   3.521 -2.1046 -2.6181 -0.5325
 3748SOL     OW22702   4.289   0.944   8.134  0.0620  0.6236 -0.4227
 3748SOL    HW122703   4.253   0.945   8.046 -0.7113 -3.4391 -0.1846
 3748SOL    HW222704   4.281   1.035   8.160 -1.4013  0.3106  0.2278
 3749SOL     OW22705   0.373   4.194   8.402  0.0988  0.1271 -0.1234
 3749SOL    HW122706   0.383   4.131   8.331 -0.5048 -0.6090  0.4424
 3749SOL    HW222707   0.447   4.254   8.391  1.5793 -1.6881 -0.1630
 3750SOL     OW22708   4.471   2.490   0.448 -0.0791 -0.4937  0.3864
 3750SOL    HW122709   4.452   2.546   0.524  0.5150  0.0225  0.1573
 3750SOL    HW222710   4.492   2.547   0.375 -0.3345 -0.7756  0.0955
 3751SOL     OW22711   1.435   2.362   3.899  0.4265  0.6096  0.2152
 3751SOL    HW122712   1.451   2.412   3.980 -1.8842  2.6745 -0.5714
 3751SOL    HW222713   1.420   2.276   3.938 -2.1771  1.3921  0.9661
 3752SOL     OW22714   2.693   2.660  10.777 -0.1964  0.3585 -0.1896
 3752SOL    HW122715   2.600   2.658  10.755 -0.0178  3.0378 -1.1927
 3752SOL    HW222716   2.696   2.654  10.873  2.6109  0.0494 -0.3174
 3753SOL     OW22717   1.479   2.767   7.587  0.1859  0.1984 -0.0419
 3753SOL    HW122718   1.558   2.822   7.595  1.4409 -1.6951  0.5704
 3753SOL    HW222719   1.415   2.815   7.640 -0.0643 -0.9727  0.7045
 3754SOL     OW22720   0.665   0.469   3.909  0.1597 -0.1339 -0.2943
 3754SOL    HW122721   0.626   0.552   3.938 -0.4936 -1.3423  2.2166
 3754SOL    HW222722   0.690   0.476   3.817  1.2168  0.2571  0.0212
 3755SOL     OW22723   2.713   3.985   7.118  0.1515 -0.2072 -0.2329
 3755SOL    HW122724   2.696   4.048   7.188  2.0890 -0.2598  0.3025
 3755SOL    HW222725   2.694   3.906   7.169 -2.3279  2.0907  2.3754
 3756SOL     OW22726   1.736   1.453   2.039 -0.0262 -0.2334 -0.0524
 3756SOL    HW122727   1.650   1.434   2.075 -0.1512  1.0135  0.3131
 3756SOL    HW222728   1.724   1.401   1.960 -0.4918  1.0850 -0.8412
 3757SOL     OW22729   3.197   3.855   5.147 -0.0444  0.7786  0.1667
 3757SOL    HW122730   3.102   3.844   5.137  0.0203 -0.7471  1.1843
 3757SOL    HW222731   3.211   3.764   5.120 -1.2424  1.0359 -1.3511
 3758SOL     OW22732   1.362   0.245   7.027 -0.0114 -0.1130  0.1713
 3758SOL    HW122733   1.309   0.166   7.040  1.3964 -1.7215 -3.8646
 3758SOL    HW222734   1.361   0.276   7.118  0.9140  1.1289 -0.2379
 3759SOL     OW22735   2.053   4.017   7.211 -0.0866  0.3243  0.3748
 3759SOL    HW122736   2.035   3.924   7.198  2.3771 -0.1528  0.4060
 3759SOL    HW222737   2.061   4.018   7.306  0.5223 -0.8324  0.3268
 3760SOL     OW22738   0.994   2.310   7.449  0.2158 -0.3574  0.8761
 3760SOL    HW122739   1.030   2.298   7.362 -0.0225  4.3082  0.1291
 3760SOL    HW222740   1.049   2.382   7.481  0.0179  0.6347 -1.0618
 3761SOL     OW22741   3.923   2.036  10.205  0.0465 -0.6829  0.2957
 3761SOL    HW122742   3.874   2.040  10.123 -0.6940 -0.1246  0.7651
 3761SOL    HW222743   3.911   1.945  10.233  0.9486 -0.9599 -0.2426
 3762SOL     OW22744   1.054   1.449  13.568 -0.3929 -0.4986  0.4059
 3762SOL    HW122745   1.041   1.495  13.485  1.8524  0.6220  0.6609
 3762SOL    HW222746   0.979   1.390  13.559  0.0602 -0.9524 -0.3396
 3763SOL     OW22747   0.048   0.939   4.722 -0.9152 -0.1945  0.0448
 3763SOL    HW122748   0.096   0.988   4.656 -2.0649  0.7099 -0.1249
 3763SOL    HW222749   0.108   0.866   4.737  0.4962  1.1341  0.8411
 3764SOL     OW22750   0.150   1.539   9.301  0.0794  0.5128  0.4291
 3764SOL    HW122751   0.087   1.543   9.229 -0.6122 -1.4946  0.9210
 3764SOL    HW222752   0.213   1.475   9.267 -2.7712 -2.5174  0.8360
 3765SOL     OW22753   0.205   3.831  10.039 -0.4721  0.0685  0.7570
 3765SOL    HW122754   0.273   3.797  10.097 -0.1952 -0.0003  0.3871
 3765SOL    HW222755   0.210   3.922  10.069  2.4853  0.2118 -0.2105
 3766SOL     OW22756   1.430   1.564   4.205  0.2162 -0.4883 -0.2153
 3766SOL    HW122757   1.440   1.579   4.111 -0.2684 -0.3675 -0.2472
 3766SOL    HW222758   1.493   1.492   4.211 -0.4749 -1.0187  0.9815
 3767SOL     OW22759   0.903   4.036   7.540  0.2625  0.7024 -0.0238
 3767SOL    HW122760   0.975   3.980   7.568  1.4259  1.9366 -0.5270
 3767SOL    HW222761   0.852   4.033   7.620  2.3294 -2.3077  1.1635
 3768SOL     OW22762   3.711   1.160   6.627 -0.3508 -0.6555 -0.3918
 3768SOL    HW122763   3.795   1.135   6.666 -0.9363 -0.0383  1.2662
 3768SOL    HW222764   3.670   1.075   6.612 -2.8509  0.3519  0.7496
 3769SOL     OW22765   2.196   2.442  16.081  0.5849  0.0768 -0.0634
 3769SOL    HW122766   2.163   2.375  16.140  0.2832  1.3264  1.1816
 3769SOL    HW222767   2.133   2.511  16.100  0.0916 -1.5231  3.9998
 3770SOL     OW22768   0.140   4.112   3.682  0.5436 -0.0018 -1.0710
 3770SOL    HW122769   0.072   4.158   3.731 -0.5022 -1.1370 -1.4607
 3770SOL    HW222770   0.151   4.168   3.605  2.5344  2.2891  0.8825
 3771SOL     OW22771   0.054   2.865   1.889 -0.3138 -0.0397  0.3180
 3771SOL    HW122772   4.695   2.820   1.867 -0.8823  0.4206  1.4800
 3771SOL    HW222773   0.070   2.917   1.810  0.8360 -0.8833 -0.0004
 3772SOL     OW22774   4.222   1.559   4.367  0.3777  0.0205 -0.0475
 3772SOL    HW122775   4.247   1.613   4.442 -1.9167 -0.4924  1.0958
 3772SOL    HW222776   4.175   1.487   4.409 -0.7642  1.1275  0.5719
 3773SOL     OW22777   4.324   3.354   5.532 -0.3847 -0.2486  0.2560
 3773SOL    HW122778   4.387   3.311   5.474 -1.8974 -0.3786 -1.2915
 3773SOL    HW222779   4.359   3.320   5.614 -0.3933  2.1306  1.2310
 3774SOL     OW22780   1.962   2.217  13.218  0.1876 -0.1603 -0.0901
 3774SOL    HW122781   1.971   2.299  13.266  0.1904 -0.7052  0.8432
 3774SOL    HW222782   1.867   2.204  13.222 -0.0404  1.3963 -0.5839
 3775SOL     OW22783   4.465   1.314  10.178  0.0646 -0.0755 -0.6202
 3775SOL    HW122784   4.559   1.327  10.171 -0.0136 -0.1679 -1.7626
 3775SOL    HW222785   4.460   1.228  10.136  1.3328 -0.8097  0.7473
 3776SOL     OW22786   4.352   0.134   8.437 -0.5007  0.2518 -0.2785
 3776SOL    HW122787   4.420   0.201   8.432 -1.2160  0.9113 -1.2148
 3776SOL    HW222788   4.321   0.141   8.527  2.5511  1.9105  0.6282
 3777SOL     OW22789   0.897   0.756   2.769  0.5779  0.2149  0.3857
 3777SOL    HW122790   0.912   0.663   2.787  1.3118  0.2600 -0.0018
 3777SOL    HW222791   0.980   0.789   2.735  1.0357 -1.7970 -0.4167
 3778SOL     OW22792   2.972   2.450  16.139 -0.1307 -0.1285  0.1852
 3778SOL    HW122793   2.993   2.531  16.093  1.1860 -1.2987 -1.2666
 3778SOL    HW222794   2.877   2.448  16.152  0.2054 -0.4646  2.6566
 3779SOL     OW22795   2.483   3.395  14.010 -0.2412  0.2242 -0.1891
 3779SOL    HW122796   2.415   3.349  14.060  0.0058  0.0549 -0.0070
 3779SOL    HW222797   2.509   3.444  14.089 -1.8716  1.0782 -0.1924
 3780SOL     OW22798   4.147   4.631  16.376  0.1321 -0.2985  0.5228
 3780SOL    HW122799   4.062   4.667  16.403 -0.4950  0.6843 -2.6894
 3780SOL    HW222800   4.129   4.579  16.298 -1.3660  0.9568  0.0153
 3781SOL     OW22801   1.501   2.503  13.270 -0.0831 -0.1010 -0.4266
 3781SOL    HW122802   1.514   2.597  13.285  0.4884  0.0636 -1.9530
 3781SOL    HW222803   1.509   2.506  13.175 -1.7990  1.3668 -0.5318
 3782SOL     OW22804   1.467   1.426   1.660  0.1639 -0.6656  0.3747
 3782SOL    HW122805   1.429   1.340   1.682 -1.2521 -0.4312 -1.1882
 3782SOL    HW222806   1.559   1.401   1.653  0.6560  0.7091  2.0755
 3783SOL     OW22807   3.639   2.413   9.297 -0.1762  0.2540  0.0185
 3783SOL    HW122808   3.622   2.324   9.265  0.1231 -0.9003  3.0248
 3783SOL    HW222809   3.564   2.464   9.267 -0.6573  0.0140  0.8029
 3784SOL     OW22810   2.432   1.895  16.753 -0.1220  0.1723  0.1603
 3784SOL    HW122811   2.349   1.852  16.735  0.2870 -0.5413 -0.0220
 3784SOL    HW222812   2.399   1.984  16.762  0.4963  0.7272 -3.0008
 3785SOL     OW22813   2.568   0.015   6.727 -0.4435  1.0351 -0.1398
 3785SOL    HW122814   2.501   0.083   6.739 -1.9202  0.0149 -2.6313
 3785SOL    HW222815   2.541   4.688   6.804  1.9051 -0.7339 -0.4801
 3786SOL     OW22816   2.530   3.904   1.614 -0.2251  0.1203 -0.1422
 3786SOL    HW122817   2.484   3.946   1.541  0.1639 -1.1108 -1.1062
 3786SOL    HW222818   2.515   3.810   1.597  0.9486  0.0056 -0.4899
 3787SOL     OW22819   3.606   1.752   8.118  0.4843  0.1328 -0.3706
 3787SOL    HW122820   3.630   1.826   8.063  1.8399  0.0483  0.1103
 3787SOL    HW222821   3.577   1.690   8.051  0.4719  1.7801 -1.8945
 3788SOL     OW22822   3.511   2.319   4.747  0.9942 -0.6110 -0.0508
 3788SOL    HW122823   3.417   2.335   4.752  1.1158 -0.2969  1.3688
 3788SOL    HW222824   3.532   2.273   4.666 -2.3344 -0.7100 -0.8484
 3789SOL     OW22825   4.312   4.275  15.863 -0.6397  0.4408 -0.2905
 3789SOL    HW122826   4.375   4.342  15.889 -0.4614 -0.2853  1.1130
 3789SOL    HW222827   4.276   4.264  15.951 -0.5577  1.5409 -0.1183
 3790SOL     OW22828   0.868   0.316   9.394  0.3012 -0.2720 -0.0545
 3790SOL    HW122829   0.917   0.332   9.474 -1.3179 -1.0384  1.0852
 3790SOL    HW222830   0.784   0.297   9.436 -0.8612  0.1847 -2.1041
 3791SOL     OW22831   3.379   3.559   1.338  0.5479 -0.6388 -0.3198
 3791SOL    HW122832   3.392   3.624   1.408 -0.6215 -0.6422 -0.1022
 3791SOL    HW222833   3.287   3.534   1.340  0.6380 -0.9082  0.4263
 3792SOL     OW22834   1.515   0.636   7.078 -0.2875  0.0838  0.1114
 3792SOL    HW122835   1.509   0.554   7.028  1.0610  0.4763 -0.6938
 3792SOL    HW222836   1.610   0.649   7.082 -0.5911  2.8440 -1.3435
 3793SOL     OW22837   0.347   1.048   8.696  0.1091  0.3846 -0.0681
 3793SOL    HW122838   0.400   1.000   8.632 -0.0521 -2.2205  1.7604
 3793SOL    HW222839   0.368   1.139   8.672  2.5449  0.4306  2.3466
 3794SOL     OW22840   1.230   3.891  14.096  0.8675  0.3101  0.2013
 3794SOL    HW122841   1.205   3.803  14.068  1.1999 -0.4220  2.2364
 3794SOL    HW222842   1.242   3.940  14.015  2.7028 -2.0744 -0.9682
 3795SOL     OW22843   1.954   1.653  14.014 -0.0274 -0.4461 -0.4560
 3795SOL    HW122844   1.879   1.626  14.067  0.3647  1.5824  1.1267
 3795SOL    HW222845   1.925   1.739  13.983 -3.0528 -1.2486  0.1864
 3796SOL     OW22846   1.369   1.135   2.905 -0.3308  0.2854  0.2663
 3796SOL    HW122847   1.327   1.179   2.831  2.1991 -0.2121 -1.4731
 3796SOL    HW222848   1.432   1.206   2.914  2.1919 -1.7326 -1.3617
 3797SOL     OW22849   4.007   2.795   3.288  0.1480 -0.7673  0.0069
 3797SOL    HW122850   3.999   2.847   3.367  0.5564 -0.5767 -0.0789
 3797SOL    HW222851   4.060   2.719   3.314  1.0446 -0.2581 -0.3238
 3798SOL     OW22852   4.017   3.112   0.766 -0.4530 -0.0786 -0.8438
 3798SOL    HW122853   4.032   3.190   0.713  0.5233 -1.4868 -2.6556
 3798SOL    HW222854   3.990   3.158   0.845  1.7231 -2.5258  1.3220
 3799SOL     OW22855   2.983   4.236  12.198 -0.4166 -0.5962  0.3349
 3799SOL    HW122856   2.997   4.141  12.204 -0.7155 -0.6319  0.4795
 3799SOL    HW222857   3.022   4.242  12.111 -0.7065 -1.1511  0.1620
 3800SOL     OW22858   3.573   2.752   6.824  0.3859  0.0953 -0.3318
 3800SOL    HW122859   3.488   2.749   6.868  0.6462  0.5857  0.2124
 3800SOL    HW222860   3.585   2.657   6.821  0.1550  0.0713 -0.4928
 3801SOL     OW22861   3.055   3.614   1.178 -0.4288  0.1721 -1.3476
 3801SOL    HW122862   3.045   3.683   1.243  2.1538 -0.4285 -0.3273
 3801SOL    HW222863   3.088   3.541   1.230  0.3234  2.7052  1.7227
 3802SOL     OW22864   2.512   2.980   7.274 -0.1861 -0.1742 -0.2523
 3802SOL    HW122865   2.559   2.899   7.294  0.4402 -0.2881 -2.1686
 3802SOL    HW222866   2.574   3.048   7.299  1.0238 -1.3577 -0.0314
 3803SOL     OW22867   0.730   4.491   7.392  0.2163 -0.1539  0.1480
 3803SOL    HW122868   0.788   4.547   7.340  0.5909 -0.9212 -0.2597
 3803SOL    HW222869   0.763   4.402   7.382  2.0155  0.4507  0.8767
 3804SOL     OW22870   0.301   1.999  15.313  0.4616 -0.7348  0.5148
 3804SOL    HW122871   0.237   2.014  15.383  0.1459  0.9942 -0.1447
 3804SOL    HW222872   0.277   2.064  15.247  2.0029  0.0612  0.7192
 3805SOL     OW22873   0.306   1.824   4.512 -0.6376 -0.0049  0.5145
 3805SOL    HW122874   0.259   1.842   4.431 -1.6535 -2.1836  0.6233
 3805SOL    HW222875   0.332   1.735   4.488  1.2522  0.9471 -0.9810
 3806SOL     OW22876   0.120   0.758   8.396  0.0652 -0.0402 -0.5336
 3806SOL    HW122877   0.213   0.776   8.405  0.0044 -0.7616  1.6163
 3806SOL    HW222878   0.098   0.846   8.367 -0.3723 -0.2707 -0.9213
 3807SOL     OW22879   1.332   4.660  11.224  0.3308  0.4949 -0.1720
 3807SOL    HW122880   1.425   4.640  11.213  0.9352  3.3632 -0.3999
 3807SOL    HW222881   1.322   4.716  11.147  0.0763 -0.2325 -0.6675
 3808SOL     OW22882   3.093   1.302  14.419 -0.0386 -0.8063 -0.0820
 3808SOL    HW122883   3.111   1.282  14.327  1.6542 -0.1827  0.1150
 3808SOL    HW222884   3.049   1.227  14.458 -0.3091 -0.2779  0.6269
 3809SOL     OW22885   2.802   2.727   3.244 -0.4422 -0.0909  0.3422
 3809SOL    HW122886   2.743   2.748   3.316  0.0294 -1.2915  1.0849
 3809SOL    HW222887   2.778   2.798   3.184 -0.9777  0.3112  1.0379
 3810SOL     OW22888   1.507   3.043   3.602  0.8022 -0.1326  0.1394
 3810SOL    HW122889   1.565   3.056   3.677  2.4571 -2.3791 -0.7613
 3810SOL    HW222890   1.507   3.135   3.578  1.1658  0.0380  0.8033
 3811SOL     OW22891   1.567   3.738   1.078 -0.7606  0.4613 -0.8854
 3811SOL    HW122892   1.525   3.705   0.998  1.7911  1.8672 -2.7946
 3811SOL    HW222893   1.535   3.828   1.072 -2.1531  0.0727  0.6486
 3812SOL     OW22894   0.201   2.911   5.153 -0.0615  0.4246 -0.2345
 3812SOL    HW122895   0.110   2.901   5.183  1.0136 -2.1444  2.1461
 3812SOL    HW222896   0.240   2.854   5.219  0.7605  0.2782 -0.8621
 3813SOL     OW22897   2.341   2.705  15.367 -0.0017  0.6164  0.2156
 3813SOL    HW122898   2.339   2.658  15.450 -1.2976  0.2337 -0.0334
 3813SOL    HW222899   2.365   2.795  15.390  0.9594  1.0025 -2.2322
 3814SOL     OW22900   4.227   1.444  16.016  0.8512 -0.2091  0.1500
 3814SOL    HW122901   4.139   1.473  16.037  0.5184 -0.2466 -1.2005
 3814SOL    HW222902   4.276   1.503  16.073  0.2662 -0.6755  1.1346
 3815SOL     OW22903   3.693   4.043   6.989  0.1089 -0.9342  0.1894
 3815SOL    HW122904   3.723   4.026   6.900 -0.6968 -1.3289 -0.0102
 3815SOL    HW222905   3.762   4.003   7.042  0.6161  1.0738  1.0507
 3816SOL     OW22906   1.422   3.650  11.604  0.1460  0.2434  0.6672
 3816SOL    HW122907   1.402   3.659  11.697  0.9967  0.9727  0.7827
 3816SOL    HW222908   1.509   3.610  11.606 -0.0384 -0.1758  0.3362
 3817SOL     OW22909   0.375   1.882   6.963 -0.4405 -0.2021 -0.1726
 3817SOL    HW122910   0.314   1.818   6.927  0.9653 -0.0948 -2.6944
 3817SOL    HW222911   0.312   1.945   6.998  0.5161  1.8019 -2.0819
 3818SOL     OW22912   3.267   3.690  17.585  0.1043 -0.1787 -0.1014
 3818SOL    HW122913   3.304   3.705  17.498  1.6578 -0.1534  0.5554
 3818SOL    HW222914   3.178   3.721  17.569  0.0245  0.7076  2.0829
 3819SOL     OW22915   2.611   1.514  13.401  0.0305 -0.6103  0.6759
 3819SOL    HW122916   2.595   1.565  13.481  0.2666 -0.3149  0.5313
 3819SOL    HW222917   2.529   1.520  13.352  0.5631  1.4906  0.0508
 3820SOL     OW22918   3.987   2.971   5.428 -0.2688  0.3662 -0.3805
 3820SOL    HW122919   4.055   3.033   5.401  0.8587 -1.3536 -1.5227
 3820SOL    HW222920   3.932   2.983   5.350  2.2759 -2.3032 -2.5731
 3821SOL     OW22921   2.528   0.772  17.169 -0.0900  0.3149 -0.5043
 3821SOL    HW122922   2.448   0.746  17.124 -0.1789 -0.2699 -0.0121
 3821SOL    HW222923   2.563   0.842  17.114 -0.4129  2.1918  1.6748
 3822SOL     OW22924   2.745   2.558   7.201 -0.2508 -0.4934  0.5323
 3822SOL    HW122925   2.837   2.586   7.204 -0.7366  1.3403 -2.0464
 3822SOL    HW222926   2.700   2.638   7.228 -1.5281 -0.4101 -1.8988
 3823SOL     OW22927   1.819   0.031   2.285 -0.0431 -0.3445  0.2376
 3823SOL    HW122928   1.893   0.022   2.225 -1.7695 -1.1849 -1.7610
 3823SOL    HW222929   1.785   4.665   2.281 -1.7369  0.4141 -2.1216
 3824SOL     OW22930   0.767   4.351   0.647  0.2674  0.9764 -0.6153
 3824SOL    HW122931   0.752   4.349   0.553 -3.8004  1.5207  0.0011
 3824SOL    HW222932   0.862   4.362   0.651  0.3011  0.3121  0.5015
 3825SOL     OW22933   0.689   2.748   5.666 -0.2809  0.1769  0.8701
 3825SOL    HW122934   0.730   2.835   5.667  0.8698 -0.3588  1.3895
 3825SOL    HW222935   0.670   2.737   5.759  0.0435 -0.3189  0.8794
 3826SOL     OW22936   2.317   2.187   9.290  0.3344  0.1663  0.0810
 3826SOL    HW122937   2.358   2.106   9.258  1.0726  0.6527 -0.1960
 3826SOL    HW222938   2.237   2.212   9.244 -1.3724 -0.6871  2.6351
 3827SOL     OW22939   0.193   3.966   7.413  0.0847 -0.4087  0.0481
 3827SOL    HW122940   0.205   3.983   7.506 -0.5040  0.8998 -0.1249
 3827SOL    HW222941   0.280   3.933   7.392  0.4969  0.7043  0.0060
 3828SOL     OW22942   2.841   3.135   8.470 -0.4331 -0.0796 -0.2773
 3828SOL    HW122943   2.760   3.169   8.432  0.5209  0.8669 -1.5046
 3828SOL    HW222944   2.827   3.166   8.559 -1.7374 -2.2878  0.2668
 3829SOL     OW22945   4.564   0.205   0.587 -0.9246 -0.3586  0.1750
 3829SOL    HW122946   4.535   0.286   0.629  0.0951  1.0995 -1.9272
 3829SOL    HW222947   4.588   0.159   0.667 -3.1486 -2.0872 -0.1426
 3830SOL     OW22948   1.632   3.112   4.161 -0.1875 -0.0753  0.3221
 3830SOL    HW122949   1.598   3.046   4.220 -1.4108 -2.1088 -2.6777
 3830SOL    HW222950   1.585   3.093   4.080  0.6198  1.3501 -0.4848
 3831SOL     OW22951   4.533   4.443   2.671 -0.0703 -0.3434  0.6988
 3831SOL    HW122952   4.490   4.472   2.591 -2.2397 -1.8003  1.3329
 3831SOL    HW222953   4.469   4.380   2.705  0.0615 -0.9012 -0.0882
 3832SOL     OW22954   4.462   4.023   4.941  0.3366 -0.1339  0.1206
 3832SOL    HW122955   4.436   4.082   5.012 -0.8102 -2.4153  1.5997
 3832SOL    HW222956   4.476   4.086   4.870  0.4958  1.2373  1.3646
 3833SOL     OW22957   4.317   4.438  13.900 -0.2633  0.0466 -0.2548
 3833SOL    HW122958   4.361   4.365  13.856 -0.9705 -1.3795  1.3910
 3833SOL    HW222959   4.376   4.442  13.975 -0.6561  1.3735 -0.0148
 3834SOL     OW22960   2.736   0.826   3.744  0.3392  0.8326  0.4322
 3834SOL    HW122961   2.817   0.862   3.780  0.4214  2.8927 -1.8023
 3834SOL    HW222962   2.694   0.801   3.827  0.0490 -2.1007 -0.5701
 3835SOL     OW22963   1.725   0.237  15.908 -0.4115  0.6314 -0.1860
 3835SOL    HW122964   1.754   0.152  15.876  0.5317  1.8153 -2.4716
 3835SOL    HW222965   1.630   0.224  15.912 -0.6057  2.3081  0.7111
 3836SOL     OW22966   4.524   4.218   7.711  0.3218 -0.0391 -0.1628
 3836SOL    HW122967   4.449   4.180   7.757 -0.3897  2.8183  1.0352
 3836SOL    HW222968   4.526   4.309   7.740  2.8064 -0.3554  0.6507
 3837SOL     OW22969   3.673   0.559   6.042  0.0595  0.2694 -0.4438
 3837SOL    HW122970   3.717   0.527   6.121 -0.5550  2.5112  0.8056
 3837SOL    HW222971   3.705   0.649   6.041 -1.8728  0.9683 -0.2931
 3838SOL     OW22972   1.459   3.630   8.703  0.0449 -0.0075 -0.0335
 3838SOL    HW122973   1.514   3.578   8.762  0.5951  0.9833  0.3322
 3838SOL    HW222974   1.528   3.687   8.670  0.1988 -0.3195 -0.2489
 3839SOL     OW22975   2.342   2.331   4.013  0.3597  0.2430  0.2045
 3839SOL    HW122976   2.417   2.366   3.965 -0.3787  3.4209  1.4119
 3839SOL    HW222977   2.372   2.344   4.103  0.9086 -4.6132  0.7487
 3840SOL     OW22978   4.589   2.697  13.929  0.1081  0.1990 -0.3715
 3840SOL    HW122979   4.583   2.721  13.836 -0.8430 -0.3392 -0.4451
 3840SOL    HW222980   4.557   2.779  13.967 -1.5543 -0.9180  0.5899
 3841SOL     OW22981   2.174   0.214   4.420  0.1176  0.5734  0.2570
 3841SOL    HW122982   2.176   0.303   4.456  0.6880 -0.0971  1.8625
 3841SOL    HW222983   2.261   0.224   4.382 -0.8078 -0.8636 -2.2566
 3842SOL     OW22984   3.373   3.934   7.914  0.1508  0.0875  0.9352
 3842SOL    HW122985   3.443   3.910   7.976  1.1037  1.3424  0.3485
 3842SOL    HW222986   3.335   3.848   7.901 -0.6966  0.8962 -1.7449
 3843SOL     OW22987   3.183   1.819  17.353  0.3101 -0.6342  0.4764
 3843SOL    HW122988   3.134   1.746  17.390 -1.8276 -0.1452 -1.3676
 3843SOL    HW222989   3.110   1.871  17.319  1.5163  2.7327  3.0460
 3844SOL     OW22990   1.288   3.625   4.112  0.4385  0.1655 -0.0269
 3844SOL    HW122991   1.233   3.641   4.035  0.5281  0.4663 -0.0266
 3844SOL    HW222992   1.364   3.662   4.067  0.1819  1.9402  1.0308
 3845SOL     OW22993   4.463   0.988   2.873  0.2756 -0.3874  0.3129
 3845SOL    HW122994   4.421   0.970   2.957 -2.3002  1.8235 -0.5171
 3845SOL    HW222995   4.405   1.054   2.836  0.5015  0.0963  0.8278
 3846SOL     OW22996   3.349   1.540   7.214 -0.6178  0.4391 -0.0802
 3846SOL    HW122997   3.315   1.627   7.194  0.2775  0.8360  0.1212
 3846SOL    HW222998   3.375   1.546   7.305  1.3588  0.7811 -0.6738
 3847SOL     OW22999   1.933   3.880   8.929 -0.0290  0.4402 -0.5036
 3847SOL    HW123000   1.854   3.856   8.978 -1.3064  0.0932 -2.7398
 3847SOL    HW223001   1.968   3.791   8.929 -0.5675  0.2299  0.0230
 3848SOL     OW23002   1.674   0.070   0.816 -0.7743 -0.6382  0.7181
 3848SOL    HW123003   1.737   0.142   0.812  1.3490 -2.6851 -2.4015
 3848SOL    HW223004   1.697   0.011   0.744 -1.8083 -0.3995  0.2025
 3849SOL     OW23005   3.234   4.597  12.198 -0.3261  0.1174 -0.2022
 3849SOL    HW123006   3.324   4.618  12.223 -1.3298  2.4680  1.4088
 3849SOL    HW223007   3.239   4.503  12.177  1.4213  0.8795 -3.1419
 3850SOL     OW23008   0.945   3.395   7.259  0.1805 -0.6732 -0.6446
 3850SOL    HW123009   1.036   3.418   7.278  0.2734 -1.3496 -0.2627
 3850SOL    HW223010   0.972   3.340   7.186  1.4396 -0.8760 -0.0183
 3851SOL     OW23011   1.030   4.541   0.331 -0.7183  0.0747  0.7155
 3851SOL    HW123012   0.991   4.628   0.344 -2.5854 -0.6424 -0.1612
 3851SOL    HW223013   1.020   4.501   0.417 -0.7128 -3.9005 -1.1423
 3852SOL     OW23014   0.103   1.604  15.690 -0.6995 -0.5773 -0.3748
 3852SOL    HW123015   0.029   1.548  15.712 -1.2517 -0.0242 -0.8209
 3852SOL    HW223016   0.115   1.573  15.600  1.9406  0.3065 -0.3213
 3853SOL     OW23017   2.159   1.938   8.470  0.1877  1.0595  0.0374
 3853SOL    HW123018   2.076   1.892   8.480 -0.2593  2.0332  0.8228
 3853SOL    HW223019   2.182   1.958   8.561  0.1205  0.9653  0.0756
 3854SOL     OW23020   4.628   2.569   1.079  0.1636  0.0790 -0.3766
 3854SOL    HW123021   4.540   2.605   1.076  0.2422  0.2927 -0.1412
 3854SOL    HW223022   4.651   2.577   1.172  0.7578  4.1910 -0.8428
 3855SOL     OW23023   2.421   4.616   1.168 -0.3120 -0.6454 -0.6944
 3855SOL    HW123024   2.459   4.553   1.230 -0.2796  0.1743  0.1175
 3855SOL    HW223025   2.333   4.631   1.201 -0.0897 -0.0859 -0.3516
 3856SOL     OW23026   4.239   0.405   8.173  0.3468  0.4632 -0.4717
 3856SOL    HW123027   4.312   0.453   8.213  0.6706  0.2447 -0.8090
 3856SOL    HW223028   4.165   0.453   8.210 -0.0089  1.8431 -2.9773
 3857SOL     OW23029   3.244   2.112  12.709 -0.2110  1.0052 -0.1558
 3857SOL    HW123030   3.202   2.097  12.625  0.9014  0.0594 -0.5510
 3857SOL    HW223031   3.217   2.037  12.763 -2.5109 -0.7173 -3.7030
 3858SOL     OW23032   3.431   0.384   3.175 -0.3501 -0.1847  0.2784
 3858SOL    HW123033   3.389   0.371   3.090 -1.4959 -3.8525  1.3985
 3858SOL    HW223034   3.363   0.359   3.238  0.0331 -0.6897  0.4915
 3859SOL     OW23035   2.381   3.203   2.214  0.1056 -0.2210  0.4172
 3859SOL    HW123036   2.351   3.169   2.299  2.3488 -2.5163  0.2953
 3859SOL    HW223037   2.464   3.156   2.209  1.5295  2.2040  1.5328
 3860SOL     OW23038   2.402   2.518   6.833  0.1976  0.9868  0.3393
 3860SOL    HW123039   2.314   2.490   6.859  0.9993 -0.2252  1.7463
 3860SOL    HW223040   2.418   2.587   6.897 -0.3693 -0.1717  1.7282
 3861SOL     OW23041   0.646   2.231   7.604  0.2255 -0.2576  0.2365
 3861SOL    HW123042   0.666   2.271   7.519  1.1891 -2.0810 -0.3836
 3861SOL    HW223043   0.559   2.270   7.615  0.3525 -0.0438  0.5101
 3862SOL     OW23044   0.699   0.192   9.173  0.0949 -0.2580  0.1171
 3862SOL    HW123045   0.737   0.218   9.257 -0.7895  0.1977  0.3680
 3862SOL    HW223046   0.613   0.233   9.175 -0.6342 -1.8133  0.4204
 3863SOL     OW23047   0.293   1.375   3.346 -0.2236 -0.0847  0.3241
 3863SOL    HW123048   0.258   1.342   3.429  0.7323 -1.3205  0.2452
 3863SOL    HW223049   0.387   1.378   3.364 -0.1808 -0.8206  0.2375
 3864SOL     OW23050   1.723   2.885   7.611  0.3527 -0.4319  0.6664
 3864SOL    HW123051   1.763   2.957   7.563 -1.7625  1.3740  1.6262
 3864SOL    HW223052   1.760   2.903   7.697  2.1907  1.5423 -0.5578
 3865SOL     OW23053   3.331   2.493   8.069  0.2417  0.3050  0.4341
 3865SOL    HW123054   3.240   2.505   8.041 -0.0573 -0.5300  1.0676
 3865SOL    HW223055   3.382   2.517   7.991 -0.7852  2.1865  0.3262
 3866SOL     OW23056   0.466   0.683   8.578  0.4566 -0.4818  0.1237
 3866SOL    HW123057   0.542   0.671   8.635  0.8472 -0.6286 -0.4291
 3866SOL    HW223058   0.398   0.672   8.645  0.0908  1.9356  0.1328
 3867SOL     OW23059   1.987   0.985   6.894 -0.3880 -0.3743  0.1643
 3867SOL    HW123060   2.004   0.993   6.988  0.9365 -2.5004  0.0900
 3867SOL    HW223061   2.071   0.950   6.865 -0.0231  0.1792  0.5451
 3868SOL     OW23062   1.381   3.298   1.377 -0.3583  0.1322  0.0363
 3868SOL    HW123063   1.448   3.337   1.434 -2.4688  1.5236  1.5683
 3868SOL    HW223064   1.410   3.208   1.361  1.1560  0.6576 -0.2393
 3869SOL     OW23065   2.866   0.016   3.481 -0.2691  0.1526  0.5582
 3869SOL    HW123066   2.919   0.026   3.401  0.8081 -1.9484  1.0310
 3869SOL    HW223067   2.934   0.022   3.548 -0.3273  1.0607  0.5409
 3870SOL     OW23068   3.385   3.295   8.438  0.0538 -0.0803 -0.0238
 3870SOL    HW123069   3.443   3.334   8.372 -0.5623 -1.4862 -1.4029
 3870SOL    HW223070   3.301   3.291   8.392  0.2287 -3.8031 -0.0244
 3871SOL     OW23071   0.587   1.462   1.275 -0.2543 -0.6207 -0.2186
 3871SOL    HW123072   0.666   1.497   1.234  0.6122 -2.6786 -0.3249
 3871SOL    HW223073   0.534   1.451   1.196 -0.4846 -0.5987 -0.0665
 3872SOL     OW23074   1.619   4.602   2.633  0.2826 -0.0867  0.1302
 3872SOL    HW123075   1.598   4.642   2.717 -1.2095  1.0136 -0.7589
 3872SOL    HW223076   1.698   4.651   2.611  0.8095 -0.9245  0.1700
 3873SOL     OW23077   3.616   4.154  16.262 -0.0183 -0.0320  0.0118
 3873SOL    HW123078   3.678   4.201  16.207  1.2761 -1.4072  0.2766
 3873SOL    HW223079   3.561   4.122  16.190  1.5809  0.8060 -1.5684
 3874SOL     OW23080   3.812   4.100   7.909 -0.2729 -0.3015 -0.2900
 3874SOL    HW123081   3.905   4.110   7.931 -0.4967 -2.2216  1.5646
 3874SOL    HW223082   3.809   4.127   7.817 -2.1608  0.9934  0.1560
 3875SOL     OW23083   1.023   2.677   4.370 -0.2616  0.0860  0.0274
 3875SOL    HW123084   0.955   2.652   4.433 -0.1313  0.7739  0.4381
 3875SOL    HW223085   0.967   2.710   4.300 -0.2607 -1.1862 -0.5762
 3876SOL     OW23086   1.063   4.707   6.473  0.1442  0.2920 -0.0105
 3876SOL    HW123087   1.073   0.072   6.508 -0.4556  0.8290 -1.1754
 3876SOL    HW223088   1.051   4.663   6.557  0.2447  2.9134  1.4038
 3877SOL     OW23089   1.198   1.481   3.749 -0.0937  0.4834 -0.6383
 3877SOL    HW123090   1.226   1.406   3.697 -0.1957  0.4392 -0.6293
 3877SOL    HW223091   1.107   1.462   3.774 -0.1739  0.3522 -1.0313
 3878SOL     OW23092   2.470   4.648  10.424 -0.2980 -0.3868 -0.1767
 3878SOL    HW123093   2.494   4.611  10.509 -0.3568  0.6152  0.2882
 3878SOL    HW223094   2.505   0.014  10.435 -2.7111  0.4950  0.4461
 3879SOL     OW23095   4.575   2.427  13.872  0.0079  0.5512  0.5529
 3879SOL    HW123096   4.627   2.442  13.793  0.3546 -3.0285  0.1175
 3879SOL    HW223097   4.565   2.519  13.896 -1.7525  0.7422 -0.9488
 3880SOL     OW23098   0.562   0.500   2.749 -0.4934  0.7625 -0.3564
 3880SOL    HW123099   0.582   0.582   2.703 -2.2699  0.8647 -0.9551
 3880SOL    HW223100   0.556   0.521   2.842  6.6541 -1.6774  0.5934
 3881SOL     OW23101   3.973   0.060   3.688  0.2487  0.0405 -0.0606
 3881SOL    HW123102   4.037   0.092   3.625 -0.0648 -1.1955 -1.0047
 3881SOL    HW223103   4.025   0.047   3.767 -0.7855 -3.6750  0.0097
 3882SOL     OW23104   0.039   0.842   5.042 -0.3251 -0.1531 -0.7350
 3882SOL    HW123105   0.028   0.772   5.105 -0.4291  0.6208  0.1085
 3882SOL    HW223106   0.133   0.861   5.042 -0.2984 -0.2621 -2.3771
 3883SOL     OW23107   1.159   0.408  15.173 -0.3382  0.2811  0.2852
 3883SOL    HW123108   1.079   0.451  15.205 -1.8679 -1.2629 -1.4745
 3883SOL    HW223109   1.123   0.364  15.096 -0.4413  0.4962  0.2092
 3884SOL     OW23110   2.430   3.424   5.434  0.1108  0.2891  0.1398
 3884SOL    HW123111   2.406   3.478   5.509 -1.4851 -0.2416  0.0028
 3884SOL    HW223112   2.344   3.387   5.413  1.4482 -1.1039 -2.9139
 3885SOL     OW23113   2.481   0.016   7.574  0.4691 -0.5200 -0.1899
 3885SOL    HW123114   2.445   4.701   7.654  1.0645 -2.5643 -0.8809
 3885SOL    HW223115   2.575   0.008   7.586  0.2586  2.6288  3.6050
 3886SOL     OW23116   3.988   0.881   8.771  0.4886 -0.0866 -0.3448
 3886SOL    HW123117   4.081   0.896   8.788  0.5075  0.4968 -0.9647
 3886SOL    HW223118   3.969   0.931   8.692 -0.8727  0.7186  0.4900
 3887SOL     OW23119   1.805   3.122   7.803  0.1779 -0.7126  0.2483
 3887SOL    HW123120   1.877   3.121   7.740  1.7741 -0.6698  2.0665
 3887SOL    HW223121   1.850   3.155   7.882 -0.9332  1.6333 -0.1061
 3888SOL     OW23122   1.400   4.682   3.527  0.2566  0.0534 -0.2073
 3888SOL    HW123123   1.469   0.023   3.543  0.1754  0.6753 -2.2951
 3888SOL    HW223124   1.413   4.619   3.597 -0.6510 -1.3864 -1.3362
 3889SOL     OW23125   0.536   2.999   1.929 -0.2095 -0.2741 -0.0258
 3889SOL    HW123126   0.602   3.021   1.995  0.4683 -1.5420 -0.2816
 3889SOL    HW223127   0.558   2.909   1.904  2.2227  0.4682 -0.5548
 3890SOL     OW23128   1.103   2.649   7.018  0.5764  0.3587  0.0056
 3890SOL    HW123129   1.134   2.736   7.041 -1.8593  1.2107  0.0858
 3890SOL    HW223130   1.098   2.616   7.107  1.1453  0.5404  0.1000
 3891SOL     OW23131   3.914   2.586   1.066  0.1969 -0.1897 -0.3322
 3891SOL    HW123132   3.844   2.531   1.101 -0.5498 -0.2207 -1.8563
 3891SOL    HW223133   3.922   2.550   0.977 -0.0467  1.0698 -0.8624
 3892SOL     OW23134   4.596   0.842   9.089 -0.1888  0.1757 -0.0287
 3892SOL    HW123135   4.629   0.841   8.999 -0.7672  0.9469 -0.2486
 3892SOL    HW223136   4.520   0.900   9.082 -0.1184  0.1552 -0.9720
 3893SOL     OW23137   0.487   0.672  10.384 -0.0674 -0.5503 -0.0783
 3893SOL    HW123138   0.395   0.688  10.405  0.7010  4.1519 -0.3243
 3893SOL    HW223139   0.528   0.693  10.467 -0.1264 -1.8227  0.2705
 3894SOL     OW23140   1.864   1.175   9.245  0.1903 -0.1949  0.8705
 3894SOL    HW123141   1.946   1.222   9.263 -0.8319  1.5629  0.9227
 3894SOL    HW223142   1.881   1.149   9.155  0.3466  2.3389  0.1772
 3895SOL     OW23143   2.554   0.187   1.866 -0.5412 -0.1849 -0.6996
 3895SOL    HW123144   2.473   0.238   1.873  0.2265  0.7982  0.9349
 3895SOL    HW223145   2.546   0.155   1.777  2.6716 -0.4545 -0.8618
 3896SOL     OW23146   2.270   3.807   1.060  0.2693 -0.1237  0.5463
 3896SOL    HW123147   2.335   3.737   1.049  0.6851  0.4118 -0.4067
 3896SOL    HW223148   2.194   3.758   1.090  0.5294 -1.2914 -0.6659
 3897SOL     OW23149   4.100   4.100   4.986 -0.2402  0.2673  0.2470
 3897SOL    HW123150   4.180   4.119   5.035 -0.8599  0.4761  1.1787
 3897SOL    HW223151   4.073   4.030   5.045 -2.0573  0.3801 -0.4510
 3898SOL     OW23152   1.440   0.161  14.023  0.0797 -0.2477 -0.2360
 3898SOL    HW123153   1.455   0.101  14.096 -2.2019 -0.6352 -0.1114
 3898SOL    HW223154   1.345   0.150  14.028  0.2040 -1.3353 -0.2541
 3899SOL     OW23155   2.214   4.087   3.121 -0.5040 -1.1061  0.1683
 3899SOL    HW123156   2.308   4.104   3.117 -0.7882  0.7736  1.9108
 3899SOL    HW223157   2.194   4.148   3.050 -0.5905  1.0334  2.0591
 3900SOL     OW23158   0.323   2.165   2.294  0.0719 -0.6561  0.6377
 3900SOL    HW123159   0.382   2.159   2.369  0.3443 -1.1419  0.3825
 3900SOL    HW223160   0.245   2.136   2.342  0.6403  1.4189  2.8158
 3901SOL     OW23161   3.437   4.515   0.743 -0.5199  0.2165 -0.5035
 3901SOL    HW123162   3.530   4.512   0.722  0.3767 -1.1609  3.6822
 3901SOL    HW223163   3.421   4.424   0.771  1.3363 -0.7518 -2.6412
 3902SOL     OW23164   3.857   1.635   5.563 -0.0016  0.1082 -0.2451
 3902SOL    HW123165   3.892   1.550   5.535 -0.2184  0.2898 -1.0533
 3902SOL    HW223166   3.819   1.612   5.648 -0.8451  1.4449 -0.2654
 3903SOL     OW23167   3.299   3.221  10.241 -0.3208 -0.1091  0.1268
 3903SOL    HW123168   3.308   3.269  10.159 -0.8740  1.6615  1.1039
 3903SOL    HW223169   3.392   3.202  10.245 -0.7369 -2.2667 -0.4537
 3904SOL     OW23170   1.940   0.425   2.940 -0.1216  0.3074 -0.1490
 3904SOL    HW123171   2.015   0.405   2.884 -0.0511  0.6135 -0.1601
 3904SOL    HW223172   1.986   0.493   2.988  0.1995 -1.4646  2.0995
 3905SOL     OW23173   4.480   3.724  15.405  0.4338  0.0547 -0.1653
 3905SOL    HW123174   4.406   3.780  15.429  0.0364 -0.3305 -0.4979
 3905SOL    HW223175   4.515   3.762  15.325  0.4664 -3.9327 -2.0261
 3906SOL     OW23176   0.014   0.377   5.033  0.2294  0.3158  0.8942
 3906SOL    HW123177   0.083   0.325   5.072 -0.5245 -1.2741  0.1400
 3906SOL    HW223178   0.059   0.438   4.974 -1.2115  0.0922 -0.4352
 3907SOL     OW23179   2.116   0.779  14.730  0.2331 -0.0931  0.0488
 3907SOL    HW123180   2.200   0.747  14.695  0.7887 -0.3389  1.6009
 3907SOL    HW223181   2.066   0.703  14.699  0.9982  0.1582 -1.8457
 3908SOL     OW23182   3.548   1.321   0.578 -0.4634  0.2073 -0.4899
 3908SOL    HW123183   3.476   1.267   0.609 -0.5758 -0.2996 -1.6259
 3908SOL    HW223184   3.561   1.279   0.493 -0.6152  1.2900 -1.0539
 3909SOL     OW23185   1.975   0.365   7.214  0.0094  0.4035  0.4498
 3909SOL    HW123186   2.070   0.365   7.225  0.0448  1.8184  0.0362
 3909SOL    HW223187   1.957   0.440   7.158  1.4355  0.4979  0.1323
 3910SOL     OW23188   4.689   2.768   4.597  0.0285  0.2949 -0.3310
 3910SOL    HW123189   4.649   2.836   4.542 -0.1037 -0.2353 -0.8924
 3910SOL    HW223190   0.045   2.753   4.546  0.4908  0.6832  0.2748
 3911SOL     OW23191   4.012   1.539   7.217  0.3329  0.2394  0.0484
 3911SOL    HW123192   4.000   1.625   7.175 -1.1267 -0.0956 -0.2223
 3911SOL    HW223193   3.974   1.485   7.148 -0.9672 -0.6711  1.4836
 3912SOL     OW23194   0.755   3.579   5.120  0.1503  0.0301  0.3975
 3912SOL    HW123195   0.719   3.534   5.043 -0.7580 -0.2382  0.9788
 3912SOL    HW223196   0.673   3.605   5.162  0.4573 -1.5595  1.9483
 3913SOL     OW23197   0.340   0.053  11.559 -0.2593 -0.6227 -0.4421
 3913SOL    HW123198   0.261   0.053  11.613 -1.5792  0.4954 -2.4117
 3913SOL    HW223199   0.392   4.707  11.599 -1.0392 -0.9176  0.0678
 3914SOL     OW23200   1.447   2.007  16.603 -0.3242 -0.2376  0.0811
 3914SOL    HW123201   1.421   2.000  16.695 -0.1807  0.0109  0.1402
 3914SOL    HW223202   1.370   1.981  16.552 -0.8662 -1.3120  1.4404
 3915SOL     OW23203   1.816   4.217   1.343  0.3105  0.0492  0.1491
 3915SOL    HW123204   1.844   4.188   1.256  0.5635  1.1234 -0.1272
 3915SOL    HW223205   1.902   4.234   1.382 -0.2222 -1.0627  1.8267
 3916SOL     OW23206   1.278   4.454   0.220 -0.8385  0.7563 -0.1129
 3916SOL    HW123207   1.194   4.460   0.265 -1.0303  1.0071 -0.5056
 3916SOL    HW223208   1.265   4.390   0.150  0.7787 -1.6705  1.7904
 3917SOL     OW23209   3.684   0.378  17.097  0.5841  0.3375 -0.2458
 3917SOL    HW123210   3.765   0.327  17.092  1.4786  1.6474  0.8955
 3917SOL    HW223211   3.701   0.428  17.177 -0.6321  1.4786 -0.7012
 3918SOL     OW23212   2.989   0.249  12.940 -0.2873  0.4544 -0.2151
 3918SOL    HW123213   3.004   0.257  13.035 -0.5223  1.5024 -0.2629
 3918SOL    HW223214   3.053   0.316  12.916 -1.3607  2.4506  2.4781
 3919SOL     OW23215   0.878   4.358   8.103 -0.0389 -0.0143 -0.2145
 3919SOL    HW123216   0.962   4.405   8.104 -0.2041  0.2733  1.3886
 3919SOL    HW223217   0.829   4.418   8.048 -1.1158 -1.4279 -0.7698
 3920SOL     OW23218   0.051   4.430   2.823 -0.3638 -0.2510  0.1535
 3920SOL    HW123219   0.035   4.408   2.732  1.6018 -2.0103  0.2381
 3920SOL    HW223220   0.075   4.523   2.823 -0.8397 -0.1277 -0.4616
 3921SOL     OW23221   0.317   0.245   2.770  0.3807 -0.4176  0.0811
 3921SOL    HW123222   0.237   0.284   2.804  0.6485 -0.9450  1.3232
 3921SOL    HW223223   0.367   0.264   2.849  1.4941  0.0980 -0.7471
 3922SOL     OW23224   3.324   1.945   8.537 -0.0862  0.6029 -0.0712
 3922SOL    HW123225   3.411   1.941   8.498  0.5293  0.3609  1.3569
 3922SOL    HW223226   3.339   1.984   8.623 -2.2476  3.6301 -1.0577
 3923SOL     OW23227   1.965   2.602   7.700  0.1247 -0.3085  0.1335
 3923SOL    HW123228   1.951   2.605   7.605  1.0777  0.1225  0.0121
 3923SOL    HW223229   1.929   2.515   7.722  1.1525 -0.3578  1.6142
 3924SOL     OW23230   2.074   2.204  16.913 -0.0201  0.2794 -0.5002
 3924SOL    HW123231   2.111   2.290  16.933 -2.1793  1.0126  0.3421
 3924SOL    HW223232   2.033   2.215  16.828  0.7869 -1.1496 -1.0884
 3925SOL     OW23233   4.050   3.453   4.136 -0.1190 -0.1069  0.2387
 3925SOL    HW123234   3.981   3.392   4.111  1.5145 -1.2877 -1.4796
 3925SOL    HW223235   4.009   3.537   4.118 -2.1705 -0.9701  0.8836
 3926SOL     OW23236   0.998   0.490   2.757  0.4537 -0.1284  0.0953
 3926SOL    HW123237   0.989   0.434   2.680 -0.5003  2.2601 -1.5416
 3926SOL    HW223238   1.089   0.474   2.783  0.4020 -0.2579  0.1941
 3927SOL     OW23239   0.529   3.115   2.699 -0.8505 -0.5402  0.6767
 3927SOL    HW123240   0.563   3.027   2.713 -1.7084 -0.6630  1.9907
 3927SOL    HW223241   0.446   3.088   2.661 -0.5218  1.4217 -1.4571
 3928SOL     OW23242   3.722   2.363   3.978  0.4474  0.0614 -0.0835
 3928SOL    HW123243   3.732   2.269   3.991 -0.3504 -0.0162 -0.0653
 3928SOL    HW223244   3.784   2.371   3.904 -0.0074 -0.5748 -0.5300
 3929SOL     OW23245   0.317   2.026   8.498  0.4639 -0.1819 -0.0203
 3929SOL    HW123246   0.258   1.996   8.428  0.8040 -0.6008 -0.1237
 3929SOL    HW223247   0.328   2.118   8.473 -2.2675  0.6562  1.7544
 3930SOL     OW23248   0.974   1.963   5.219  0.7446  0.0810 -0.0174
 3930SOL    HW123249   0.973   2.059   5.214  0.3746  0.0122 -1.1757
 3930SOL    HW223250   0.900   1.929   5.169  0.4620 -0.5998  0.8478
 3931SOL     OW23251   2.422   2.868   4.789 -0.5310  0.1365  0.1022
 3931SOL    HW123252   2.451   2.922   4.863  1.7455 -2.5806  1.1848
 3931SOL    HW223253   2.487   2.887   4.721 -0.9071  0.8797 -0.0488
 3932SOL     OW23254   2.572   4.503   9.495  0.3052 -0.1670 -0.0912
 3932SOL    HW123255   2.566   4.432   9.560  0.4204  0.6368  0.7981
 3932SOL    HW223256   2.650   4.550   9.524 -2.2155  4.0462 -0.2425
 3933SOL     OW23257   4.333   1.373   3.147 -0.0512  0.0708  0.0980
 3933SOL    HW123258   4.360   1.456   3.185  1.7021 -0.2258 -0.4905
 3933SOL    HW223259   4.404   1.369   3.082  1.1354 -0.1058  1.4086
 3934SOL     OW23260   4.103   4.495   4.442  0.3782  0.0767 -0.2287
 3934SOL    HW123261   4.126   4.416   4.393 -0.1070 -0.5394  0.5192
 3934SOL    HW223262   4.041   4.459   4.506 -1.2151  2.9037 -0.1604
 3935SOL     OW23263   1.785   4.083   8.351  0.0171  0.2352 -0.2431
 3935SOL    HW123264   1.854   4.142   8.322  2.2614 -2.4970 -0.5171
 3935SOL    HW223265   1.751   4.057   8.266 -0.3434 -4.6025  1.3829
 3936SOL     OW23266   2.206   1.143   8.664 -0.0771  0.6179  0.1617
 3936SOL    HW123267   2.217   1.147   8.569 -0.5374  1.4006  0.1447
 3936SOL    HW223268   2.150   1.067   8.680 -0.3501  0.9648  0.8553
 3937SOL     OW23269   2.405   4.581   7.825  0.2228  0.1791  0.1946
 3937SOL    HW123270   2.454   4.547   7.899 -1.6824  0.3886  1.5435
 3937SOL    HW223271   2.327   4.525   7.823  0.3563 -0.0553  1.4569
 3938SOL     OW23272   4.402   3.521   4.977 -0.1215 -0.7412  0.8243
 3938SOL    HW123273   4.460   3.592   4.947 -0.6478 -0.5699  0.2346
 3938SOL    HW223274   4.398   3.468   4.898 -0.7803 -0.3148  0.5720
 3939SOL     OW23275   3.594   3.254   2.066 -0.2532  0.2300  0.5611
 3939SOL    HW123276   3.536   3.178   2.068  0.0943  0.0323  3.9962
 3939SOL    HW223277   3.634   3.254   2.153 -0.3057  0.3430  0.5858
 3940SOL     OW23278   1.584   4.135  12.629  0.7913  0.0220 -0.3862
 3940SOL    HW123279   1.589   4.053  12.579  0.8090  1.1828 -2.2717
 3940SOL    HW223280   1.667   4.118  12.674 -0.0608 -1.0379  0.7786
 3941SOL     OW23281   1.702   0.718   0.782  0.0962 -0.4663  0.1131
 3941SOL    HW123282   1.691   0.755   0.694  0.4571  1.0267  0.7010
 3941SOL    HW223283   1.786   0.672   0.776 -0.5025 -1.2368 -2.3527
 3942SOL     OW23284   1.382   4.075   4.040 -0.5105 -0.5709 -0.3318
 3942SOL    HW123285   1.380   4.170   4.042  0.2094 -0.5102 -2.2583
 3942SOL    HW223286   1.454   4.063   4.101 -1.0242 -0.1022  0.3608
 3943SOL     OW23287   1.614   3.978   8.555  0.2063 -0.5272  0.1253
 3943SOL    HW123288   1.648   3.929   8.629  0.7126 -1.2224 -0.5614
 3943SOL    HW223289   1.689   3.995   8.497 -1.0880  0.5565 -1.2380
 3944SOL     OW23290   1.285   4.557   2.922 -0.5202  0.0341  0.3479
 3944SOL    HW123291   1.240   4.475   2.941 -1.0819  0.5117  1.1038
 3944SOL    HW223292   1.234   4.623   2.971  0.6369  1.5797 -0.5438
 3945SOL     OW23293   1.298   2.741   6.108 -0.5138 -0.2198  0.1103
 3945SOL    HW123294   1.378   2.695   6.131 -1.5756 -3.5775 -2.8200
 3945SOL    HW223295   1.295   2.730   6.013 -0.9099  0.8312 -0.0045
 3946SOL     OW23296   0.743   0.459  11.127  0.3563  0.6390 -0.4954
 3946SOL    HW123297   0.751   0.548  11.094  2.3312  0.6506  0.0608
 3946SOL    HW223298   0.660   0.451  11.174 -0.2559  1.3886 -1.4515
 3947SOL     OW23299   0.379   0.027   6.294  0.2984  0.0374 -0.6772
 3947SOL    HW123300   0.441   4.683   6.322 -2.3164 -1.4191  1.6076
 3947SOL    HW223301   0.399   0.097   6.356 -2.5057  0.6103 -0.3899
 3948SOL     OW23302   0.075   3.916   2.637  0.2047  0.6135  0.1381
 3948SOL    HW123303   4.707   3.944   2.649  0.9027  3.0490 -0.2149
 3948SOL    HW223304   0.084   3.848   2.704  0.5289 -1.0874 -1.6199
 3949SOL     OW23305   4.256   3.018   5.908  0.1110 -0.0643  0.1808
 3949SOL    HW123306   4.211   3.006   5.991  0.8689 -0.9458  0.4606
 3949SOL    HW223307   4.210   3.093   5.871  2.0099  0.4373 -1.2126
 3950SOL     OW23308   1.667   2.811   4.745  0.5582  0.4057  0.1078
 3950SOL    HW123309   1.621   2.745   4.693 -0.1703 -0.5932  2.0402
 3950SOL    HW223310   1.756   2.786   4.720  0.7401  0.5601  0.6023
 3951SOL     OW23311   0.380   3.451   8.437 -0.4944 -0.0426  0.1650
 3951SOL    HW123312   0.345   3.411   8.517 -1.9459 -0.7182 -0.8042
 3951SOL    HW223313   0.355   3.543   8.427 -1.0273 -0.0101  1.7562
 3952SOL     OW23314   2.153   3.409   8.297 -0.3439  0.3766  0.0129
 3952SOL    HW123315   2.220   3.368   8.241 -0.5744  0.5250 -0.3732
 3952SOL    HW223316   2.187   3.498   8.302  1.0826 -0.0574 -1.6270
 3953SOL     OW23317   1.429   0.084  15.939 -0.3214 -0.3774  0.0939
 3953SOL    HW123318   1.441   0.070  15.845 -1.0799 -0.5372  0.0176
 3953SOL    HW223319   1.511   0.046  15.969  0.2377  0.0250 -0.9169
 3954SOL     OW23320   3.098   0.927  16.765 -0.4856  0.3217  0.1665
 3954SOL    HW123321   3.171   0.942  16.825  1.0824 -2.0778 -1.1174
 3954SOL    HW223322   3.110   0.996  16.699 -2.0766 -0.9107 -1.4195
 3955SOL     OW23323   2.793   2.837  15.817 -0.5683 -0.4147 -0.1315
 3955SOL    HW123324   2.723   2.815  15.878  0.3102  1.0401  1.4047
 3955SOL    HW223325   2.862   2.854  15.882  0.7956 -0.9961 -1.4226
 3956SOL     OW23326   1.939   3.047  12.169  0.3424 -0.0013  0.2436
 3956SOL    HW123327   1.911   2.958  12.147  0.5820 -0.4017  1.5654
 3956SOL    HW223328   1.906   3.055  12.259  0.8760  3.1272  0.1711
 3957SOL     OW23329   3.987   4.578   6.047 -0.2052  0.3163 -0.4363
 3957SOL    HW123330   3.911   4.553   6.099  1.1207 -1.7403  0.5257
 3957SOL    HW223331   3.951   4.618   5.969  0.2237 -0.9790 -1.2973
 3958SOL     OW23332   0.569   3.351   3.585  0.0818 -0.7792 -0.0523
 3958SOL    HW123333   0.525   3.333   3.503 -1.2377 -0.4415  0.5777
 3958SOL    HW223334   0.551   3.267   3.626  0.1574 -0.4157  0.7336
 3959SOL     OW23335   2.047   0.109   9.113  0.4809  0.1846  0.1018
 3959SOL    HW123336   2.017   0.078   9.027  0.3663 -1.9480  0.9039
 3959SOL    HW223337   1.964   0.099   9.160 -1.0244  2.1509 -2.1396
 3960SOL     OW23338   0.151   3.914   4.852 -0.5682 -0.0006  0.7265
 3960SOL    HW123339   0.159   3.868   4.768  2.2341  0.6139  0.6861
 3960SOL    HW223340   0.118   3.999   4.825 -0.4870 -0.6423 -1.3942
 3961SOL     OW23341   0.235   4.011   9.182  0.1553  0.0081 -0.5410
 3961SOL    HW123342   0.145   4.022   9.150  0.0318  0.0497 -0.1845
 3961SOL    HW223343   0.223   4.019   9.277  1.1298  3.8520 -0.7396
 3962SOL     OW23344   3.685   1.058   5.319  0.2781  0.1689 -0.3045
 3962SOL    HW123345   3.647   1.067   5.232  1.4437  0.3627 -0.7958
 3962SOL    HW223346   3.648   1.136   5.362 -1.6124 -2.2236  2.3784
 3963SOL     OW23347   0.227   0.890   6.859 -0.2070 -0.2038  0.1075
 3963SOL    HW123348   0.274   0.809   6.838  2.9040  1.2276  1.5349
 3963SOL    HW223349   0.304   0.941   6.882  1.4021 -2.6876  0.3270
 3964SOL     OW23350   2.003   1.328   0.600 -0.4892  0.0417 -0.6055
 3964SOL    HW123351   2.046   1.259   0.549  1.7683 -0.6254  2.1759
 3964SOL    HW223352   2.055   1.403   0.571  0.1842  0.2470  1.1709
 3965SOL     OW23353   4.386   1.410  13.263 -0.0533 -0.2607 -0.0149
 3965SOL    HW123354   4.426   1.382  13.345 -0.0219 -0.1728 -0.0000
 3965SOL    HW223355   4.465   1.454  13.231 -0.6645  0.8194 -0.0560
 3966SOL     OW23356   4.107   4.563  17.159 -0.3949  0.2874  0.7206
 3966SOL    HW123357   4.061   4.630  17.211 -0.0438  0.8054  0.3650
 3966SOL    HW223358   4.123   4.496  17.226  2.4483  1.2034  0.9687
 3967SOL     OW23359   1.107   0.788   4.885 -0.1482  0.4444  0.3117
 3967SOL    HW123360   1.185   0.787   4.830  0.9358  1.8643  1.8264
 3967SOL    HW223361   1.062   0.720   4.835  0.9414 -0.3728  0.4575
 3968SOL     OW23362   0.623   0.004   7.277  0.8002  0.1083  0.3872
 3968SOL    HW123363   0.558   0.041   7.336  1.6507  2.0429  0.1060
 3968SOL    HW223364   0.640   4.652   7.333 -1.9804 -1.0784 -0.3723
 3969SOL     OW23365   1.242   1.220   4.168  0.5467 -0.2223 -0.1391
 3969SOL    HW123366   1.325   1.175   4.183  0.8210 -0.0083 -1.0172
 3969SOL    HW223367   1.184   1.143   4.172  1.3232 -0.8550 -1.0255
 3970SOL     OW23368   1.924   0.857   1.858  0.0768 -0.8913 -0.2832
 3970SOL    HW123369   1.838   0.822   1.834  0.1050 -0.0992 -1.4923
 3970SOL    HW223370   1.979   0.779   1.847 -0.8701 -1.5556 -0.3403
 3971SOL     OW23371   4.698   1.785   7.074 -0.0934  0.0945 -0.3843
 3971SOL    HW123372   0.036   1.852   7.044 -0.3425 -0.1264 -1.3771
 3971SOL    HW223373   4.617   1.831   7.053 -0.7074 -1.4306 -1.3756
 3972SOL     OW23374   0.802   3.113   4.147  0.1721 -0.2577 -0.0712
 3972SOL    HW123375   0.855   3.185   4.181  1.6440 -1.9678  1.2855
 3972SOL    HW223376   0.865   3.043   4.166  1.1788  0.9967  1.2152
 3973SOL     OW23377   0.404   1.261   7.937 -0.6236 -0.1449  0.4510
 3973SOL    HW123378   0.370   1.292   8.021 -1.2155  1.3951 -0.3633
 3973SOL    HW223379   0.473   1.206   7.974 -1.0977  0.6958  2.5816
 3974SOL     OW23380   0.488   2.124   6.810 -0.1576  0.6604 -0.1636
 3974SOL    HW123381   0.418   2.110   6.746  0.0561 -0.0138 -0.2486
 3974SOL    HW223382   0.439   2.126   6.892 -1.2629  0.7090 -0.8182
 3975SOL     OW23383   3.396   3.535   6.537  0.3739 -0.2368  0.0806
 3975SOL    HW123384   3.416   3.587   6.459  0.6589 -1.7315 -0.8215
 3975SOL    HW223385   3.462   3.466   6.531  0.5424  0.0409 -1.2128
 3976SOL     OW23386   2.580   3.956  14.174  0.1308  0.9968  0.7477
 3976SOL    HW123387   2.615   3.881  14.125 -0.7825  1.4876 -0.6752
 3976SOL    HW223388   2.504   3.980  14.120 -2.0149  0.6700  3.6037
 3977SOL     OW23389   3.612   0.356   2.913  0.1943  0.1498  0.0109
 3977SOL    HW123390   3.521   0.345   2.885  0.4756  0.0442 -0.8761
 3977SOL    HW223391   3.647   0.412   2.843 -0.7215  0.9827  0.2142
 3978SOL     OW23392   3.781   4.631   3.505 -0.1171  0.0758 -0.1080
 3978SOL    HW123393   3.847   4.655   3.569  0.0235  1.2903 -0.7046
 3978SOL    HW223394   3.715   4.700   3.508  0.4805  0.5833  1.3244
 3979SOL     OW23395   1.102   4.458   6.607 -0.0738 -0.0933  0.0046
 3979SOL    HW123396   1.028   4.398   6.611  1.1457 -1.6754 -1.2684
 3979SOL    HW223397   1.088   4.494   6.695 -1.4658  2.1269 -1.1255
 3980SOL     OW23398   3.159   1.200   3.207  0.0597  0.2467  0.2869
 3980SOL    HW123399   3.137   1.278   3.156 -2.2038 -1.4510 -1.3316
 3980SOL    HW223400   3.221   1.164   3.143  0.6425 -1.0136  1.5398
 3981SOL     OW23401   0.508   1.584   8.708  0.2756  0.6190  0.0640
 3981SOL    HW123402   0.511   1.586   8.804 -1.9824  0.9518  0.1266
 3981SOL    HW223403   0.594   1.622   8.689  0.2026  0.1292 -1.2019
 3982SOL     OW23404   2.808   1.221   4.336  0.1323  0.1256  0.4568
 3982SOL    HW123405   2.791   1.134   4.299 -1.5296  0.1770  1.0986
 3982SOL    HW223406   2.775   1.275   4.265 -0.2681  2.3619  2.3473
 3983SOL     OW23407   2.169   2.169   4.584  0.7730  0.4684 -0.6123
 3983SOL    HW123408   2.235   2.100   4.596  1.0824  0.2479 -3.6090
 3983SOL    HW223409   2.206   2.250   4.619  1.0746  0.8998 -1.9378
 3984SOL     OW23410   1.054   2.450  15.489  0.1202 -0.1436  0.1160
 3984SOL    HW123411   1.050   2.535  15.534 -0.1708 -0.3930  0.5594
 3984SOL    HW223412   1.036   2.469  15.397 -0.7674 -1.2230  0.0732
 3985SOL     OW23413   1.295   3.599   2.357 -0.8527  0.4140  0.2442
 3985SOL    HW123414   1.341   3.601   2.272  0.1923 -1.3732  0.7588
 3985SOL    HW223415   1.228   3.667   2.350 -0.7411  0.6153  1.1653
 3986SOL     OW23416   0.077   3.524   4.391  0.1378 -0.2012 -0.3402
 3986SOL    HW123417   0.131   3.601   4.372  1.4149 -0.9768  0.0851
 3986SOL    HW223418   4.715   3.557   4.365  0.3255  0.8522  0.3779
 3987SOL     OW23419   3.234   3.976   3.790  0.0033 -0.2490  0.1222
 3987SOL    HW123420   3.328   3.992   3.789  0.1744 -1.4323 -2.2180
 3987SOL    HW223421   3.206   4.054   3.837 -1.3076 -0.0386 -1.0036
 3988SOL     OW23422   2.512   4.033   4.154  0.1149  0.7845 -0.7972
 3988SOL    HW123423   2.436   4.089   4.167 -1.9219 -2.3079  0.7233
 3988SOL    HW223424   2.477   3.978   4.085  0.2138 -0.0720 -0.1671
 3989SOL     OW23425   1.377   3.935  14.816  0.5523  0.3315  0.2334
 3989SOL    HW123426   1.393   3.893  14.732 -0.0849 -0.0584  0.3061
 3989SOL    HW223427   1.292   3.893  14.825  0.7621 -0.1207  0.0982
 3990SOL     OW23428   0.023   2.785   8.717  0.3858  0.5376  0.4851
 3990SOL    HW123429   0.028   2.712   8.656  0.5539  1.6536 -0.8395
 3990SOL    HW223430   0.009   2.746   8.803 -0.4981 -2.3866 -0.9994
 3991SOL     OW23431   3.567   4.045   1.503  0.5688  0.2651  0.0280
 3991SOL    HW123432   3.619   3.972   1.536 -0.1243 -0.9988 -1.7173
 3991SOL    HW223433   3.499   4.050   1.570  1.2176  0.1339  0.7016
 3992SOL     OW23434   2.979   2.913   4.138  0.0364  0.2368 -0.4545
 3992SOL    HW123435   3.017   3.000   4.148 -0.0917  0.1153  1.0119
 3992SOL    HW223436   3.057   2.858   4.137 -0.2450 -0.2171  1.9949
 3993SOL     OW23437   2.779   3.465   7.542  0.7316  0.1070  0.3388
 3993SOL    HW123438   2.730   3.420   7.474 -0.4697  2.4796 -0.3725
 3993SOL    HW223439   2.786   3.556   7.512  0.3545 -0.8227 -2.4800
 3994SOL     OW23440   2.493   4.276   3.203  0.1894 -0.0973 -0.6861
 3994SOL    HW123441   2.571   4.308   3.157 -0.2084 -1.2560 -2.1702
 3994SOL    HW223442   2.444   4.358   3.210 -1.0319 -0.9106  0.2706
 3995SOL     OW23443   4.131   3.407   8.261 -0.4291  0.3197  0.2311
 3995SOL    HW123444   4.117   3.323   8.217 -0.8290 -0.9776  2.8005
 3995SOL    HW223445   4.180   3.375   8.337  0.8387  0.6472 -0.4607
 3996SOL     OW23446   1.751   3.791  17.022 -0.3169 -0.4255  0.0698
 3996SOL    HW123447   1.710   3.743  17.093  1.7913 -0.1225  1.4880
 3996SOL    HW223448   1.669   3.834  16.998  0.2663  0.3880 -0.4870
 3997SOL     OW23449   0.760   3.913   2.415  0.8535 -0.2330  0.0234
 3997SOL    HW123450   0.792   4.001   2.396  0.0467  0.0068 -0.2142
 3997SOL    HW223451   0.820   3.850   2.374 -0.7426 -1.3122 -0.6451
 3998SOL     OW23452   3.993   1.576  16.057  0.0373  0.0008  0.1118
 3998SOL    HW123453   4.005   1.660  16.013  2.1554 -0.7015 -0.6546
 3998SOL    HW223454   3.899   1.564  16.042 -0.1438  0.8743  0.5663
 3999SOL     OW23455   1.814   0.851   7.901 -0.1564  0.7602  0.2302
 3999SOL    HW123456   1.743   0.903   7.866 -0.8590 -0.5242 -0.2502
 3999SOL    HW223457   1.866   0.927   7.927  1.4808 -0.6332  1.0212
 4000SOL     OW23458   3.007   4.622  12.020  0.0398 -0.3706 -0.4711
 4000SOL    HW123459   3.077   4.682  12.047 -0.5513 -0.6436  1.6381
 4000SOL    HW223460   2.985   4.591  12.108 -0.2111 -1.3025 -0.8608
 4001SOL     OW23461   3.902   3.814  10.608 -0.0570 -0.0434 -0.2112
 4001SOL    HW123462   3.962   3.740  10.605  1.1520  0.9471 -0.2631
 4001SOL    HW223463   3.820   3.773  10.580 -0.4021 -1.1209  2.3842
 4002SOL     OW23464   4.046   3.028  11.335  0.5530 -0.7253  0.0279
 4002SOL    HW123465   4.131   2.985  11.341  1.3159  0.5925 -1.4603
 4002SOL    HW223466   4.065   3.119  11.314 -0.4285 -0.7274 -0.9167
 4003SOL     OW23467   2.509   3.442  11.040  0.4545  0.4686 -0.7992
 4003SOL    HW123468   2.489   3.396  11.122 -1.3184  0.7847 -1.0502
 4003SOL    HW223469   2.472   3.376  10.982  0.0995 -1.7592  1.9687
 4004SOL     OW23470   1.258   1.947   7.820 -0.2036  0.9197 -0.3204
 4004SOL    HW123471   1.287   2.005   7.891 -0.8688  1.6838 -0.6703
 4004SOL    HW223472   1.329   1.956   7.757 -1.0668 -0.0437 -1.4297
 4005SOL     OW23473   3.477   3.749   4.920  0.4342 -0.0942 -0.2217
 4005SOL    HW123474   3.391   3.715   4.898  0.3720 -0.6920  0.9318
 4005SOL    HW223475   3.478   3.818   4.854  0.0036  1.7159  1.6382
 4006SOL     OW23476   1.460   1.579   1.883  0.1354 -0.7736  0.2646
 4006SOL    HW123477   1.457   1.515   1.812 -0.8274 -1.0423  0.5459
 4006SOL    HW223478   1.425   1.658   1.842  0.9771 -0.4574  0.1494
 4007SOL     OW23479   2.417   4.212   8.202 -0.0567  0.1000 -0.3008
 4007SOL    HW123480   2.344   4.152   8.191  0.7740 -0.7298 -1.3121
 4007SOL    HW223481   2.403   4.243   8.292 -0.2225 -3.9170  1.0418
 4008SOL     OW23482   0.142   2.765   7.908 -0.2642  0.3212 -0.7583
 4008SOL    HW123483   0.069   2.814   7.945  0.2738 -0.3398  1.2413
 4008SOL    HW223484   0.215   2.826   7.910 -1.6262  1.8771  1.8544
 4009SOL     OW23485   3.791   1.363   4.513 -0.5168 -0.2260 -0.2373
 4009SOL    HW123486   3.697   1.377   4.500 -0.7261 -1.7345 -0.3369
 4009SOL    HW223487   3.796   1.397   4.602 -2.6405 -0.1605 -0.1445
 4010SOL     OW23488   4.554   2.755   2.824  0.0990  0.2714 -0.3031
 4010SOL    HW123489   4.536   2.823   2.759 -3.1104 -0.7670 -0.5190
 4010SOL    HW223490   4.628   2.718   2.777 -0.1162  1.2397 -1.4085
 4011SOL     OW23491   2.944   3.715   4.850  0.7749 -0.6196  0.6555
 4011SOL    HW123492   2.854   3.684   4.864  0.2002 -0.1924 -2.2293
 4011SOL    HW223493   2.930   3.806   4.825 -0.1044  0.0695  3.5554
 4012SOL     OW23494   2.189   0.796   8.527 -0.1736  0.1917  0.8727
 4012SOL    HW123495   2.153   0.867   8.581  0.9522 -0.3127  2.3160
 4012SOL    HW223496   2.259   0.844   8.482 -0.2391 -1.1461 -0.6599
 4013SOL     OW23497   1.063   3.515   5.874 -0.2644  0.7691 -0.1511
 4013SOL    HW123498   1.115   3.595   5.865  1.7344 -0.2635  2.2833
 4013SOL    HW223499   1.121   3.448   5.838 -0.2060  1.2440 -0.9564
 4014SOL     OW23500   4.017   3.393   4.925 -0.6387  0.2559  0.0813
 4014SOL    HW123501   4.029   3.398   5.020 -0.3774  2.2491 -0.0542
 4014SOL    HW223502   3.977   3.478   4.903 -0.6551 -0.4474 -2.5607
 4015SOL     OW23503   0.901   3.615  12.606  0.3774 -0.8622  0.0268
 4015SOL    HW123504   0.837   3.608  12.535 -1.3334 -1.8423  1.6632
 4015SOL    HW223505   0.926   3.707  12.610  0.3473 -0.8698  0.4396
 4016SOL     OW23506   4.381   3.685   8.556  0.2736 -0.3293  0.0509
 4016SOL    HW123507   4.377   3.756   8.620  0.1710  0.0823 -0.4148
 4016SOL    HW223508   4.435   3.620   8.602 -0.1486 -0.3014  0.5940
 4017SOL     OW23509   1.456   1.090   4.233  0.2598 -0.8208 -0.6389
 4017SOL    HW123510   1.433   1.061   4.321 -0.6692  0.4840 -0.4463
 4017SOL    HW223511   1.501   1.012   4.201  0.4804  0.3335 -3.1796
 4018SOL     OW23512   4.495   1.681  15.511  0.2613  0.0132 -0.8909
 4018SOL    HW123513   4.456   1.759  15.472 -0.6491  0.4276  0.8713
 4018SOL    HW223514   4.507   1.619  15.439  2.3800  0.2037 -0.7032
 4019SOL     OW23515   1.326   3.885   9.880  0.0030 -0.1172  0.5525
 4019SOL    HW123516   1.375   3.823   9.825 -1.7159  0.2427 -1.3633
 4019SOL    HW223517   1.319   3.958   9.818  1.4483 -1.2710 -0.9849
 4020SOL     OW23518   3.750   3.961   3.124  0.2948 -0.5093 -0.7507
 4020SOL    HW123519   3.673   3.914   3.092  0.0954  0.7564 -2.0768
 4020SOL    HW223520   3.801   3.991   3.049  0.0803  2.4361  0.2710
 4021SOL     OW23521   4.688   0.018   3.398 -0.2022 -0.4882 -0.0938
 4021SOL    HW123522   4.697   0.113   3.387 -0.1947 -0.3275  1.3372
 4021SOL    HW223523   0.046   4.710   3.437  1.2905  0.4674 -2.3963
 4022SOL     OW23524   2.397   2.679   1.927  0.5105 -0.0706 -0.3928
 4022SOL    HW123525   2.428   2.659   2.016  0.3927 -0.9315 -0.5434
 4022SOL    HW223526   2.310   2.641   1.940  0.3184  0.1311 -1.1016
 4023SOL     OW23527   3.793   1.068   9.082  0.5037 -0.1645  0.5737
 4023SOL    HW123528   3.788   1.066   9.178 -0.0490  3.2453  0.6359
 4023SOL    HW223529   3.821   0.979   9.063 -2.5044 -0.4799 -2.2119
 4024SOL     OW23530   1.193   1.900  12.285 -0.7135 -0.7089  0.0702
 4024SOL    HW123531   1.194   1.878  12.192 -1.7294  1.2833 -0.4042
 4024SOL    HW223532   1.123   1.848  12.325 -0.9904  0.2416  0.8229
 4025SOL     OW23533   0.145   3.699   3.736 -0.4756 -0.4230  0.1841
 4025SOL    HW123534   0.118   3.650   3.813 -0.6112 -0.0249  0.3913
 4025SOL    HW223535   0.184   3.778   3.774 -0.1284 -0.9795  0.9879
 4026SOL     OW23536   1.052   0.822   6.685 -0.2050  0.1138  0.0527
 4026SOL    HW123537   1.128   0.779   6.723  0.6780  0.3418 -1.4420
 4026SOL    HW223538   1.080   0.914   6.681 -0.6923  0.2359 -0.6425
 4027SOL     OW23539   1.307   2.219   8.615  0.8816 -0.1143 -0.7295
 4027SOL    HW123540   1.304   2.300   8.564 -0.3396  0.5815  0.4272
 4027SOL    HW223541   1.378   2.230   8.677  1.1078  1.8179 -1.3423
 4028SOL     OW23542   0.223   1.149   3.042 -0.2495  0.0034 -0.2486
 4028SOL    HW123543   0.181   1.079   3.093 -1.5330  1.6699  0.9684
 4028SOL    HW223544   0.158   1.187   2.985 -0.1664  1.1634  0.4347
 4029SOL     OW23545   0.197   2.356   2.736  0.7642 -0.2289 -0.0729
 4029SOL    HW123546   0.234   2.312   2.812  2.7030  3.6169  1.2338
 4029SOL    HW223547   0.160   2.294   2.673  2.4541 -1.7880  0.4902
 4030SOL     OW23548   3.200   4.146   7.598  0.0090 -0.1087  0.3656
 4030SOL    HW123549   3.209   4.139   7.693 -0.6398  1.1391  0.5194
 4030SOL    HW223550   3.248   4.067   7.572 -1.5221 -0.3056 -1.8356
 4031SOL     OW23551   1.810   2.593  11.237 -0.2135  0.1069  0.0617
 4031SOL    HW123552   1.825   2.684  11.263 -0.9879  0.4382 -0.6689
 4031SOL    HW223553   1.901   2.563  11.237 -0.1022  0.4062 -3.7142
 4032SOL     OW23554   0.200   2.732   3.823  0.0312 -0.0761  0.2187
 4032SOL    HW123555   0.126   2.785   3.793 -0.4795 -1.7189 -1.3793
 4032SOL    HW223556   0.257   2.792   3.873 -1.1742  1.1605  0.1104
 4033SOL     OW23557   2.027   1.692   7.397  0.1747  0.0388  0.1201
 4033SOL    HW123558   2.103   1.720   7.449  0.7663  0.2378 -0.8615
 4033SOL    HW223559   2.072   1.660   7.319  0.3574  1.6333 -0.4303
 4034SOL     OW23560   0.145   4.626   4.410  0.3886  0.3443  0.3537
 4034SOL    HW123561   0.160   4.578   4.328  1.8243  3.7493 -1.3696
 4034SOL    HW223562   0.139   4.549   4.466  0.2347  1.7264  2.2285
 4035SOL     OW23563   1.989   0.260  11.003  0.5340 -0.1676 -0.5676
 4035SOL    HW123564   2.075   0.298  11.019  0.8480 -1.1875  0.1692
 4035SOL    HW223565   2.009   0.185  10.947 -0.0831 -0.8878  0.1597
 4036SOL     OW23566   3.477   4.616   4.861  0.2143  0.6715 -0.1132
 4036SOL    HW123567   3.531   4.659   4.927  0.9672  2.5647 -1.9790
 4036SOL    HW223568   3.499   4.523   4.865 -0.5136  0.4660 -0.9646
 4037SOL     OW23569   1.176   4.161   0.620  0.4078  0.6140 -0.6962
 4037SOL    HW123570   1.103   4.141   0.677 -1.2721  1.2743 -2.6135
 4037SOL    HW223571   1.191   4.083   0.567  2.3357 -0.8988  2.1104
 4038SOL     OW23572   2.855   0.959  11.386  0.0905  0.2803  0.3064
 4038SOL    HW123573   2.866   1.012  11.306  0.0722 -0.6219 -0.3002
 4038SOL    HW223574   2.771   0.999  11.407  0.6047  0.5511  1.8057
 4039SOL     OW23575   3.471   1.488   2.704  0.2553  0.1696  0.2629
 4039SOL    HW123576   3.474   1.578   2.671 -0.0219 -1.4949 -4.1989
 4039SOL    HW223577   3.561   1.465   2.725  1.1452  2.5569 -0.9729
 4040SOL     OW23578   2.890   0.606   3.639 -0.2029  0.4994  0.0321
 4040SOL    HW123579   2.952   0.668   3.600  1.5005 -1.2068  0.0298
 4040SOL    HW223580   2.813   0.623   3.585 -0.2335 -0.3954 -0.2116
 4041SOL     OW23581   2.619   4.104   0.191  0.1768  0.3263  0.1174
 4041SOL    HW123582   2.561   4.180   0.205  1.8869  1.5151  0.6900
 4041SOL    HW223583   2.646   4.085   0.281 -0.8599 -1.4568  0.0454
 4042SOL     OW23584   0.713   1.867   9.722  0.0639 -0.0664  0.1484
 4042SOL    HW123585   0.673   1.910   9.797  1.4100  0.3976  0.6029
 4042SOL    HW223586   0.734   1.784   9.766  0.7065  0.4759  0.8638
 4043SOL     OW23587   0.949   4.662   4.514 -0.2078 -0.0688 -0.6698
 4043SOL    HW123588   0.895   0.017   4.517 -1.4464 -0.8890 -1.5201
 4043SOL    HW223589   1.027   4.692   4.560  1.3628  1.2141 -4.1347
 4044SOL     OW23590   3.062   4.212   5.088  0.0580  0.3236 -0.0381
 4044SOL    HW123591   3.091   4.265   5.163  2.2429 -2.4900  1.1022
 4044SOL    HW223592   2.992   4.155   5.120  0.5259  0.0745  0.5435
 4045SOL     OW23593   2.500   3.307   4.844 -0.5105  0.2123  0.2879
 4045SOL    HW123594   2.500   3.300   4.748  0.9819  0.0757  0.2911
 4045SOL    HW223595   2.412   3.338   4.864 -1.4445 -1.6619 -0.8828
 4046SOL     OW23596   2.932   4.325   3.408 -0.0987  0.3735  0.7019
 4046SOL    HW123597   2.949   4.370   3.325 -0.4669  1.8058  1.3974
 4046SOL    HW223598   3.013   4.339   3.456 -0.2727 -2.3950  1.8283
 4047SOL     OW23599   3.310   4.400   3.362 -0.7196 -0.0821  0.1817
 4047SOL    HW123600   3.272   4.360   3.440 -0.5160 -2.7267 -1.0814
 4047SOL    HW223601   3.376   4.333   3.344  0.6391  1.5213 -0.8902
 4048SOL     OW23602   2.080   0.723   9.965 -0.0100 -0.0279 -0.0160
 4048SOL    HW123603   2.166   0.683   9.982 -0.3726 -0.0257  1.8192
 4048SOL    HW223604   2.077   0.782  10.040  1.2669  0.4957 -0.3636
 4049SOL     OW23605   3.081   1.389   2.392  0.2921  0.2846  1.2926
 4049SOL    HW123606   3.059   1.297   2.406  1.3541  0.1812  2.2637
 4049SOL    HW223607   3.144   1.413   2.460  1.4452  1.8566 -0.2992
 4050SOL     OW23608   1.092   1.572  17.356  0.0015  0.5846  0.1377
 4050SOL    HW123609   1.109   1.499  17.416  2.1928  1.5422  0.6834
 4050SOL    HW223610   1.005   1.603  17.380 -0.0119 -0.5781  1.6404
 4051SOL     OW23611   2.339   3.304  10.868 -0.5923  0.3144  0.2541
 4051SOL    HW123612   2.339   3.371  10.799 -0.5904 -0.3452 -0.3791
 4051SOL    HW223613   2.313   3.231  10.812 -1.1268 -0.1370  1.0824
 4052SOL     OW23614   0.338   4.104   1.267  0.0409  0.2046  0.2612
 4052SOL    HW123615   0.382   4.188   1.250  1.5646 -0.6810 -0.1601
 4052SOL    HW223616   0.385   4.048   1.205  1.1161  1.5959 -0.2145
 4053SOL     OW23617   0.851   2.166   8.324  0.4739  0.3141 -0.3659
 4053SOL    HW123618   0.934   2.212   8.337 -0.0279  1.0620  0.2231
 4053SOL    HW223619   0.815   2.230   8.263  0.4601  0.5212 -0.1424
 4054SOL     OW23620   2.349   1.286   7.265 -0.1290 -0.5780  0.9216
 4054SOL    HW123621   2.263   1.286   7.223  0.6764  2.6691 -0.7934
 4054SOL    HW223622   2.313   1.332   7.340 -1.3952  0.4918 -0.3304
 4055SOL     OW23623   2.727   0.428   7.309 -0.1840 -0.4952  0.1202
 4055SOL    HW123624   2.692   0.357   7.256  1.5041 -0.0529 -1.5750
 4055SOL    HW223625   2.821   0.411   7.307  0.0353  0.4812  1.9028
 4056SOL     OW23626   4.709   2.244   6.852 -0.4266 -0.2240 -0.5899
 4056SOL    HW123627   4.639   2.307   6.832 -0.1082  0.0614 -0.8099
 4056SOL    HW223628   0.043   2.306   6.898 -0.1402 -0.0647 -1.1574
 4057SOL     OW23629   4.399   1.293   3.602  0.0713 -0.3058  0.1653
 4057SOL    HW123630   4.357   1.250   3.676 -2.3580 -0.5416 -1.3623
 4057SOL    HW223631   4.457   1.224   3.569  1.0656  0.5554  0.0806
 4058SOL     OW23632   0.011   0.907   0.600 -0.2315 -0.2599 -0.1398
 4058SOL    HW123633   0.034   0.896   0.508  2.4349  2.5838  0.1601
 4058SOL    HW223634   0.073   0.852   0.647  0.6845  1.0032  0.1376
 4059SOL     OW23635   1.241   2.134   3.901 -0.6448  0.3417  1.2758
 4059SOL    HW123636   1.209   2.045   3.915  0.0567 -0.0259  0.5633
 4059SOL    HW223637   1.177   2.185   3.951 -1.2784 -1.2303  2.0739
 4060SOL     OW23638   0.314   4.113   8.652  0.4189  0.6376  0.0974
 4060SOL    HW123639   0.333   4.148   8.565 -1.7289  1.9864  0.1699
 4060SOL    HW223640   0.253   4.181   8.682 -1.6699 -1.9667  1.7979
 4061SOL     OW23641   0.513   0.832  12.773  0.1566  0.1773  0.2436
 4061SOL    HW123642   0.467   0.881  12.841  0.3139 -0.8511  1.0993
 4061SOL    HW223643   0.513   0.750  12.822 -0.5378  0.6338  0.9999
 4062SOL     OW23644   4.600   1.550  13.138  0.2456  0.7084  0.1579
 4062SOL    HW123645   4.642   1.489  13.076 -0.4760 -0.0144  0.3749
 4062SOL    HW223646   4.675   1.595  13.177 -0.1571  0.5346  1.1345
 4063SOL     OW23647   2.620   0.574   6.507  1.3174 -0.2593  1.2923
 4063SOL    HW123648   2.704   0.616   6.522  1.0116  1.4534 -2.0228
 4063SOL    HW223649   2.582   0.620   6.432  1.7099  0.6899  1.6807
 4064SOL     OW23650   4.570   3.159   5.569 -0.1481  0.3220 -0.3702
 4064SOL    HW123651   4.573   3.164   5.473 -1.7494 -0.6376 -0.4629
 4064SOL    HW223652   4.664   3.169   5.585 -0.5197  0.5192  1.7448
 4065SOL     OW23653   3.563   3.523   6.896 -0.0045 -0.6973 -0.2788
 4065SOL    HW123654   3.474   3.512   6.930  0.0103 -2.6859 -0.8742
 4065SOL    HW223655   3.606   3.543   6.979 -2.3596 -0.2457  0.8232
 4066SOL     OW23656   0.224   3.691   8.483  0.2741 -0.6359 -0.5821
 4066SOL    HW123657   0.206   3.782   8.459  1.7586 -0.4546 -1.0073
 4066SOL    HW223658   0.218   3.697   8.578  0.3336  2.1576 -0.7502
 4067SOL     OW23659   2.338   3.254  12.071  0.3021  0.6805 -0.0900
 4067SOL    HW123660   2.407   3.247  12.006 -0.3327  3.0139 -1.0217
 4067SOL    HW223661   2.350   3.345  12.101  0.5496  0.9558 -1.0331
 4068SOL     OW23662   0.645   1.724   4.395  0.5653  0.5007 -0.2846
 4068SOL    HW123663   0.736   1.751   4.381  0.8395 -0.6114 -0.6502
 4068SOL    HW223664   0.653   1.673   4.476  2.0984 -1.3253 -1.5951
 4069SOL     OW23665   4.182   3.632  15.675  0.3721 -0.7424  0.1054
 4069SOL    HW123666   4.106   3.690  15.673 -1.2409 -2.7750  1.8041
 4069SOL    HW223667   4.145   3.556  15.631  0.0955 -0.4597 -0.1497
 4070SOL     OW23668   4.455   0.293   4.996  0.3396  0.2899  0.5072
 4070SOL    HW123669   4.538   0.336   5.018  1.6090 -0.5458 -2.6653
 4070SOL    HW223670   4.496   0.207   4.989  0.8163  0.6132 -0.7394
 4071SOL     OW23671   2.909   1.777   8.700 -0.3501  0.4873  0.3661
 4071SOL    HW123672   2.926   1.858   8.749  0.2636 -1.3020  3.1415
 4071SOL    HW223673   2.814   1.779   8.689 -0.0721 -1.6917 -2.0884
 4072SOL     OW23674   4.575   4.673  11.456 -0.6168  0.2586  0.2936
 4072SOL    HW123675   4.566   4.681  11.551  0.1312  1.1598  0.2826
 4072SOL    HW223676   4.634   0.021  11.431 -0.1216 -0.9306 -1.8757
 4073SOL     OW23677   1.402   3.956  13.728 -0.4491 -0.2936 -0.2023
 4073SOL    HW123678   1.479   4.012  13.740 -0.4999  0.0445 -1.4776
 4073SOL    HW223679   1.430   3.867  13.749 -1.1936 -0.5983 -0.4842
 4074SOL     OW23680   2.642   2.738  13.628 -0.3986 -0.4647 -0.1241
 4074SOL    HW123681   2.644   2.833  13.616  2.0340 -0.8424 -2.9105
 4074SOL    HW223682   2.642   2.719  13.534 -1.3925 -1.4780  0.0911
 4075SOL     OW23683   1.387   2.574  11.531 -0.2898  0.5275  0.2355
 4075SOL    HW123684   1.398   2.657  11.577  2.2877  0.1448  0.3186
 4075SOL    HW223685   1.334   2.525  11.593 -1.3402 -1.0990 -1.9408
 4076SOL     OW23686   0.088   3.617   5.303  0.1719 -0.5169 -0.5921
 4076SOL    HW123687   0.056   3.606   5.213 -1.2326 -0.7988 -0.0505
 4076SOL    HW223688   0.054   3.534   5.337 -1.5552  0.0306 -0.9906
 4077SOL     OW23689   3.547   0.386  13.532 -0.0279  0.3445 -0.6671
 4077SOL    HW123690   3.454   0.399  13.514 -0.4727 -1.5936  0.2412
 4077SOL    HW223691   3.539   0.304  13.580  1.7430  0.4833 -0.1247
 4078SOL     OW23692   0.636   4.053   8.489 -0.0585 -0.5861 -0.4321
 4078SOL    HW123693   0.598   4.140   8.491 -0.3613 -0.7120 -0.7629
 4078SOL    HW223694   0.726   4.068   8.520 -1.3550  0.6178  2.7916
 4079SOL     OW23695   3.655   0.146  16.819  0.4997  0.4559  0.2697
 4079SOL    HW123696   3.712   0.090  16.871 -0.1458  0.9201  1.4575
 4079SOL    HW223697   3.706   0.180  16.744 -1.6684  0.0700 -1.3663
 4080SOL     OW23698   4.567   0.935   5.327  0.6505 -0.0244  0.1361
 4080SOL    HW123699   4.641   0.982   5.365 -2.0989  2.9278  1.9108
 4080SOL    HW223700   4.561   0.983   5.244 -2.6935  0.1691  0.4887
 4081SOL     OW23701   4.241   0.150  12.115 -0.3047  0.4318  0.0528
 4081SOL    HW123702   4.178   0.088  12.152 -0.4179  0.9621  0.7393
 4081SOL    HW223703   4.237   0.221  12.179  0.1868 -0.3880  0.9852
 4082SOL     OW23704   3.405   3.438  14.105  0.4871 -0.5253  0.6983
 4082SOL    HW123705   3.389   3.474  14.018  1.9153 -0.5977  0.4087
 4082SOL    HW223706   3.319   3.459  14.140 -0.1249 -0.2311 -0.9741
 4083SOL     OW23707   3.962   3.980   5.589  0.1472  0.4690  0.5156
 4083SOL    HW123708   3.893   3.944   5.645 -1.4533  1.0268 -1.1193
 4083SOL    HW223709   3.918   4.061   5.563 -0.4676 -0.2955 -0.7976
 4084SOL     OW23710   0.299   1.261  12.739  0.1998 -0.0504  0.3351
 4084SOL    HW123711   0.304   1.310  12.821  0.0559  0.2723  0.1495
 4084SOL    HW223712   0.310   1.173  12.775  0.3114 -1.0912 -2.2697
 4085SOL     OW23713   3.724   3.937  12.847  0.3516 -0.0070 -0.0825
 4085SOL    HW123714   3.758   3.871  12.908 -0.7980 -0.0788  0.4684
 4085SOL    HW223715   3.804   3.954  12.796  0.8198 -0.8383  0.3651
 4086SOL     OW23716   0.164   2.066   3.745  0.1753 -0.3772 -0.0601
 4086SOL    HW123717   0.236   2.105   3.695  1.4616  0.8159  2.7177
 4086SOL    HW223718   0.210   1.990   3.781  1.1985  2.1295  3.8708
 4087SOL     OW23719   2.964   4.046  17.420  0.2533 -0.3690  0.3824
 4087SOL    HW123720   2.934   4.067  17.508  1.7149  1.2415  0.5256
 4087SOL    HW223721   2.876   4.033  17.386 -0.1887  0.8843  1.0366
 4088SOL     OW23722   1.354   1.337  12.163 -0.2591 -0.5848 -0.5021
 4088SOL    HW123723   1.387   1.303  12.246 -0.7969  2.2308  0.8517
 4088SOL    HW223724   1.425   1.398  12.149  0.4025 -1.1613  0.3934
 4089SOL     OW23725   3.891   3.659  11.581  0.2451  0.3467 -0.0647
 4089SOL    HW123726   3.962   3.613  11.536  1.2487  1.8352  0.0304
 4089SOL    HW223727   3.835   3.688  11.509 -0.1109  0.1171  0.1173
 4090SOL     OW23728   1.973   2.040  15.549  0.2758 -0.0122  0.3295
 4090SOL    HW123729   1.956   1.997  15.632  0.6658 -0.8248 -0.0119
 4090SOL    HW223730   1.899   2.002  15.502  0.2538  0.0654  0.3013
 4091SOL     OW23731   2.461   0.181   4.326  0.8409  0.3890  0.1356
 4091SOL    HW123732   2.462   0.088   4.303 -1.0934 -0.2647  2.7143
 4091SOL    HW223733   2.530   0.182   4.392  0.7465 -0.5578  0.2521
 4092SOL     OW23734   0.753   0.607   4.851  0.9173  0.1296 -0.0936
 4092SOL    HW123735   0.731   0.639   4.939  0.4105 -1.5585  0.3920
 4092SOL    HW223736   0.843   0.582   4.870  0.5338 -1.3471 -0.2310
 4093SOL     OW23737   4.335   2.456   6.955  0.0812  0.1032  0.6906
 4093SOL    HW123738   4.401   2.430   7.019 -1.4969 -0.6913  1.9800
 4093SOL    HW223739   4.368   2.433   6.868 -1.9853 -2.0891  0.4818
 4094SOL     OW23740   2.834   1.314   6.413 -0.0275 -0.5384 -0.2703
 4094SOL    HW123741   2.782   1.299   6.492  1.5291 -1.7289  0.5317
 4094SOL    HW223742   2.764   1.317   6.348 -0.1861  0.6348 -0.0491
 4095SOL     OW23743   1.238   1.073  16.154 -0.5431  0.3705 -0.2670
 4095SOL    HW123744   1.286   1.032  16.226 -1.4083  0.2428  0.2380
 4095SOL    HW223745   1.304   1.135  16.123  0.2597  0.5419  1.8215
 4096SOL     OW23746   0.964   1.375  15.232 -0.0309 -0.9233  0.1170
 4096SOL    HW123747   0.986   1.313  15.302  1.0533 -0.3135  0.3097
 4096SOL    HW223748   0.892   1.326  15.191 -0.5131  0.5581 -0.7749
 4097SOL     OW23749   0.654   3.325   4.540  0.1315  0.4921  0.0665
 4097SOL    HW123750   0.632   3.357   4.453 -0.3298  2.3180  0.8616
 4097SOL    HW223751   0.701   3.397   4.581 -1.8527  1.9520 -0.2368
 4098SOL     OW23752   0.387   3.612   5.994 -0.0611  0.2144  0.1595
 4098SOL    HW123753   0.450   3.625   5.924 -0.6526  2.2381  0.0132
 4098SOL    HW223754   0.358   3.522   5.978  1.0916 -0.0495 -0.4299
 4099SOL     OW23755   2.312   2.722   3.068  0.2733  0.3396  0.2683
 4099SOL    HW123756   2.259   2.646   3.045  0.4674  0.8505 -1.9288
 4099SOL    HW223757   2.275   2.742   3.153 -0.9197 -0.8872  0.0324
 4100SOL     OW23758   2.251   0.850   7.920  0.0145 -0.2553  0.9674
 4100SOL    HW123759   2.292   0.831   8.005  0.0169 -0.2779  0.9610
 4100SOL    HW223760   2.164   0.812   7.930 -0.7105  1.1134  0.0002
 4101SOL     OW23761   3.532   4.420   9.587 -0.1423  0.5351 -0.1878
 4101SOL    HW123762   3.581   4.341   9.607 -1.9754 -0.5482  0.0490
 4101SOL    HW223763   3.593   4.470   9.533  0.0856  2.7557  2.1228
 4102SOL     OW23764   2.077   3.888   1.969  0.4562  0.2245  0.2155
 4102SOL    HW123765   2.137   3.818   1.995  0.1111  0.0986  0.6638
 4102SOL    HW223766   2.080   3.945   2.046 -3.3868 -0.6778  1.0501
 4103SOL     OW23767   0.295   2.393   9.503 -0.4738 -0.1147 -0.1675
 4103SOL    HW123768   0.240   2.471   9.513  0.8771  0.7101  0.8047
 4103SOL    HW223769   0.248   2.356   9.428 -0.3624 -0.4755 -0.0566
 4104SOL     OW23770   0.252   3.418   2.597  0.6977 -0.3046  0.1291
 4104SOL    HW123771   0.244   3.358   2.523 -0.3787  1.3532 -1.0959
 4104SOL    HW223772   0.240   3.497   2.544 -1.1793  0.2593  1.4119
 4105SOL     OW23773   3.849   2.021   5.209 -0.2347 -0.4103 -0.3142
 4105SOL    HW123774   3.902   2.059   5.278  0.0123 -0.7790 -0.3039
 4105SOL    HW223775   3.782   1.979   5.263  1.9072 -0.7927  2.0371
 4106SOL     OW23776   0.438   0.427  12.712  0.1816 -0.5438  0.0788
 4106SOL    HW123777   0.432   0.333  12.699  2.5841 -0.8219  1.0393
 4106SOL    HW223778   0.475   0.460  12.630  1.5581  0.3437  1.0527
 4107SOL     OW23779   3.883   1.638  11.288  0.2648 -0.0212 -0.0341
 4107SOL    HW123780   3.880   1.602  11.377 -1.1041  1.8515  0.6863
 4107SOL    HW223781   3.825   1.714  11.300  1.8065  1.5230 -2.3287
 4108SOL     OW23782   1.143   0.447   3.928 -0.0351 -0.4599 -0.0607
 4108SOL    HW123783   1.093   0.470   3.850  0.2147 -0.8100 -0.3257
 4108SOL    HW223784   1.227   0.493   3.922  0.2032 -1.0312 -1.2489
 4109SOL     OW23785   0.641   3.637   0.230  0.1180  0.2151 -0.0302
 4109SOL    HW123786   0.627   3.543   0.236 -0.0188  0.0115 -3.1893
 4109SOL    HW223787   0.701   3.645   0.156  0.4325 -0.7388  0.1213
 4110SOL     OW23788   0.580   3.094  16.242  0.1374 -0.3093 -0.5223
 4110SOL    HW123789   0.500   3.042  16.256 -0.9436  2.0017  2.0044
 4110SOL    HW223790   0.558   3.163  16.180 -1.5466 -0.7165 -0.3876
 4111SOL     OW23791   1.256   2.585   8.252 -0.0491 -0.1340 -0.6931
 4111SOL    HW123792   1.172   2.539   8.250 -0.2901  0.2901 -0.4852
 4111SOL    HW223793   1.225   2.655   8.194 -3.0724 -0.0878  0.9784
 4112SOL     OW23794   0.965   1.558   3.252 -0.4492  0.2194  0.0792
 4112SOL    HW123795   0.920   1.509   3.322 -1.3850  1.5248  0.4008
 4112SOL    HW223796   0.951   1.519   3.166 -2.8055 -0.9472  0.9695
 4113SOL     OW23797   1.439   1.329   2.129 -0.4115  0.3291 -0.1461
 4113SOL    HW123798   1.387   1.291   2.058 -0.5587 -1.0566  0.6977
 4113SOL    HW223799   1.386   1.316   2.208  0.2106 -2.0779 -0.1223
 4114SOL     OW23800   3.434   3.427   2.969  0.0874 -0.2563 -0.4220
 4114SOL    HW123801   3.474   3.436   3.056  1.5805 -0.5234 -1.0864
 4114SOL    HW223802   3.445   3.333   2.957 -0.5354 -0.3337 -0.3620
 4115SOL     OW23803   4.262   0.792   5.007  0.0445  0.1876 -0.2336
 4115SOL    HW123804   4.191   0.777   5.069  2.1062  0.6448  2.2741
 4115SOL    HW223805   4.260   0.887   5.013  2.5774  0.3365 -1.6567
 4116SOL     OW23806   4.462   4.327  17.519 -0.0631  0.2230 -0.3528
 4116SOL    HW123807   4.424   4.239  17.518  1.2476 -0.3399  0.5383
 4116SOL    HW223808   4.399   4.368  17.577  1.0164 -0.8107  1.5432
 4117SOL     OW23809   0.262   1.106  16.062  0.0175 -0.0486 -0.2485
 4117SOL    HW123810   0.259   1.202  16.070 -1.6513  0.1580 -3.5710
 4117SOL    HW223811   0.227   1.102  15.973 -1.4365 -0.8576  0.3578
 4118SOL     OW23812   2.555   2.183  15.337 -0.4109  0.2046 -0.4887
 4118SOL    HW123813   2.624   2.167  15.272  0.7973 -2.4306  1.5103
 4118SOL    HW223814   2.543   2.101  15.383 -1.9561  0.6920 -0.0343
 4119SOL     OW23815   0.912   2.208   6.195 -0.0159  0.0471 -0.1015
 4119SOL    HW123816   0.900   2.178   6.105  1.7942  0.5395 -0.5090
 4119SOL    HW223817   0.919   2.300   6.167 -2.3269 -0.0334 -0.9946
 4120SOL     OW23818   4.176   0.347   3.893 -0.0154 -0.6544  0.2681
 4120SOL    HW123819   4.158   0.363   3.801  2.1533  1.2583  0.1788
 4120SOL    HW223820   4.269   0.329   3.883  0.0202 -0.5991  0.4997
 4121SOL     OW23821   4.128   0.131   3.424 -0.3601  0.0646  0.4388
 4121SOL    HW123822   4.102   0.113   3.334  2.2139 -1.2011 -0.0707
 4121SOL    HW223823   4.224   0.136   3.418 -0.4780 -1.4556 -2.9848
 4122SOL     OW23824   4.532   2.064   1.575 -0.3771 -0.1647 -0.1362
 4122SOL    HW123825   4.525   2.142   1.630 -3.1048 -0.9986  0.7291
 4122SOL    HW223826   4.619   2.074   1.537  0.0993  1.4489  1.3654
 4123SOL     OW23827   0.764   3.605  11.894 -0.3542 -0.3388 -0.4047
 4123SOL    HW123828   0.836   3.627  11.835  0.8037 -1.3657  0.6079
 4123SOL    HW223829   0.683   3.633  11.851  0.1678  1.0489 -0.4560
 4124SOL     OW23830   0.234   0.885   4.480  0.4691 -0.0262  0.0081
 4124SOL    HW123831   0.306   0.824   4.489 -0.7241 -1.2292  1.3423
 4124SOL    HW223832   0.162   0.824   4.468 -1.2624  1.6802  1.6723
 4125SOL     OW23833   2.118   4.370  17.265 -0.4084  0.1213 -0.0826
 4125SOL    HW123834   2.025   4.360  17.287 -0.5500 -0.8590 -1.0951
 4125SOL    HW223835   2.113   4.453  17.217 -0.9588 -0.1615 -0.5196
 4126SOL     OW23836   3.406   2.158   8.117 -0.5624  0.2795 -0.0476
 4126SOL    HW123837   3.387   2.071   8.152 -0.2330  0.4234  0.5012
 4126SOL    HW223838   3.339   2.221   8.143 -0.4299 -0.0808  1.1653
 4127SOL     OW23839   0.639   0.494  10.249  0.9060  0.5252  0.8047
 4127SOL    HW123840   0.582   0.447  10.188 -0.4609  0.8847  1.8127
 4127SOL    HW223841   0.574   0.534  10.306  0.7112  0.9190  0.3104
 4128SOL     OW23842   2.254   1.033   6.214  0.3034  0.1699 -0.1486
 4128SOL    HW123843   2.313   0.992   6.151  0.7140 -1.2391  1.1498
 4128SOL    HW223844   2.296   1.119   6.214 -0.3060  0.4673 -0.8385
 4129SOL     OW23845   1.073   3.026   2.982  0.3474 -0.0915 -0.3747
 4129SOL    HW123846   0.979   3.010   2.973  0.1436  1.6135 -1.3551
 4129SOL    HW223847   1.100   2.955   2.923  0.2875 -0.7565  0.4013
 4130SOL     OW23848   2.754   1.929   3.757 -0.5641  0.3013  0.1534
 4130SOL    HW123849   2.663   1.950   3.780 -0.9603 -0.5919 -0.5487
 4130SOL    HW223850   2.735   1.899   3.668  1.4212  0.6499 -0.3809
 4131SOL     OW23851   3.895   2.236   4.582  0.4109 -0.9380 -0.8746
 4131SOL    HW123852   3.806   2.219   4.551 -0.5540  1.9843  0.3087
 4131SOL    HW223853   3.896   2.331   4.592  0.4340 -0.9441 -0.8175
 4132SOL     OW23854   4.281   3.893   3.654  0.0961  0.3573  0.4093
 4132SOL    HW123855   4.320   3.909   3.740 -0.3706  1.5156  0.4043
 4132SOL    HW223856   4.210   3.957   3.657 -0.4533 -0.1986 -0.9291
 4133SOL     OW23857   0.939   1.500   6.695 -0.0971  0.5771 -0.4941
 4133SOL    HW123858   0.970   1.444   6.765  0.5523  0.4473 -0.8817
 4133SOL    HW223859   0.844   1.490   6.696  0.0344 -0.7626 -1.5012
 4134SOL     OW23860   0.651   2.906   7.697  0.0090  0.4016 -0.2623
 4134SOL    HW123861   0.652   2.959   7.777 -2.2415 -0.8844  0.6209
 4134SOL    HW223862   0.619   2.826   7.737 -1.3640  1.3272  0.5094
 4135SOL     OW23863   4.067   1.219   9.699  0.5534  0.3713  0.0968
 4135SOL    HW123864   4.069   1.209   9.604  1.1435  0.0072  0.1478
 4135SOL    HW223865   4.007   1.294   9.710  1.7545  1.4799 -0.9174
 4136SOL     OW23866   3.886   3.598  14.525 -0.2090  0.3846 -0.4897
 4136SOL    HW123867   3.798   3.564  14.509 -0.1929 -0.2889  0.9016
 4136SOL    HW223868   3.936   3.545  14.462  2.3996  0.6134  1.3879
 4137SOL     OW23869   3.459   2.472   2.625 -0.0287  0.0222 -0.1799
 4137SOL    HW123870   3.505   2.554   2.608  1.1875 -0.6525 -0.1095
 4137SOL    HW223871   3.382   2.487   2.569 -0.1291 -1.3463 -0.4127
 4138SOL     OW23872   1.286   0.991   2.176 -0.9203  0.2014 -0.5118
 4138SOL    HW123873   1.193   1.001   2.157 -1.0020  0.6607  0.1449
 4138SOL    HW223874   1.314   0.920   2.119  0.1220  2.6038 -3.0088
 4139SOL     OW23875   3.379   4.680   5.301 -0.3264 -0.1238  0.2563
 4139SOL    HW123876   3.367   0.038   5.351  0.1667 -0.5781  1.0975
 4139SOL    HW223877   3.467   4.662   5.334  0.1029  0.5716 -0.5013
 4140SOL     OW23878   3.830   1.236   5.667  0.3564  0.1751 -0.3307
 4140SOL    HW123879   3.862   1.155   5.707  1.4469  1.3061  1.0847
 4140SOL    HW223880   3.785   1.280   5.740 -0.7725 -0.7199 -0.4848
 4141SOL     OW23881   4.096   1.164   2.328  0.0388 -0.9574 -0.2447
 4141SOL    HW123882   4.162   1.219   2.370 -0.0251 -0.1902 -1.1695
 4141SOL    HW223883   4.109   1.189   2.237 -0.7156 -0.0063 -0.0826
 4142SOL     OW23884   0.480   1.212   5.077  0.0459  0.2271  0.3087
 4142SOL    HW123885   0.533   1.270   5.021  1.4833 -0.0813  1.3488
 4142SOL    HW223886   0.546   1.146   5.098  0.1818  0.1277 -0.4163
 4143SOL     OW23887   0.019   2.396   0.909  0.2264 -0.3770  0.5431
 4143SOL    HW123888   0.007   2.464   0.842 -1.2220 -0.9876  0.1765
 4143SOL    HW223889   0.033   2.448   0.988  0.0927  0.6694 -0.1274
 4144SOL     OW23890   1.279   2.155  13.414  0.0970 -0.0711  0.1423
 4144SOL    HW123891   1.257   2.062  13.407  0.9812 -0.1632 -1.5053
 4144SOL    HW223892   1.345   2.163  13.345 -0.9888 -0.9080 -0.9759
 4145SOL     OW23893   4.344   4.609   2.463 -0.1149 -0.4642  0.3480
 4145SOL    HW123894   4.343   4.643   2.374 -4.8506  0.7370  0.8500
 4145SOL    HW223895   4.384   4.676   2.519  0.3295 -1.8994  1.7743
 4146SOL     OW23896   3.904   3.598   7.671 -0.1848  0.2376  0.5088
 4146SOL    HW123897   3.859   3.554   7.743  0.4462  0.6599  1.1684
 4146SOL    HW223898   3.985   3.628   7.711  1.3812 -3.0001 -0.2783
 4147SOL     OW23899   0.747   1.266   5.369 -0.1392 -0.3946 -0.2918
 4147SOL    HW123900   0.742   1.170   5.366  1.2353 -0.4395 -0.9953
 4147SOL    HW223901   0.677   1.298   5.426  0.7640  2.5888 -0.8629
 4148SOL     OW23902   1.553   0.143   9.218 -0.0468 -0.2040  0.2029
 4148SOL    HW123903   1.476   0.177   9.264 -0.4815 -0.3946 -0.3839
 4148SOL    HW223904   1.521   0.068   9.168  0.3533 -0.2986  0.0883
 4149SOL     OW23905   4.210   3.212   4.149 -0.5268  0.1875 -0.4312
 4149SOL    HW123906   4.263   3.206   4.069 -1.1893  2.0553 -0.9987
 4149SOL    HW223907   4.173   3.300   4.146 -0.2917  0.3771  2.5581
 4150SOL     OW23908   2.676   1.321   8.186 -0.0220  0.0683 -0.6587
 4150SOL    HW123909   2.587   1.284   8.187  0.1112 -0.1871  0.8208
 4150SOL    HW223910   2.689   1.312   8.091 -0.0926  0.1546 -0.6762
 4151SOL     OW23911   0.278   3.038   9.641 -0.3289  0.2787 -0.4180
 4151SOL    HW123912   0.336   3.063   9.569  1.7746  0.6278  1.4039
 4151SOL    HW223913   0.326   3.088   9.707  0.7869 -1.5950  0.2019
 4152SOL     OW23914   0.438   2.333   4.031 -0.0042 -0.1923  0.4919
 4152SOL    HW123915   0.354   2.311   4.071 -0.6388 -0.8212 -1.1911
 4152SOL    HW223916   0.489   2.389   4.091 -0.7523  0.7036  0.2991
 4153SOL     OW23917   1.133   0.879   8.774  0.2897 -0.8049 -0.1030
 4153SOL    HW123918   1.181   0.797   8.761 -0.5444 -1.5714  1.6507
 4153SOL    HW223919   1.177   0.906   8.855  0.7566 -1.3143 -0.1844
 4154SOL     OW23920   3.957   1.384   5.483  0.6909  0.2069  0.1985
 4154SOL    HW123921   4.022   1.319   5.457  1.4247  0.5240  1.2652
 4154SOL    HW223922   3.917   1.340   5.558  1.0690 -2.4560 -1.1761
 4155SOL     OW23923   3.183   0.293  14.395 -0.2360  0.0184 -0.0382
 4155SOL    HW123924   3.221   0.218  14.351 -0.3492 -0.1604  0.1696
 4155SOL    HW223925   3.092   0.264  14.385 -1.0097  2.4057  0.0828
 4156SOL     OW23926   4.701   1.390   8.817  0.5009 -0.1807 -0.2422
 4156SOL    HW123927   4.697   1.321   8.883  2.0930  0.1275  0.1835
 4156SOL    HW223928   0.061   1.374   8.771 -0.7161  0.2192 -2.5647
 4157SOL     OW23929   2.914   0.658   2.449 -0.4714  0.0783 -0.0202
 4157SOL    HW123930   2.972   0.614   2.511  0.2957  0.0339 -0.7584
 4157SOL    HW223931   2.868   0.580   2.420 -1.2874  0.3552  0.5311
 4158SOL     OW23932   0.054   3.042   8.793  0.0954 -0.0457  0.4668
 4158SOL    HW123933   0.038   2.962   8.743 -1.7511 -0.5213  1.8398
 4158SOL    HW223934   4.715   3.045   8.866 -0.7803  0.7204 -0.3178
 4159SOL     OW23935   0.689   3.013  14.591 -0.5037  0.1764  0.3443
 4159SOL    HW123936   0.610   2.959  14.588 -0.7530  0.5630 -0.2640
 4159SOL    HW223937   0.686   3.056  14.505 -1.3198 -0.8738 -0.1368
 4160SOL     OW23938   4.311   2.451  11.763 -0.4489  0.2614  0.3078
 4160SOL    HW123939   4.265   2.382  11.812 -2.0543 -1.0303 -3.0605
 4160SOL    HW223940   4.317   2.518  11.831 -0.6621  1.7033 -1.1167
 4161SOL     OW23941   0.484   1.051   5.820  0.1441  0.0481  0.3195
 4161SOL    HW123942   0.419   1.071   5.887  0.6796 -3.0485  1.7811
 4161SOL    HW223943   0.536   0.984   5.864 -0.6529 -1.1571 -0.5483
 4162SOL     OW23944   1.238   1.292  15.138 -0.2708  0.1928  0.0834
 4162SOL    HW123945   1.241   1.212  15.190 -1.9600 -0.5439 -0.9489
 4162SOL    HW223946   1.147   1.320  15.148 -0.7347 -1.4643  0.5230
 4163SOL     OW23947   3.338   2.868   4.841 -0.2076  0.3164  0.3045
 4163SOL    HW123948   3.278   2.817   4.897  0.3734 -1.2620 -0.4948
 4163SOL    HW223949   3.418   2.878   4.893  0.7200  0.3978 -1.1369
 4164SOL     OW23950   1.259   3.066   7.251  0.3538  0.1291 -0.1689
 4164SOL    HW123951   1.253   3.076   7.156 -1.3510  0.2094 -0.0619
 4164SOL    HW223952   1.192   3.002   7.275  0.9180  0.0961  1.3291
 4165SOL     OW23953   2.773   0.108   8.925  0.0365  0.5929  0.1302
 4165SOL    HW123954   2.697   0.123   8.869 -1.1130  0.7475  1.7551
 4165SOL    HW223955   2.848   0.098   8.866  0.8559  0.2935  1.2413
 4166SOL     OW23956   3.785   3.542  11.344  0.3236  0.7497  0.2491
 4166SOL    HW123957   3.876   3.513  11.357  0.1481 -1.0510 -2.4275
 4166SOL    HW223958   3.775   3.523  11.251  1.4764 -0.2839  0.3297
 4167SOL     OW23959   4.514   0.403   8.267  0.0713  0.0429  0.2181
 4167SOL    HW123960   4.517   0.333   8.202  0.0003 -0.6505  0.9631
 4167SOL    HW223961   4.608   0.420   8.260  0.1634  0.1560  1.8726
 4168SOL     OW23962   2.086   1.077   0.025 -0.2181  0.4826 -0.4408
 4168SOL    HW123963   2.012   1.131  17.692  2.2550  1.9425 -4.2565
 4168SOL    HW223964   2.158   1.139   0.020  0.2693 -0.1888 -1.8139
 4169SOL     OW23965   1.304   1.707   3.650  0.0963  0.1627  0.5697
 4169SOL    HW123966   1.263   1.636   3.700 -2.3863 -1.2970 -3.4674
 4169SOL    HW223967   1.233   1.753   3.604 -3.0243 -1.9891  3.2322
 4170SOL     OW23968   1.678   2.840   6.238  0.1931  0.6331  0.5030
 4170SOL    HW123969   1.629   2.772   6.190 -1.0860  1.5970  0.4447
 4170SOL    HW223970   1.613   2.880   6.296 -2.4226 -0.8872 -1.3614
 4171SOL     OW23971   4.625   4.422   4.136  0.6609  0.3047 -0.3805
 4171SOL    HW123972   4.550   4.386   4.182  1.1898 -0.5296 -0.1838
 4171SOL    HW223973   4.652   4.359   4.069 -0.2772 -1.8062  1.2269
 4172SOL     OW23974   3.149   0.070   8.978  0.5027  0.6086  0.1913
 4172SOL    HW123975   3.168   0.121   9.056 -0.8214  0.4827  0.5928
 4172SOL    HW223976   3.100   4.717   9.011 -2.2449  1.8059 -1.0685
 4173SOL     OW23977   4.389   3.433   2.936 -0.1459  0.1128 -0.1459
 4173SOL    HW123978   4.411   3.393   3.020 -1.4118  0.1422  0.1903
 4173SOL    HW223979   4.300   3.399   2.928  0.2229 -1.1676  1.1562
 4174SOL     OW23980   0.539   3.889   0.224 -0.5516 -0.4609 -0.5874
 4174SOL    HW123981   0.544   3.794   0.208 -1.0209 -0.8475  1.6118
 4174SOL    HW223982   0.618   3.908   0.273 -1.7932 -1.4184  1.7886
 4175SOL     OW23983   2.228   1.642   0.636  0.2960 -0.3189  0.1702
 4175SOL    HW123984   2.174   1.704   0.686  0.6109 -0.5389  0.7807
 4175SOL    HW223985   2.166   1.612   0.569  0.5336  0.6637 -0.4830
 4176SOL     OW23986   4.436   2.592   4.559  0.7095 -0.1512  0.7802
 4176SOL    HW123987   4.386   2.600   4.477  2.2371  1.0291 -0.0294
 4176SOL    HW223988   4.493   2.668   4.563  1.7868 -0.7695 -2.5087
 4177SOL     OW23989   4.590   3.000   8.021 -0.0304  0.6640 -0.0976
 4177SOL    HW123990   4.651   3.036   7.956 -0.5152 -2.2026 -2.1775
 4177SOL    HW223991   4.619   3.020   8.110 -0.5638 -0.9906  0.4480
 4178SOL     OW23992   0.582   0.300   8.360 -0.1487 -0.0569 -0.5022
 4178SOL    HW123993   0.567   0.245   8.438  1.8103 -0.6515 -0.5430
 4178SOL    HW223994   0.554   0.232   8.298  1.1751 -0.6263 -0.4843
 4179SOL     OW23995   4.203   2.497  11.472 -0.3475  0.3433 -0.4599
 4179SOL    HW123996   4.158   2.563  11.524 -1.2090 -1.8602  1.5708
 4179SOL    HW223997   4.245   2.448  11.543  0.8114  0.6651 -0.9080
 4180SOL     OW23998   1.000   0.535  12.020 -0.6216 -0.5305  0.3041
 4180SOL    HW123999   1.074   0.492  11.978  0.0717  0.4751  0.4983
 4180SOL    HW224000   0.928   0.494  11.972 -1.0667 -1.2374  1.5831
 4181SOL     OW24001   3.482   1.325   2.418 -0.3110 -0.3748  0.0486
 4181SOL    HW124002   3.488   1.234   2.448  1.5258 -0.7328 -1.4017
 4181SOL    HW224003   3.476   1.383   2.494  2.1145 -0.5122  0.3656
 4182SOL     OW24004   0.199   2.035   0.840 -0.0230  0.3720 -0.0580
 4182SOL    HW124005   0.142   2.064   0.912 -1.6769  0.0455 -1.2562
 4182SOL    HW224006   0.141   2.036   0.764 -0.7245 -0.4147  0.4640
 4183SOL     OW24007   1.442   2.487   1.237  0.0057  0.1803  0.1817
 4183SOL    HW124008   1.464   2.400   1.270 -0.9020  0.0124  0.3319
 4183SOL    HW224009   1.347   2.483   1.248 -0.2955 -0.0121 -2.3307
 4184SOL     OW24010   3.453   3.858   0.314  0.0461 -0.4738  0.4092
 4184SOL    HW124011   3.381   3.895   0.262 -0.4739 -2.6668 -0.4257
 4184SOL    HW224012   3.500   3.815   0.242 -0.5930  1.6428 -1.2733
 4185SOL     OW24013   3.687   1.303  15.854 -0.7561 -0.6980 -0.1483
 4185SOL    HW124014   3.724   1.390  15.863 -0.7697 -0.6972 -0.1012
 4185SOL    HW224015   3.601   1.311  15.895 -1.1386  2.0692 -1.5375
 4186SOL     OW24016   0.618   1.261   7.311 -0.5330  0.0635  0.5335
 4186SOL    HW124017   0.643   1.292   7.398 -0.0421 -1.2399  0.8656
 4186SOL    HW224018   0.552   1.198   7.342 -0.5185 -0.0869  0.2587
 4187SOL     OW24019   3.506   1.359   4.431  0.1610 -0.0334 -0.3603
 4187SOL    HW124020   3.461   1.276   4.413 -1.3098  0.4766  0.8952
 4187SOL    HW224021   3.535   1.382   4.343  0.0115  0.3308 -0.3149
 4188SOL     OW24022   4.065   2.795  12.828  0.0838  0.2932 -0.0205
 4188SOL    HW124023   4.012   2.874  12.840  0.3907  1.0041 -3.3263
 4188SOL    HW224024   4.127   2.836  12.769 -1.7578  1.0839 -1.4235
 4189SOL     OW24025   1.545   0.112   4.675  0.4964 -0.6024  0.2305
 4189SOL    HW124026   1.634   0.111   4.709  0.9309 -0.8181 -0.9103
 4189SOL    HW224027   1.516   0.144   4.761 -3.2791 -0.7333 -0.9760
 4190SOL     OW24028   1.428   4.080   5.810 -0.2212  0.2503  0.0431
 4190SOL    HW124029   1.355   4.133   5.779  0.0481  0.0076 -1.0103
 4190SOL    HW224030   1.488   4.148   5.841 -0.4751  0.6399 -0.3162
 4191SOL     OW24031   0.095   0.590   6.832 -0.8526  0.0629  0.3972
 4191SOL    HW124032   0.106   0.524   6.763  0.0146 -0.3070  0.8813
 4191SOL    HW224033   0.182   0.630   6.839 -0.4178 -1.1107  1.6387
 4192SOL     OW24034   1.737   3.263   5.342  0.1569  0.3376  0.4468
 4192SOL    HW124035   1.809   3.212   5.304 -0.9701  0.3721 -1.7669
 4192SOL    HW224036   1.719   3.220   5.426 -1.2374  0.0226 -0.0104
 4193SOL     OW24037   4.211   3.168  16.265  0.7413 -0.2329 -0.7699
 4193SOL    HW124038   4.147   3.231  16.231  0.3510 -0.3244 -0.2130
 4193SOL    HW224039   4.252   3.228  16.327  1.2084 -0.5036 -0.8197
 4194SOL     OW24040   0.505   0.552   5.642  0.8140 -0.9228  0.1739
 4194SOL    HW124041   0.460   0.637   5.650 -0.7031 -1.9801  3.0539
 4194SOL    HW224042   0.589   0.568   5.684  0.7015 -0.3712  0.1996
 4195SOL     OW24043   4.539   3.954   6.891  0.3377 -0.1007 -0.3880
 4195SOL    HW124044   4.599   4.028   6.883 -0.4335  0.4091 -1.4936
 4195SOL    HW224045   4.459   3.999   6.861 -0.2459 -0.7165  0.2334
 4196SOL     OW24046   0.819   0.422   2.980 -1.0284  0.0655  0.0798
 4196SOL    HW124047   0.844   0.472   2.902 -1.8562 -0.2876 -0.4193
 4196SOL    HW224048   0.735   0.465   2.996 -0.2864  0.3312  3.2341
 4197SOL     OW24049   2.284   0.703  10.309 -0.0849 -0.1606  1.0447
 4197SOL    HW124050   2.189   0.701  10.319 -0.1528  2.1501  0.8766
 4197SOL    HW224051   2.303   0.613  10.281  1.4926  0.7098 -0.6764
 4198SOL     OW24052   3.101   3.880   2.786 -1.1140  0.3310 -0.0798
 4198SOL    HW124053   3.006   3.890   2.778 -1.2459  0.7519  1.9358
 4198SOL    HW224054   3.129   3.971   2.800  0.2572  0.2977 -2.7120
 4199SOL     OW24055   2.667   2.768   5.203  0.1066  0.0862 -0.2184
 4199SOL    HW124056   2.640   2.785   5.293 -1.7103 -0.8640 -0.5659
 4199SOL    HW224057   2.721   2.846   5.190 -1.2526  0.9176 -0.9303
 4200SOL     OW24058   1.942   2.765   6.886  0.3328  0.1118  0.3304
 4200SOL    HW124059   1.888   2.739   6.961  1.0364 -0.1034  0.7698
 4200SOL    HW224060   1.914   2.689   6.834 -1.6609  1.4008 -0.4520
 4201SOL     OW24061   0.743   2.410   6.990 -0.1730 -0.2796  0.1486
 4201SOL    HW124062   0.684   2.482   6.968 -0.1126 -0.3413 -0.2311
 4201SOL    HW224063   0.755   2.370   6.903 -1.8615 -0.9939  0.2279
 4202SOL     OW24064   1.362   0.771  13.699  0.2093 -0.1966 -0.3658
 4202SOL    HW124065   1.374   0.794  13.606 -2.8904 -2.1580 -1.2433
 4202SOL    HW224066   1.286   0.714  13.688 -0.1331  0.0172  0.9066
 4203SOL     OW24067   3.153   3.988   8.650  0.0229  0.2081  0.1988
 4203SOL    HW124068   3.067   3.971   8.613 -0.8593  2.6080  1.1880
 4203SOL    HW224069   3.214   4.003   8.577  1.7685  0.8517  1.7856
 4204SOL     OW24070   3.034   0.374   8.483 -0.2914  0.1958 -0.1781
 4204SOL    HW124071   2.999   0.427   8.555  1.8952 -1.3388  2.0226
 4204SOL    HW224072   3.071   0.445   8.431  0.2871 -0.7089 -1.0000
 4205SOL     OW24073   0.082   0.015  13.571  0.2803 -0.2898  0.3318
 4205SOL    HW124074   0.100   0.097  13.526 -0.6496  0.7282  1.7790
 4205SOL    HW224075   0.001   4.708  13.531  0.3796 -0.7141  0.4488
 4206SOL     OW24076   4.075   2.342  11.277  0.0018 -0.1466  0.3100
 4206SOL    HW124077   4.129   2.376  11.349 -0.7136 -0.7427  1.1369
 4206SOL    HW224078   4.098   2.249  11.279 -0.4218 -0.2637 -0.4192
 4207SOL     OW24079   3.393   3.032   9.342 -0.2735  0.1744  0.2973
 4207SOL    HW124080   3.304   3.003   9.363 -0.6791 -0.3137 -2.1391
 4207SOL    HW224081   3.427   2.945   9.323 -0.5398 -0.3142  1.9760
 4208SOL     OW24082   1.130   4.496   7.484  0.4633  0.3873 -0.0889
 4208SOL    HW124083   1.081   4.422   7.520  0.2348  1.0948  1.0434
 4208SOL    HW224084   1.215   4.462   7.508 -0.6648 -2.2449  0.1602
 4209SOL     OW24085   3.423   3.749   2.380 -0.0660  0.1458 -0.7765
 4209SOL    HW124086   3.386   3.731   2.466 -1.5626 -0.3023 -1.5159
 4209SOL    HW224087   3.448   3.839   2.400  0.2362  0.4680 -2.5440
 4210SOL     OW24088   0.984   1.815   7.634  0.4535  0.5808 -0.5037
 4210SOL    HW124089   1.072   1.806   7.596  0.8300  0.5619  0.3825
 4210SOL    HW224090   0.961   1.905   7.610 -0.6952  0.5368  0.4447
 4211SOL     OW24091   0.250   3.937   6.593  0.7571 -0.1268 -0.4157
 4211SOL    HW124092   0.334   3.948   6.637  0.1539  1.2758  0.4134
 4211SOL    HW224093   0.205   3.872   6.647  1.0797 -1.8736 -2.2485
 4212SOL     OW24094   0.301   2.002   6.594 -0.1772 -0.7541  0.4339
 4212SOL    HW124095   0.291   1.920   6.546 -2.6125  0.2225 -0.6997
 4212SOL    HW224096   0.224   2.054   6.569  0.2759  0.4037  1.4192
 4213SOL     OW24097   4.443   0.558   3.102  0.3418 -0.4412 -0.2714
 4213SOL    HW124098   4.424   0.598   3.017  0.8033 -1.9850 -1.1108
 4213SOL    HW224099   4.357   0.527   3.132 -0.8796  1.5426 -1.7010
 4214SOL     OW24100   0.556   4.687   2.370  0.5579 -0.1943  0.2382
 4214SOL    HW124101   0.569   0.032   2.304 -2.0062  2.3924  2.4159
 4214SOL    HW224102   0.521   4.617   2.316 -0.0697 -0.5626  1.1182
 4215SOL     OW24103   1.147   0.893  13.139  0.6592  0.0495  0.4175
 4215SOL    HW124104   1.096   0.827  13.185  1.3847 -2.9433 -3.0557
 4215SOL    HW224105   1.174   0.849  13.058 -0.4561  1.5362 -0.7631
 4216SOL     OW24106   0.865   1.609  15.842  0.0569 -0.5783 -0.3688
 4216SOL    HW124107   0.836   1.615  15.751 -0.1966  0.0420 -0.2485
 4216SOL    HW224108   0.942   1.554  15.833  0.4795  0.4678 -3.1286
 4217SOL     OW24109   3.468   2.402  15.005 -0.3829 -0.5609 -0.5393
 4217SOL    HW124110   3.408   2.454  14.951 -0.1477  2.0874  1.7505
 4217SOL    HW224111   3.522   2.357  14.941 -1.3803 -1.1357 -0.9806
 4218SOL     OW24112   3.904   2.555   5.985  0.3713 -0.0517 -0.2405
 4218SOL    HW124113   3.894   2.587   5.895 -1.3329 -0.9656 -0.3891
 4218SOL    HW224114   3.933   2.633   6.031  0.1297  0.7255 -1.4065
 4219SOL     OW24115   1.527   2.305   4.372  0.1881 -0.3812 -0.6198
 4219SOL    HW124116   1.555   2.356   4.448 -2.8032  0.0961  0.1677
 4219SOL    HW224117   1.469   2.246   4.420 -1.4201 -0.1427 -2.2638
 4220SOL     OW24118   0.924   1.122   8.423 -0.0496  0.0300  0.2321
 4220SOL    HW124119   0.922   1.062   8.349  0.8542  1.1270 -0.6687
 4220SOL    HW224120   0.876   1.063   8.482  3.4216 -2.3912  0.6102
 4221SOL     OW24121   1.773   1.558  16.163  0.0798  0.1881  0.2516
 4221SOL    HW124122   1.765   1.575  16.257  0.6688 -1.0356  0.5228
 4221SOL    HW224123   1.717   1.483  16.146  1.2189 -0.7709  0.7687
 4222SOL     OW24124   0.334   3.611  14.029  0.5889  0.7029 -0.0725
 4222SOL    HW124125   0.383   3.639  14.106  0.5605  0.5638 -0.0049
 4222SOL    HW224126   0.409   3.584  13.978 -0.0254 -2.8274  0.9192
 4223SOL     OW24127   2.804   4.018   1.629 -0.2165  0.3903 -0.6795
 4223SOL    HW124128   2.716   3.987   1.608 -0.9679  2.1814 -0.1696
 4223SOL    HW224129   2.835   3.944   1.681 -1.1669  0.3048 -0.2311
 4224SOL     OW24130   2.273   3.000  12.631  0.1990  0.2764  0.5799
 4224SOL    HW124131   2.192   3.051  12.634 -0.1541 -0.3047  0.8965
 4224SOL    HW224132   2.264   2.954  12.548  0.9241 -0.7173  1.0596
 4225SOL     OW24133   1.859   2.843   1.760 -0.1713  0.3678  0.0894
 4225SOL    HW124134   1.840   2.758   1.799  2.8210 -0.7506 -0.8326
 4225SOL    HW224135   1.823   2.906   1.822 -2.1126 -0.7381  0.0816
 4226SOL     OW24136   3.047   1.888   3.487 -0.3103  0.4537 -0.4925
 4226SOL    HW124137   3.013   1.810   3.443 -1.8201  0.9767 -0.2667
 4226SOL    HW224138   2.975   1.949   3.471 -3.0937 -2.3522  1.3747
 4227SOL     OW24139   4.026   0.378   4.536 -0.1714 -0.2814 -0.5092
 4227SOL    HW124140   4.005   0.344   4.449 -0.6248  0.0190 -0.5196
 4227SOL    HW224141   4.114   0.415   4.526 -0.0868 -0.2253  0.4485
 4228SOL     OW24142   3.193   4.071   0.755  0.3087 -0.0768  0.0480
 4228SOL    HW124143   3.210   3.981   0.782  0.5398 -0.0418  0.0134
 4228SOL    HW224144   3.121   4.095   0.813  1.0517  2.6714 -0.1883
 4229SOL     OW24145   1.078   1.505   9.037  0.2088  0.3542 -0.5942
 4229SOL    HW124146   1.070   1.596   9.006 -3.3792  0.3432  0.3984
 4229SOL    HW224147   1.027   1.510   9.117  1.9288  0.5648  0.5027
 4230SOL     OW24148   1.373   0.970   3.301 -0.2625  0.1503 -0.1501
 4230SOL    HW124149   1.417   0.900   3.349 -0.4405 -0.7818 -1.3565
 4230SOL    HW224150   1.427   0.962   3.222 -2.3126 -2.1843 -1.3168
 4231SOL     OW24151   1.347   1.631   5.317 -0.2315 -0.0970  0.3242
 4231SOL    HW124152   1.351   1.541   5.349 -0.0406 -0.1512  0.1453
 4231SOL    HW224153   1.414   1.641   5.250 -1.7992  2.3472 -0.8762
 4232SOL     OW24154   3.815   2.038  10.476  0.1009  0.4719  0.1287
 4232SOL    HW124155   3.885   2.020  10.414  0.7311  0.6126  0.8088
 4232SOL    HW224156   3.803   2.132  10.460 -2.3861 -0.1006 -1.3652
 4233SOL     OW24157   2.404   0.982   3.425  0.2130  0.5130  0.8097
 4233SOL    HW124158   2.480   1.037   3.404  0.5232  0.7200  2.4085
 4233SOL    HW224159   2.356   1.048   3.475  0.8106  1.8656 -0.4130
 4234SOL     OW24160   2.574   3.918  15.573  0.0846  0.5136  0.1342
 4234SOL    HW124161   2.581   3.823  15.587  2.3215  0.5879 -0.3706
 4234SOL    HW224162   2.573   3.916  15.477  0.1914 -1.0101  0.1591
 4235SOL     OW24163   2.076   2.003   6.499  0.0610  0.1189 -0.0110
 4235SOL    HW124164   2.100   1.939   6.565  1.0429  0.3227 -0.1727
 4235SOL    HW224165   2.159   2.046   6.476  1.3361 -1.4202  1.8119
 4236SOL     OW24166   3.295   3.818   1.978  0.0148 -0.1588  0.1196
 4236SOL    HW124167   3.338   3.857   1.903 -1.3012  1.0151 -0.0306
 4236SOL    HW224168   3.366   3.834   2.041 -0.7130  1.3726  0.5609
 4237SOL     OW24169   4.375   2.276   3.419  0.5158  0.1669  0.2346
 4237SOL    HW124170   4.397   2.369   3.408 -0.7292  0.1853 -2.0149
 4237SOL    HW224171   4.328   2.264   3.336  2.9120 -0.8968 -0.9738
 4238SOL     OW24172   1.846   1.266   5.279  0.4144  0.3418  0.6999
 4238SOL    HW124173   1.937   1.295   5.276  0.0289  1.5808  1.0077
 4238SOL    HW224174   1.814   1.283   5.368 -0.2353 -0.1557  0.5609
 4239SOL     OW24175   1.375   3.786   4.529  0.6515 -0.3851  0.0028
 4239SOL    HW124176   1.356   3.793   4.623 -1.0048 -1.5991 -0.2438
 4239SOL    HW224177   1.355   3.694   4.516 -0.0229 -0.0873 -1.1183
 4240SOL     OW24178   4.575   1.261   7.073  0.5247 -0.0071 -0.0504
 4240SOL    HW124179   4.662   1.272   7.113  0.7883 -0.4280 -0.5117
 4240SOL    HW224180   4.551   1.348   7.040  1.7675  1.5818  3.1344
 4241SOL     OW24181   2.872   1.313   4.578  0.1741  0.1975  0.2602
 4241SOL    HW124182   2.913   1.241   4.626  1.2061 -0.0635 -1.0298
 4241SOL    HW224183   2.851   1.271   4.495  0.4465 -0.0974  0.3417
 4242SOL     OW24184   3.568   1.353   2.146 -0.0126 -0.4794 -0.2349
 4242SOL    HW124185   3.540   1.313   2.228 -0.0735  1.0030  0.4586
 4242SOL    HW224186   3.504   1.419   2.121 -1.0473 -1.9852 -1.5557
 4243SOL     OW24187   2.865   4.088   4.461 -0.2950 -0.7898 -0.0785
 4243SOL    HW124188   2.791   4.112   4.516 -0.5127 -1.7511  0.0621
 4243SOL    HW224189   2.826   4.094   4.374  0.0104 -1.1732 -0.2420
 4244SOL     OW24190   3.942   0.217   3.993  0.1569 -0.4982  0.0451
 4244SOL    HW124191   4.024   0.230   3.947  0.0567 -0.3408 -0.0881
 4244SOL    HW224192   3.975   0.164   4.065  0.9600 -1.1600 -0.8084
 4245SOL     OW24193   1.425   0.738   2.859 -0.1696  0.3006  0.1694
 4245SOL    HW124194   1.450   0.800   2.927  3.1620 -0.2052 -0.5711
 4245SOL    HW224195   1.331   0.733   2.872 -0.0818 -1.2965  0.2005
 4246SOL     OW24196   3.024   3.238   7.891  0.0442  0.0212 -0.3504
 4246SOL    HW124197   2.985   3.169   7.838  0.1482 -0.2599 -0.0618
 4246SOL    HW224198   2.984   3.307   7.838 -0.7474  0.9113  1.3839
 4247SOL     OW24199   3.244   0.596   6.195  0.2354 -0.3420 -0.7863
 4247SOL    HW124200   3.264   0.521   6.251 -0.3512 -0.3434 -0.5846
 4247SOL    HW224201   3.155   0.617   6.221  0.1371 -1.2206 -0.4163
 4248SOL     OW24202   1.581   0.245   2.046  0.4029  0.1076  0.0009
 4248SOL    HW124203   1.667   0.210   2.020  1.2400  2.8953 -0.9323
 4248SOL    HW224204   1.528   0.235   1.967 -2.2281  0.6234  1.7068
 4249SOL     OW24205   3.522   0.507   1.782  0.1164 -0.6529  0.1395
 4249SOL    HW124206   3.585   0.569   1.744 -2.3247  1.5031 -0.3575
 4249SOL    HW224207   3.436   0.542   1.758 -0.8978 -1.1963  2.9141
 4250SOL     OW24208   0.134   0.323   3.768  0.5768 -0.0812 -1.0786
 4250SOL    HW124209   0.079   0.275   3.706  1.8268 -1.3332 -1.2266
 4250SOL    HW224210   0.220   0.320   3.725  0.6502 -0.9360 -0.8660
 4251SOL     OW24211   4.089   4.206  13.128 -0.5979 -0.1620 -0.2622
 4251SOL    HW124212   4.105   4.135  13.190 -0.6435 -0.6269 -0.7828
 4251SOL    HW224213   4.166   4.190  13.073 -0.9904 -2.1146 -0.2432
 4252SOL     OW24214   1.409   0.193   2.672  0.7895  0.1361  0.3562
 4252SOL    HW124215   1.495   0.169   2.640 -0.4008 -1.8793 -1.3341
 4252SOL    HW224216   1.364   0.111   2.654  3.3272 -0.6948 -1.9434
 4253SOL     OW24217   2.731   0.854   1.618  0.5121  0.1674 -0.0718
 4253SOL    HW124218   2.713   0.820   1.530 -0.1587  0.5399 -0.0729
 4253SOL    HW224219   2.670   0.802   1.670  0.2261 -0.8531 -1.4208
 4254SOL     OW24220   3.672   3.161   6.892 -0.0679 -0.0578 -0.3668
 4254SOL    HW124221   3.726   3.229   6.931  0.7559 -1.1879  0.4770
 4254SOL    HW224222   3.637   3.210   6.817 -2.2706 -2.4715 -0.9415
 4255SOL     OW24223   1.895   0.712  16.076  0.5778 -0.0589  0.4746
 4255SOL    HW124224   1.948   0.723  16.156 -0.1093 -1.5020  1.1283
 4255SOL    HW224225   1.876   0.619  16.066  0.8467 -0.0971  0.3216
 4256SOL     OW24226   2.278   0.220   0.664 -0.3703 -0.1494 -0.0989
 4256SOL    HW124227   2.333   0.165   0.607  1.7222  2.7008 -0.8239
 4256SOL    HW224228   2.343   0.252   0.726 -0.6689  0.6803 -0.2204
 4257SOL     OW24229   1.066   3.910   2.111  0.8343  0.3310 -0.1932
 4257SOL    HW124230   1.043   3.964   2.035 -0.0996  0.6015  0.2788
 4257SOL    HW224231   1.031   3.966   2.180  0.6880  0.1310 -0.1048
 4258SOL     OW24232   3.189   1.816   6.248 -0.0076 -0.0248  0.5422
 4258SOL    HW124233   3.185   1.872   6.170  0.2198  0.2653  0.7375
 4258SOL    HW224234   3.282   1.816   6.268  0.2710  0.6881 -0.7378
 4259SOL     OW24235   2.077   2.824   4.279  0.0750 -0.2161  0.2125
 4259SOL    HW124236   2.064   2.876   4.199 -0.5288 -0.2585  0.2815
 4259SOL    HW224237   2.137   2.755   4.253  0.8845  0.4024  0.4419
 4260SOL     OW24238   0.806   2.695   8.006 -0.0556 -0.3876  0.3941
 4260SOL    HW124239   0.794   2.661   8.094 -1.6224 -0.4154  0.1571
 4260SOL    HW224240   0.716   2.702   7.974  0.4533 -0.8586 -1.1337
 4261SOL     OW24241   0.776   2.052   3.457 -0.0346  0.3676 -0.1009
 4261SOL    HW124242   0.848   2.063   3.396 -0.2598 -1.3793 -0.6690
 4261SOL    HW224243   0.764   2.144   3.481 -0.0791 -0.2350  2.1862
 4262SOL     OW24244   1.125   3.188   4.778 -0.1810  0.2385 -0.1453
 4262SOL    HW124245   1.209   3.204   4.820 -0.6017  0.3377  0.6623
 4262SOL    HW224246   1.116   3.093   4.783  0.2806  0.0734 -2.3708
 4263SOL     OW24247   0.583   0.564   8.245  0.2165 -0.0313 -0.0205
 4263SOL    HW124248   0.578   0.475   8.280 -2.1408 -0.4807 -1.5398
 4263SOL    HW224249   0.499   0.570   8.200 -0.6377 -2.2628  1.2626
 4264SOL     OW24250   3.657   2.213   3.641  0.4026  0.0633  0.1853
 4264SOL    HW124251   3.735   2.160   3.626  0.5923 -0.2014  2.0650
 4264SOL    HW224252   3.614   2.201   3.557  2.5514 -2.9458 -0.4745
 4265SOL     OW24253   1.833   0.127   9.307  0.1960 -0.3556  0.5472
 4265SOL    HW124254   1.739   0.142   9.302  0.1760 -1.0278 -0.9805
 4265SOL    HW224255   1.852   0.083   9.390  1.2585  0.5499  0.7868
 4266SOL     OW24256   4.623   4.597  14.758  0.3290  0.3192 -0.0275
 4266SOL    HW124257   4.613   4.591  14.663 -1.5210 -1.2657  0.2892
 4266SOL    HW224258   4.658   4.510  14.778 -0.7108 -0.4921 -1.7369
 4267SOL     OW24259   2.699   0.396   6.789  0.1275  0.6918  0.1389
 4267SOL    HW124260   2.605   0.405   6.776  0.2910  1.4698 -0.5442
 4267SOL    HW224261   2.722   0.307   6.813 -2.2621  0.2073  0.6084
 4268SOL     OW24262   1.441   4.629   9.101 -0.3820 -0.0633  0.0804
 4268SOL    HW124263   1.360   4.587   9.071  0.0583 -0.1997 -0.9365
 4268SOL    HW224264   1.478   4.560   9.156 -1.0906 -0.8081 -0.3711
 4269SOL     OW24265   2.674   3.595   6.291  0.1394  0.2106 -0.0955
 4269SOL    HW124266   2.579   3.598   6.282  0.1843 -1.8017 -1.4078
 4269SOL    HW224267   2.703   3.563   6.206 -0.7014  1.5514 -0.8764
 4270SOL     OW24268   2.870   3.806   6.293 -0.2006  0.0990  0.3547
 4270SOL    HW124269   2.891   3.778   6.203 -0.3883 -3.1115  1.3104
 4270SOL    HW224270   2.827   3.728   6.328 -1.4262  1.4487  1.8024
 4271SOL     OW24271   0.108   2.028   2.385 -0.2900  0.4470 -0.1017
 4271SOL    HW124272   0.167   1.954   2.397  0.7064  1.2996  0.3202
 4271SOL    HW224273   0.024   1.982   2.385 -0.6972  1.2007  2.8129
 4272SOL     OW24274   3.775   0.685   6.753 -0.4172 -0.1612  0.3874
 4272SOL    HW124275   3.753   0.593   6.767 -1.7631  0.1870  0.5684
 4272SOL    HW224276   3.808   0.682   6.664  1.6187 -0.7909  1.1689
 4273SOL     OW24277   0.750   1.531   8.448  0.1212  0.6155 -0.5763
 4273SOL    HW124278   0.767   1.462   8.513 -0.0028  2.5944  1.5463
 4273SOL    HW224279   0.751   1.599   8.516  1.5263  0.1065 -0.0861
 4274SOL     OW24280   2.113   2.495   2.739  0.4973  0.5565 -0.0334
 4274SOL    HW124281   2.159   2.548   2.674 -1.0711  0.3318 -1.3368
 4274SOL    HW224282   2.157   2.414   2.715  0.4090  0.9264 -1.4188
 4275SOL     OW24283   3.555   0.433   4.558  0.0534 -0.6134  0.3145
 4275SOL    HW124284   3.543   0.516   4.511 -0.7108  0.0398  1.6506
 4275SOL    HW224285   3.635   0.442   4.610 -0.3438 -0.7485  0.9489
 4276SOL     OW24286   1.804   1.052   5.112  0.3541 -0.0265 -0.2362
 4276SOL    HW124287   1.848   0.984   5.163  1.0803  0.6879  0.0874
 4276SOL    HW224288   1.807   1.126   5.173 -1.4323  0.1691 -0.3953
 4277SOL     OW24289   0.419   1.421   6.798 -0.2297  0.0020  0.0179
 4277SOL    HW124290   0.360   1.366   6.746  0.5188  0.3996 -1.2425
 4277SOL    HW224291   0.361   1.443   6.871 -0.1305 -0.0442  0.1114
 4278SOL     OW24292   4.388   0.773   7.465  0.4077  0.1282  0.4329
 4278SOL    HW124293   4.297   0.798   7.477  0.2589 -0.8151  1.2582
 4278SOL    HW224294   4.418   0.864   7.468 -0.5975  0.5476 -2.2897
 4279SOL     OW24295   1.035   1.867  15.503  0.7581  0.2536  0.3367
 4279SOL    HW124296   1.058   1.935  15.440  0.4065  2.1373  2.2253
 4279SOL    HW224297   0.950   1.904  15.529  0.7318 -0.8452  1.8156
 4280SOL     OW24298   4.246   1.271   5.422  0.0579 -0.6056  0.2824
 4280SOL    HW124299   4.303   1.216   5.368  0.0872  0.2264 -0.5330
 4280SOL    HW224300   4.283   1.245   5.506 -1.2734  0.7210  1.2730
 4281SOL     OW24301   1.256   2.921   9.246  0.2560  0.3327  0.3436
 4281SOL    HW124302   1.166   2.937   9.274  0.2753  3.5724 -1.4208
 4281SOL    HW224303   1.300   2.905   9.329  0.4932 -1.3026 -0.0945
 4282SOL     OW24304   4.313   0.218   1.724 -0.2125  0.1130  0.5416
 4282SOL    HW124305   4.251   0.178   1.663  0.1239  0.9430 -0.3648
 4282SOL    HW224306   4.397   0.197   1.683  0.2469  1.7357  0.6375
 4283SOL     OW24307   2.060   4.383  14.966 -0.2253  0.2657 -0.0615
 4283SOL    HW124308   2.093   4.471  14.948  0.6907 -0.6660 -2.8450
 4283SOL    HW224309   1.986   4.407  15.022  0.3477  0.2289  0.7101
 4284SOL     OW24310   4.140   1.141  10.684  0.0423  0.2999  0.4600
 4284SOL    HW124311   4.162   1.234  10.689 -2.2880  0.8386  0.8081
 4284SOL    HW224312   4.118   1.124  10.593 -0.2895  1.9152  0.2424
 4285SOL     OW24313   4.698   2.842  12.769  0.1770 -0.4481 -0.0436
 4285SOL    HW124314   0.025   2.922  12.780  3.2115 -2.1375 -1.4672
 4285SOL    HW224315   0.034   2.792  12.712 -0.0422  1.0943 -1.6215
 4286SOL     OW24316   3.939   0.341   8.012  0.0608 -0.6559  0.1968
 4286SOL    HW124317   3.919   0.322   8.104 -1.7381  3.1963  0.5881
 4286SOL    HW224318   3.867   0.402   7.996  0.0941 -0.3004  1.3373
 4287SOL     OW24319   0.229   1.430   1.286  0.0117 -0.2742  0.4237
 4287SOL    HW124320   0.134   1.435   1.287 -0.0038 -0.4138 -0.6006
 4287SOL    HW224321   0.258   1.402   1.200  0.1763  1.6461 -0.1581
 4288SOL     OW24322   2.405   4.490   5.349 -0.2287 -0.2482  0.5431
 4288SOL    HW124323   2.435   4.420   5.291 -1.9078 -2.5113  2.4298
 4288SOL    HW224324   2.368   4.547   5.281 -0.6342 -1.1964 -0.0351
 4289SOL     OW24325   2.860   0.594   9.235 -0.8098 -0.1328  0.2657
 4289SOL    HW124326   2.952   0.613   9.252 -0.5527  1.2278 -2.6701
 4289SOL    HW224327   2.858   0.499   9.249 -2.1820  0.2245  2.5206
 4290SOL     OW24328   2.590   3.822   7.293 -0.2710 -0.5367 -0.5003
 4290SOL    HW124329   2.526   3.889   7.320 -1.5901 -2.4328  1.1190
 4290SOL    HW224330   2.631   3.798   7.376  1.4192 -0.2569 -1.2506
 4291SOL     OW24331   1.671   2.442   5.237 -0.8234 -0.9887  0.4612
 4291SOL    HW124332   1.753   2.401   5.267  0.7513  0.8285 -1.3743
 4291SOL    HW224333   1.697   2.479   5.153  4.0432 -2.0504  1.5018
 4292SOL     OW24334   2.160   1.212   2.717  0.4667 -0.2644 -0.5135
 4292SOL    HW124335   2.243   1.251   2.687 -0.6995  1.6807 -1.2114
 4292SOL    HW224336   2.115   1.296   2.720  1.3671  0.2168 -0.2832
 4293SOL     OW24337   2.250   3.144  10.665  0.1947  0.1430 -0.0127
 4293SOL    HW124338   2.164   3.185  10.663 -0.4124 -1.2088 -1.8045
 4293SOL    HW224339   2.291   3.183  10.588  0.0420  2.0579  0.8818
 4294SOL     OW24340   3.673   3.183  15.066  0.4619  0.6480 -0.0103
 4294SOL    HW124341   3.750   3.200  15.119 -0.1829 -1.3753  1.5854
 4294SOL    HW224342   3.627   3.129  15.130  0.1110  1.0229  0.0484
 4295SOL     OW24343   1.886   2.758   9.813 -0.9208 -0.9023 -1.0201
 4295SOL    HW124344   1.844   2.774   9.897 -0.1612 -0.9590 -0.6313
 4295SOL    HW224345   1.917   2.669   9.830 -0.9440 -0.3699  1.8268
 4296SOL     OW24346   0.171   3.391  14.048 -0.4348  0.1764 -0.0862
 4296SOL    HW124347   0.235   3.458  14.026  1.6157 -1.1139  1.9245
 4296SOL    HW224348   0.143   3.377  13.958 -0.3130 -0.4332 -0.0289
 4297SOL     OW24349   0.347   0.630   8.818 -0.4548 -0.3042  0.7585
 4297SOL    HW124350   0.391   0.555   8.858 -0.2996 -1.9455 -2.4758
 4297SOL    HW224351   0.299   0.639   8.900  1.2421  1.8776  1.5048
 4298SOL     OW24352   3.970   0.469   4.947 -0.0708  0.3470 -0.1319
 4298SOL    HW124353   3.955   0.377   4.967  0.5044  0.2728 -0.0501
 4298SOL    HW224354   4.057   0.451   4.912 -0.5246  1.2952 -1.7598
 4299SOL     OW24355   3.325   3.944   6.192  0.0703  0.3873 -0.0411
 4299SOL    HW124356   3.411   3.935   6.152 -0.7787 -2.2506 -1.3020
 4299SOL    HW224357   3.278   3.899   6.122  2.1101 -0.2175 -1.0273
 4300SOL     OW24358   2.996   3.988   7.085  1.0116  0.5072 -0.3027
 4300SOL    HW124359   3.005   3.941   7.168 -1.2078  2.4150  1.0099
 4300SOL    HW224360   2.902   4.005   7.081  0.4686 -2.4411 -0.4931
 4301SOL     OW24361   2.042   1.318   6.107 -0.0954 -0.5952 -0.1562
 4301SOL    HW124362   2.043   1.337   6.014 -0.2620 -0.2251 -0.0850
 4301SOL    HW224363   1.968   1.375   6.130 -1.2832 -0.9508 -3.2058
 4302SOL     OW24364   0.150   1.732  16.458 -0.3139 -0.6567 -0.2654
 4302SOL    HW124365   0.129   1.773  16.542  0.7417 -1.0976  0.2120
 4302SOL    HW224366   0.242   1.755  16.447 -1.2107  2.2463 -1.7518
 4303SOL     OW24367   2.785   1.139   7.547 -0.0969  0.2963 -0.2687
 4303SOL    HW124368   2.817   1.049   7.548  0.8401  0.6349  0.7974
 4303SOL    HW224369   2.851   1.187   7.598  1.4975 -2.0766 -0.1228
 4304SOL     OW24370   1.555   1.986   5.803 -0.7500  0.0675  0.5367
 4304SOL    HW124371   1.629   1.957   5.856  0.7232  0.6612 -1.1866
 4304SOL    HW224372   1.596   2.039   5.735 -0.3679 -1.1427 -0.1783
 4305SOL     OW24373   3.085   0.389   8.980 -0.1029 -0.6563 -0.1350
 4305SOL    HW124374   3.050   0.378   9.068 -0.5907 -0.1619 -0.2720
 4305SOL    HW224375   3.013   0.439   8.941 -1.3751 -1.0057  1.7770
 4306SOL     OW24376   2.394   3.594  12.040  0.3908  0.3915  0.8256
 4306SOL    HW124377   2.361   3.676  12.078  0.8481  0.3023  1.4210
 4306SOL    HW224378   2.382   3.616  11.948 -2.9427 -0.5130  1.0550
 4307SOL     OW24379   2.141   4.267   2.925  0.0656 -0.0604  0.1151
 4307SOL    HW124380   2.099   4.344   2.963 -0.8979 -0.1590 -0.7502
 4307SOL    HW224381   2.068   4.228   2.878  0.2355 -1.9810  1.4665
 4308SOL     OW24382   1.657   2.612  10.717 -0.1814 -0.4328 -0.0541
 4308SOL    HW124383   1.741   2.579  10.747 -1.3683 -1.7389  1.8755
 4308SOL    HW224384   1.615   2.628  10.801 -2.9848  3.0805 -2.0906
 4309SOL     OW24385   2.592   3.162   4.092  0.4305  0.0641  0.0668
 4309SOL    HW124386   2.507   3.119   4.085  0.1787  0.2564  1.8204
 4309SOL    HW224387   2.638   3.092   4.046  2.9196  1.2949  0.6932
 4310SOL     OW24388   3.334   0.684   4.112 -0.0370 -0.3902  0.0269
 4310SOL    HW124389   3.296   0.766   4.146  0.3655 -0.8223  1.5479
 4310SOL    HW224390   3.327   0.701   4.018 -0.5698 -0.8787 -0.0204
 4311SOL     OW24391   3.789   3.709   1.139 -0.6088 -0.2351 -0.5787
 4311SOL    HW124392   3.796   3.725   1.045  0.6219 -1.3599 -0.6743
 4311SOL    HW224393   3.710   3.658   1.156 -0.9595  0.8895  1.2076
 4312SOL     OW24394   3.049   2.900  13.152  0.6658  0.4773  0.0281
 4312SOL    HW124395   3.089   2.902  13.239 -0.0212  0.1544  0.3573
 4312SOL    HW224396   2.995   2.821  13.156  1.1365  0.2211  1.4250
 4313SOL     OW24397   4.038   3.217   5.910 -0.0522  0.3964  0.0363
 4313SOL    HW124398   4.088   3.237   5.831  0.1952  0.0929  0.1149
 4313SOL    HW224399   3.960   3.186   5.863  0.0363 -0.8600  0.7139
 4314SOL     OW24400   1.674   2.384   9.454  0.1230 -0.0791 -0.2949
 4314SOL    HW124401   1.667   2.303   9.504 -1.7252 -0.8472 -1.7820
 4314SOL    HW224402   1.754   2.357   9.410 -0.1194 -0.6519 -0.3906
 4315SOL     OW24403   0.833   3.858  17.486 -0.1852  0.4024 -0.1185
 4315SOL    HW124404   0.915   3.897  17.519 -0.0858 -0.5896  0.7933
 4315SOL    HW224405   0.807   3.926  17.423  0.7242  1.4744  0.6588
 4316SOL     OW24406   0.310   3.023   9.104  0.2316  0.0190 -0.6548
 4316SOL    HW124407   0.270   3.079   9.037 -0.2517  0.3047 -0.1276
 4316SOL    HW224408   0.393   3.068   9.118 -0.3800  1.1216 -0.5746
 4317SOL     OW24409   4.233   1.769  10.879 -0.1666 -0.4603  0.1242
 4317SOL    HW124410   4.216   1.686  10.835  0.0525  0.7363 -2.2164
 4317SOL    HW224411   4.185   1.760  10.961 -0.9549 -1.5578 -0.4539
 4318SOL     OW24412   2.216   2.737  14.797  0.4149 -0.0401 -0.0315
 4318SOL    HW124413   2.213   2.828  14.825 -0.6953 -1.1804  3.6375
 4318SOL    HW224414   2.291   2.738  14.737 -0.9859 -2.1013 -1.8174
 4319SOL     OW24415   0.235   2.091   3.233  0.0070 -0.1755 -0.3198
 4319SOL    HW124416   0.276   2.165   3.276  1.6238 -0.2496 -1.7276
 4319SOL    HW224417   0.159   2.078   3.290 -1.7854 -0.1535 -2.6587
 4320SOL     OW24418   3.275   2.560   5.098  0.1677  0.1490 -0.3775
 4320SOL    HW124419   3.333   2.485   5.081 -0.8596 -0.9682  0.9588
 4320SOL    HW224420   3.253   2.591   5.010 -3.8656 -0.8376  0.2479
 4321SOL     OW24421   0.879   2.451   5.705 -0.3219  0.1874 -0.2244
 4321SOL    HW124422   0.912   2.400   5.631  0.7535 -0.3975  0.6537
 4321SOL    HW224423   0.792   2.463   5.668 -2.3648 -3.1687  3.4118
 4322SOL     OW24424   2.116   2.844  11.269 -0.2902 -0.4694 -0.2558
 4322SOL    HW124425   2.047   2.908  11.255  1.1757  0.8636 -1.4828
 4322SOL    HW224426   2.165   2.882  11.342  0.8754 -0.2419 -1.1563
 4323SOL     OW24427   3.466   0.915   7.107 -0.1882 -0.2230 -0.0344
 4323SOL    HW124428   3.541   0.905   7.048  0.2909 -2.6315  0.9840
 4323SOL    HW224429   3.439   1.002   7.078 -0.4598 -0.6503 -1.0868
 4324SOL     OW24430   0.710   2.612  10.593 -0.5152  0.5289  0.0121
 4324SOL    HW124431   0.718   2.708  10.594 -0.5796  0.5255  1.3360
 4324SOL    HW224432   0.648   2.593  10.663 -0.3892 -0.4110 -0.1351
 4325SOL     OW24433   0.455   0.107   8.225 -0.3617  0.3205  1.0500
 4325SOL    HW124434   0.440   0.120   8.131 -1.0266  2.0668  1.3984
 4325SOL    HW224435   0.369   0.132   8.258 -0.3846  2.5317 -0.6258
 4326SOL     OW24436   2.791   3.818   4.408  0.1945  0.0246 -0.1892
 4326SOL    HW124437   2.820   3.898   4.453 -0.6801 -0.2188  0.7967
 4326SOL    HW224438   2.695   3.817   4.407  0.1846  0.7102 -0.2632
 4327SOL     OW24439   2.757   2.292   7.831  0.1401 -0.5161 -0.2766
 4327SOL    HW124440   2.667   2.293   7.863 -0.8720  1.3957 -3.1665
 4327SOL    HW224441   2.796   2.352   7.895  3.1375 -2.5355 -0.2320
 4328SOL     OW24442   4.318   3.338  16.427  0.4966  0.5065  0.4711
 4328SOL    HW124443   4.406   3.372  16.413  0.4719  0.6447  0.6507
 4328SOL    HW224444   4.285   3.386  16.502  0.1149 -2.0768  1.9637
 4329SOL     OW24445   0.187   0.378  11.850  0.0306 -0.2046 -0.1261
 4329SOL    HW124446   0.114   0.421  11.806 -1.3355 -3.3707 -0.9169
 4329SOL    HW224447   0.176   0.421  11.934 -3.5417  0.2966 -0.8776
 4330SOL     OW24448   1.979   2.972   6.557 -0.3397 -0.3451  0.0315
 4330SOL    HW124449   2.060   2.922   6.568  0.3071  0.9887  1.3490
 4330SOL    HW224450   2.012   3.056   6.589 -0.3560  0.1280 -1.2045
 4331SOL     OW24451   3.620   3.005   9.147  0.0466  0.0473 -0.1766
 4331SOL    HW124452   3.696   3.062   9.157 -0.1449  0.3645 -0.5289
 4331SOL    HW224453   3.645   2.957   9.067 -1.5498  0.6576 -1.0411
 4332SOL     OW24454   1.611   3.487   5.226 -0.2713 -0.4536  0.6044
 4332SOL    HW124455   1.668   3.449   5.292 -1.0864 -2.2795  0.2453
 4332SOL    HW224456   1.609   3.577   5.258 -2.3815 -0.3010  0.0808
 4333SOL     OW24457   2.122   3.350   6.818  0.6422 -0.2891  0.1611
 4333SOL    HW124458   2.131   3.407   6.742  1.0726 -1.9172 -1.0171
 4333SOL    HW224459   2.092   3.416   6.881 -1.2983 -2.3649  1.4169
 4334SOL     OW24460   2.894   0.646  11.023 -0.0251  0.1010  0.7470
 4334SOL    HW124461   2.888   0.575  11.087  0.9373 -1.0479 -0.4541
 4334SOL    HW224462   2.873   0.599  10.942  0.6049 -0.0277  0.6650
 4335SOL     OW24463   0.265   3.056   2.567 -0.3565 -0.7307  0.1023
 4335SOL    HW124464   0.184   3.007   2.556 -0.4672 -0.1902 -1.3772
 4335SOL    HW224465   0.236   3.146   2.554  0.7104 -0.7305 -2.3004
 4336SOL     OW24466   1.535   4.032   1.041 -0.3406 -0.1937  0.1134
 4336SOL    HW124467   1.575   4.118   1.044  0.3048 -0.4712 -0.6217
 4336SOL    HW224468   1.466   4.039   0.975  0.4182 -2.0957 -0.9007
 4337SOL     OW24469   1.385   2.001   8.481 -0.3627  1.0252 -0.0028
 4337SOL    HW124470   1.374   2.071   8.546 -1.4249  2.5013 -1.7567
 4337SOL    HW224471   1.295   1.984   8.454 -0.7590  0.7091  1.5085
 4338SOL     OW24472   0.910   0.441   5.701  0.3127  0.4911 -0.5122
 4338SOL    HW124473   0.833   0.492   5.678  1.3730  0.8020 -3.3201
 4338SOL    HW224474   0.875   0.425   5.789  0.2661  1.3779 -0.3672
 4339SOL     OW24475   1.834   0.745   9.568  0.4721 -0.1046  0.0516
 4339SOL    HW124476   1.803   0.831   9.540  0.2046 -0.4731 -0.7871
 4339SOL    HW224477   1.902   0.729   9.502  0.8074  0.9023  0.1494
 4340SOL     OW24478   4.452   2.394   1.272  0.4864 -0.1400 -0.0855
 4340SOL    HW124479   4.382   2.381   1.335 -1.7156  0.6363 -2.3795
 4340SOL    HW224480   4.401   2.438   1.204  0.8405 -0.2648 -0.4328
 4341SOL     OW24481   0.235   3.541   7.216  0.1536 -0.2836  0.0007
 4341SOL    HW124482   0.241   3.621   7.267  0.6157 -1.2118  1.3995
 4341SOL    HW224483   0.177   3.563   7.143 -0.6325  0.0324  0.7190
 4342SOL     OW24484   1.090   1.020   5.799 -0.0866 -0.3059 -0.2722
 4342SOL    HW124485   1.015   1.016   5.859 -0.6456  2.3375 -0.8280
 4342SOL    HW224486   1.108   1.113   5.786  0.0713 -0.0004  2.0477
 4343SOL     OW24487   2.117   3.131   2.862  0.4593  0.3416  0.0774
 4343SOL    HW124488   2.204   3.112   2.829  0.3106  1.3087 -0.8817
 4343SOL    HW224489   2.082   3.191   2.795  2.1330  1.7349  0.4730
 4344SOL     OW24490   3.989   4.450   8.114  0.3981  0.2641  0.4001
 4344SOL    HW124491   3.976   4.534   8.158 -1.7043 -0.1014  0.5020
 4344SOL    HW224492   4.058   4.473   8.052 -0.3852 -0.7283 -0.8362
 4345SOL     OW24493   0.163   1.470  15.469  0.0890  0.0884 -0.1131
 4345SOL    HW124494   0.259   1.477  15.478 -0.2341 -1.2915  4.4596
 4345SOL    HW224495   0.152   1.506  15.381  1.6122  0.1522 -0.2849
 4346SOL     OW24496   2.660   1.982   7.977  0.2794  0.4435  0.5110
 4346SOL    HW124497   2.627   1.907   8.027  0.9106  0.7289  1.3529
 4346SOL    HW224498   2.677   1.937   7.895 -0.3960 -0.4215  0.8512
 4347SOL     OW24499   2.239   0.704   8.171  0.2789 -0.6205  0.2648
 4347SOL    HW124500   2.319   0.700   8.224  0.6628 -1.2488 -0.3563
 4347SOL    HW224501   2.231   0.612   8.144  3.0263 -0.9015  0.3676
 4348SOL     OW24502   1.702   2.321   6.958 -0.2534  0.4588 -0.3308
 4348SOL    HW124503   1.623   2.361   6.994 -1.2941 -2.4486  0.5876
 4348SOL    HW224504   1.664   2.312   6.871 -0.0599 -1.1318 -0.2483
 4349SOL     OW24505   1.436   1.678   9.544  0.8172 -0.1469  0.6058
 4349SOL    HW124506   1.386   1.598   9.562  1.5283 -0.8017 -0.3960
 4349SOL    HW224507   1.360   1.733   9.564  1.5137 -0.2541  3.5382
 4350SOL     OW24508   2.738   0.070  11.496 -0.5588  0.5854 -0.0533
 4350SOL    HW124509   2.793   0.142  11.526  1.4369 -1.2737  0.7018
 4350SOL    HW224510   2.649   0.102  11.515 -0.3099  0.8398  0.6802
 4351SOL     OW24511   0.273   4.262   3.459 -0.7784  0.1276  0.4269
 4351SOL    HW124512   0.255   4.203   3.386 -0.2352  1.3719 -0.7128
 4351SOL    HW224513   0.214   4.329   3.427  0.5609  0.4069 -1.4695
 4352SOL     OW24514   1.382   2.102   7.994  0.4367 -0.4237 -0.5136
 4352SOL    HW124515   1.364   2.161   8.067 -0.7404  0.4359 -1.4817
 4352SOL    HW224516   1.387   2.172   7.929  1.4917 -0.4045 -0.4004
 4353SOL     OW24517   1.770   1.806   7.740  0.0495 -0.0070  0.8324
 4353SOL    HW124518   1.692   1.861   7.753  0.9134  1.8945 -2.1133
 4353SOL    HW224519   1.758   1.788   7.647  0.7547  1.5980  0.4332
 4354SOL     OW24520   2.650   0.357   3.826 -0.2771 -0.2473 -0.3961
 4354SOL    HW124521   2.609   0.325   3.906 -2.3219  0.6715 -1.0696
 4354SOL    HW224522   2.625   0.448   3.837 -1.5700 -0.6710  0.2114
 4355SOL     OW24523   3.268   3.573   3.371 -0.4627  0.1689 -0.4388
 4355SOL    HW124524   3.318   3.611   3.299 -1.2226  0.5787 -0.7545
 4355SOL    HW224525   3.326   3.510   3.414  1.3121 -0.1684 -3.3473
 4356SOL     OW24526   1.723   1.849   3.890 -0.1538 -0.1799  0.5433
 4356SOL    HW124527   1.763   1.923   3.936  0.1344 -0.5603  0.9082
 4356SOL    HW224528   1.647   1.894   3.853  1.1850  1.2919 -0.4308
 4357SOL     OW24529   0.276   1.842   7.448 -0.2527 -0.0070 -0.1887
 4357SOL    HW124530   0.191   1.862   7.409  0.9994  1.5319 -2.1539
 4357SOL    HW224531   0.246   1.795   7.526  0.9224  2.2520  1.6197
 4358SOL     OW24532   4.342   1.714   8.169 -0.2435  0.1575 -0.0431
 4358SOL    HW124533   4.352   1.786   8.231 -0.5061  1.2586 -1.2846
 4358SOL    HW224534   4.377   1.645   8.226 -0.3584  1.2226  1.3336
 4359SOL     OW24535   0.549   2.102   5.198 -0.0386  0.2636  0.5665
 4359SOL    HW124536   0.599   2.036   5.245  0.7800 -1.6568 -3.0285
 4359SOL    HW224537   0.556   2.055   5.115 -1.3778 -0.0885  0.6645
 4360SOL     OW24538   2.228   0.140   8.843  0.1832  0.5375 -0.8421
 4360SOL    HW124539   2.233   0.234   8.859  1.6131  0.4784 -0.9470
 4360SOL    HW224540   2.134   0.122   8.847  0.1771  0.4743 -1.2601
 4361SOL     OW24541   1.913   3.723   5.742  0.0895 -0.4730 -0.5785
 4361SOL    HW124542   1.842   3.659   5.733 -1.6187  1.6270 -2.0061
 4361SOL    HW224543   1.939   3.715   5.833 -1.3452 -2.3078 -0.3352
 4362SOL     OW24544   3.026   3.546   7.303 -0.3455 -0.4802  0.4767
 4362SOL    HW124545   2.972   3.626   7.297  1.6908  0.9234  0.8856
 4362SOL    HW224546   3.093   3.569   7.368 -1.5296 -0.6616  1.7745
 4363SOL     OW24547   3.891   4.062   0.958 -0.3348  0.4188 -0.2499
 4363SOL    HW124548   3.957   4.000   0.928  0.4450  0.7808  0.7152
 4363SOL    HW224549   3.936   4.114   1.025 -1.3293  1.3323 -0.2843
 4364SOL     OW24550   3.909   3.599   8.295 -0.1600 -0.8879 -0.4171
 4364SOL    HW124551   3.931   3.596   8.388  0.7394  0.0577 -0.6043
 4364SOL    HW224552   3.991   3.562   8.261  0.2485 -0.3385 -0.0110
 4365SOL     OW24553   2.931   3.974   2.235  0.3907  0.4304  0.0700
 4365SOL    HW124554   2.929   4.030   2.313  2.3200  0.2584  0.2586
 4365SOL    HW224555   2.849   3.998   2.193 -0.3704 -0.3269  1.1399
 4366SOL     OW24556   2.499   1.609   2.425 -0.1518 -0.0045 -0.0430
 4366SOL    HW124557   2.554   1.570   2.356 -0.4176  0.6187 -0.6077
 4366SOL    HW224558   2.567   1.621   2.492  2.3139  1.3786 -2.7887
 4367SOL     OW24559   0.252   3.338  11.731  0.1840  0.9946  0.2699
 4367SOL    HW124560   0.173   3.339  11.678  0.7454 -1.2962 -0.6377
 4367SOL    HW224561   0.292   3.258  11.696  0.2498  0.5888  1.2614
 4368SOL     OW24562   2.545   4.600   2.283 -0.3893 -0.2917  0.3711
 4368SOL    HW124563   2.487   4.535   2.322 -2.6556  1.1388 -0.6608
 4368SOL    HW224564   2.535   4.591   2.189  0.0594  1.8762  0.1109
 4369SOL     OW24565   2.267   2.128   5.522  0.6864 -0.2728 -0.0930
 4369SOL    HW124566   2.255   2.223   5.522  0.0713 -0.3478  1.3783
 4369SOL    HW224567   2.281   2.118   5.616  2.1188  2.1544 -0.0165
 4370SOL     OW24568   3.345   0.126   2.135  0.2970  0.3801 -0.8413
 4370SOL    HW124569   3.425   0.179   2.144  0.1469  0.5490 -0.5038
 4370SOL    HW224570   3.331   0.099   2.226 -1.3933 -0.3230 -1.3268
 4371SOL     OW24571   4.360   0.980   5.491 -0.4524 -0.1116  0.1298
 4371SOL    HW124572   4.415   0.994   5.568 -0.1467  0.4190 -0.1843
 4371SOL    HW224573   4.424   0.962   5.422 -0.4050  2.0475 -0.4022
 4372SOL     OW24574   2.250   2.847   8.685 -0.3087 -0.5083  0.5566
 4372SOL    HW124575   2.325   2.905   8.673 -0.8883  0.1763  0.2680
 4372SOL    HW224576   2.248   2.789   8.609 -1.8228 -0.7039  0.7457
 4373SOL     OW24577   0.631   0.248   9.486  0.4888 -0.5017  0.0339
 4373SOL    HW124578   0.545   0.209   9.468  0.1904  0.7900 -1.3530
 4373SOL    HW224579   0.646   0.243   9.580 -0.3247  0.5155  0.2178
 4374SOL     OW24580   0.920   1.841  15.969  0.6089  0.3621 -0.2883
 4374SOL    HW124581   0.900   1.761  15.920 -0.6642  0.7508 -0.4063
 4374SOL    HW224582   0.848   1.897  15.937 -0.4479 -1.7502 -1.6215
 4375SOL     OW24583   0.033   3.408   9.183  0.2377  0.1485  0.4596
 4375SOL    HW124584   0.023   3.478   9.119  1.1725 -0.7341 -0.6696
 4375SOL    HW224585   0.019   3.456   9.264  1.6643  1.3270  0.0124
 4376SOL     OW24586   2.962   2.615   2.661  0.0699  0.0620 -0.1599
 4376SOL    HW124587   2.930   2.687   2.608  1.5022 -0.2991 -1.5158
 4376SOL    HW224588   2.895   2.620   2.729  0.8829 -0.5101  0.6964
 4377SOL     OW24589   4.065   2.044   5.046 -0.7962  0.3380  0.9109
 4377SOL    HW124590   3.985   2.023   5.094 -1.4053 -0.0696 -0.2955
 4377SOL    HW224591   4.045   2.129   5.006 -1.6685 -1.1620 -1.8463
 4378SOL     OW24592   2.177   3.699   6.421  0.2069 -0.2721  0.3612
 4378SOL    HW124593   2.226   3.776   6.391  0.4427 -0.0899  1.2102
 4378SOL    HW224594   2.239   3.677   6.490 -1.1706 -1.5467  1.1917
 4379SOL     OW24595   1.833   1.016  14.817 -0.4741  0.2574  0.4691
 4379SOL    HW124596   1.890   0.959  14.869 -0.4025  1.1015  1.3162
 4379SOL    HW224597   1.744   1.007  14.851 -0.0233  1.1354  1.8845
 4380SOL     OW24598   4.190   2.492  10.704  0.0781  0.7467  0.3013
 4380SOL    HW124599   4.109   2.494  10.755  1.0418 -1.1910  1.8896
 4380SOL    HW224600   4.192   2.397  10.699 -1.0793  0.7640 -0.4938
 4381SOL     OW24601   0.615   4.066   4.246  0.1686  0.3782 -0.0248
 4381SOL    HW124602   0.652   4.154   4.240 -0.3945  0.6507  0.4871
 4381SOL    HW224603   0.683   4.014   4.289 -1.9170 -2.0861  0.2685
 4382SOL     OW24604   4.437   2.128  13.553 -0.0472  0.8546 -0.5017
 4382SOL    HW124605   4.414   2.200  13.613 -0.3494 -0.0482  0.4578
 4382SOL    HW224606   4.530   2.138  13.535  0.4469 -1.6672  0.6789
 4383SOL     OW24607   4.431   1.407  14.093  0.0767 -0.4958 -0.1818
 4383SOL    HW124608   4.413   1.352  14.168 -1.1158  1.1888  0.7674
 4383SOL    HW224609   4.359   1.468  14.108  1.2482  0.3792  1.7661
 4384SOL     OW24610   1.013   2.697   6.189 -0.0294 -0.2209 -0.0393
 4384SOL    HW124611   0.984   2.788   6.190  1.4832  0.2445  1.7113
 4384SOL    HW224612   1.108   2.712   6.184 -0.0902 -0.0023 -0.5465
 4385SOL     OW24613   1.370   2.124  11.286  0.3264  0.0382  0.0555
 4385SOL    HW124614   1.410   2.180  11.220 -0.4862 -0.1047 -0.5591
 4385SOL    HW224615   1.444   2.068  11.309  0.6452  1.2885  2.1165
 4386SOL     OW24616   2.694   4.056   5.569  0.3448 -0.6078  0.1659
 4386SOL    HW124617   2.758   4.046   5.639  0.9335 -0.5850 -0.3689
 4386SOL    HW224618   2.731   4.133   5.524 -0.9398 -0.4633 -0.6597
 4387SOL     OW24619   3.708   1.576   1.646  0.0711  0.1498 -0.5063
 4387SOL    HW124620   3.768   1.624   1.704  1.5855 -1.3923 -0.7881
 4387SOL    HW224621   3.765   1.522   1.591 -1.0283 -1.9975  0.4836
 4388SOL     OW24622   0.661   1.234   3.174 -0.1048  0.1217 -0.2041
 4388SOL    HW124623   0.667   1.285   3.094  2.2357  2.0424  1.2284
 4388SOL    HW224624   0.747   1.192   3.168  1.1582  2.3569  2.2028
 4389SOL     OW24625   3.453   3.405   5.482 -0.5645 -0.6040  0.6392
 4389SOL    HW124626   3.469   3.497   5.464 -0.2127 -1.1355 -1.7911
 4389SOL    HW224627   3.539   3.363   5.481 -0.1100  0.4305 -1.4298
 4390SOL     OW24628   3.201   4.444   2.214  0.0922  1.2122 -0.1055
 4390SOL    HW124629   3.134   4.491   2.263 -1.0019 -0.2821 -0.1357
 4390SOL    HW224630   3.153   4.432   2.132 -1.8156 -0.2916  1.2082
 4391SOL     OW24631   1.247   0.894   8.418  0.0039  0.1890  0.3420
 4391SOL    HW124632   1.165   0.847   8.431  0.2085  0.0562  1.2098
 4391SOL    HW224633   1.298   0.814   8.408 -0.5039 -0.0986  0.1145
 4392SOL     OW24634   0.036   1.983   1.760 -0.5130 -0.2571 -0.2619
 4392SOL    HW124635   0.081   2.020   1.684 -0.0970  0.6179  0.4076
 4392SOL    HW224636   4.715   1.909   1.719  2.4958 -1.6864 -0.8925
 4393SOL     OW24637   3.529   2.585   1.430 -0.5611 -0.0946  0.6088
 4393SOL    HW124638   3.501   2.624   1.347  0.4458  1.8431  1.1832
 4393SOL    HW224639   3.441   2.567   1.463 -1.4239  3.9425  0.5621
 4394SOL     OW24640   2.863   2.018   2.838 -0.1545  0.3790  0.0332
 4394SOL    HW124641   2.936   2.053   2.890  2.1690 -1.3380 -2.0507
 4394SOL    HW224642   2.827   2.100   2.805  0.0364  0.5890  0.3455
 4395SOL     OW24643   1.918   4.419   2.724 -0.5204  0.7143 -0.1080
 4395SOL    HW124644   1.869   4.372   2.791  0.9627 -1.4812 -0.5448
 4395SOL    HW224645   1.899   4.511   2.740  0.8998  0.7054  1.6124
 4396SOL     OW24646   0.635   1.511  16.585  1.1115 -0.0949 -0.0676
 4396SOL    HW124647   0.722   1.474  16.569  1.5484  0.7471  0.3207
 4396SOL    HW224648   0.646   1.539  16.676 -2.4402  1.3062 -0.0773
 4397SOL     OW24649   3.364   4.206   4.813 -0.5865 -0.3363  0.4847
 4397SOL    HW124650   3.351   4.141   4.882 -0.0866 -0.0159  0.8784
 4397SOL    HW224651   3.272   4.230   4.801  0.2419  3.1851  1.1265
 4398SOL     OW24652   3.135   3.512   8.438  0.0532 -0.3542  0.2039
 4398SOL    HW124653   3.120   3.545   8.526 -1.0758 -0.8018  0.1844
 4398SOL    HW224654   3.111   3.420   8.440  0.6676 -0.4649  1.6940
 4399SOL     OW24655   3.580   2.184   3.372  0.2865 -0.7860 -0.2532
 4399SOL    HW124656   3.637   2.124   3.324  4.2185  2.5359  0.1977
 4399SOL    HW224657   3.518   2.206   3.303 -1.8860  1.4286  2.4164
 4400SOL     OW24658   1.229   1.218   7.636 -0.2252 -0.0097 -0.3744
 4400SOL    HW124659   1.208   1.309   7.655 -0.1901  0.2215 -1.4636
 4400SOL    HW224660   1.283   1.231   7.558 -0.0469 -0.8362 -0.3873
 4401SOL     OW24661   2.779   1.030   5.546 -0.2315 -0.9494 -0.1615
 4401SOL    HW124662   2.748   1.110   5.589  0.6669 -0.7807  0.1677
 4401SOL    HW224663   2.823   1.069   5.470 -0.5995 -0.3094 -0.0452
 4402SOL     OW24664   3.549   4.477   3.754  0.1120  0.1451  0.0869
 4402SOL    HW124665   3.535   4.556   3.807  0.3994 -0.2247  0.7181
 4402SOL    HW224666   3.644   4.474   3.760  0.1014  0.7080  0.5664
 4403SOL     OW24667   4.292   0.297  11.560 -0.4694 -0.3308 -0.1099
 4403SOL    HW124668   4.279   0.391  11.552  0.3783 -0.1103  1.1353
 4403SOL    HW224669   4.380   0.282  11.593 -1.3904 -1.5870  1.7615
 4404SOL     OW24670   2.848   2.696  12.629 -0.3174  0.5354 -0.1954
 4404SOL    HW124671   2.876   2.787  12.643 -0.1852  0.4999 -0.2248
 4404SOL    HW224672   2.918   2.647  12.673 -0.7530  1.9174  2.0499
 4405SOL     OW24673   4.722   0.751   8.102  0.3015 -0.3901 -0.3147
 4405SOL    HW124674   0.002   0.845   8.120 -2.1582 -0.5642  1.0095
 4405SOL    HW224675   4.687   0.761   8.014  0.7181 -2.4383 -0.7226
 4406SOL     OW24676   0.224   3.919   3.847  0.3492  0.0765  0.0654
 4406SOL    HW124677   0.200   3.989   3.785 -0.4289  0.0740  0.3555
 4406SOL    HW224678   0.182   3.935   3.931  0.7699  0.2978  0.2301
 4407SOL     OW24679   1.164   2.367   7.801  0.1995 -0.3056  0.5108
 4407SOL    HW124680   1.134   2.283   7.834 -0.5775  0.1395  0.9411
 4407SOL    HW224681   1.130   2.427   7.868  1.2795 -0.7045  1.4124
 4408SOL     OW24682   0.698   0.155   2.990 -0.3940  0.0356  0.3876
 4408SOL    HW124683   0.727   0.074   2.949 -1.7709 -1.6560  2.7338
 4408SOL    HW224684   0.772   0.215   2.978 -0.7800  0.5483  0.5665
 4409SOL     OW24685   2.006   3.039   8.281 -0.2716  0.4200  0.2111
 4409SOL    HW124686   2.006   3.118   8.336 -0.4193 -0.5469  1.6088
 4409SOL    HW224687   1.986   2.965   8.338 -0.5298  1.4611  1.4688
 4410SOL     OW24688   4.506   2.209  14.489  0.1808 -0.6926 -0.4492
 4410SOL    HW124689   4.442   2.160  14.541 -0.7655  0.1634 -0.8101
 4410SOL    HW224690   4.450   2.205  14.411 -1.0191  1.0876  0.3189
 4411SOL     OW24691   3.917   3.183   8.872  0.0136  0.6141 -0.3704
 4411SOL    HW124692   3.937   3.210   8.783 -0.0603 -2.1151 -1.2227
 4411SOL    HW224693   3.826   3.154   8.860 -0.7751  4.1380 -2.6381
 4412SOL     OW24694   4.337   2.846   5.361  0.5343 -0.0691 -0.0465
 4412SOL    HW124695   4.411   2.819   5.306  1.4402 -0.1645  1.2167
 4412SOL    HW224696   4.281   2.780   5.318 -3.4185  2.9491  0.4913
 4413SOL     OW24697   2.688   2.458   3.628  0.5754 -0.3339 -0.0693
 4413SOL    HW124698   2.761   2.408   3.666  0.0393 -0.6347  0.5632
 4413SOL    HW224699   2.732   2.486   3.548 -2.8402  0.0378 -1.8153
 4414SOL     OW24700   4.111   3.581   8.061 -0.6785 -0.0900 -0.0019
 4414SOL    HW124701   4.135   3.519   8.130  2.7312  2.2807  0.9233
 4414SOL    HW224702   4.161   3.658   8.089 -0.4857 -0.6333  1.1072
 4415SOL     OW24703   3.231   4.382   5.520 -0.2182 -0.5475  0.3406
 4415SOL    HW124704   3.191   4.388   5.433 -0.1429 -0.5570  0.3055
 4415SOL    HW224705   3.160   4.429   5.565  0.6035  2.1998 -1.2202
 4416SOL     OW24706   1.442   1.002  13.859 -0.3151  0.0471  0.3378
 4416SOL    HW124707   1.351   1.032  13.863 -0.4714 -0.4950  1.0954
 4416SOL    HW224708   1.430   0.911  13.832 -1.3148  0.4917 -0.7023
 4417SOL     OW24709   1.146   1.724   5.746  0.3394  0.3446  0.1198
 4417SOL    HW124710   1.142   1.711   5.651 -2.3411  2.1553 -0.0292
 4417SOL    HW224711   1.080   1.662   5.777 -0.8304  0.5934 -1.8876
 4418SOL     OW24712   2.093   0.540  17.411 -0.4670 -0.0890  0.2892
 4418SOL    HW124713   2.026   0.499  17.465 -1.4090  1.0451  0.0026
 4418SOL    HW224714   2.066   0.505  17.326  0.4292 -0.5870  0.2126
 4419SOL     OW24715   1.418   1.144   5.218 -0.0986 -0.6541  0.4187
 4419SOL    HW124716   1.472   1.079   5.263 -0.7142 -0.2446  1.7705
 4419SOL    HW224717   1.440   1.225   5.265  2.0884 -1.3391  0.5653
 4420SOL     OW24718   3.153   0.343   4.361 -0.4476  0.5350 -0.1237
 4420SOL    HW124719   3.163   0.281   4.434 -0.9330  0.3214 -0.2377
 4420SOL    HW224720   3.161   0.420   4.417 -0.5727 -2.0743  3.5364
 4421SOL     OW24721   1.265   2.205   9.109 -1.0068 -0.1205  0.1224
 4421SOL    HW124722   1.306   2.249   9.183 -1.6480 -1.5702  1.3214
 4421SOL    HW224723   1.232   2.131   9.159 -1.0505  0.3389  0.7733
 4422SOL     OW24724   3.324   0.629   0.623 -0.0289 -0.5980  0.1763
 4422SOL    HW124725   3.325   0.652   0.530  0.2892  0.5048  0.4502
 4422SOL    HW224726   3.378   0.701   0.656  1.1083 -0.6589 -1.5775
 4423SOL     OW24727   2.058   2.284  10.784  0.2107 -0.5251 -0.2803
 4423SOL    HW124728   2.081   2.296  10.692 -0.4099 -0.6258 -0.4491
 4423SOL    HW224729   1.965   2.262  10.778  0.3336 -1.1224  0.0174
 4424SOL     OW24730   0.728   1.800   6.595  0.2624 -0.1332 -0.3995
 4424SOL    HW124731   0.683   1.752   6.664  0.7108 -0.7435 -0.5245
 4424SOL    HW224732   0.660   1.860   6.564  0.6508  1.1637  1.3143
 4425SOL     OW24733   2.526   4.572   1.470  0.3167 -0.9977 -0.1869
 4425SOL    HW124734   2.619   4.554   1.482  1.0869  1.9541 -1.7514
 4425SOL    HW224735   2.524   4.653   1.520  1.3779 -1.9434  1.4047
 4426SOL     OW24736   2.880   4.291  11.708 -0.5599 -0.4601 -0.6044
 4426SOL    HW124737   2.967   4.298  11.748 -1.7874  1.3456  1.7860
 4426SOL    HW224738   2.909   4.316  11.620 -1.7055 -1.0025 -1.1308
 4427SOL     OW24739   2.718   3.246   1.773  0.0816  0.3778 -0.0228
 4427SOL    HW124740   2.662   3.190   1.720 -1.1646 -0.7406  2.4556
 4427SOL    HW224741   2.790   3.188   1.796  1.8446  2.8582  0.8166
 4428SOL     OW24742   4.686   3.121   8.241  0.4755 -0.4010 -0.1089
 4428SOL    HW124743   0.045   3.074   8.251  0.4305 -0.7078 -1.1912
 4428SOL    HW224744   4.665   3.136   8.333  0.3792 -1.4062  0.0309
 4429SOL     OW24745   0.118   2.485   1.980  0.4433 -0.4288 -0.1872
 4429SOL    HW124746   0.103   2.543   2.054 -0.3892 -1.4722  0.4545
 4429SOL    HW224747   0.147   2.406   2.026 -0.6944 -0.8985 -0.2789
 4430SOL     OW24748   2.183   4.489   7.186 -0.0784 -0.3530 -0.7381
 4430SOL    HW124749   2.184   4.433   7.108  2.4671  0.1359 -1.0629
 4430SOL    HW224750   2.099   4.466   7.225  0.8026  1.2731  2.0612
 4431SOL     OW24751   2.790   3.290  15.803  0.7772  0.0496  0.3204
 4431SOL    HW124752   2.819   3.282  15.712 -3.8262 -0.0042 -1.1249
 4431SOL    HW224753   2.720   3.355  15.796  0.1252 -0.8654 -1.6063
 4432SOL     OW24754   1.637   4.014   7.036 -0.2080 -0.4530  0.8446
 4432SOL    HW124755   1.720   3.992   6.995 -1.3099 -2.2544 -0.4102
 4432SOL    HW224756   1.638   3.946   7.104 -0.5651 -1.7653 -0.4721
 4433SOL     OW24757   1.345   1.462   9.688  0.1552 -0.3809  0.2489
 4433SOL    HW124758   1.438   1.469   9.708 -0.1406 -0.7878  1.7302
 4433SOL    HW224759   1.304   1.444   9.772 -0.2593  0.6963  0.2819
 4434SOL     OW24760   1.252   2.709   4.964 -0.2588 -0.1385 -0.1743
 4434SOL    HW124761   1.217   2.788   4.923 -0.8702  0.1627  0.9290
 4434SOL    HW224762   1.314   2.672   4.901 -0.0962  0.2660 -0.2511
 4435SOL     OW24763   4.485   1.075   4.731  0.4097 -0.7061  0.3847
 4435SOL    HW124764   4.494   1.005   4.666 -1.7182  1.2349 -1.9775
 4435SOL    HW224765   4.431   1.137   4.682  0.0729 -0.2686  1.3117
 4436SOL     OW24766   0.063   3.246   3.810  0.1771 -0.1861  0.7073
 4436SOL    HW124767   0.113   3.273   3.888 -1.0965  1.3385  1.0021
 4436SOL    HW224768   4.709   3.213   3.856 -1.3233  0.2043 -1.5380
 4437SOL     OW24769   3.584   1.435  13.520 -0.5152 -0.2414  0.2520
 4437SOL    HW124770   3.667   1.481  13.505 -0.5308 -0.5383 -0.7086
 4437SOL    HW224771   3.534   1.464  13.444  1.9010  0.4445 -1.0931
 4438SOL     OW24772   1.100   0.530   2.372 -0.0361  0.7071  0.3665
 4438SOL    HW124773   1.148   0.477   2.309  0.0032 -2.0188  2.7294
 4438SOL    HW224774   1.068   0.466   2.435 -0.2838  1.4588  1.0069
 4439SOL     OW24775   4.090   0.976   7.642  0.5536 -0.0054  0.2229
 4439SOL    HW124776   4.043   1.039   7.587 -0.8555 -1.3443 -0.0922
 4439SOL    HW224777   4.130   0.919   7.575 -0.4020 -2.5595  1.8105
 4440SOL     OW24778   3.329   3.124  16.503 -0.1544  0.0173 -0.2797
 4440SOL    HW124779   3.334   3.212  16.540  1.8373  0.0209 -0.5606
 4440SOL    HW224780   3.234   3.110  16.499 -0.5613  2.4297  1.1067
 4441SOL     OW24781   2.934   1.059   8.951 -0.0311  0.2182  0.2568
 4441SOL    HW124782   2.939   1.063   8.856  0.7520 -0.0484  0.2899
 4441SOL    HW224783   2.981   1.132   8.991  0.3003 -1.0598  2.2276
 4442SOL     OW24784   0.234   4.169   4.063 -0.5882 -0.4703  0.1027
 4442SOL    HW124785   0.304   4.211   4.012 -0.9948  0.0448 -0.0343
 4442SOL    HW224786   0.286   4.105   4.112 -0.6350  0.0600  0.8444
 4443SOL     OW24787   1.002   1.127   7.691 -0.3308  0.4033  0.5062
 4443SOL    HW124788   1.074   1.179   7.656  0.2356  0.4254  1.7087
 4443SOL    HW224789   1.007   1.161   7.780  1.1387  0.5166  0.3796
 4444SOL     OW24790   1.651   0.800   2.205 -0.0448  0.0243 -0.4148
 4444SOL    HW124791   1.726   0.796   2.145  0.1925  2.6744 -0.3333
 4444SOL    HW224792   1.690   0.792   2.292 -1.7954 -0.0053  0.3487
 4445SOL     OW24793   1.218   0.251  15.391  0.0256 -0.1785  0.6736
 4445SOL    HW124794   1.220   0.304  15.311 -0.6286 -0.3428  0.5511
 4445SOL    HW224795   1.157   0.184  15.361  0.1019 -1.2639  2.9896
 4446SOL     OW24796   4.469   2.346   6.719 -0.1450 -0.2700 -0.1848
 4446SOL    HW124797   4.423   2.292   6.655  0.7995 -0.9632 -0.2777
 4446SOL    HW224798   4.459   2.426   6.667 -0.1244  0.8561  1.5249
 4447SOL     OW24799   3.880   1.101   4.635 -0.3094  0.0568 -0.4918
 4447SOL    HW124800   3.919   1.188   4.647  0.5595 -0.6223  1.6878
 4447SOL    HW224801   3.859   1.093   4.542 -1.0999 -1.9164 -0.1298
 4448SOL     OW24802   4.447   1.195   4.314 -0.7106  0.7643  0.3218
 4448SOL    HW124803   4.474   1.277   4.354  0.9725  0.5467 -0.3616
 4448SOL    HW224804   4.379   1.167   4.376 -0.5264  2.9286  1.4828
 4449SOL     OW24805   0.415   4.651   6.613 -0.4667  0.1580  0.1064
 4449SOL    HW124806   0.394   4.720   6.676  2.8218  0.0125  1.3207
 4449SOL    HW224807   0.390   4.573   6.662 -0.6804 -0.0925 -0.3940
 4450SOL     OW24808   3.804   4.277   7.373 -0.4443  0.1277 -0.5625
 4450SOL    HW124809   3.714   4.245   7.360  0.6233 -2.1828 -2.3204
 4450SOL    HW224810   3.850   4.248   7.294  0.3114 -0.2004 -0.0015
 4451SOL     OW24811   2.673   0.402  15.723 -0.0778 -0.3806 -0.6028
 4451SOL    HW124812   2.618   0.429  15.650 -0.4254  0.4459 -0.0384
 4451SOL    HW224813   2.762   0.435  15.710 -0.1020  0.3813  1.1559
 4452SOL     OW24814   0.915   1.660  10.759  0.2190  0.6422  0.1125
 4452SOL    HW124815   0.975   1.722  10.800  2.9819 -0.9643 -1.5382
 4452SOL    HW224816   0.887   1.710  10.682 -1.8616  1.6863  1.5413
 4453SOL     OW24817   3.296   0.393   5.618  0.6255 -0.2239 -0.1090
 4453SOL    HW124818   3.323   0.416   5.707  0.3790  0.0282 -0.0983
 4453SOL    HW224819   3.218   0.444   5.596 -0.6118 -1.9358  0.2935
 4454SOL     OW24820   0.166   2.598  13.859 -0.0926 -0.5957 -0.0451
 4454SOL    HW124821   0.257   2.573  13.876  0.4354  1.1425 -0.3004
 4454SOL    HW224822   0.148   2.661  13.928 -1.5874 -2.6895  1.4620
 4455SOL     OW24823   3.450   4.612   1.987 -0.5251 -0.1796  0.2573
 4455SOL    HW124824   3.383   4.588   1.923 -0.8605  1.0458  0.1572
 4455SOL    HW224825   3.413   4.692   2.025  3.4084  2.6621 -1.8542
 4456SOL     OW24826   0.059   3.856   2.917 -0.0165  0.0533 -0.0393
 4456SOL    HW124827   0.153   3.844   2.930  0.1236 -0.1882 -1.2596
 4456SOL    HW224828   0.058   3.952   2.919 -0.3929  0.0792 -1.0207
 4457SOL     OW24829   1.933   3.102   3.348  0.1280  0.4616  0.9070
 4457SOL    HW124830   1.859   3.163   3.337 -1.3978 -1.9170 -2.2245
 4457SOL    HW224831   1.996   3.149   3.401 -0.6268 -0.5244  2.6598
 4458SOL     OW24832   1.446   4.601   3.265 -0.1690  0.3571 -0.9200
 4458SOL    HW124833   1.438   4.632   3.355 -2.1378 -0.7962 -0.7008
 4458SOL    HW224834   1.352   4.587   3.248 -0.3127  0.6125 -0.3081
 4459SOL     OW24835   0.620   3.013   0.684 -0.0284 -0.0011 -0.5311
 4459SOL    HW124836   0.620   3.082   0.750  0.4798 -2.6597  2.2826
 4459SOL    HW224837   0.636   2.941   0.745  0.4900  0.7596  0.2164
 4460SOL     OW24838   3.151   1.683   2.902  0.8128  0.6751 -0.1606
 4460SOL    HW124839   3.128   1.651   2.815 -0.5831 -3.1988  1.6625
 4460SOL    HW224840   3.175   1.775   2.889  0.0911  1.2629  2.5770
 4461SOL     OW24841   0.396   1.686  15.122  0.4099 -0.2833 -0.0148
 4461SOL    HW124842   0.460   1.616  15.108 -0.7702 -1.5128  0.7117
 4461SOL    HW224843   0.432   1.733  15.198 -1.7625  1.9078 -0.3221
 4462SOL     OW24844   4.265   4.189  17.357 -0.0909  0.0264 -0.0709
 4462SOL    HW124845   4.275   4.143  17.440  0.5202 -1.6123 -1.0624
 4462SOL    HW224846   4.214   4.265  17.387 -0.1944 -0.4758  1.0089
 4463SOL     OW24847   4.408   2.108  14.988  0.1516 -0.6045  0.3215
 4463SOL    HW124848   4.424   2.038  15.051  2.8451 -0.6673 -0.4666
 4463SOL    HW224849   4.429   2.176  15.052  1.5479 -2.7069  2.0858
 4464SOL     OW24850   1.606   2.120   6.483  0.2742 -0.3272 -0.1234
 4464SOL    HW124851   1.553   2.175   6.541 -1.0619 -1.0110 -0.7137
 4464SOL    HW224852   1.696   2.146   6.504 -0.3431  0.8355  1.1275
 4465SOL     OW24853   0.094   1.737   0.902  0.3908 -0.4565  0.8328
 4465SOL    HW124854   0.116   1.778   0.818  1.1767 -0.0319  1.2469
 4465SOL    HW224855   0.024   1.675   0.880  0.3820  0.4860 -1.7841
 4466SOL     OW24856   4.307   0.121   7.058  0.3187 -0.1791  0.1193
 4466SOL    HW124857   4.401   0.105   7.049  0.4203  0.5100 -0.0444
 4466SOL    HW224858   4.289   0.094   7.148  1.3647 -0.2283  0.3119
 4467SOL     OW24859   3.595   3.819   9.043 -0.1505 -0.0074 -0.4809
 4467SOL    HW124860   3.542   3.879   9.095  0.9374  0.5694 -0.0431
 4467SOL    HW224861   3.585   3.856   8.956  0.4814  1.0369 -0.1032
 4468SOL     OW24862   4.448   2.846   1.192  0.0267  0.1165 -0.0672
 4468SOL    HW124863   4.374   2.894   1.157 -0.1935  1.0609  1.6540
 4468SOL    HW224864   4.416   2.757   1.178  2.3156 -0.4466 -1.7072
 4469SOL     OW24865   4.452   1.270   0.905 -0.1243  0.5190 -0.5046
 4469SOL    HW124866   4.443   1.312   0.990  3.1774  2.2375 -0.9979
 4469SOL    HW224867   4.500   1.193   0.935  0.6130  1.3165  0.3766
 4470SOL     OW24868   1.659   0.670  10.169 -0.3106 -0.0247 -0.5333
 4470SOL    HW124869   1.625   0.580  10.163 -0.5996 -0.0172  1.1406
 4470SOL    HW224870   1.729   0.665  10.233 -1.0538  2.2018  0.4311
 4471SOL     OW24871   2.342   2.296   2.897  0.5905 -0.2861 -0.0328
 4471SOL    HW124872   2.288   2.317   2.821  0.1828 -0.3045  0.2505
 4471SOL    HW224873   2.332   2.377   2.946  0.8742 -0.1569 -0.1898
 4472SOL     OW24874   0.019   0.207   5.257  0.1705  0.4434 -0.6813
 4472SOL    HW124875   4.662   0.259   5.251 -1.3706 -1.8669 -0.1307
 4472SOL    HW224876   0.054   0.250   5.335 -0.9360  1.6843 -0.8677
 4473SOL     OW24877   3.255   2.853   8.624  0.0920  0.2420  0.7276
 4473SOL    HW124878   3.165   2.865   8.594  0.2619  0.5480  0.3458
 4473SOL    HW224879   3.262   2.921   8.691 -0.1433 -0.5542  1.5530
 4474SOL     OW24880   1.343   4.159  12.019 -0.1775 -0.1318  0.1520
 4474SOL    HW124881   1.323   4.120  11.934 -1.6649  1.7581 -0.3836
 4474SOL    HW224882   1.344   4.085  12.079 -2.5326  0.1322  0.5345
 4475SOL     OW24883   1.650   4.007   1.487 -0.1112  0.0129 -0.1325
 4475SOL    HW124884   1.569   3.987   1.440  0.0276  1.4716 -0.9780
 4475SOL    HW224885   1.701   4.062   1.428 -2.9945  1.0036 -1.7085
 4476SOL     OW24886   1.357   4.065   3.508 -0.5030  0.0807 -0.0825
 4476SOL    HW124887   1.289   4.119   3.548  1.7832  1.3845  2.0260
 4476SOL    HW224888   1.304   3.999   3.462 -2.3603  0.3036  1.7374
 4477SOL     OW24889   3.404   3.700   3.187  0.6401  0.6506  0.4809
 4477SOL    HW124890   3.414   3.791   3.158 -2.3183  0.8779  0.2113
 4477SOL    HW224891   3.495   3.674   3.171  0.6014  0.5927  0.3545
 4478SOL     OW24892   1.687   1.777   9.502 -0.2840  0.1467  0.0699
 4478SOL    HW124893   1.705   1.689   9.536 -0.4919 -0.4308 -1.3078
 4478SOL    HW224894   1.594   1.785   9.522  0.0786  3.1386  0.5270
 4479SOL     OW24895   0.666   0.898   4.651 -0.0394  0.1202  0.5965
 4479SOL    HW124896   0.687   0.940   4.734  0.8931 -1.5279  1.1920
 4479SOL    HW224897   0.752   0.896   4.609  1.2896  0.1025  3.3153
 4480SOL     OW24898   1.602   2.677  13.010  0.7379  0.0442  0.1692
 4480SOL    HW124899   1.655   2.734  12.955  0.3211 -0.8504 -1.1400
 4480SOL    HW224900   1.674   2.623  13.044 -1.2934 -3.2883 -0.8434
 4481SOL     OW24901   1.256   3.515   4.548  0.4290 -0.4283  0.1156
 4481SOL    HW124902   1.343   3.487   4.578  0.2625  0.6314  1.5351
 4481SOL    HW224903   1.208   3.474   4.620 -1.7265 -2.2008 -2.2935
 4482SOL     OW24904   0.785   2.911   5.929 -0.4185  0.4541  0.7207
 4482SOL    HW124905   0.797   2.816   5.920  1.2848  0.6770  0.5871
 4482SOL    HW224906   0.856   2.923   5.992 -0.0807 -1.2526  0.6771
 4483SOL     OW24907   4.568   2.400  11.998  0.2861  0.5130 -0.2161
 4483SOL    HW124908   4.605   2.429  11.914  0.6319  0.8463  0.0483
 4483SOL    HW224909   4.491   2.456  12.007  0.8578  1.1040  0.9426
 4484SOL     OW24910   4.477   1.063   5.104  0.6726 -0.5678  0.4650
 4484SOL    HW124911   4.382   1.058   5.113  0.6337 -0.7328 -0.0222
 4484SOL    HW224912   4.493   1.153   5.133 -0.3150 -0.4773  0.7251
 4485SOL     OW24913   0.088   4.169   5.255 -0.9615 -0.0372  0.1116
 4485SOL    HW124914   0.115   4.079   5.276 -2.7956  0.3401  3.9807
 4485SOL    HW224915   0.073   4.195   5.346  0.3529 -1.4627  0.7290
 4486SOL     OW24916   4.506   0.476   7.535 -0.2542  0.2203  0.2125
 4486SOL    HW124917   4.420   0.499   7.570 -0.0340  0.6376  0.4821
 4486SOL    HW224918   4.556   0.522   7.602  0.7104  1.4322 -1.3284
 4487SOL     OW24919   4.153   4.188  17.103  0.1568 -0.2228 -0.0479
 4487SOL    HW124920   4.225   4.172  17.042  0.3236  1.3435 -0.2622
 4487SOL    HW224921   4.194   4.215  17.185  1.2711  0.9262 -0.9689
 4488SOL     OW24922   4.558   4.316   4.836 -0.3632  0.5109  0.0858
 4488SOL    HW124923   4.521   4.345   4.920 -1.6531  0.4389 -0.4578
 4488SOL    HW224924   4.591   4.398   4.799  1.3119 -0.5342 -0.6972
 4489SOL     OW24925   0.202   4.190  11.552 -0.3500 -0.0207 -0.3468
 4489SOL    HW124926   0.290   4.226  11.563  0.4169 -2.6751  2.0680
 4489SOL    HW224927   0.218   4.168  11.460 -1.7919  0.4485 -0.7117
 4490SOL     OW24928   2.368   0.222   5.559 -0.4466 -0.3083  0.1149
 4490SOL    HW124929   2.387   0.187   5.473  0.2350  1.0043 -0.2809
 4490SOL    HW224930   2.424   0.299   5.572 -0.7955 -0.2170  1.1259
 4491SOL     OW24931   2.368   0.520   4.658 -0.2339 -0.6799  0.1217
 4491SOL    HW124932   2.385   0.614   4.671 -0.4205 -0.5243 -0.7552
 4491SOL    HW224933   2.386   0.482   4.744 -0.3948  0.8901  0.8477
 4492SOL     OW24934   0.443   2.908  14.558  0.1516 -0.1296  0.7680
 4492SOL    HW124935   0.395   2.936  14.481 -2.9976 -0.1457  2.7271
 4492SOL    HW224936   0.393   2.946  14.630  0.4864  0.3291  0.7549
 4493SOL     OW24937   0.448   4.297   3.879  0.4772  0.2443  0.0884
 4493SOL    HW124938   0.535   4.264   3.903  0.7622  0.2962 -0.8604
 4493SOL    HW224939   0.441   4.270   3.787  0.3161 -0.5553  0.3331
 4494SOL     OW24940   3.066   2.511  13.472 -0.2001  0.1504 -0.0950
 4494SOL    HW124941   3.099   2.491  13.385  0.8675 -1.5575  0.6861
 4494SOL    HW224942   3.129   2.564  13.521 -1.5646  1.4961  0.1885
 4495SOL     OW24943   3.053   0.208   2.179  0.1280 -0.2075 -0.7239
 4495SOL    HW124944   3.127   0.186   2.122  0.6324 -1.4348  0.3971
 4495SOL    HW224945   2.978   0.192   2.121  0.8234 -0.1906 -1.6386
 4496SOL     OW24946   3.002   0.757   4.574  0.4505 -0.1503 -0.1363
 4496SOL    HW124947   3.003   0.720   4.485 -1.1526 -3.0549  1.0599
 4496SOL    HW224948   3.056   0.707   4.635 -0.0146 -2.1632 -1.3862
 4497SOL     OW24949   0.833   1.619   2.867  0.4651  0.1157  0.0289
 4497SOL    HW124950   0.742   1.600   2.844  0.1909 -0.3000  1.4742
 4497SOL    HW224951   0.865   1.529   2.872  0.7036  0.2091  0.1543
 4498SOL     OW24952   0.333   1.128  14.735 -0.2325 -0.0154  0.2399
 4498SOL    HW124953   0.346   1.033  14.732 -1.6069 -0.2078  0.2740
 4498SOL    HW224954   0.404   1.151  14.796  0.6007  0.5382 -0.9440
 4499SOL     OW24955   1.013   3.212   9.247 -0.4771  0.3419 -0.3363
 4499SOL    HW124956   1.080   3.280   9.240 -0.7202  0.3209 -2.7868
 4499SOL    HW224957   1.037   3.173   9.331 -2.1863  0.4163  0.1860
 4500SOL     OW24958   3.072   1.574   6.198 -0.1079  0.7139 -0.1296
 4500SOL    HW124959   3.097   1.663   6.222  0.4837  1.4178 -3.3860
 4500SOL    HW224960   3.106   1.528   6.275 -1.4584 -0.3675 -0.1898
 4501SOL     OW24961   1.970   2.294  12.096  1.3387  0.3764 -0.2854
 4501SOL    HW124962   1.896   2.349  12.072  1.6155  0.9479  0.1848
 4501SOL    HW224963   1.966   2.300  12.191  1.5890 -1.3935 -0.1614
 4502SOL     OW24964   4.249   4.167   6.918  0.1503 -0.6359 -0.2415
 4502SOL    HW124965   4.333   4.207   6.895 -0.1367  0.6558  0.9643
 4502SOL    HW224966   4.185   4.212   6.862  0.9060  0.3800 -0.2882
 4503SOL     OW24967   3.944   3.653   3.322  0.8739 -0.3002 -0.5488
 4503SOL    HW124968   3.966   3.737   3.361  0.5037 -1.6709  2.5932
 4503SOL    HW224969   3.872   3.619   3.375 -0.4312 -0.2505 -2.2616
 4504SOL     OW24970   2.702   3.503   5.417 -0.0826  0.8550 -0.4287
 4504SOL    HW124971   2.709   3.461   5.331  0.4781  0.0508  0.0018
 4504SOL    HW224972   2.608   3.487   5.425  0.0010  0.8074  0.4721
 4505SOL     OW24973   2.334   4.023   4.528 -0.4265  0.0535  0.0773
 4505SOL    HW124974   2.319   3.941   4.480 -0.3507 -0.8236  1.5489
 4505SOL    HW224975   2.359   3.994   4.615  3.9852 -0.0284 -1.2299
 4506SOL     OW24976   2.183   4.266   8.867  0.4709  0.0531 -0.2576
 4506SOL    HW124977   2.260   4.305   8.908  2.5556 -1.7041 -2.4487
 4506SOL    HW224978   2.193   4.305   8.780 -1.3414  0.0526 -0.4477
 4507SOL     OW24979   0.375   1.407  11.279 -0.2884 -0.1248  0.1004
 4507SOL    HW124980   0.387   1.486  11.225  2.7476 -0.6926 -0.0480
 4507SOL    HW224981   0.423   1.430  11.359 -1.0252 -1.0353  0.8070
 4508SOL     OW24982   4.676   1.040   7.304  0.1405 -0.3180 -0.0117
 4508SOL    HW124983   4.605   0.986   7.340  0.2710  0.5768  1.6189
 4508SOL    HW224984   4.705   0.972   7.243  1.8286  0.4527 -0.0471
 4509SOL     OW24985   0.912   3.520  13.477  0.6028  0.0239 -0.4275
 4509SOL    HW124986   0.860   3.477  13.409 -0.2974 -0.8169  0.7857
 4509SOL    HW224987   0.986   3.460  13.490 -0.3045 -1.3115 -1.3903
 4510SOL     OW24988   2.110   2.538  12.315  0.0178 -0.4757 -0.0682
 4510SOL    HW124989   2.154   2.519  12.232  1.4064  0.9515  0.3322
 4510SOL    HW224990   2.142   2.627  12.333 -0.0417 -0.7476  1.3386
 4511SOL     OW24991   0.301   0.031   4.601 -0.0550  0.0042  0.3445
 4511SOL    HW124992   0.251   0.104   4.637 -0.6054  0.1348 -0.6762
 4511SOL    HW224993   0.235   4.711   4.548  0.2378  0.1182 -0.1127
 4512SOL     OW24994   2.432   4.539   2.690  0.2527  0.3861  0.1070
 4512SOL    HW124995   2.364   4.473   2.708  0.8142 -0.7405 -1.8793
 4512SOL    HW224996   2.511   4.491   2.667  0.5514  0.6510  0.5832
 4513SOL     OW24997   2.944   2.301   7.581  0.1862  0.5532 -0.6564
 4513SOL    HW124998   2.893   2.277   7.504 -0.5991  0.4550 -0.1029
 4513SOL    HW224999   2.931   2.217   7.624  1.3207  0.0135 -1.3798
 4514SOL     OW25000   3.171   4.402   7.262  0.2563 -0.5003 -0.3936
 4514SOL    HW125001   3.165   4.353   7.180  0.0143  2.0914 -1.9320
 4514SOL    HW225002   3.244   4.463   7.248  0.6966 -0.2900  2.7713
 4515SOL     OW25003   1.272   1.054   2.445  0.3627  0.4312  0.3546
 4515SOL    HW125004   1.303   1.053   2.355  1.1929  0.3056  0.6384
 4515SOL    HW225005   1.262   0.961   2.464 -0.7833  0.0868 -1.9471
 4516SOL     OW25006   1.583   1.993  14.909  0.4136  0.2354 -0.4043
 4516SOL    HW125007   1.605   2.082  14.881 -1.3079  0.2732 -1.5710
 4516SOL    HW225008   1.671   1.958  14.922  0.6595  0.8194 -0.4754
 4517SOL     OW25009   2.428   2.598   7.209  0.1030  0.3446  0.1164
 4517SOL    HW125010   2.506   2.552   7.239  0.4018  0.7080 -0.1021
 4517SOL    HW225011   2.361   2.553   7.260 -1.5797  3.5554  0.7662
 4518SOL     OW25012   3.646   1.468   0.788 -0.0473 -0.5606 -0.0211
 4518SOL    HW125013   3.584   1.541   0.787  1.7953  0.9910 -0.4372
 4518SOL    HW225014   3.631   1.431   0.701  1.6199  0.0373 -0.5659
 4519SOL     OW25015   2.084   0.597   7.516 -0.1460 -0.3232  0.3373
 4519SOL    HW125016   2.108   0.665   7.579  1.8883  0.6583 -1.4587
 4519SOL    HW225017   2.114   0.518   7.561  0.1065  0.0885  0.8864
 4520SOL     OW25018   2.148   3.844  14.441 -0.0610  0.8702 -0.3864
 4520SOL    HW125019   2.219   3.908  14.438  1.1763 -0.5680 -2.1359
 4520SOL    HW225020   2.155   3.803  14.354  1.2893  0.8606 -0.2652
 4521SOL     OW25021   1.987   2.267   3.628  0.1287 -0.1106 -0.0172
 4521SOL    HW125022   2.017   2.284   3.539 -1.6580  0.0134 -0.5951
 4521SOL    HW225023   1.934   2.343   3.652  0.8810  0.3350  0.2348
 4522SOL     OW25024   4.340   3.503   2.029  0.4195 -0.0263  0.2325
 4522SOL    HW125025   4.410   3.461   1.979 -0.7064 -3.1444  1.2883
 4522SOL    HW225026   4.328   3.439   2.099 -0.7291 -0.1796 -0.1078
 4523SOL     OW25027   4.397   1.292  16.356 -0.2057 -0.1886 -0.4142
 4523SOL    HW125028   4.301   1.286  16.364 -0.0616 -1.4284  0.3132
 4523SOL    HW225029   4.437   1.230  16.416 -1.6895 -0.1811  0.5711
 4524SOL     OW25030   1.060   4.111   3.938  0.1762  0.1817  0.1912
 4524SOL    HW125031   1.150   4.141   3.938  0.7141 -1.4501 -0.5045
 4524SOL    HW225032   1.025   4.178   3.879  0.4416 -0.5690 -0.8030
 4525SOL     OW25033   0.447   4.209   7.552  0.3523 -0.3996 -0.1272
 4525SOL    HW125034   0.395   4.286   7.529  0.1282 -1.2386 -2.4497
 4525SOL    HW225035   0.389   4.143   7.589  1.2979 -1.5529 -0.7016
 4526SOL     OW25036   1.103   0.770   9.724  0.0435  0.0639  0.1467
 4526SOL    HW125037   1.153   0.738   9.649  0.0090 -0.3448  0.2981
 4526SOL    HW225038   1.016   0.782   9.685  0.7176  4.5355  0.0766
 4527SOL     OW25039   3.875   2.280   5.910  0.0010 -0.0481 -0.1352
 4527SOL    HW125040   3.872   2.374   5.928 -1.0633 -0.0312 -0.3588
 4527SOL    HW225041   3.875   2.248   6.000  0.0167 -0.1815 -0.1826
 4528SOL     OW25042   2.111   4.091   9.079 -0.2653 -0.1622  0.0384
 4528SOL    HW125043   2.068   4.031   9.018 -0.3143  0.9112 -0.9747
 4528SOL    HW225044   2.130   4.164   9.021  1.3209 -1.1031 -0.6324
 4529SOL     OW25045   4.169   2.630  10.466  0.3463  0.4126  0.1826
 4529SOL    HW125046   4.167   2.582  10.550  0.5253  1.4357  0.7708
 4529SOL    HW225047   4.202   2.568  10.401  2.1020  1.0173  0.4844
 4530SOL     OW25048   0.740   0.054   0.046 -0.2125  0.0783  0.2544
 4530SOL    HW125049   0.805   0.117   0.014  0.1726  0.2116  1.3121
 4530SOL    HW225050   0.780   4.692   0.031 -1.1581 -0.3136 -0.0773
 4531SOL     OW25051   4.472   1.367  15.515  0.2457  0.0344 -0.5583
 4531SOL    HW125052   4.523   1.292  15.547  0.4179 -0.7802 -2.7702
 4531SOL    HW225053   4.529   1.402  15.447 -1.0215  0.5316 -1.3749
 4532SOL     OW25054   0.617   3.172   6.262 -0.1949  0.1372  0.6108
 4532SOL    HW125055   0.571   3.111   6.203 -1.8009  0.2465  1.7445
 4532SOL    HW225056   0.691   3.118   6.286 -0.4490 -1.6495 -2.6109
 4533SOL     OW25057   3.852   1.232   2.441  0.0936 -0.3341 -0.7578
 4533SOL    HW125058   3.932   1.209   2.394  0.2292  2.7951 -2.0577
 4533SOL    HW225059   3.791   1.172   2.400 -0.0992  0.2029 -1.2604
 4534SOL     OW25060   1.914   1.581   2.205  0.1190  0.1178  0.0772
 4534SOL    HW125061   1.843   1.559   2.146  1.0025 -1.0425 -0.5482
 4534SOL    HW225062   1.935   1.671   2.180 -1.4908  0.0156 -1.5681
 4535SOL     OW25063   3.229   2.270  14.341  0.4426 -0.0114  0.0055
 4535SOL    HW125064   3.247   2.321  14.419  1.3539 -1.1675  0.5463
 4535SOL    HW225065   3.200   2.340  14.282  0.2678 -0.1087 -0.0258
 4536SOL     OW25066   2.193   2.567  11.678  0.3576 -0.1970 -0.0603
 4536SOL    HW125067   2.132   2.493  11.673  1.3671 -1.0321  0.1645
 4536SOL    HW225068   2.154   2.614  11.604  0.4854  0.4750  0.3060
 4537SOL     OW25069   4.261   2.233  11.889  0.0324 -0.0034  0.0424
 4537SOL    HW125070   4.197   2.169  11.920 -1.7799  0.8505 -1.9420
 4537SOL    HW225071   4.346   2.201  11.917  0.2644  0.8735  0.3376
 4538SOL     OW25072   2.686   2.892  17.295 -0.1449  0.1692 -0.4456
 4538SOL    HW125073   2.771   2.915  17.259 -1.8820  1.5707 -3.7022
 4538SOL    HW225074   2.704   2.807  17.336  2.2265  0.5555 -0.7212
 4539SOL     OW25075   1.214   1.122   1.022 -0.1100 -0.0613  1.1494
 4539SOL    HW125076   1.206   1.142   1.116 -0.3804  0.6130  0.9820
 4539SOL    HW225077   1.156   1.194   0.996  0.2955 -0.4146 -0.6775
 4540SOL     OW25078   2.334   0.630  14.670 -0.3795 -0.0048 -0.3134
 4540SOL    HW125079   2.399   0.640  14.601 -0.8066 -0.8534 -0.8392
 4540SOL    HW225080   2.359   0.556  14.725  0.8404  0.3970 -0.3266
 4541SOL     OW25081   4.052   3.385   6.835  0.3202 -0.0333 -0.0580
 4541SOL    HW125082   4.136   3.414   6.800 -0.6605 -1.2764 -3.4672
 4541SOL    HW225083   4.077   3.308   6.886 -0.1078 -1.6509 -2.2776
 4542SOL     OW25084   0.066   3.612   7.523 -0.3812  0.1995  1.0486
 4542SOL    HW125085   0.160   3.608   7.504 -0.3502 -0.2997  1.3173
 4542SOL    HW225086   0.073   3.672   7.597  1.1122 -0.1765  1.2074
 4543SOL     OW25087   2.025   0.190   9.531 -0.2787 -0.4351 -0.3081
 4543SOL    HW125088   2.108   0.156   9.497  0.6364  2.3090 -0.8655
 4543SOL    HW225089   1.988   0.235   9.455 -1.0856 -2.7936 -1.2912
 4544SOL     OW25090   0.358   2.717   3.028  0.1800 -0.0125  0.2494
 4544SOL    HW125091   0.339   2.783   3.095  0.2851 -0.2970  0.5609
 4544SOL    HW225092   0.305   2.750   2.956 -0.0940 -3.0450 -0.9633
 4545SOL     OW25093   1.701   4.249   1.003  0.8416  0.0409 -0.0852
 4545SOL    HW125094   1.727   4.302   0.928 -0.8040 -0.5926 -1.1044
 4545SOL    HW225095   1.775   4.197   1.034 -1.0228 -1.8656  1.1598
 4546SOL     OW25096   1.667   2.828   1.555 -0.0419  0.8687 -0.2005
 4546SOL    HW125097   1.686   2.911   1.510  0.2227  1.8839  1.7622
 4546SOL    HW225098   1.738   2.818   1.618 -1.8338  0.4075  1.7426
 4547SOL     OW25099   2.391   4.156   6.302 -0.0431 -1.1272  0.2710
 4547SOL    HW125100   2.486   4.143   6.292 -0.2259 -3.3704  1.3653
 4547SOL    HW225101   2.379   4.202   6.384  0.7836 -1.7551  0.7498
 4548SOL     OW25102   4.214   0.623   3.589 -0.3475  0.6626  0.1072
 4548SOL    HW125103   4.136   0.653   3.542 -0.7806 -1.8594 -0.7913
 4548SOL    HW225104   4.212   0.528   3.591  3.6898  0.6028  1.5384
 4549SOL     OW25105   0.997   3.942   4.442  0.1648 -0.2316 -0.7103
 4549SOL    HW125106   1.029   3.968   4.528  0.2603 -0.9577 -0.5230
 4549SOL    HW225107   1.062   3.971   4.378 -1.6927 -0.2490 -2.6248
 4550SOL     OW25108   3.048   4.037   5.394  0.2211 -0.2314  0.0373
 4550SOL    HW125109   3.013   3.970   5.335  1.0374  0.9353 -1.7452
 4550SOL    HW225110   2.997   4.115   5.375 -0.6041 -0.1938  2.2900
 4551SOL     OW25111   3.949   3.148  10.938  0.2960  0.5473 -0.0640
 4551SOL    HW125112   3.980   3.139  10.848 -0.4705 -0.9300 -0.1851
 4551SOL    HW225113   3.870   3.094  10.932  0.2937  0.5015  0.4192
 4552SOL     OW25114   2.930   4.083  15.231  0.9245  0.2015 -0.4674
 4552SOL    HW125115   2.875   4.150  15.272 -0.0740  0.2856 -1.9446
 4552SOL    HW225116   2.959   4.133  15.155 -0.5915 -0.7221 -1.6393
 4553SOL     OW25117   3.877   3.435   7.912 -0.4423 -0.0222  0.0092
 4553SOL    HW125118   3.947   3.484   7.955 -1.2931  0.4357  0.8814
 4553SOL    HW225119   3.853   3.384   7.989  1.9376 -0.3625  0.5219
 4554SOL     OW25120   3.142   3.435   1.360  0.4507 -0.1011  0.0363
 4554SOL    HW125121   3.170   3.394   1.442 -2.7809  1.8036  2.1160
 4554SOL    HW225122   3.063   3.384   1.341 -0.9086  2.2579 -0.7064
 4555SOL     OW25123   0.573   0.271   3.426  0.5400  0.1866 -0.0970
 4555SOL    HW125124   0.562   0.270   3.330  2.2031  2.9653 -0.3027
 4555SOL    HW225125   0.484   0.255   3.457  0.0337  2.2082 -0.5379
 4556SOL     OW25126   3.582   0.568  15.310 -0.1720 -0.8688 -0.1713
 4556SOL    HW125127   3.656   0.513  15.337 -0.3386  0.3964  2.8030
 4556SOL    HW225128   3.527   0.541  15.384 -2.4773  2.1912 -0.7964
 4557SOL     OW25129   4.600   1.782   8.563  0.0917  0.6820  0.2235
 4557SOL    HW125130   4.680   1.770   8.513  0.1761  0.2861  0.4540
 4557SOL    HW225131   4.592   1.877   8.572  2.3980  1.1177 -2.3666
 4558SOL     OW25132   0.083   3.569   6.984 -0.5341 -0.0868 -0.0603
 4558SOL    HW125133   0.140   3.540   6.913  0.8136  1.4825  0.3727
 4558SOL    HW225134   0.035   3.647   6.954  2.3763  1.5166 -0.5455
 4559SOL     OW25135   0.086   1.326   5.835 -0.0172 -0.4860 -0.0194
 4559SOL    HW125136   0.038   1.395   5.881 -1.2036 -0.8522 -0.6937
 4559SOL    HW225137   0.116   1.383   5.765 -0.8767  0.8138  0.6746
 4560SOL     OW25138   1.336   3.516   0.752  0.1976 -0.0754  0.2285
 4560SOL    HW125139   1.339   3.608   0.778  1.0997 -0.1764  0.4744
 4560SOL    HW225140   1.429   3.497   0.743  0.2334 -1.6237  3.9611
 4561SOL     OW25141   2.478   4.716   3.359 -0.1668 -0.3630  0.3785
 4561SOL    HW125142   2.528   4.680   3.433 -1.2263 -0.3923  1.0783
 4561SOL    HW225143   2.396   4.669   3.376 -1.2453  0.7387 -1.7868
 4562SOL     OW25144   1.011   1.617  16.797  0.1138  0.2823  0.0677
 4562SOL    HW125145   0.943   1.578  16.851  0.5704 -2.2058 -1.1406
 4562SOL    HW225146   0.970   1.668  16.727 -2.4574 -0.8250  0.7882
 4563SOL     OW25147   0.763   2.010   6.902 -0.8787  0.0983 -0.2561
 4563SOL    HW125148   0.735   1.922   6.926  0.3290 -0.3424 -0.4473
 4563SOL    HW225149   0.682   2.037   6.859 -1.4268 -1.1450  0.0201
 4564SOL     OW25150   0.501   2.227   1.729  0.8238  0.2380 -0.2687
 4564SOL    HW125151   0.570   2.170   1.695  0.7595 -1.2070  1.9944
 4564SOL    HW225152   0.524   2.241   1.821 -0.4567 -2.3479  0.4460
 4565SOL     OW25153   1.432   3.661   7.845  0.1735  0.0442 -1.0387
 4565SOL    HW125154   1.445   3.756   7.852 -0.0348  0.0552 -0.8113
 4565SOL    HW225155   1.497   3.620   7.902 -0.2686  1.2231  0.3200
 4566SOL     OW25156   3.176   3.781   6.556  0.1414 -0.0075 -0.3531
 4566SOL    HW125157   3.204   3.700   6.512 -0.8472 -1.2119  1.2290
 4566SOL    HW225158   3.148   3.835   6.482  1.2937 -0.0990 -0.8478
 4567SOL     OW25159   2.867   1.952  12.387 -0.1800 -0.3881 -0.0614
 4567SOL    HW125160   2.780   1.913  12.400 -0.7073  0.2150 -1.8664
 4567SOL    HW225161   2.924   1.883  12.352  0.5797 -0.5790  1.5537
 4568SOL     OW25162   2.730   2.115  13.580  0.3403 -0.2118 -0.8489
 4568SOL    HW125163   2.807   2.172  13.587 -0.6318  1.1793 -1.5727
 4568SOL    HW225164   2.766   2.027  13.564  2.4592  0.3912  0.6170
 4569SOL     OW25165   2.656   1.656   9.800  0.4982 -0.1732  0.0175
 4569SOL    HW125166   2.708   1.613   9.868  3.1425 -1.6968 -2.9779
 4569SOL    HW225167   2.640   1.748   9.821 -2.0860 -0.0705 -2.4236
 4570SOL     OW25168   1.403   0.326   8.563 -0.0827 -0.2163  0.0718
 4570SOL    HW125169   1.446   0.271   8.628  2.7094  1.0037 -0.7356
 4570SOL    HW225170   1.318   0.324   8.607  0.1486 -0.2705  0.5143
 4571SOL     OW25171   0.578   1.654   5.639  0.4225  0.1844 -0.3149
 4571SOL    HW125172   0.565   1.692   5.726  0.5618 -2.0047  0.6569
 4571SOL    HW225173   0.508   1.705   5.599 -0.2227 -0.6613 -0.2683
 4572SOL     OW25174   1.093   3.443   9.090  0.0972 -0.3260  0.0911
 4572SOL    HW125175   1.188   3.443   9.077 -0.1289 -0.2847 -1.5244
 4572SOL    HW225176   1.062   3.533   9.090  0.7829 -0.0969  1.5110
 4573SOL     OW25177   2.846   0.364   1.999 -0.4432 -0.0587 -0.5782
 4573SOL    HW125178   2.864   0.273   1.973  0.7750  0.6742 -2.3009
 4573SOL    HW225179   2.929   0.409   2.013 -1.7554  1.0588  3.5398
 4574SOL     OW25180   3.570   3.978  16.739  0.2801 -0.3813 -0.3064
 4574SOL    HW125181   3.649   4.030  16.754 -0.5983  1.0495 -0.6938
 4574SOL    HW225182   3.519   4.044  16.691 -0.4172  0.7515  1.9624
 4575SOL     OW25183   0.826   1.801   5.522 -0.3639 -0.2755 -0.3864
 4575SOL    HW125184   0.913   1.761   5.512  0.1092 -0.1565  3.4900
 4575SOL    HW225185   0.777   1.727   5.556  2.5457 -1.9176  0.2741
 4576SOL     OW25186   3.431   1.149  12.466  0.0525  0.3124  0.2517
 4576SOL    HW125187   3.412   1.104  12.384 -0.8853 -0.9567  1.1454
 4576SOL    HW225188   3.501   1.087  12.488  0.4855  0.5985 -0.3272
 4577SOL     OW25189   2.298   3.795  15.384  0.0282 -0.1411 -0.2285
 4577SOL    HW125190   2.269   3.769  15.297 -0.0331  0.9305 -0.5354
 4577SOL    HW225191   2.393   3.785  15.381  0.6370  4.5817  2.6890
 4578SOL     OW25192   3.309   0.717   4.426 -0.1985  0.2841  0.8331
 4578SOL    HW125193   3.226   0.753   4.395 -0.7886 -0.9354  1.0217
 4578SOL    HW225194   3.340   0.672   4.348  1.0935  0.5000  1.2166
 4579SOL     OW25195   2.891   3.129   6.664 -0.5618  0.0831  0.4742
 4579SOL    HW125196   2.919   3.153   6.575 -1.2139  1.2979  0.5908
 4579SOL    HW225197   2.971   3.143   6.714 -1.0760 -1.2715  1.6827
 4580SOL     OW25198   2.297   3.738   5.887 -0.2314  0.4016 -0.1787
 4580SOL    HW125199   2.321   3.792   5.812 -0.9470 -0.4949 -1.0672
 4580SOL    HW225200   2.303   3.791   5.966  1.0711  0.1921 -0.1408
 4581SOL     OW25201   2.208   3.490   5.976 -0.0152  0.0827 -0.0803
 4581SOL    HW125202   2.301   3.476   5.957 -0.2415 -0.0343 -1.0873
 4581SOL    HW225203   2.192   3.564   5.918  0.1186 -1.1610 -1.7168
 4582SOL     OW25204   3.706   0.309   7.409 -0.5473 -0.0512  0.1271
 4582SOL    HW125205   3.705   0.215   7.429 -1.5555 -0.0501  0.0535
 4582SOL    HW225206   3.765   0.307   7.334 -2.5620  0.7303 -1.4492
 4583SOL     OW25207   0.255   1.621  13.118 -0.1576 -0.1079  0.5017
 4583SOL    HW125208   0.276   1.538  13.161 -1.1560 -1.1958 -1.1122
 4583SOL    HW225209   0.237   1.585  13.031  0.1223  0.8365  0.0479
 4584SOL     OW25210   4.711   1.481   5.437  0.1257 -0.1497  0.2595
 4584SOL    HW125211   4.663   1.468   5.519  0.6956 -1.4499  0.3761
 4584SOL    HW225212   0.078   1.449   5.443  0.7002  1.1441 -1.5926
 4585SOL     OW25213   4.066   2.703   1.315 -0.4420  0.5180 -0.1169
 4585SOL    HW125214   4.001   2.703   1.384  1.1275 -0.2769  1.3652
 4585SOL    HW225215   4.012   2.695   1.236 -0.1832 -0.1420 -0.2300
 4586SOL     OW25216   1.808   2.552  15.049  0.3245 -0.1419 -0.1217
 4586SOL    HW125217   1.808   2.511  14.962 -2.3999  1.1963 -0.7490
 4586SOL    HW225218   1.865   2.625  15.026  1.3544 -0.9364 -0.0712
 4587SOL     OW25219   1.013   4.698   3.884  0.0994  0.3927  0.3371
 4587SOL    HW125220   1.071   4.629   3.917 -0.3041  0.7605  1.8413
 4587SOL    HW225221   1.078   0.043   3.895  0.7642 -0.2308  0.2819
 4588SOL     OW25222   1.440   2.726  14.461 -0.1377  0.2098 -0.1713
 4588SOL    HW125223   1.489   2.666  14.517 -1.6902 -1.1180 -0.2237
 4588SOL    HW225224   1.498   2.799  14.438 -0.4802  0.5357 -0.0177
 4589SOL     OW25225   3.428   3.958   3.090 -0.4034 -0.1354  0.3475
 4589SOL    HW125226   3.509   4.006   3.107 -0.8538  0.5299  0.6000
 4589SOL    HW225227   3.358   4.022   3.102 -0.9028 -0.1700 -2.3736
 4590SOL     OW25228   2.395   3.913   0.825 -0.2447  0.7366  0.4836
 4590SOL    HW125229   2.355   3.870   0.900  0.3223  3.8579  2.5509
 4590SOL    HW225230   2.455   3.843   0.797 -2.5193 -1.2603  0.5557
 4591SOL     OW25231   0.545   4.050  11.408 -0.3334 -0.8544  0.1913
 4591SOL    HW125232   0.569   3.990  11.479  4.5851  1.7206  0.7160
 4591SOL    HW225233   0.451   4.042  11.391 -0.7265  1.3754  1.3412
 4592SOL     OW25234   2.675   3.088   6.463 -0.1824 -0.3835 -0.0291
 4592SOL    HW125235   2.725   3.103   6.544  0.1781  0.2809 -0.3773
 4592SOL    HW225236   2.600   3.043   6.501 -0.7026 -0.1066 -0.7371
 4593SOL     OW25237   3.103   1.786   8.482  0.5277  0.1529  0.4836
 4593SOL    HW125238   3.145   1.865   8.516 -0.6743  0.5025  1.1707
 4593SOL    HW225239   3.032   1.763   8.543 -0.7486  1.2161 -0.5764
 4594SOL     OW25240   3.233   2.363   0.120 -0.0835  0.6426 -0.0379
 4594SOL    HW125241   3.277   2.282   0.093 -0.4876 -0.0552  1.4305
 4594SOL    HW225242   3.261   2.369   0.211  0.2667 -1.4468 -0.0128
 4595SOL     OW25243   0.064   3.645   4.002  0.4680  0.1802 -0.2097
 4595SOL    HW125244   0.144   3.681   4.041  0.2364  1.3243 -0.8088
 4595SOL    HW225245   0.086   3.552   4.013  1.5384  0.8827  3.7424
 4596SOL     OW25246   1.897   3.364   8.965  0.1315  0.0438  0.4307
 4596SOL    HW125247   1.892   3.293   8.901 -2.1114  0.4452  0.1611
 4596SOL    HW225248   1.916   3.315   9.045 -0.8816 -0.7076  0.2103
 4597SOL     OW25249   0.504   0.195   4.213 -0.2634 -0.6655 -0.8859
 4597SOL    HW125250   0.489   0.107   4.247 -1.1974 -0.6802 -1.3247
 4597SOL    HW225251   0.591   0.191   4.175 -0.4307  0.2133 -1.3587
 4598SOL     OW25252   3.302   3.164   3.375 -0.4099 -0.3383 -0.9990
 4598SOL    HW125253   3.393   3.173   3.404 -1.1982  0.5548  1.2168
 4598SOL    HW225254   3.288   3.244   3.324  1.4150  0.8583  0.3790
 4599SOL     OW25255   3.457   1.467  10.570 -0.4946 -0.3428  0.0194
 4599SOL    HW125256   3.467   1.520  10.650  2.5998  0.9412 -1.2142
 4599SOL    HW225257   3.530   1.405  10.574  0.5111  0.9315  1.6159
 4600SOL     OW25258   2.479   3.303  11.254  0.0877  0.4906 -0.6009
 4600SOL    HW125259   2.452   3.300  11.346 -1.9057 -1.5320 -1.2450
 4600SOL    HW225260   2.412   3.247  11.215 -0.5934  2.4935 -2.3036
 4601SOL     OW25261   2.871   3.301   7.271  0.2758  0.0723  0.5192
 4601SOL    HW125262   2.959   3.334   7.289  2.2551 -3.6348 -2.3447
 4601SOL    HW225263   2.851   3.343   7.188 -1.0358 -0.1454  0.7291
 4602SOL     OW25264   4.680   2.268   6.114  0.3599  0.1421  0.2864
 4602SOL    HW125265   4.644   2.331   6.051  1.1151  1.0053  0.7064
 4602SOL    HW225266   4.722   2.334   6.169  0.7003  0.2608 -0.1076
 4603SOL     OW25267   3.682   0.998   0.768 -0.3460  0.2103  0.4880
 4603SOL    HW125268   3.644   1.025   0.852 -0.3699 -0.0848  0.5726
 4603SOL    HW225269   3.720   1.074   0.724  0.7792 -1.1299 -0.8380
 4604SOL     OW25270   4.516   4.326  17.227  0.2467  0.0999  0.3391
 4604SOL    HW125271   4.460   4.320  17.304 -0.2630  0.7387  0.0238
 4604SOL    HW225272   4.608   4.314  17.250  0.4270 -2.3825 -1.7101
 4605SOL     OW25273   2.584   3.741  14.400  0.2366 -0.1944 -0.8078
 4605SOL    HW125274   2.538   3.816  14.362 -0.7204 -0.4182 -0.0861
 4605SOL    HW225275   2.610   3.788  14.479  2.2145 -0.2429 -1.4476
 4606SOL     OW25276   0.919   3.169  17.100 -0.0480 -0.0679  0.1690
 4606SOL    HW125277   0.927   3.199  17.010 -2.2343 -2.1933 -0.7474
 4606SOL    HW225278   0.831   3.195  17.129 -0.4639 -0.9689 -0.2850
 4607SOL     OW25279   3.819   1.900   7.521  0.1657  0.5649 -0.0277
 4607SOL    HW125280   3.772   1.973   7.563 -1.8503 -2.2713  2.6948
 4607SOL    HW225281   3.755   1.880   7.453  0.4019 -0.4772  0.0674
 4608SOL     OW25282   3.464   2.300  11.031 -0.2961 -0.3831 -0.3420
 4608SOL    HW125283   3.518   2.379  11.027 -0.9722  0.2153  2.4754
 4608SOL    HW225284   3.518   2.228  11.065  1.1812  1.3848  1.0688
 4609SOL     OW25285   4.329   2.609   1.090 -0.0788 -0.1473  0.2085
 4609SOL    HW125286   4.311   2.611   0.996  0.1452  2.1230  0.2135
 4609SOL    HW225287   4.241   2.612   1.129  0.1308 -0.6251  0.7219
 4610SOL     OW25288   2.576   1.022  16.918  0.5798  0.2569 -0.3190
 4610SOL    HW125289   2.542   1.111  16.931 -0.4137 -0.3093  0.8902
 4610SOL    HW225290   2.497   0.975  16.891  0.0854  0.0821  1.4092
 4611SOL     OW25291   4.694   1.441   2.449  0.3067  0.0273  0.1190
 4611SOL    HW125292   0.030   1.378   2.491 -0.4571 -0.6429  0.1918
 4611SOL    HW225293   4.605   1.410   2.466 -0.7763  2.5493 -0.9476
 4612SOL     OW25294   1.367   0.080   5.614  0.0866 -0.2611 -0.0832
 4612SOL    HW125295   1.444   0.124   5.580  1.1931 -0.9881  1.4889
 4612SOL    HW225296   1.297   0.141   5.589 -1.3749 -1.5990  0.6890
 4613SOL     OW25297   4.525   2.388   5.606  0.0876 -0.0733 -0.1575
 4613SOL    HW125298   4.450   2.407   5.550  0.2064  1.8445  0.3392
 4613SOL    HW225299   4.542   2.296   5.588 -2.5122 -0.1121 -2.3865
 4614SOL     OW25300   2.526   2.226   3.546  0.3391  0.4573  0.1363
 4614SOL    HW125301   2.588   2.297   3.565  0.8910  0.3064 -1.1106
 4614SOL    HW225302   2.506   2.257   3.458  0.3867  0.4014  0.1062
 4615SOL     OW25303   2.314   4.430   7.404 -0.2453  0.4926  0.1500
 4615SOL    HW125304   2.335   4.522   7.422 -3.4190  1.4347 -0.9882
 4615SOL    HW225305   2.284   4.440   7.314 -0.7504 -0.0641  0.2610
 4616SOL     OW25306   1.630   4.665  16.050  0.1916  0.2314  0.2711
 4616SOL    HW125307   1.606   4.579  16.016 -0.6317 -0.2386  2.0596
 4616SOL    HW225308   1.724   4.657  16.035  0.2309  0.3945  0.4378
 4617SOL     OW25309   1.875   0.314   6.268 -0.5032  0.1502  0.6085
 4617SOL    HW125310   1.865   0.230   6.223 -0.0586  0.7097 -0.5311
 4617SOL    HW225311   1.816   0.307   6.343 -1.1449  1.2778  0.2193
 4618SOL     OW25312   4.662   3.191   5.885 -0.5802 -0.2954 -0.5984
 4618SOL    HW125313   4.710   3.131   5.943  0.2948  0.1490 -0.8614
 4618SOL    HW225314   0.003   3.211   5.817 -2.2004  2.1863 -1.3959
 4619SOL     OW25315   1.561   1.576   3.508 -0.0680  0.1151 -0.4593
 4619SOL    HW125316   1.606   1.650   3.468  2.4214 -1.1203  0.0299
 4619SOL    HW225317   1.472   1.610   3.516  0.2354  0.7017  0.4210
 4620SOL     OW25318   4.006   2.473   5.305  0.2444 -0.2119 -0.4207
 4620SOL    HW125319   4.063   2.512   5.239  0.1499 -0.5660 -0.7102
 4620SOL    HW225320   3.917   2.478   5.272  0.8326 -1.9376 -2.2665
 4621SOL     OW25321   4.056   2.092   4.239  0.2161 -0.2817  0.0951
 4621SOL    HW125322   4.014   2.066   4.320 -0.7935 -1.5374 -0.8418
 4621SOL    HW225323   4.112   2.164   4.267 -2.0395  1.3276  0.4455
 4622SOL     OW25324   2.039   4.074   5.370  0.4904  0.3176  0.3607
 4622SOL    HW125325   2.031   4.017   5.294 -0.2014 -1.1204  1.4977
 4622SOL    HW225326   1.951   4.102   5.393  0.0692  0.1120 -1.0400
 4623SOL     OW25327   1.331   3.169   6.637  0.4763 -0.3764  0.1566
 4623SOL    HW125328   1.392   3.099   6.663  2.2514  1.1400  0.0994
 4623SOL    HW225329   1.249   3.120   6.636  0.7265 -0.7818 -0.5773
 4624SOL     OW25330   1.116   1.583  12.830 -0.1254 -0.1433  0.7130
 4624SOL    HW125331   1.073   1.502  12.803  1.7318 -0.2099 -2.0586
 4624SOL    HW225332   1.063   1.647  12.783 -1.1799 -1.7282 -0.2984
 4625SOL     OW25333   0.462   1.078   3.397  0.3823 -0.1659  0.7167
 4625SOL    HW125334   0.537   1.128   3.364 -0.5326  0.5601 -0.2627
 4625SOL    HW225335   0.491   1.083   3.488  2.3878  0.1751  0.0434
 4626SOL     OW25336   0.804   2.341   7.819 -0.4670  0.0814 -0.1997
 4626SOL    HW125337   0.782   2.293   7.740  2.7357 -0.0627 -0.9978
 4626SOL    HW225338   0.782   2.433   7.801 -1.2637 -0.3346 -1.3511
 4627SOL     OW25339   2.962   2.462   6.862 -0.0727  0.4171  0.4630
 4627SOL    HW125340   2.873   2.491   6.877 -0.7298 -0.5791 -1.4442
 4627SOL    HW225341   3.002   2.542   6.826  0.6461 -1.6183 -3.3434
 4628SOL     OW25342   2.458   1.229   5.224 -0.3939 -0.2321 -0.0101
 4628SOL    HW125343   2.387   1.288   5.197 -0.7615 -1.0387 -0.8138
 4628SOL    HW225344   2.528   1.274   5.272 -1.9233  1.1746  0.9294
 4629SOL     OW25345   2.730   2.768  16.730 -0.4712 -0.2247  0.3883
 4629SOL    HW125346   2.746   2.791  16.821  1.6397 -0.3125  0.0492
 4629SOL    HW225347   2.801   2.705  16.715 -0.2530 -0.0355  0.6330
 4630SOL     OW25348   0.094   2.000   3.442  0.0244  0.9092 -0.7714
 4630SOL    HW125349   0.000   2.011   3.455 -0.1381  1.0504 -2.1242
 4630SOL    HW225350   0.117   2.091   3.458  1.1783  0.7097 -1.2358
 4631SOL     OW25351   0.096   1.252   7.213  0.0269  0.1982 -0.1696
 4631SOL    HW125352   0.063   1.164   7.231 -1.3543  0.7587  0.1062
 4631SOL    HW225353   0.137   1.266   7.298 -0.6093  1.6795 -0.0970
 4632SOL     OW25354   4.013   0.127   4.660  0.1120  0.0562  0.1100
 4632SOL    HW125355   3.989   0.219   4.646 -0.0960 -0.2902 -1.9009
 4632SOL    HW225356   4.078   0.113   4.591 -1.7678  1.3096 -1.9603
 4633SOL     OW25357   2.951   2.317  16.616  0.4033 -0.0805 -0.7065
 4633SOL    HW125358   2.901   2.242  16.648 -0.5679 -0.4558 -3.1365
 4633SOL    HW225359   3.043   2.289  16.623  0.2636 -0.2448  0.5321
 4634SOL     OW25360   2.617   3.427   1.965  0.1189  0.0087  0.0388
 4634SOL    HW125361   2.661   3.356   1.918  0.7136 -0.1936  0.8915
 4634SOL    HW225362   2.606   3.489   1.893  2.2218  0.0282 -0.2553
 4635SOL     OW25363   0.929   2.407   0.735 -0.7658 -0.3611 -0.2908
 4635SOL    HW125364   1.012   2.367   0.761 -1.1061 -1.7096 -1.2862
 4635SOL    HW225365   0.952   2.491   0.694 -0.2170  0.8602  2.4984
 4636SOL     OW25366   2.837   3.998   5.835 -0.1930  0.6516  0.5501
 4636SOL    HW125367   2.929   4.022   5.825 -0.7223  2.0676 -0.9585
 4636SOL    HW225368   2.847   3.903   5.832 -2.7917  0.4064 -0.6885
 4637SOL     OW25369   2.986   0.850   1.789  0.0753 -0.1279 -0.2006
 4637SOL    HW125370   2.978   0.763   1.829  0.4284  0.6000  1.4489
 4637SOL    HW225371   2.902   0.856   1.743  1.8285  2.8777 -3.0032
 4638SOL     OW25372   2.068   0.093   2.133  0.0873  0.2196  0.0228
 4638SOL    HW125373   2.147   0.087   2.185  0.7681  1.7191 -0.8508
 4638SOL    HW225374   2.108   0.106   2.047  1.4201 -1.9080  0.3139
 4639SOL     OW25375   3.366   3.147   6.651 -0.7230 -0.1718  0.0483
 4639SOL    HW125376   3.412   3.231   6.645 -1.3892  0.1106 -1.0793
 4639SOL    HW225377   3.372   3.122   6.559 -1.7638 -1.5215  0.3561
 4640SOL     OW25378   1.870   4.193   3.760  0.0705  0.2450 -0.1307
 4640SOL    HW125379   1.941   4.174   3.821  1.1779  0.5774 -1.3222
 4640SOL    HW225380   1.801   4.221   3.820  1.4543  0.0493  1.5284
 4641SOL     OW25381   1.518   3.608   4.369  0.3184 -0.4679  0.2250
 4641SOL    HW125382   1.540   3.526   4.413  0.1313 -0.9089 -0.5078
 4641SOL    HW225383   1.513   3.677   4.435  1.8626  1.5552 -1.7813
 4642SOL     OW25384   1.180   1.767   3.105 -0.4068  0.1908 -0.0111
 4642SOL    HW125385   1.222   1.850   3.126 -0.2271 -0.2448  1.3285
 4642SOL    HW225386   1.093   1.790   3.139 -1.5363  1.1457 -3.4151
 4643SOL     OW25387   3.067   4.123   8.901 -0.5325 -0.3727  0.1087
 4643SOL    HW125388   3.126   4.078   8.841 -0.3438  0.6119 -0.4344
 4643SOL    HW225389   3.017   4.168   8.833  0.8245  1.6382  0.4711
 4644SOL     OW25390   4.590   1.458   5.684 -0.5160 -0.3968 -0.3961
 4644SOL    HW125391   4.536   1.422   5.754 -0.5805  0.5957  0.0721
 4644SOL    HW225392   4.576   1.552   5.695  1.0362 -0.3589  1.3435
 4645SOL     OW25393   2.417   1.723  10.984  0.0705  0.4692 -0.3509
 4645SOL    HW125394   2.453   1.685  11.064 -0.8756  0.9014  0.2689
 4645SOL    HW225395   2.470   1.803  10.980  1.8507 -0.7810 -2.1279
 4646SOL     OW25396   1.773   3.872  10.647  0.2305 -0.1924  0.3505
 4646SOL    HW125397   1.863   3.876  10.682  0.5370  2.8381 -0.7809
 4646SOL    HW225398   1.761   3.957  10.605 -3.6487 -0.3749  1.1763
 4647SOL     OW25399   1.795   3.355   2.375 -0.3972 -0.9650  0.5039
 4647SOL    HW125400   1.784   3.387   2.464  0.2704  0.1989  0.1750
 4647SOL    HW225401   1.873   3.299   2.381 -0.4762 -0.9525  1.5898
 4648SOL     OW25402   1.344   1.522  15.572  0.4088 -0.1913  0.2978
 4648SOL    HW125403   1.408   1.484  15.513 -0.5825 -0.5077 -0.5682
 4648SOL    HW225404   1.375   1.494  15.658 -0.9173  0.1710  0.8965
 4649SOL     OW25405   2.623   0.184   7.771 -0.7641  0.3767  0.5354
 4649SOL    HW125406   2.705   0.135   7.780 -1.4687 -1.4288 -2.9193
 4649SOL    HW225407   2.640   0.241   7.697 -0.5468 -1.3022 -0.7038
 4650SOL     OW25408   3.431   2.194  15.219  0.1107  0.3239  0.7335
 4650SOL    HW125409   3.430   2.271  15.162  0.9502  0.4215  0.8495
 4650SOL    HW225410   3.489   2.220  15.290  0.9068 -1.7066  0.8319
 4651SOL     OW25411   1.070   3.442   6.811 -0.2827 -0.2349  0.3055
 4651SOL    HW125412   1.143   3.491   6.849  0.9266 -2.5250  0.9963
 4651SOL    HW225413   1.005   3.512   6.811  1.1386  1.0791  0.3874
 4652SOL     OW25414   2.861   2.086   3.406 -0.1392  0.0851 -0.2232
 4652SOL    HW125415   2.899   2.169   3.379 -1.5813  0.2507 -1.7714
 4652SOL    HW225416   2.834   2.061   3.317  0.3110 -0.9635 -0.0672
 4653SOL     OW25417   2.394   3.006  14.341  0.3921  0.1858  0.0937
 4653SOL    HW125418   2.342   3.006  14.422 -1.5555  0.0785 -1.1491
 4653SOL    HW225419   2.479   3.046  14.357 -1.2420  3.5123  0.3550
 4654SOL     OW25420   0.066   1.163   9.365 -0.1803 -0.5300 -0.2953
 4654SOL    HW125421   0.011   1.087   9.347 -1.3485 -0.1110  1.5549
 4654SOL    HW225422   0.099   1.143   9.452 -1.5070 -0.0208  0.3179
 4655SOL     OW25423   2.184   3.491   1.014  0.0495 -0.3645 -0.3090
 4655SOL    HW125424   2.268   3.532   0.995 -0.6796  0.6136 -1.5301
 4655SOL    HW225425   2.212   3.411   1.058 -1.9222 -0.6340  0.4845
 4656SOL     OW25426   3.586   0.891   2.224 -0.6163 -0.2762 -0.0754
 4656SOL    HW125427   3.656   0.862   2.167 -0.9743 -1.5963  0.1474
 4656SOL    HW225428   3.530   0.948   2.172 -0.1610 -1.1226 -1.4702
 4657SOL     OW25429   1.068   0.467   4.449  0.2204 -0.0526 -0.3499
 4657SOL    HW125430   1.043   0.438   4.361 -4.0997  2.1276  0.1611
 4657SOL    HW225431   1.162   0.453   4.442  0.2535 -0.4003  0.8533
 4658SOL     OW25432   3.244   2.722   2.315  0.2909  0.5824 -0.0183
 4658SOL    HW125433   3.306   2.742   2.245  0.4240 -1.5960 -0.5136
 4658SOL    HW225434   3.203   2.642   2.281  0.3609  1.5484 -2.3770
 4659SOL     OW25435   2.737   4.416  14.358 -0.2180  0.8407  0.3532
 4659SOL    HW125436   2.729   4.427  14.263  0.6582  1.7321  0.3810
 4659SOL    HW225437   2.755   4.322  14.363  1.6786  1.1411 -0.6040
 4660SOL     OW25438   3.050   0.045  10.052 -0.0811  0.8500 -0.7389
 4660SOL    HW125439   3.102   4.691  10.032 -1.9222 -0.5591 -0.0609
 4660SOL    HW225440   3.090   0.109   9.993  1.3555  1.4303  0.8493
 4661SOL     OW25441   3.907   0.769   9.267 -0.3920 -0.1020 -0.9647
 4661SOL    HW125442   3.927   0.716   9.345 -0.6747 -1.6821 -1.9537
 4661SOL    HW225443   3.850   0.830   9.314  1.4309 -0.9676  2.4169
 4662SOL     OW25444   1.941   4.701   1.533 -0.1806  0.0480 -0.2842
 4662SOL    HW125445   1.980   4.626   1.487  1.0165  0.1980  0.4824
 4662SOL    HW225446   1.866   0.002   1.479  0.5355  0.6473 -1.0231
 4663SOL     OW25447   0.215   1.266   3.590 -0.4567 -0.8882  0.5556
 4663SOL    HW125448   0.188   1.216   3.667 -0.4334  0.7898  1.6701
 4663SOL    HW225449   0.178   1.206   3.526 -0.3157 -1.1618  0.7307
 4664SOL     OW25450   1.411   4.600   4.551 -0.1187  0.4840 -0.6561
 4664SOL    HW125451   1.454   4.681   4.579  0.2598  0.7889 -2.1537
 4664SOL    HW225452   1.319   4.623   4.562 -0.3665 -0.2288 -1.2640
 4665SOL     OW25453   0.725   0.864   2.314  0.3569 -0.4014 -0.6341
 4665SOL    HW125454   0.789   0.809   2.269 -0.6807 -0.6147 -1.8495
 4665SOL    HW225455   0.713   0.824   2.400 -2.3047  3.5291  0.7979
 4666SOL     OW25456   1.137   3.255  16.917  0.0951 -0.1327  0.8560
 4666SOL    HW125457   1.174   3.211  16.841  1.2913  4.0374 -1.0087
 4666SOL    HW225458   1.046   3.254  16.887  0.0398 -2.1049  1.1072
 4667SOL     OW25459   3.198   2.777   5.790  0.0256  0.2179  0.2430
 4667SOL    HW125460   3.244   2.748   5.869 -1.8131  0.0144  1.2321
 4667SOL    HW225461   3.206   2.695   5.742 -1.7477  1.5551 -2.3793
 4668SOL     OW25462   4.359   3.256   4.543 -0.1012  0.1297  0.0118
 4668SOL    HW125463   4.329   3.176   4.500  0.1946  0.5568 -1.0093
 4668SOL    HW225464   4.336   3.315   4.471  0.6251 -0.5374 -0.7776
 4669SOL     OW25465   1.047   1.735   2.613 -0.4222  0.1618 -0.3044
 4669SOL    HW125466   1.073   1.781   2.692  0.2983 -0.6988 -0.0348
 4669SOL    HW225467   0.994   1.796   2.562 -1.7528 -3.9895 -3.9353
 4670SOL     OW25468   2.100   1.155   0.399 -0.8494  0.6011  0.1804
 4670SOL    HW125469   2.151   1.227   0.362 -1.3451  0.5442 -0.6155
 4670SOL    HW225470   2.077   1.101   0.323  1.2003  2.5429 -1.8174
 4671SOL     OW25471   0.334   1.615   5.884  0.3237 -0.0647 -0.4019
 4671SOL    HW125472   0.327   1.703   5.847  1.2230  0.5381  0.8441
 4671SOL    HW225473   0.294   1.570   5.810 -0.5208  1.3006 -0.7717
 4672SOL     OW25474   4.199   3.067   4.410  0.2725 -0.5893  0.2558
 4672SOL    HW125475   4.203   2.972   4.404  0.5232 -0.6880  2.0018
 4672SOL    HW225476   4.203   3.101   4.320 -1.2370  0.3597  0.5323
 4673SOL     OW25477   3.805   1.489   6.616 -1.0114 -0.8832  0.1495
 4673SOL    HW125478   3.770   1.578   6.619  2.5667  0.5792 -1.1961
 4673SOL    HW225479   3.799   1.445   6.701  1.5388  0.0072  0.7932
 4674SOL     OW25480   3.944   1.062   0.949 -0.2519 -0.0895  0.3560
 4674SOL    HW125481   3.914   0.981   0.990  1.3764 -1.6051 -1.4434
 4674SOL    HW225482   3.998   1.103   1.017  0.7679  0.4053 -0.7412
 4675SOL     OW25483   0.327   4.558   8.589  0.3485 -0.4646 -0.2301
 4675SOL    HW125484   0.307   4.594   8.503 -1.4364 -2.5396 -0.6842
 4675SOL    HW225485   0.249   4.505   8.604  0.9305 -1.2719 -0.0828
 4676SOL     OW25486   2.606   2.784   2.671 -0.4493  0.3067  0.7102
 4676SOL    HW125487   2.532   2.816   2.723 -0.3084  1.0165  0.4589
 4676SOL    HW225488   2.682   2.830   2.706 -0.2510  0.7104 -0.2805
 4677SOL     OW25489   4.387   4.722  11.270  0.2228  0.3417  0.2294
 4677SOL    HW125490   4.457   4.700  11.332 -0.4051 -1.6351  0.2289
 4677SOL    HW225491   4.313   4.673  11.307 -0.9437  0.7190 -1.5934
 4678SOL     OW25492   3.516   0.248   8.131  0.0223  0.0972  0.3525
 4678SOL    HW125493   3.575   0.197   8.187  1.0849 -0.8706 -1.6415
 4678SOL    HW225494   3.434   0.205   8.155 -1.0949  1.7781 -0.4668
 4679SOL     OW25495   1.895   0.069   7.558  0.1310  0.0780 -0.0799
 4679SOL    HW125496   1.822   0.124   7.530 -1.1573 -1.0255  1.1274
 4679SOL    HW225497   1.895   0.103   7.647  0.2631 -0.3544  0.0849
 4680SOL     OW25498   2.005   0.631   0.096 -0.1888 -0.1570  0.7111
 4680SOL    HW125499   2.005   0.561   0.031 -0.3680 -0.5750  1.1600
 4680SOL    HW225500   2.039   0.700   0.040 -3.0063 -0.2006 -1.0417
 4681SOL     OW25501   4.672   2.649  13.060  0.1264 -0.1822 -0.0548
 4681SOL    HW125502   4.669   2.574  13.001 -1.8992 -0.6419  0.6496
 4681SOL    HW225503   4.581   2.679  13.052 -0.3144 -1.6710 -0.5309
 4682SOL     OW25504   3.734   2.012   2.529 -0.4690  0.2898 -0.5206
 4682SOL    HW125505   3.718   1.999   2.435 -0.8914  0.5769 -0.4918
 4682SOL    HW225506   3.810   1.954   2.533 -1.6475 -1.1043  1.7090
 4683SOL     OW25507   1.768   3.577  11.203  0.2643 -0.2143  0.4689
 4683SOL    HW125508   1.751   3.574  11.297  4.2418 -2.2006  1.1316
 4683SOL    HW225509   1.695   3.530  11.164  0.4619 -0.0860 -0.0515
 4684SOL     OW25510   3.505   3.307   8.951 -0.5166 -0.4868 -0.1926
 4684SOL    HW125511   3.568   3.261   8.897  1.3809  1.0332  0.6971
 4684SOL    HW225512   3.458   3.234   8.991  0.4185 -0.5205  0.8669
 4685SOL     OW25513   1.655   4.710  13.072  0.3701  0.5159 -0.0732
 4685SOL    HW125514   1.730   0.032  13.033 -0.8010  1.9700 -0.6695
 4685SOL    HW225515   1.686   4.706  13.162 -0.0444  0.6139  0.0739
 4686SOL     OW25516   3.744   4.025   2.356  0.3860  0.0415 -0.6802
 4686SOL    HW125517   3.725   3.932   2.341  0.6476 -0.2512  0.8734
 4686SOL    HW225518   3.658   4.056   2.383  1.3741  1.2278  1.0282
 4687SOL     OW25519   4.222   2.333   8.589  0.5588 -0.0524  0.1231
 4687SOL    HW125520   4.200   2.424   8.568  2.5003 -0.1065 -2.0671
 4687SOL    HW225521   4.289   2.326   8.522 -1.0907 -1.1105 -1.4099
 4688SOL     OW25522   4.111   4.634   6.499 -0.0301  0.5711 -0.5332
 4688SOL    HW125523   4.028   4.613   6.455  1.7828 -1.2742 -3.0369
 4688SOL    HW225524   4.164   4.558   6.479  1.0934  1.1836  0.1289
 4689SOL     OW25525   2.327   0.335   4.867 -0.2393  0.1670  0.0756
 4689SOL    HW125526   2.318   0.266   4.801 -0.2612 -1.0649  1.3684
 4689SOL    HW225527   2.240   0.324   4.906  0.1760  0.7427  1.1473
 4690SOL     OW25528   2.509   2.964  11.247  0.6099  0.8414 -0.5627
 4690SOL    HW125529   2.555   3.001  11.171  0.3635  0.8562 -0.7058
 4690SOL    HW225530   2.419   2.996  11.242 -0.9324 -3.2000  0.8840
 4691SOL     OW25531   0.274   0.324   4.350 -0.4362  0.1647 -0.1952
 4691SOL    HW125532   0.323   0.252   4.310  0.7328  1.2763 -0.7763
 4691SOL    HW225533   0.186   0.292   4.369 -1.4408  3.5918  0.9065
 4692SOL     OW25534   4.480   1.979   2.414 -0.2036 -0.5835 -0.0936
 4692SOL    HW125535   4.448   1.897   2.377 -0.5366  0.1981 -1.5363
 4692SOL    HW225536   4.493   2.038   2.340  2.3129 -2.5678 -1.2130
 4693SOL     OW25537   0.024   3.095   3.085 -0.4467 -0.1019  0.6786
 4693SOL    HW125538   4.671   3.072   3.138  0.9057 -1.4761  2.0311
 4693SOL    HW225539   0.027   3.021   3.023 -1.2848  1.2293 -0.9763
 4694SOL     OW25540   3.848   0.275   7.193  0.4650 -0.4013  0.6673
 4694SOL    HW125541   3.881   0.202   7.142  1.2774  1.1779 -1.0612
 4694SOL    HW225542   3.896   0.348   7.152 -0.2204 -1.1547 -1.4699
 4695SOL     OW25543   0.255   4.616   8.324  0.4920 -0.5754  0.8322
 4695SOL    HW125544   0.174   4.605   8.275  1.3552  0.2220 -0.7611
 4695SOL    HW225545   0.323   4.617   8.257  1.0484 -0.5096  1.4010
 4696SOL     OW25546   2.049   1.277   3.495 -0.1677  0.0463  0.7758
 4696SOL    HW125547   1.998   1.343   3.542  0.3909  1.7589 -0.9923
 4696SOL    HW225548   2.015   1.292   3.407  1.3408  0.1766  0.2087
 4697SOL     OW25549   0.942   3.745   8.390  0.2636  0.1237 -0.2103
 4697SOL    HW125550   1.015   3.801   8.366  1.6637 -2.0989 -1.1372
 4697SOL    HW225551   0.965   3.655   8.364 -0.1611 -0.6539  2.0930
 4698SOL     OW25552   1.714   2.109   5.615  0.3913 -0.2323 -0.8438
 4698SOL    HW125553   1.796   2.149   5.587 -0.9988  3.2728  0.0341
 4698SOL    HW225554   1.664   2.143   5.541 -0.9237  0.2188  0.2682
 4699SOL     OW25555   0.345   1.760   5.108 -0.0764 -0.0386 -0.1949
 4699SOL    HW125556   0.285   1.710   5.053 -1.3075  0.4717  0.6708
 4699SOL    HW225557   0.288   1.829   5.142 -0.4105 -0.8509  0.9096
 4700SOL     OW25558   2.649   1.599   2.960  0.0076  0.1162  0.2660
 4700SOL    HW125559   2.658   1.694   2.951  1.9119  0.1311  2.3221
 4700SOL    HW225560   2.561   1.590   2.996 -0.2425  2.5248  0.3015
 4701SOL     OW25561   3.397   0.961  11.414 -0.0174  0.4495 -0.0611
 4701SOL    HW125562   3.352   0.878  11.434  0.6061  0.1995  0.3067
 4701SOL    HW225563   3.320   1.016  11.403  0.1566  0.2701 -2.0943
 4702SOL     OW25564   0.345   2.789   9.801 -0.2350  0.2117  0.0254
 4702SOL    HW125565   0.339   2.845   9.723 -0.0406 -1.4932 -1.2232
 4702SOL    HW225566   0.393   2.718   9.758 -2.7907 -0.2384 -2.1083
 4703SOL     OW25567   2.104   0.064   3.264 -0.4120 -0.0449  0.3763
 4703SOL    HW125568   2.169   4.720   3.244  0.9035  1.3251 -0.0216
 4703SOL    HW225569   2.090   0.089   3.173  1.3810 -0.7974 -0.1011
 4704SOL     OW25570   1.373   2.159   2.336  0.4789 -0.2305 -0.3606
 4704SOL    HW125571   1.367   2.082   2.393  1.0304  0.3651  0.4977
 4704SOL    HW225572   1.461   2.141   2.304 -0.6939 -1.1035 -3.1006
 4705SOL     OW25573   1.039   4.658  10.568 -0.0778 -0.2514  0.5690
 4705SOL    HW125574   1.134   4.665  10.561  0.0684 -0.2213  2.5545
 4705SOL    HW225575   1.021   0.010  10.512  2.1410 -0.8918 -0.9570
 4706SOL     OW25576   2.385   4.545   6.326 -0.1890  0.0890 -0.5239
 4706SOL    HW125577   2.390   4.549   6.422 -1.3809 -0.9423 -0.4206
 4706SOL    HW225578   2.469   4.522   6.287 -1.2795 -0.4084 -2.5662
 4707SOL     OW25579   4.708   2.189  13.518  0.1067  0.0248 -0.6036
 4707SOL    HW125580   0.016   2.228  13.437  1.0317 -1.0514 -0.7677
 4707SOL    HW225581   0.062   2.146  13.555 -0.4095 -1.1983 -0.9459
 4708SOL     OW25582   0.815   2.074  14.307  0.4690  0.4117 -0.3077
 4708SOL    HW125583   0.719   2.071  14.307  0.4565  0.7406  0.7488
 4708SOL    HW225584   0.828   2.070  14.212  1.6916 -1.1136 -0.0809
 4709SOL     OW25585   2.555   4.138   3.813  0.1034  0.0348  0.1124
 4709SOL    HW125586   2.545   4.181   3.728 -0.6763  0.8925  0.6408
 4709SOL    HW225587   2.497   4.193   3.865 -0.1307  1.1649 -1.3435
 4710SOL     OW25588   1.854   2.602  10.901  0.3290  0.0512  0.1950
 4710SOL    HW125589   1.949   2.611  10.902  0.2373  0.9453  0.5362
 4710SOL    HW225590   1.825   2.691  10.881 -3.6311 -0.6590  2.7837
 4711SOL     OW25591   3.792   0.114   2.386  0.1584  0.2409 -0.1663
 4711SOL    HW125592   3.804   0.193   2.333 -1.7872  0.9569  0.4760
 4711SOL    HW225593   3.768   0.051   2.318  1.4388  0.9323 -1.2724
 4712SOL     OW25594   4.583   4.025   3.652  0.2289  0.4810 -0.5560
 4712SOL    HW125595   4.649   3.968   3.612  1.2605  1.9531 -0.9596
 4712SOL    HW225596   4.548   4.064   3.572  0.0010  2.3609  0.4718
 4713SOL     OW25597   3.513   2.622   5.540 -0.3798 -0.4073  1.0635
 4713SOL    HW125598   3.570   2.546   5.531 -1.3891 -0.7529 -2.4852
 4713SOL    HW225599   3.428   2.578   5.533 -0.3088 -0.2367 -0.8070
 4714SOL     OW25600   0.402   1.599   7.384  0.1836  0.4771  0.1961
 4714SOL    HW125601   0.357   1.683   7.388  0.4714  0.6785 -0.8062
 4714SOL    HW225602   0.382   1.564   7.471 -1.2741  1.4907  0.2563
 4715SOL     OW25603   1.125   3.332  16.075 -0.8274  0.5309 -0.7554
 4715SOL    HW125604   1.198   3.282  16.038 -0.6621 -0.7727  1.3497
 4715SOL    HW225605   1.106   3.273  16.148 -0.9933 -0.5383 -1.6612
 4716SOL     OW25606   3.483   1.004   0.962  0.6306  0.4150  0.0013
 4716SOL    HW125607   3.416   0.973   0.900 -0.2945  0.7605  0.8350
 4716SOL    HW225608   3.488   0.934   1.027  1.8224  1.0746  0.6067
 4717SOL     OW25609   4.340   0.494   1.299 -0.0588 -0.1180 -0.1979
 4717SOL    HW125610   4.294   0.435   1.358 -0.1940  0.6871  0.4985
 4717SOL    HW225611   4.429   0.505   1.332 -0.1661 -0.5707  0.2469
 4718SOL     OW25612   0.444   1.011   6.645 -0.6724  0.5459  0.1493
 4718SOL    HW125613   0.351   0.995   6.657 -0.7490  0.5084 -0.4846
 4718SOL    HW225614   0.455   1.073   6.716 -1.1530 -0.0399  0.7346
 4719SOL     OW25615   0.961   3.821   4.844  0.5391  0.1079 -0.2942
 4719SOL    HW125616   1.000   3.851   4.762  0.4792  1.5492  0.2026
 4719SOL    HW225617   0.868   3.819   4.821  0.9899  0.9437 -2.2561
 4720SOL     OW25618   0.784   3.857   5.235  0.3135  0.2501 -0.4415
 4720SOL    HW125619   0.709   3.809   5.272 -1.4104  3.5467  0.3074
 4720SOL    HW225620   0.822   3.781   5.190 -0.6366 -0.1853 -0.5300
 4721SOL     OW25621   4.513   2.799   2.139  0.2376 -0.4656  0.0408
 4721SOL    HW125622   4.598   2.804   2.182 -0.3824 -1.4484  1.3669
 4721SOL    HW225623   4.504   2.876   2.083  1.0081  1.0037  1.9233
 4722SOL     OW25624   3.845   3.054   7.226 -1.0475  0.0627  0.5971
 4722SOL    HW125625   3.831   3.107   7.147 -0.0963  1.6839  1.5198
 4722SOL    HW225626   3.932   3.086   7.249 -0.9968  0.8947 -0.6998
 4723SOL     OW25627   0.104   1.447   6.602 -0.2513  0.0396 -0.0705
 4723SOL    HW125628   0.126   1.364   6.643 -0.6394 -0.3114 -0.5837
 4723SOL    HW225629   0.037   1.476   6.664  0.3626  0.9550  0.1676
 4724SOL     OW25630   3.249   0.760   2.430 -0.4573  0.2193 -0.5793
 4724SOL    HW125631   3.208   0.845   2.411  1.8324  1.6609  0.8083
 4724SOL    HW225632   3.200   0.693   2.383  0.2537 -0.0195 -0.9730
 4725SOL     OW25633   2.669   1.548   4.482 -0.1432 -0.3813 -0.3837
 4725SOL    HW125634   2.623   1.464   4.474  0.1022 -0.4145 -1.4434
 4725SOL    HW225635   2.707   1.546   4.570  3.0029  2.5507 -1.6615
 4726SOL     OW25636   0.447   1.457   1.031 -0.3001  0.2041 -0.2102
 4726SOL    HW125637   0.513   1.449   0.963  0.6864  1.8571  0.5412
 4726SOL    HW225638   0.366   1.420   0.997 -0.0317 -0.0628 -0.5507
 4727SOL     OW25639   3.094   4.033   0.349  0.2881 -0.1218  0.3516
 4727SOL    HW125640   3.048   3.983   0.416  1.1979 -0.4113  0.7581
 4727SOL    HW225641   3.115   4.116   0.393  1.4197 -0.0943 -0.2454
 4728SOL     OW25642   1.393   1.532   5.015 -0.6013  0.0467 -0.3993
 4728SOL    HW125643   1.487   1.523   4.996 -0.8494 -1.2569 -1.0281
 4728SOL    HW225644   1.371   1.469   4.947 -2.1610 -2.4075  2.4107
 4729SOL     OW25645   3.446   0.762   1.158  0.4227 -0.2579 -0.3986
 4729SOL    HW125646   3.437   0.782   1.251 -0.2586 -0.8908 -0.3318
 4729SOL    HW225647   3.401   0.678   1.148  1.6005 -1.1853  1.9544
 4730SOL     OW25648   2.411   2.397   7.595 -0.9116  0.2977 -0.1175
 4730SOL    HW125649   2.506   2.389   7.586 -1.0024 -1.0789  0.2759
 4730SOL    HW225650   2.400   2.492   7.599  0.3920  0.5525 -2.4257
 4731SOL     OW25651   3.189   2.719   4.069  0.6328 -0.7682 -0.3574
 4731SOL    HW125652   3.174   2.645   4.010 -0.9952 -1.2749  0.7061
 4731SOL    HW225653   3.269   2.695   4.117  1.6058  1.9996 -0.5765
 4732SOL     OW25654   0.365   0.771   3.296 -0.2933 -0.3916 -0.5135
 4732SOL    HW125655   0.418   0.849   3.281 -2.0018  0.6120 -1.4046
 4732SOL    HW225656   0.329   0.763   3.208 -0.5180 -0.1685 -0.4427
 4733SOL     OW25657   2.312   1.379  14.233  0.0116 -0.1345  0.7053
 4733SOL    HW125658   2.225   1.419  14.229  0.5932  0.9780 -0.6469
 4733SOL    HW225659   2.351   1.406  14.150  0.5350  3.0710  2.0025
 4734SOL     OW25660   2.072   0.529   3.517 -0.1629 -0.2565  0.0671
 4734SOL    HW125661   2.162   0.561   3.527  0.0956 -0.0308 -3.1209
 4734SOL    HW225662   2.094   0.439   3.495  1.5294  0.7736 -2.5069
 4735SOL     OW25663   2.224   2.217   7.454 -0.4246 -0.1569 -0.1561
 4735SOL    HW125664   2.271   2.215   7.370 -1.1705  0.1364 -0.5791
 4735SOL    HW225665   2.256   2.296   7.498 -0.8377 -0.5026  0.7699
 4736SOL     OW25666   0.430   3.978   6.215 -0.3316 -0.5615 -0.2100
 4736SOL    HW125667   0.381   4.036   6.157 -1.4330  0.4238  1.7019
 4736SOL    HW225668   0.458   4.046   6.277 -0.1317  0.3799 -1.3378
 4737SOL     OW25669   1.348   2.278  16.459  0.0648 -0.2973 -0.0736
 4737SOL    HW125670   1.286   2.227  16.406  1.2407 -1.1229 -0.6606
 4737SOL    HW225671   1.294   2.318  16.527 -0.3193  0.9168 -1.0976
 4738SOL     OW25672   0.552   1.761   4.124 -0.0700 -0.2569  0.2086
 4738SOL    HW125673   0.520   1.851   4.126  0.3213 -0.0870 -0.9058
 4738SOL    HW225674   0.582   1.739   4.212 -2.2100 -1.3741  0.6734
 4739SOL     OW25675   2.560   1.606   5.642 -0.0229  0.3545 -0.0540
 4739SOL    HW125676   2.590   1.693   5.668  1.1272 -1.0132  3.1405
 4739SOL    HW225677   2.608   1.551   5.704 -2.4630 -0.3911  1.1774
 4740SOL     OW25678   2.609   1.587   4.798 -0.5799 -0.1283 -0.5695
 4740SOL    HW125679   2.595   1.681   4.811 -0.8118 -0.0123 -1.6407
 4740SOL    HW225680   2.520   1.557   4.816 -0.0091 -1.4512  0.0422
 4741SOL     OW25681   1.253   2.453   5.317  0.0726 -0.1614 -0.8170
 4741SOL    HW125682   1.189   2.494   5.375 -0.1417  2.4691 -2.9180
 4741SOL    HW225683   1.327   2.460   5.377 -2.0510  0.5071  1.7806
 4742SOL     OW25684   0.662   0.669   6.978  0.3942 -0.4697  0.5573
 4742SOL    HW125685   0.679   0.762   6.969 -1.7197 -0.1765 -0.3469
 4742SOL    HW225686   0.730   0.636   6.919 -0.7644 -0.9029 -0.5270
 4743SOL     OW25687   2.463   1.719   4.404 -0.7425 -0.3340 -0.1375
 4743SOL    HW125688   2.469   1.687   4.314  1.0223 -0.5625  0.0611
 4743SOL    HW225689   2.535   1.675   4.450 -0.7808 -0.9090 -0.6332
 4744SOL     OW25690   4.220   4.025   5.776 -0.5915 -0.0330 -0.0544
 4744SOL    HW125691   4.161   4.022   5.701  2.2711 -0.6665 -2.2705
 4744SOL    HW225692   4.215   3.933   5.803  1.1895  0.8276  3.1054
 4745SOL     OW25693   0.687   2.743   5.396 -0.6454  0.7934  0.1397
 4745SOL    HW125694   0.743   2.813   5.362 -0.5015  0.3679 -0.5001
 4745SOL    HW225695   0.739   2.723   5.474  1.1623  0.2836 -1.1931
 4746SOL     OW25696   4.555   4.586   1.321  0.6460  0.2894  0.3597
 4746SOL    HW125697   4.586   4.615   1.235 -0.9836  0.5526 -0.1293
 4746SOL    HW225698   4.629   4.607   1.378  0.1896 -1.2265  1.5071
 4747SOL     OW25699   1.061   3.716   0.853 -0.0047 -0.0613  0.4994
 4747SOL    HW125700   1.037   3.809   0.850 -0.2892 -0.1528  0.0529
 4747SOL    HW225701   1.060   3.679   0.765  0.8205 -0.8597  0.8265
 4748SOL     OW25702   4.672   2.784   9.920  0.1307 -0.3800  0.4103
 4748SOL    HW125703   4.697   2.839   9.994  0.3605  1.8569 -1.3307
 4748SOL    HW225704   4.601   2.829   9.874  1.3604  0.3155 -0.8227
 4749SOL     OW25705   3.238   0.984   4.732  0.2075 -0.5665 -0.1156
 4749SOL    HW125706   3.272   0.916   4.674  1.4911  0.3100 -0.4165
 4749SOL    HW225707   3.205   1.049   4.669 -0.1278 -1.5647 -0.9597
 4750SOL     OW25708   1.193   2.511   3.859  0.5449  0.5388  0.5070
 4750SOL    HW125709   1.245   2.446   3.812 -0.8442  1.9602 -3.0181
 4750SOL    HW225710   1.125   2.454   3.895  1.1266 -1.0064 -0.8163
 4751SOL     OW25711   0.515   2.552   1.674 -0.2252  0.2169  0.2928
 4751SOL    HW125712   0.428   2.565   1.712 -0.0446  0.9014  0.4801
 4751SOL    HW225713   0.546   2.472   1.715  0.2119  0.4040  0.3245
 4752SOL     OW25714   3.309   2.646   0.196  0.1793 -0.0411 -0.6382
 4752SOL    HW125715   3.400   2.623   0.216  0.4903  0.8120 -1.0878
 4752SOL    HW225716   3.290   2.568   0.143 -1.7172  0.6688 -0.9965
 4753SOL     OW25717   1.797   0.458  16.067 -0.0111 -0.1576 -0.1956
 4753SOL    HW125718   1.837   0.424  16.148  0.5451 -1.2451 -0.9198
 4753SOL    HW225719   1.781   0.374  16.025  3.5759 -0.8479 -0.2502
 4754SOL     OW25720   1.747   1.225   2.679  0.0426 -0.0491 -0.0426
 4754SOL    HW125721   1.688   1.190   2.612  0.6264 -0.3499 -0.4050
 4754SOL    HW225722   1.809   1.276   2.626 -0.7783  0.4550 -0.5168
 4755SOL     OW25723   2.483   2.979   8.591 -0.2086 -0.0689 -0.3896
 4755SOL    HW125724   2.513   3.069   8.585  1.9407 -0.6203  2.0246
 4755SOL    HW225725   2.501   2.936   8.507 -0.0325 -1.8137  0.5248
 4756SOL     OW25726   1.007   1.174  15.415 -0.5831  0.1888 -0.0520
 4756SOL    HW125727   1.064   1.175  15.492 -0.2577  0.0905 -0.2941
 4756SOL    HW225728   0.980   1.083  15.420 -4.7835  1.3861 -0.4549
 4757SOL     OW25729   1.984   1.747   7.926 -0.4600  0.5271 -0.6625
 4757SOL    HW125730   1.909   1.778   7.875  0.1535  0.6443 -1.4967
 4757SOL    HW225731   1.949   1.659   7.942  2.0540 -0.5916 -1.4388
 4758SOL     OW25732   0.908   3.491   8.011 -0.9346 -0.5642  0.2146
 4758SOL    HW125733   0.925   3.436   8.088 -2.6462  0.6189  1.4278
 4758SOL    HW225734   0.871   3.430   7.948  2.0480 -2.0824 -0.0687
 4759SOL     OW25735   4.228   1.095   6.290 -0.1128 -0.0692 -0.5424
 4759SOL    HW125736   4.196   1.146   6.365 -0.7236 -0.4135 -0.5694
 4759SOL    HW225737   4.281   1.164   6.250  0.6978 -0.6679 -0.4925
 4760SOL     OW25738   4.037   0.462  16.529  0.4425 -0.4486 -0.2040
 4760SOL    HW125739   4.058   0.544  16.484 -1.8030 -1.4749 -3.1173
 4760SOL    HW225740   3.943   0.467  16.516  0.6277  1.1990 -1.0013
 4761SOL     OW25741   0.703   4.214   3.009 -0.4660  0.3309  0.5521
 4761SOL    HW125742   0.680   4.305   2.989 -0.5230 -0.2033 -1.8765
 4761SOL    HW225743   0.792   4.210   2.973 -0.0705 -1.3955  1.7100
 4762SOL     OW25744   0.788   0.175   4.501 -0.1469  0.2352 -0.4419
 4762SOL    HW125745   0.699   0.144   4.518  0.8830 -1.2997  2.2792
 4762SOL    HW225746   0.786   0.265   4.533  0.7657  0.2242 -0.3449
 4763SOL     OW25747   0.585   2.297   9.108 -0.2277 -1.0629 -0.2422
 4763SOL    HW125748   0.654   2.323   9.169 -1.2830 -0.6120  0.7482
 4763SOL    HW225749   0.506   2.286   9.160 -0.8546  0.7101 -0.8046
 4764SOL     OW25750   2.749   3.655  17.540 -0.4126 -0.8302 -0.0933
 4764SOL    HW125751   2.701   3.578  17.510 -0.0944 -1.8523  2.0032
 4764SOL    HW225752   2.676   3.706  17.574  0.4246  0.1987  0.1943
 4765SOL     OW25753   2.638   4.477  11.640  0.3446 -0.0097 -0.7440
 4765SOL    HW125754   2.702   4.536  11.601 -0.1349  1.6983  1.0444
 4765SOL    HW225755   2.556   4.526  11.653 -0.7002 -1.8801 -0.2281
 4766SOL     OW25756   4.039   4.154   8.076 -0.4852  0.8658  0.4066
 4766SOL    HW125757   4.048   4.250   8.072 -0.5034  0.7751 -2.1726
 4766SOL    HW225758   4.026   4.157   8.170  0.0348  1.1097  0.4760
 4767SOL     OW25759   1.041   3.354   3.960  0.2506  0.3345 -0.1460
 4767SOL    HW125760   0.997   3.362   3.875  1.4848  0.6224 -0.7628
 4767SOL    HW225761   1.030   3.444   3.992 -1.9110  0.2608 -0.7068
 4768SOL     OW25762   0.220   4.045   2.142 -0.3733 -0.3159 -0.1809
 4768SOL    HW125763   0.133   4.022   2.110 -0.1684 -0.3358 -0.7153
 4768SOL    HW225764   0.238   4.133   2.112 -2.7870 -0.0474 -0.8506
 4769SOL     OW25765   2.208   2.213   3.807 -0.3809 -0.1165 -0.7512
 4769SOL    HW125766   2.126   2.236   3.763 -0.0270  1.8839 -0.3491
 4769SOL    HW225767   2.218   2.269   3.884 -1.7340  1.1121 -1.4778
 4770SOL     OW25768   1.675   3.799   7.207 -0.7112 -0.0292  0.0469
 4770SOL    HW125769   1.595   3.764   7.246 -0.3852 -0.5937  0.2074
 4770SOL    HW225770   1.740   3.782   7.276  0.0668  1.4039 -0.3161
 4771SOL     OW25771   2.243   4.038   2.493 -0.5069  0.1971 -0.3605
 4771SOL    HW125772   2.193   4.112   2.459  0.2882  2.0830  2.5417
 4771SOL    HW225773   2.323   4.050   2.444  0.3732 -0.3799  0.9140
 4772SOL     OW25774   1.053   4.046   6.806  0.3966  0.3646  0.4970
 4772SOL    HW125775   1.129   3.999   6.839 -0.6063 -0.6507  1.3352
 4772SOL    HW225776   1.102   4.115   6.760  1.7955 -1.4347 -0.6795
 4773SOL     OW25777   2.905   1.271  15.686 -0.4340  0.5699 -0.4915
 4773SOL    HW125778   2.814   1.280  15.656 -0.7263 -0.8285 -0.0391
 4773SOL    HW225779   2.937   1.344  15.634  3.0368  0.2581  1.2098
 4774SOL     OW25780   2.996   2.512  17.096 -0.3253  0.2193 -0.0195
 4774SOL    HW125781   3.061   2.569  17.053  0.2223 -2.1134 -2.2455
 4774SOL    HW225782   2.918   2.566  17.110  0.4059  1.4253 -0.5516
 4775SOL     OW25783   2.285   3.625  17.508  0.1269  0.1121  0.0637
 4775SOL    HW125784   2.350   3.682  17.550 -0.8657  0.6592  0.8521
 4775SOL    HW225785   2.218   3.621  17.576 -1.3592  2.9805 -1.2040
 4776SOL     OW25786   3.155   1.710   2.110  0.6799 -0.5463  0.7202
 4776SOL    HW125787   3.199   1.791   2.081 -1.4142  0.2880 -0.1295
 4776SOL    HW225788   3.112   1.745   2.188  0.5893  0.4216  0.2437
 4777SOL     OW25789   0.669   0.809   5.357 -0.2538 -0.1688  0.3032
 4777SOL    HW125790   0.668   0.822   5.452  0.9618  0.3429  0.2525
 4777SOL    HW225791   0.762   0.796   5.337 -0.0634  0.8144  0.5433
 4778SOL     OW25792   3.421   3.070   2.146 -0.1542 -0.5241  0.0706
 4778SOL    HW125793   3.420   2.977   2.124 -0.1098 -0.3697 -0.5788
 4778SOL    HW225794   3.329   3.081   2.168 -0.0289 -1.6310  1.1232
 4779SOL     OW25795   3.523   3.034  10.928  0.2895 -0.2878 -0.1629
 4779SOL    HW125796   3.501   2.985  11.007  0.4649  1.8248  1.1833
 4779SOL    HW225797   3.607   2.997  10.902  0.2236 -1.0428  0.7043
 4780SOL     OW25798   0.806   3.913   0.369 -0.0714  0.2374 -0.5868
 4780SOL    HW125799   0.864   3.881   0.300 -0.1324 -0.8315 -0.1483
 4780SOL    HW225800   0.828   3.850   0.438 -0.6065 -0.6601 -1.2377
 4781SOL     OW25801   4.505   3.090   6.802 -0.0949 -0.1959  0.3099
 4781SOL    HW125802   4.478   3.181   6.817 -0.0018 -0.1963  0.4777
 4781SOL    HW225803   4.552   3.099   6.719  1.5543 -0.5427  1.2300
 4782SOL     OW25804   1.033   2.274  11.128  0.2396 -0.0200  0.0825
 4782SOL    HW125805   0.938   2.288  11.131  0.1682 -0.7634  1.0325
 4782SOL    HW225806   1.038   2.212  11.055  2.1321  0.6930 -0.4047
 4783SOL     OW25807   3.127   4.157   6.642 -0.1835 -1.1515 -0.0275
 4783SOL    HW125808   3.143   4.106   6.721 -0.4079  0.1864  0.8785
 4783SOL    HW225809   3.083   4.089   6.590 -1.4309  1.5814 -2.5062
 4784SOL     OW25810   3.410   0.291   2.715  0.4482 -0.3568 -0.0135
 4784SOL    HW125811   3.394   0.319   2.625 -0.5471  1.0254  0.6129
 4784SOL    HW225812   3.491   0.245   2.691  0.9912  0.6935 -0.1768
 4785SOL     OW25813   1.285   0.237   4.394 -0.4169 -0.1997  0.9661
 4785SOL    HW125814   1.241   0.213   4.313 -0.9289 -0.4735  1.3249
 4785SOL    HW225815   1.363   0.185   4.375 -2.0555 -0.3861 -5.2510
 4786SOL     OW25816   2.750   4.709   9.486  0.5974 -0.1937  0.1452
 4786SOL    HW125817   2.820   4.718   9.421  1.3224  1.9312  1.2092
 4786SOL    HW225818   2.706   0.067   9.460 -0.7526 -0.6151  1.1553
 4787SOL     OW25819   2.101   0.026  14.533  0.4015  0.4648  0.3701
 4787SOL    HW125820   2.162   4.691  14.578 -1.0854 -0.7541  0.8135
 4787SOL    HW225821   2.019   4.701  14.532 -0.3747  1.8159 -2.0535
 4788SOL     OW25822   3.921   4.447   6.371  0.6137  0.1549 -0.6743
 4788SOL    HW125823   3.894   4.414   6.286 -0.2046  0.8364 -0.6825
 4788SOL    HW225824   3.901   4.370   6.425  1.4152 -1.6527 -2.9602
 4789SOL     OW25825   4.349   2.693   7.086  0.2690 -0.3931 -0.4341
 4789SOL    HW125826   4.396   2.731   7.012 -1.7865 -1.0780 -2.0856
 4789SOL    HW225827   4.334   2.607   7.046 -0.1986 -0.3228 -0.4123
 4790SOL     OW25828   1.120   3.576   4.307  0.4394 -0.4733 -0.2254
 4790SOL    HW125829   1.180   3.554   4.378 -0.0447  0.5957  0.5115
 4790SOL    HW225830   1.179   3.624   4.250 -0.8203 -0.1945 -1.2977
 4791SOL     OW25831   1.277   3.920   6.880 -0.1712  0.1651 -0.3777
 4791SOL    HW125832   1.357   3.902   6.832  0.6496 -1.0775  1.4225
 4791SOL    HW225833   1.316   3.893   6.964  0.1040  0.5099 -0.3971
 4792SOL     OW25834   3.138   1.511   3.675 -0.5275 -0.3537  0.8484
 4792SOL    HW125835   3.044   1.522   3.661 -0.0590  2.0739 -0.3485
 4792SOL    HW225836   3.175   1.570   3.609  1.1962 -0.3485  1.8335
 4793SOL     OW25837   4.533   1.302   9.156 -0.3608 -0.5237  0.3682
 4793SOL    HW125838   4.452   1.352   9.150 -0.7202 -1.3346 -1.4745
 4793SOL    HW225839   4.509   1.242   9.227  0.7792 -1.7120 -0.2298
 4794SOL     OW25840   1.132   4.265  13.630  0.4874  0.1153  0.7516
 4794SOL    HW125841   1.073   4.189  13.630  1.2508 -0.4772  1.6682
 4794SOL    HW225842   1.098   4.308  13.552 -0.3720 -0.8667  0.5813
 4795SOL     OW25843   2.263   0.229   2.563 -0.1354 -0.2861  0.1145
 4795SOL    HW125844   2.331   0.285   2.525  0.4819 -0.8052  0.4587
 4795SOL    HW225845   2.302   0.142   2.556  2.5638  1.1297 -2.1169
 4796SOL     OW25846   1.360   3.851  11.422  0.3118  0.4774  0.1036
 4796SOL    HW125847   1.346   3.769  11.470 -1.3157  1.3055  1.0560
 4796SOL    HW225848   1.293   3.905  11.464 -1.6135  0.7395 -3.3560
 4797SOL     OW25849   3.698   3.140   9.828  0.2946 -0.5075 -0.2182
 4797SOL    HW125850   3.662   3.069   9.881 -0.0871  0.0913  0.3290
 4797SOL    HW225851   3.627   3.143   9.764  0.8782 -1.7682 -0.9328
 4798SOL     OW25852   2.295   3.905   7.638  0.1283 -0.2754  0.5587
 4798SOL    HW125853   2.382   3.945   7.628 -0.9617  1.7213 -1.0179
 4798SOL    HW225854   2.312   3.814   7.611 -0.2174 -0.7297  1.8689
 4799SOL     OW25855   3.373   2.921  16.973 -0.8417 -0.4875 -0.1380
 4799SOL    HW125856   3.372   2.898  16.880  1.0864  0.8809 -0.5056
 4799SOL    HW225857   3.340   2.841  17.013 -0.2157 -0.5228  0.3041
 4800SOL     OW25858   1.967   0.913  16.704  0.6575 -0.1763 -0.3505
 4800SOL    HW125859   1.934   0.823  16.703 -0.0480  0.1090 -2.1110
 4800SOL    HW225860   1.930   0.937  16.619  0.5857  0.4829 -0.1377
 4801SOL     OW25861   1.596   0.619   9.255  0.0327 -0.3820  0.2950
 4801SOL    HW125862   1.583   0.598   9.347 -1.4702 -1.7287 -0.2136
 4801SOL    HW225863   1.560   0.549   9.200 -0.8758 -0.3364  0.8358
 4802SOL     OW25864   3.785   1.994  15.815  0.1345  0.3677  0.1216
 4802SOL    HW125865   3.727   2.055  15.861  0.4864  0.1398  0.8682
 4802SOL    HW225866   3.746   2.015  15.730 -0.1754  0.8687  0.3887
 4803SOL     OW25867   1.480   4.221   3.718 -0.0958 -0.7057  0.2995
 4803SOL    HW125868   1.570   4.231   3.688 -1.2933  2.9042 -2.0962
 4803SOL    HW225869   1.437   4.201   3.634  0.1139 -0.9179  0.2431
 4804SOL     OW25870   3.743   0.492  16.494  0.1943  0.1781 -0.5788
 4804SOL    HW125871   3.676   0.560  16.490  0.1113  0.1491  0.4418
 4804SOL    HW225872   3.736   0.468  16.401  0.1094 -1.2859 -0.1874
 4805SOL     OW25873   1.740   2.329  13.531 -0.2200 -0.1979 -0.5137
 4805SOL    HW125874   1.740   2.346  13.625  0.1939 -1.5110 -0.2828
 4805SOL    HW225875   1.807   2.261  13.526  0.2364  0.2187 -0.1180
 4806SOL     OW25876   1.164   4.387   1.090 -0.4829 -0.0717 -0.0238
 4806SOL    HW125877   1.225   4.438   1.037 -1.0576 -1.1583 -1.7169
 4806SOL    HW225878   1.100   4.457   1.101 -0.9388 -0.5306  0.2384
 4807SOL     OW25879   1.890   3.736  11.016 -0.5268 -0.4306 -0.0169
 4807SOL    HW125880   1.937   3.797  11.074  0.6304 -0.7263 -0.6417
 4807SOL    HW225881   1.847   3.681  11.081 -2.5671  0.5690 -0.5381
 4808SOL     OW25882   4.599   0.159  16.539 -0.2533 -0.1718  0.0234
 4808SOL    HW125883   4.607   0.117  16.453 -1.9776 -0.5240  0.0453
 4808SOL    HW225884   4.567   0.095  16.602 -1.4090  0.1918 -0.1966
 4809SOL     OW25885   0.016   3.262   4.489 -0.4668 -0.4333 -0.0481
 4809SOL    HW125886   0.024   3.289   4.581 -2.2728  1.1345 -0.3281
 4809SOL    HW225887   0.050   3.335   4.437 -1.7952 -0.6605 -1.2505
 4810SOL     OW25888   4.080   4.055   3.679  0.2420 -0.1011  0.2878
 4810SOL    HW125889   3.993   4.049   3.717 -0.1952  0.6256 -0.6003
 4810SOL    HW225890   4.124   4.116   3.739  0.4067 -0.3990  0.4723
 4811SOL     OW25891   3.805   2.724   3.798  0.1335  0.1465  0.3243
 4811SOL    HW125892   3.826   2.657   3.733 -3.3057  0.2241 -0.8686
 4811SOL    HW225893   3.807   2.798   3.737 -1.6838  0.2048  0.3299
 4812SOL     OW25894   2.980   1.808   7.020 -0.0508 -0.3476  0.0153
 4812SOL    HW125895   3.057   1.832   6.968 -0.7657 -0.8087 -1.2742
 4812SOL    HW225896   2.976   1.713   7.012  1.6492 -0.0434 -4.7405
 4813SOL     OW25897   4.542   2.437   5.279  0.2299 -0.1813 -0.0198
 4813SOL    HW125898   4.508   2.348   5.268  1.6900 -1.0944  2.6046
 4813SOL    HW225899   4.615   2.416   5.338  1.6518 -1.0035 -2.0883
 4814SOL     OW25900   2.724   3.019   0.728  0.0421  0.8504  0.6047
 4814SOL    HW125901   2.707   2.926   0.737 -1.7394  1.1856  0.7379
 4814SOL    HW225902   2.782   3.009   0.653  1.7830 -0.5680  2.1150
 4815SOL     OW25903   1.870   1.806  15.465  0.2847 -0.0911  0.1771
 4815SOL    HW125904   1.872   1.712  15.448  1.3840 -0.4613  2.4369
 4815SOL    HW225905   1.799   1.833  15.407 -0.9543  1.3779  2.3845
 4816SOL     OW25906   3.991   2.557   9.174 -0.7958  0.1144  0.3023
 4816SOL    HW125907   3.946   2.482   9.212  0.1861 -0.6559 -0.0740
 4816SOL    HW225908   4.072   2.556   9.223 -0.1837 -2.3575 -0.7903
 4817SOL     OW25909   2.252   0.477   5.736 -0.1927 -0.6079 -0.2859
 4817SOL    HW125910   2.197   0.556   5.732 -0.4107 -0.8293 -1.5533
 4817SOL    HW225911   2.315   0.503   5.670  0.5198 -1.3140  0.1210
 4818SOL     OW25912   3.565   4.673   5.664 -0.3741  0.4129 -0.3308
 4818SOL    HW125913   3.577   0.002   5.744 -0.0438  0.1009 -0.1757
 4818SOL    HW225914   3.473   4.647   5.677  0.7643 -2.8049  1.4437
 4819SOL     OW25915   3.266   0.134  13.558 -0.3932  0.1914  0.1945
 4819SOL    HW125916   3.174   0.118  13.535  0.2330 -2.9861 -0.1299
 4819SOL    HW225917   3.276   0.221  13.518  1.6278  0.7923  2.0146
 4820SOL     OW25918   0.070   3.088   4.192  0.1411 -0.3677  0.4359
 4820SOL    HW125919   0.040   2.998   4.197 -0.6454 -0.0966  0.7426
 4820SOL    HW225920   0.164   3.075   4.202 -0.2569 -3.1636  0.3591
 4821SOL     OW25921   2.932   3.503   1.959  0.5842  0.2204 -0.1312
 4821SOL    HW125922   2.986   3.443   1.907 -0.8159  0.6995 -2.1051
 4821SOL    HW225923   2.972   3.588   1.946 -2.4633  1.5892 -0.6297
 4822SOL     OW25924   3.091   1.254  13.198  0.3119  0.1502  0.1868
 4822SOL    HW125925   2.997   1.237  13.191  0.2143 -0.3000  2.3761
 4822SOL    HW225926   3.092   1.291  13.287  1.1111  2.2044 -0.6729
 4823SOL     OW25927   1.282   0.293   7.770  0.1799  0.2553 -0.3626
 4823SOL    HW125928   1.294   0.204   7.801  1.4226  0.0445 -1.4047
 4823SOL    HW225929   1.321   0.343   7.842  0.4114 -0.3214 -0.0942
 4824SOL     OW25930   3.789   4.714   8.257  0.0448 -0.0834  0.7680
 4824SOL    HW125931   3.875   0.007   8.218 -1.3851  0.8045 -2.0148
 4824SOL    HW225932   3.737   4.678   8.186  2.9435 -1.9838 -0.3921
 4825SOL     OW25933   3.156   4.311   3.568 -0.4248 -0.0812 -0.1801
 4825SOL    HW125934   3.173   4.335   3.659 -1.2566 -0.5076  0.0818
 4825SOL    HW225935   3.214   4.237   3.552  0.0021  0.0029  0.9972
 4826SOL     OW25936   3.571   0.403   8.530  0.7428 -0.2145  0.2934
 4826SOL    HW125937   3.526   0.341   8.587  1.5573  0.8337  2.0822
 4826SOL    HW225938   3.603   0.340   8.466 -1.0525 -0.4762 -0.3568
 4827SOL     OW25939   1.839   3.133  16.705 -0.7718 -0.2419  0.0844
 4827SOL    HW125940   1.879   3.205  16.752  0.0917 -2.0377  2.1151
 4827SOL    HW225941   1.916   3.122  16.649 -0.5112 -3.5727  1.1017
 4828SOL     OW25942   1.149   1.931   6.823  0.2587  0.2512 -0.0456
 4828SOL    HW125943   1.101   1.853   6.794 -1.2766  0.6623  1.3542
 4828SOL    HW225944   1.128   1.983   6.746 -0.6203 -2.5096 -1.6695
 4829SOL     OW25945   1.254   2.122   3.402 -0.0205 -0.1193  0.3597
 4829SOL    HW125946   1.341   2.156   3.379 -1.0931  0.9132 -2.0859
 4829SOL    HW225947   1.238   2.072   3.322 -0.3313  0.7198 -0.1014
 4830SOL     OW25948   0.543   0.183  14.255 -0.4100  0.1480 -0.5712
 4830SOL    HW125949   0.471   0.244  14.273 -0.3023 -0.1058  0.6782
 4830SOL    HW225950   0.565   0.226  14.172  0.7198 -0.1668 -0.4305
 4831SOL     OW25951   3.430   2.551  14.776  0.3922 -0.3395  0.4297
 4831SOL    HW125952   3.514   2.554  14.731 -0.0648 -0.2111 -0.4131
 4831SOL    HW225953   3.382   2.629  14.749  1.2190 -0.6566 -1.9273
 4832SOL     OW25954   2.663   1.631   0.124  0.3563 -0.0159 -0.3896
 4832SOL    HW125955   2.686   1.549   0.168  0.9502 -0.1619 -0.9669
 4832SOL    HW225956   2.662   1.611   0.030  0.3528  1.3336 -0.6724
 4833SOL     OW25957   3.585   0.754   3.289 -0.3386  0.4443 -0.4569
 4833SOL    HW125958   3.620   0.684   3.234  0.3614 -0.4642  1.1755
 4833SOL    HW225959   3.668   0.768   3.334  0.3334 -0.1063 -1.5363
 4834SOL     OW25960   1.165   4.208   4.373 -0.4485 -0.0286 -0.0426
 4834SOL    HW125961   1.233   4.161   4.421 -2.0700 -1.1651  1.1772
 4834SOL    HW225962   1.169   4.286   4.428  1.8652  1.3577 -2.1979
 4835SOL     OW25963   1.983   0.054   6.412 -0.0700 -0.2803  0.1139
 4835SOL    HW125964   1.913   0.042   6.476 -0.7304 -0.6632 -0.6840
 4835SOL    HW225965   1.961   4.719   6.339  0.5126  2.6563 -2.4182
 4836SOL     OW25966   0.546   1.302   8.792  0.4816 -0.0522  0.9194
 4836SOL    HW125967   0.543   1.386   8.747 -2.8053 -0.1002  0.9952
 4836SOL    HW225968   0.633   1.279   8.760 -1.3824 -4.6465 -0.9159
 4837SOL     OW25969   3.494   1.966  16.900  0.0279 -0.0697  0.6513
 4837SOL    HW125970   3.549   1.894  16.932 -1.5748 -0.5656  2.2886
 4837SOL    HW225971   3.554   2.014  16.842 -1.9158  2.8787  1.0948
 4838SOL     OW25972   2.703   3.772   3.086  0.3591  0.1707 -0.4209
 4838SOL    HW125973   2.742   3.854   3.056 -1.1936  1.1146  0.1237
 4838SOL    HW225974   2.666   3.806   3.168  2.9346 -0.5005  1.0087
 4839SOL     OW25975   4.431   0.781   2.239  0.3229  0.4586  0.3894
 4839SOL    HW125976   4.390   0.825   2.164 -0.6063 -0.6513  0.2406
 4839SOL    HW225977   4.350   0.739   2.267  0.7491 -1.4715 -1.2651
 4840SOL     OW25978   2.576   0.690   1.760  0.3230 -0.1267 -0.0034
 4840SOL    HW125979   2.591   0.639   1.840  1.3967  1.0888  0.5765
 4840SOL    HW225980   2.485   0.674   1.737  0.5686  1.4298 -2.0237
 4841SOL     OW25981   2.427   4.240   9.177  0.7216 -0.1470  0.2745
 4841SOL    HW125982   2.490   4.308   9.202 -0.3202  0.4557  1.2564
 4841SOL    HW225983   2.411   4.196   9.261  0.6890  0.1065  0.4001
 4842SOL     OW25984   4.291   0.822   8.887  0.3488  0.1834  0.0554
 4842SOL    HW125985   4.343   0.902   8.885 -0.7205  0.8076 -3.3416
 4842SOL    HW225986   4.244   0.823   8.970 -0.3560 -2.7482 -0.2878
 4843SOL     OW25987   2.179   2.071   3.314  0.7601 -0.3188  0.0389
 4843SOL    HW125988   2.260   2.055   3.266  2.2173  2.3044  1.6503
 4843SOL    HW225989   2.213   2.050   3.401 -1.3946 -2.0562  0.4593
 4844SOL     OW25990   4.301   1.523   5.838  0.3315  0.3050  0.6403
 4844SOL    HW125991   4.312   1.578   5.916 -0.0353 -0.0966  0.9700
 4844SOL    HW225992   4.262   1.443   5.873 -2.0578  1.5653  0.8713
 4845SOL     OW25993   0.752   0.022   1.370 -0.4922 -0.2576  0.0740
 4845SOL    HW125994   0.658   0.015   1.388 -0.8690 -0.8875 -2.1378
 4845SOL    HW225995   0.745   0.037   1.276  0.2967 -0.0459  0.0570
 4846SOL     OW25996   1.799   3.269   4.616  1.0690  0.0590 -0.5081
 4846SOL    HW125997   1.823   3.209   4.545 -0.6338 -1.9675  0.6079
 4846SOL    HW225998   1.717   3.226   4.642  0.6682 -0.0584 -1.9412
 4847SOL     OW25999   0.152   1.971   7.939  0.2874 -0.1480  0.1480
 4847SOL    HW126000   0.228   1.977   7.880  0.3333  2.4558  0.4745
 4847SOL    HW226001   0.197   1.988   8.022 -1.9432  0.1432  1.2879
 4848SOL     OW26002   0.885   2.295  16.086  0.0958 -0.4056 -0.3325
 4848SOL    HW126003   0.862   2.387  16.090  2.5150  0.3272 -3.8709
 4848SOL    HW226004   0.943   2.285  16.011 -1.1402  1.4821 -1.5238
 4849SOL     OW26005   2.752   2.447   1.568  0.8904 -0.0588  0.5576
 4849SOL    HW126006   2.780   2.379   1.629 -0.7997 -2.5586 -1.4228
 4849SOL    HW226007   2.702   2.494   1.635 -2.2348 -0.7720 -1.2876
 4850SOL     OW26008   0.954   4.561  11.116  0.0839 -0.4524 -0.0007
 4850SOL    HW126009   0.859   4.554  11.110  0.2731 -2.9003 -0.4765
 4850SOL    HW226010   0.966   4.474  11.155  0.5865 -0.7065 -0.7104
 4851SOL     OW26011   2.643   2.795   2.370  0.5961 -0.3780 -0.4174
 4851SOL    HW126012   2.622   2.879   2.328  0.7849  0.2058  0.6525
 4851SOL    HW226013   2.628   2.810   2.463  0.2581  0.1660 -0.5543
 4852SOL     OW26014   0.026   2.869   6.345  0.5416 -0.1323 -0.1736
 4852SOL    HW126015   4.674   2.815   6.371 -0.0241  0.2273 -1.0570
 4852SOL    HW226016   0.006   2.875   6.252 -3.7358 -0.2810  0.7139
 4853SOL     OW26017   2.395   0.543   3.190 -0.1006 -0.1375 -0.4203
 4853SOL    HW126018   2.417   0.636   3.187 -0.6154 -0.0050 -0.1001
 4853SOL    HW226019   2.456   0.511   3.257 -0.8984  0.1823  0.4546
 4854SOL     OW26020   0.403   2.830   5.354 -0.9028 -0.1451 -1.0284
 4854SOL    HW126021   0.493   2.797   5.350 -1.6663 -2.3983  0.1298
 4854SOL    HW226022   0.419   2.922   5.377 -2.2239 -0.6148  1.6858
 4855SOL     OW26023   1.420   4.626   6.078 -0.1805 -0.0523  1.0049
 4855SOL    HW126024   1.358   4.554   6.070 -0.0677 -0.0804  0.4074
 4855SOL    HW226025   1.373   4.704   6.109 -0.1114  0.6291 -0.6200
 4856SOL     OW26026   4.430   1.093   9.327 -0.0090  0.4615  0.0083
 4856SOL    HW126027   4.392   1.138   9.402 -0.9878  0.1027 -0.2672
 4856SOL    HW226028   4.449   1.014   9.378  0.1504  1.4580  1.4860
 4857SOL     OW26029   3.199   1.329  14.856  0.3396  0.1335  0.2531
 4857SOL    HW126030   3.272   1.281  14.816 -0.6905 -0.9865 -0.2740
 4857SOL    HW226031   3.132   1.260  14.863  1.3773 -0.9980 -0.9559
 4858SOL     OW26032   0.456   0.333  10.488 -0.0020 -0.2192  0.2585
 4858SOL    HW126033   0.511   0.273  10.437  0.6343  0.4206  0.1879
 4858SOL    HW226034   0.521   0.397  10.519 -0.1738  0.6052 -1.0428
 4859SOL     OW26035   3.469   1.065   2.491 -0.6612  0.2845  0.0925
 4859SOL    HW126036   3.410   1.058   2.416 -1.1426  0.1559  0.4855
 4859SOL    HW226037   3.523   0.988   2.471  1.0728  1.3501  0.6590
 4860SOL     OW26038   2.283   2.120   6.375  0.3212 -0.0056 -0.0615
 4860SOL    HW126039   2.260   2.211   6.396 -0.5375 -0.0461 -0.8126
 4860SOL    HW226040   2.244   2.103   6.289  0.4327  0.2762 -0.1669
 4861SOL     OW26041   3.564   3.214  16.363  0.4610  0.0416 -0.4192
 4861SOL    HW126042   3.598   3.125  16.351  2.8202  0.9638 -0.5041
 4861SOL    HW226043   3.476   3.188  16.392  0.9892 -0.5771  0.6411
 4862SOL     OW26044   3.730   2.619   9.434 -0.5745  0.2290 -0.2714
 4862SOL    HW126045   3.647   2.572   9.444 -0.8723  1.0601  1.1624
 4862SOL    HW226046   3.770   2.581   9.355 -0.2918 -2.2495  1.0784
 4863SOL     OW26047   3.572   0.241  15.116 -0.2516 -0.2044 -0.2538
 4863SOL    HW126048   3.597   0.180  15.186 -1.2467  1.5974  1.6865
 4863SOL    HW226049   3.506   0.298  15.155  0.2352  0.8027 -0.8909
 4864SOL     OW26050   0.237   4.179   2.753  0.2842 -0.0505  0.2428
 4864SOL    HW126051   0.212   4.157   2.663 -2.0497 -0.0187  0.8766
 4864SOL    HW226052   0.225   4.274   2.750  1.9466  0.0808 -2.2719
 4865SOL     OW26053   1.252   3.686   5.209 -0.1831 -0.1673  0.5211
 4865SOL    HW126054   1.189   3.620   5.239 -2.7276  1.7050 -0.7080
 4865SOL    HW226055   1.231   3.753   5.275  0.7078 -0.4314  1.0681
 4866SOL     OW26056   4.556   0.533  15.925  0.2315  0.2789  0.1353
 4866SOL    HW126057   4.509   0.459  15.962  2.8781 -1.9593 -0.9382
 4866SOL    HW226058   4.529   0.605  15.983 -0.1282 -0.5292  0.9683
 4867SOL     OW26059   0.102   1.666   8.431  0.9586  0.2504 -0.0972
 4867SOL    HW126060   0.084   1.575   8.410 -0.0573  0.5874 -0.7019
 4867SOL    HW226061   0.197   1.669   8.445  0.9286  0.0956  0.1384
 4868SOL     OW26062   2.576   2.840   3.348  0.3381 -0.0653 -0.6326
 4868SOL    HW126063   2.499   2.809   3.395 -0.5331  0.6868 -1.5529
 4868SOL    HW226064   2.592   2.908   3.413  1.4947 -0.0913 -0.8926
 4869SOL     OW26065   2.577   0.776   1.409 -0.1642  0.2533 -0.0673
 4869SOL    HW126066   2.487   0.807   1.417  0.2415  1.6182 -0.8090
 4869SOL    HW226067   2.568   0.697   1.357 -0.7215  0.1083  0.2450
 4870SOL     OW26068   0.845   0.474   6.393 -0.3048 -0.0515 -0.4240
 4870SOL    HW126069   0.780   0.446   6.457 -1.4210  0.1080 -1.4969
 4870SOL    HW226070   0.887   0.542   6.446  2.3115 -2.1032  0.1733
 4871SOL     OW26071   2.815   4.698   5.818  0.0638 -0.6449  0.3121
 4871SOL    HW126072   2.773   0.027   5.886  1.7429  1.8481 -0.5318
 4871SOL    HW226073   2.904   0.009   5.831 -0.4028  0.9148 -0.6548
 4872SOL     OW26074   2.516   2.772   7.818 -0.5917 -0.5209 -0.7077
 4872SOL    HW126075   2.438   2.813   7.855 -0.2718  0.1343 -0.7645
 4872SOL    HW226076   2.554   2.735   7.897 -1.8452 -0.4506 -0.0656
 4873SOL     OW26077   0.754   1.909  15.419  0.1321 -0.6934  0.5621
 4873SOL    HW126078   0.755   1.943  15.329 -0.3950 -0.2034  0.7434
 4873SOL    HW226079   0.718   1.982  15.469  3.4433  0.3041  1.5517
 4874SOL     OW26080   3.663   3.108   8.814  0.0372  0.1439  0.1309
 4874SOL    HW126081   3.638   3.089   8.724 -1.0129 -2.8682  1.0747
 4874SOL    HW226082   3.672   3.018   8.845 -0.5682  0.1360  0.2673
 4875SOL     OW26083   0.981   4.430   6.095  0.5018  0.1167  0.1726
 4875SOL    HW126084   0.971   4.427   6.000 -0.3239  1.4877  0.2206
 4875SOL    HW226085   0.890   4.428   6.125  0.4817 -1.2199  0.0153
 4876SOL     OW26086   2.621   0.398   3.061 -0.2555  0.0066 -0.3668
 4876SOL    HW126087   2.526   0.387   3.066 -0.1927 -0.0586  0.6512
 4876SOL    HW226088   2.655   0.328   3.117 -1.4676  1.3033  1.9854
 4877SOL     OW26089   1.696   4.453   4.694  0.1088 -0.0530  0.0434
 4877SOL    HW126090   1.665   4.387   4.632 -0.4857  0.4699 -0.2099
 4877SOL    HW226091   1.615   4.479   4.737  0.4630 -0.0978  0.7480
 4878SOL     OW26092   4.526   1.042   6.541 -0.7024 -0.4335 -0.2523
 4878SOL    HW126093   4.485   1.119   6.580 -0.0396 -0.8521  1.2739
 4878SOL    HW226094   4.586   1.026   6.614 -0.5522 -1.2643 -0.5617
 4879SOL     OW26095   3.566   0.937  15.997  0.4659  0.2214 -0.0086
 4879SOL    HW126096   3.593   0.973  15.912 -2.6829  1.3004 -0.5183
 4879SOL    HW226097   3.587   0.845  15.981 -0.7381 -0.2567  1.1914
 4880SOL     OW26098   3.430   0.058   7.581  0.1248  0.1990  0.0476
 4880SOL    HW126099   3.466   0.049   7.669  0.9021  2.4058 -0.0532
 4880SOL    HW226100   3.510   0.087   7.538  0.1726 -0.1968 -0.1337
 4881SOL     OW26101   2.121   3.228  10.233  0.5312 -0.1217  0.0567
 4881SOL    HW126102   2.035   3.186  10.239  0.6253 -0.1708  1.0211
 4881SOL    HW226103   2.133   3.246  10.139 -0.7638 -1.9055 -0.4346
 4882SOL     OW26104   2.643   0.362   5.731  0.0516  0.0997  0.0599
 4882SOL    HW126105   2.738   0.363   5.740  0.3206  0.1968 -3.0233
 4882SOL    HW226106   2.614   0.447   5.766  0.7109  0.3630 -0.0312
 4883SOL     OW26107   0.359   1.412   3.078  0.4289 -0.4938 -0.0846
 4883SOL    HW126108   0.442   1.439   3.119 -0.0087 -0.0224  0.4879
 4883SOL    HW226109   0.321   1.361   3.149 -2.2478 -1.7256 -2.4275
 4884SOL     OW26110   3.297   3.043   8.297 -0.2118 -0.0962 -0.4806
 4884SOL    HW126111   3.239   3.106   8.339  2.7115  0.8928  2.0265
 4884SOL    HW226112   3.310   2.967   8.354  0.6133 -0.6254 -1.3629
 4885SOL     OW26113   0.538   4.497   1.679 -0.0136  0.3381 -0.1827
 4885SOL    HW126114   0.588   4.555   1.622 -1.1763  0.8640 -0.6738
 4885SOL    HW226115   0.491   4.445   1.614 -0.6873  0.3414  0.3073
 4886SOL     OW26116   1.782   2.539   3.905 -0.6848 -0.0811 -0.3350
 4886SOL    HW126117   1.725   2.604   3.945  1.4360  1.6262 -0.1260
 4886SOL    HW226118   1.855   2.557   3.963 -1.2386  0.7722  0.0944
 4887SOL     OW26119   2.581   2.154  14.621  0.3199  0.5396 -0.0157
 4887SOL    HW126120   2.536   2.070  14.630 -0.5362  1.0171  0.1334
 4887SOL    HW226121   2.637   2.154  14.699 -0.0464 -1.1987  0.2506
 4888SOL     OW26122   3.977   3.752   6.086  0.1829  0.3750 -0.2570
 4888SOL    HW126123   3.928   3.764   6.168  1.8622  1.0275  0.6321
 4888SOL    HW226124   4.001   3.659   6.088  0.3077  0.4133 -0.0214
 4889SOL     OW26125   2.268   1.299   4.614 -0.0096 -0.0955 -0.7831
 4889SOL    HW126126   2.343   1.358   4.605  0.2473 -0.3891 -0.5524
 4889SOL    HW226127   2.295   1.254   4.694 -1.5991 -0.1837 -0.3025
 4890SOL     OW26128   2.007   4.467   1.089 -0.0134  0.1799 -0.0551
 4890SOL    HW126129   1.935   4.526   1.107 -0.6658  0.0718 -2.3127
 4890SOL    HW226130   2.035   4.509   1.007  0.5480 -0.2740 -0.0964
 4891SOL     OW26131   3.612   0.730   9.477  0.3060  0.0804 -0.1964
 4891SOL    HW126132   3.517   0.727   9.484  0.1298  1.5222 -1.9571
 4891SOL    HW226133   3.629   0.645   9.438 -0.4930 -1.2254  2.3139
 4892SOL     OW26134   4.259   1.544   7.748  0.4974 -0.0493  0.0938
 4892SOL    HW126135   4.204   1.581   7.679  0.6346 -3.0531 -1.6409
 4892SOL    HW226136   4.312   1.617   7.781  1.3088 -0.7258  0.2973
 4893SOL     OW26137   2.267   0.629   6.159 -0.3006  0.7859  0.3281
 4893SOL    HW126138   2.220   0.605   6.079  1.0242 -1.8430  0.3502
 4893SOL    HW226139   2.225   0.571   6.222 -0.5745 -0.1344 -0.7013
 4894SOL     OW26140   4.355   1.381   2.105  0.5436 -0.6729  0.1361
 4894SOL    HW126141   4.283   1.427   2.061 -0.2670 -2.8272 -0.7906
 4894SOL    HW226142   4.422   1.381   2.037  0.5499  0.1709  0.1428
 4895SOL     OW26143   1.151   0.081   6.737  0.1106 -0.3390  0.1766
 4895SOL    HW126144   1.092   0.154   6.760 -0.1768 -0.7247  0.6901
 4895SOL    HW226145   1.191   0.047   6.817  0.9906 -1.2193 -0.6535
 4896SOL     OW26146   3.416   3.916  12.838  0.0668 -0.2097 -1.0106
 4896SOL    HW126147   3.424   3.931  12.932  2.5403  0.2994 -1.3026
 4896SOL    HW226148   3.504   3.947  12.816  1.2855 -2.0043  1.3332
 4897SOL     OW26149   1.867   0.146   6.905 -0.3572 -0.0786  0.5401
 4897SOL    HW126150   1.956   0.169   6.934  0.6809 -0.5253 -2.3418
 4897SOL    HW226151   1.888   0.065   6.860 -0.9292  0.3338 -0.4502
 4898SOL     OW26152   2.251   4.206   4.152 -0.4179  0.3323  0.2225
 4898SOL    HW126153   2.184   4.139   4.164  0.5711 -0.4974  1.0074
 4898SOL    HW226154   2.205   4.280   4.192 -1.7036 -1.1316  1.4769
 4899SOL     OW26155   2.768   3.368   4.944 -0.1381  0.5191 -0.1951
 4899SOL    HW126156   2.798   3.453   4.911 -0.4709  0.2174 -1.2616
 4899SOL    HW226157   2.695   3.345   4.887 -0.6344  0.5436  0.4331
 4900SOL     OW26158   0.789   0.874   6.587  0.7236  0.0816  0.1481
 4900SOL    HW126159   0.884   0.871   6.594  0.5734  0.3793  2.3643
 4900SOL    HW226160   0.777   0.967   6.605 -0.0536  0.1873 -0.9293
 4901SOL     OW26161   2.622   4.108   6.004 -0.2779 -0.7673  0.0070
 4901SOL    HW126162   2.647   4.063   6.085  0.0340 -0.4946  0.0609
 4901SOL    HW226163   2.699   4.088   5.950 -1.2242  0.5889 -1.8337
 4902SOL     OW26164   2.826   2.154   6.448 -0.2091 -0.5235 -0.1833
 4902SOL    HW126165   2.733   2.133   6.451 -0.4443  0.8542  2.0346
 4902SOL    HW226166   2.814   2.248   6.441  1.2021 -0.3029  0.4597
 4903SOL     OW26167   2.359   1.942   4.259  0.2378 -0.0608 -0.0282
 4903SOL    HW126168   2.426   1.963   4.195  1.1430 -0.4786  0.7835
 4903SOL    HW226169   2.383   1.854   4.287  3.0961  1.3942  1.9926
 4904SOL     OW26170   4.404   0.072   9.060 -0.1533  0.2845 -0.2941
 4904SOL    HW126171   4.399   0.163   9.031 -3.8712 -0.9279 -3.4639
 4904SOL    HW226172   4.453   0.069   9.142 -2.0882 -0.5771  0.8324
 4905SOL     OW26173   2.797   0.256  11.707  0.4726 -0.2736  0.0384
 4905SOL    HW126174   2.802   0.177  11.759 -2.4202  0.5920  1.6364
 4905SOL    HW226175   2.851   0.312  11.764 -0.9095 -0.2237  1.2819
 4906SOL     OW26176   3.694   4.647   5.058 -0.1730 -0.3266 -0.2528
 4906SOL    HW126177   3.655   4.628   5.144 -1.4710  0.1509 -0.7401
 4906SOL    HW226178   3.697   0.019   5.058  2.4483 -0.4227 -1.3152
 4907SOL     OW26179   1.441   3.784   2.530 -0.1920  0.1527 -0.3042
 4907SOL    HW126180   1.382   3.831   2.471  1.5192  1.0857 -1.2779
 4907SOL    HW226181   1.426   3.692   2.512  0.3648  0.2256 -1.1715
 4908SOL     OW26182   2.609   0.533   3.403  0.6392 -0.1695 -0.1622
 4908SOL    HW126183   2.601   0.619   3.444  0.8555 -0.3750  0.3114
 4908SOL    HW226184   2.539   0.488   3.450 -0.3357  1.0509 -0.4567
 4909SOL     OW26185   2.290   4.562   9.535  0.1576  0.6594  0.4286
 4909SOL    HW126186   2.385   4.553   9.534  0.2136  1.3378  0.0034
 4909SOL    HW226187   2.283   4.653   9.508 -1.9849  1.1908  2.8483
 4910SOL     OW26188   3.542   2.020   9.781 -0.3982  0.1263 -0.7024
 4910SOL    HW126189   3.561   1.960   9.709  1.9118  2.0100 -1.6493
 4910SOL    HW226190   3.516   1.954   9.846 -1.4614 -0.9736 -2.2159
 4911SOL     OW26191   2.165   4.123   5.797 -0.3273 -0.4438 -0.3410
 4911SOL    HW126192   2.103   4.099   5.866 -0.0767 -1.3989 -0.4442
 4911SOL    HW226193   2.247   4.146   5.841 -0.5697  2.3566 -1.3370
 4912SOL     OW26194   1.960   3.816   6.754 -0.6057 -0.0549  0.6074
 4912SOL    HW126195   1.915   3.868   6.688  1.0518 -0.0068 -0.4954
 4912SOL    HW226196   1.933   3.869   6.829 -0.9397 -1.6713  1.6447
 4913SOL     OW26197   3.661   2.441   0.948  0.1006 -0.6455  0.0940
 4913SOL    HW126198   3.742   2.399   0.921  0.4093  0.6655 -1.0359
 4913SOL    HW226199   3.621   2.468   0.865  1.3919 -3.3066 -1.3782
 4914SOL     OW26200   3.920   3.282   9.858 -0.0729  0.3340 -0.5391
 4914SOL    HW126201   3.899   3.287   9.765 -2.2533 -1.2472 -0.1295
 4914SOL    HW226202   3.853   3.219   9.884  0.2980 -0.1274 -0.7222
 4915SOL     OW26203   3.056   4.574  12.471  0.2169 -0.1129  0.0778
 4915SOL    HW126204   2.974   4.528  12.452  1.3741 -1.7835 -0.9214
 4915SOL    HW226205   3.081   4.578  12.379  2.9149  1.7856  0.8994
 4916SOL     OW26206   3.256   4.618  12.655 -0.1999 -0.0479  0.1573
 4916SOL    HW126207   3.205   4.658  12.726 -0.2687  0.7932 -0.3614
 4916SOL    HW226208   3.191   4.605  12.585 -0.2329 -4.3055  1.0200
 4917SOL     OW26209   3.861   3.696   4.131 -0.0967 -0.0400  0.1713
 4917SOL    HW126210   3.847   3.677   4.038 -0.7218  1.8157 -0.1181
 4917SOL    HW226211   3.770   3.687   4.157  0.4905 -1.8940  1.6131
 4918SOL     OW26212   1.352   2.450   8.495 -0.2623 -0.1910 -0.0226
 4918SOL    HW126213   1.404   2.527   8.516 -3.2728  1.9777 -0.6497
 4918SOL    HW226214   1.287   2.485   8.434  0.9658  0.5804 -0.8833
 4919SOL     OW26215   4.397   1.026   7.109  0.7876 -0.4032  0.1532
 4919SOL    HW126216   4.327   1.078   7.150  0.2698  0.0925 -1.3470
 4919SOL    HW226217   4.470   1.086   7.127  1.7565 -1.2669 -0.8950
 4920SOL     OW26218   2.361   4.058   1.464 -0.1649 -0.0219 -0.3384
 4920SOL    HW126219   2.382   4.138   1.511  0.1007  0.5321 -1.4093
 4920SOL    HW226220   2.270   4.051   1.494 -0.6301 -0.6720 -1.9214
 4921SOL     OW26221   3.518   0.491   4.198 -0.2381 -0.2464 -0.2851
 4921SOL    HW126222   3.605   0.511   4.232  0.5971 -1.1182 -1.8832
 4921SOL    HW226223   3.492   0.581   4.180  2.0275  0.7539  1.4657
 4922SOL     OW26224   0.495   0.556   6.032 -0.0896  0.1777  0.0221
 4922SOL    HW126225   0.456   0.475   5.998 -1.7103 -0.5719  3.6052
 4922SOL    HW226226   0.513   0.533   6.123  2.6954  0.4498 -0.4813
 4923SOL     OW26227   4.170   2.797  12.508 -0.1096  0.3322  0.0765
 4923SOL    HW126228   4.206   2.863  12.567  0.1628  1.1962 -1.0562
 4923SOL    HW226229   4.236   2.727  12.509 -0.0878  0.3532  0.1305
 4924SOL     OW26230   1.356   2.615  12.158  0.3584  0.0189 -0.4339
 4924SOL    HW126231   1.428   2.579  12.107  0.4334  1.5280 -1.3920
 4924SOL    HW226232   1.337   2.546  12.222 -1.9287  0.2513 -0.8861
 4925SOL     OW26233   1.422   0.020   9.923 -0.0612  0.4720 -0.0994
 4925SOL    HW126234   1.380   4.659   9.912 -0.7730  0.9517 -1.1078
 4925SOL    HW226235   1.444   0.036   9.831 -0.7002  1.2713 -0.1138
 4926SOL     OW26236   4.600   4.604  17.541 -0.3914  0.3414  0.3760
 4926SOL    HW126237   4.555   4.627  17.460 -3.5121 -0.1370  1.9703
 4926SOL    HW226238   4.567   4.519  17.570 -0.3082 -0.7332 -2.6441
 4927SOL     OW26239   4.044   1.854  14.662  0.0356  0.2368  0.3765
 4927SOL    HW126240   4.098   1.798  14.717 -1.3081 -0.4704  0.9969
 4927SOL    HW226241   3.964   1.854  14.716  2.0893  0.2423  3.3913
 4928SOL     OW26242   4.260   1.907  13.096 -0.3080  0.5201 -0.0356
 4928SOL    HW126243   4.284   1.814  13.094 -2.0343 -0.0307  4.3481
 4928SOL    HW226244   4.243   1.913  13.190  0.2867  0.8501  0.0513
 4929SOL     OW26245   4.085   2.479   2.665 -0.1663 -0.1697  0.1115
 4929SOL    HW126246   4.083   2.544   2.595 -2.3056 -0.3859 -0.0326
 4929SOL    HW226247   4.034   2.524   2.733 -2.4765 -2.7174  0.0779
 4930SOL     OW26248   2.910   0.691   4.910 -0.0940 -0.5049 -0.1134
 4930SOL    HW126249   2.948   0.697   4.822  2.1369  3.0724  1.0659
 4930SOL    HW226250   2.956   0.613   4.940  1.6302 -0.3640 -2.3000
 4931SOL     OW26251   1.810   2.025  17.032  0.6668 -0.6370  0.1708
 4931SOL    HW126252   1.872   2.081  16.985 -0.1611  0.8766  0.8624
 4931SOL    HW226253   1.837   1.937  17.007  0.8867  0.1217 -2.2563
 4932SOL     OW26254   2.338   2.618   9.297 -0.0164  0.2308  0.2037
 4932SOL    HW126255   2.296   2.618   9.383  1.6547  0.3303  1.0347
 4932SOL    HW226256   2.397   2.542   9.299 -0.7671 -0.4810 -4.0111
 4933SOL     OW26257   1.375   0.675   8.718  0.5673 -0.6131  0.0383
 4933SOL    HW126258   1.444   0.737   8.743  0.3913 -0.8156  1.0341
 4933SOL    HW226259   1.387   0.664   8.624 -0.6154 -1.0659 -0.0565
 4934SOL     OW26260   1.128   1.522   2.894  0.1304  0.9378  0.8979
 4934SOL    HW126261   1.086   1.593   2.847 -3.0364 -0.8421  1.0896
 4934SOL    HW226262   1.063   1.456   2.874  3.2434 -1.5166 -1.1389
 4935SOL     OW26263   2.443   0.137  16.708  0.0065 -0.1685  0.6364
 4935SOL    HW126264   2.426   0.150  16.615 -1.3262  0.1645  0.9277
 4935SOL    HW226265   2.473   0.046  16.707  1.1616  0.2245  0.1863
 4936SOL     OW26266   0.689   0.187  14.817  0.1401 -0.0857  0.6114
 4936SOL    HW126267   0.718   0.166  14.728 -1.5182 -0.5194  0.1725
 4936SOL    HW226268   0.702   0.281  14.826  3.1432 -0.3201 -1.3154
 4937SOL     OW26269   3.720   0.315   7.779  0.1579 -0.2777 -0.0466
 4937SOL    HW126270   3.689   0.364   7.855 -0.5269 -1.3266  0.3428
 4937SOL    HW226271   3.674   0.232   7.781 -1.2069  0.4208 -1.9239
 4938SOL     OW26272   1.661   2.764   2.683 -0.0775 -0.3309 -0.3961
 4938SOL    HW126273   1.623   2.849   2.708 -1.5870 -0.9446 -0.6218
 4938SOL    HW226274   1.665   2.707   2.760 -0.4434  0.9360  0.5662
 4939SOL     OW26275   0.016   3.324   6.511  0.3902 -0.3554 -0.7896
 4939SOL    HW126276   0.053   3.240   6.539  1.1858 -0.1773 -1.3100
 4939SOL    HW226277   0.089   3.383   6.491 -0.8330  1.0523 -1.1379
 4940SOL     OW26278   1.256   1.011  15.239 -0.5460  0.4987  0.1597
 4940SOL    HW126279   1.205   0.989  15.161 -0.7573 -0.5572  0.5977
 4940SOL    HW226280   1.291   0.925  15.265  0.8690  0.3735 -2.1297
 4941SOL     OW26281   1.225   0.258   4.093 -0.5470 -0.1750  0.4145
 4941SOL    HW126282   1.195   0.307   4.016  0.5933 -0.0533  0.0480
 4941SOL    HW226283   1.140   0.254   4.138 -0.0398 -1.4703  1.2394
 4942SOL     OW26284   4.583   1.510   9.715 -0.6140  0.5501  0.2224
 4942SOL    HW126285   4.570   1.600   9.744 -3.9350 -0.4669  1.9374
 4942SOL    HW226286   4.575   1.521   9.620 -0.2923  0.3161  0.1670
 4943SOL     OW26287   4.547   3.904   2.317 -0.1398 -0.0887  0.2648
 4943SOL    HW126288   4.527   3.866   2.232  0.0381 -1.7077  0.9441
 4943SOL    HW226289   4.464   3.925   2.359  0.5834  2.1139  0.6014
 4944SOL     OW26290   3.159   2.843   3.803 -0.3918  0.2578 -0.1280
 4944SOL    HW126291   3.195   2.803   3.882 -0.0077 -0.0272 -0.4506
 4944SOL    HW226292   3.238   2.828   3.751 -0.0673 -0.1262  0.4788
 4945SOL     OW26293   4.123   2.543   6.821  0.2032  0.4308  0.6508
 4945SOL    HW126294   4.194   2.506   6.873 -0.0584 -0.7418  0.1605
 4945SOL    HW226295   4.148   2.635   6.814  1.2291  0.3283  2.9100
 4946SOL     OW26296   3.195   4.268   4.062  0.6876  0.2391  0.1591
 4946SOL    HW126297   3.127   4.226   4.009 -0.3309  1.0379  0.8455
 4946SOL    HW226298   3.219   4.190   4.112  1.3423  0.7487  0.6485
 4947SOL     OW26299   4.155   3.307   2.906 -0.0164 -0.0349 -0.3684
 4947SOL    HW126300   4.167   3.230   2.961  0.2052 -0.0223 -0.3985
 4947SOL    HW226301   4.160   3.276   2.816 -0.3845 -0.6115 -0.1852
 4948SOL     OW26302   2.002   0.847   3.596 -0.1623  0.1572 -0.2660
 4948SOL    HW126303   1.963   0.823   3.512  0.7915 -0.6833 -0.4611
 4948SOL    HW226304   2.079   0.791   3.598 -0.5347 -0.3648 -0.4466
 4949SOL     OW26305   3.612   1.761  10.441 -0.0853  0.1588 -0.0120
 4949SOL    HW126306   3.533   1.764  10.495 -0.2134  1.7075 -0.2696
 4949SOL    HW226307   3.640   1.853  10.446  1.4871 -0.3857  0.8296
 4950SOL     OW26308   1.477   1.372  10.776 -0.0760 -0.5096  0.1302
 4950SOL    HW126309   1.483   1.294  10.719 -0.4827 -0.8377  0.5357
 4950SOL    HW226310   1.557   1.413  10.741  0.2140 -2.2764 -1.3040
 4951SOL     OW26311   1.025   4.076   2.719 -0.3772 -0.5178  0.0501
 4951SOL    HW126312   1.061   3.988   2.732  2.9126  0.9183  0.5850
 4951SOL    HW226313   1.093   4.110   2.661 -0.7975  2.8398  1.5697
 4952SOL     OW26314   1.205   0.954   7.474  0.2774  0.4768  0.1762
 4952SOL    HW126315   1.210   1.006   7.554 -0.6844 -2.4026  2.0652
 4952SOL    HW226316   1.291   0.974   7.436  0.2150 -0.5467 -0.4885
 4953SOL     OW26317   4.355   1.780   7.073 -0.0283 -0.5949  0.3343
 4953SOL    HW126318   4.361   1.845   7.002  0.3073 -1.2441 -0.2269
 4953SOL    HW226319   4.303   1.715   7.026  1.2927 -2.3531  1.3309
 4954SOL     OW26320   2.006   0.952   6.196  0.3906  0.3249 -0.2651
 4954SOL    HW126321   1.971   1.022   6.142 -1.2873  0.3593  0.8638
 4954SOL    HW226322   2.093   0.989   6.208 -0.3437  2.8849 -2.8966
 4955SOL     OW26323   2.820   2.125   2.393 -0.0112  0.3453 -0.3670
 4955SOL    HW126324   2.863   2.160   2.315  2.4247  0.4133  1.0023
 4955SOL    HW226325   2.897   2.116   2.450  1.1583  0.8819 -1.8565
 4956SOL     OW26326   0.449   0.716  14.850 -0.5720  0.1209 -0.4204
 4956SOL    HW126327   0.361   0.681  14.862  0.4865 -2.1030  0.8898
 4956SOL    HW226328   0.454   0.741  14.942 -0.1257  1.6578 -0.8533
 4957SOL     OW26329   3.611   1.830   0.271  0.2003 -0.1446 -0.4862
 4957SOL    HW126330   3.681   1.844   0.336 -1.3202  2.2399  0.6468
 4957SOL    HW226331   3.561   1.765   0.319 -0.1716  0.2655 -0.3180
 4958SOL     OW26332   2.338   3.524   5.702 -0.2404  0.0482  0.2739
 4958SOL    HW126333   2.313   3.601   5.752 -0.4338  0.5586 -0.5949
 4958SOL    HW226334   2.389   3.477   5.767 -0.8178 -0.4038  0.3910
 4959SOL     OW26335   2.777   0.609   3.061 -0.1071 -0.3055  0.1415
 4959SOL    HW126336   2.765   0.639   3.151 -1.1461  1.2368 -0.5126
 4959SOL    HW226337   2.712   0.538   3.056 -0.5699  0.1127  0.1924
 4960SOL     OW26338   1.822   3.563   7.564 -0.0814  0.2575  0.2672
 4960SOL    HW126339   1.901   3.577   7.615 -0.8421  0.9758  1.2619
 4960SOL    HW226340   1.759   3.557   7.636 -0.6263  1.0906 -0.1463
 4961SOL     OW26341   1.274   2.685   2.501 -0.1800  0.2020  0.2897
 4961SOL    HW126342   1.298   2.602   2.460 -1.6749  0.0881 -0.3739
 4961SOL    HW226343   1.250   2.660   2.590  0.7346 -1.1808  0.1538
 4962SOL     OW26344   4.561   0.055   1.098  0.3931 -0.6023  0.1273
 4962SOL    HW126345   4.561   0.121   1.168 -2.3059 -0.7574  0.2657
 4962SOL    HW226346   4.481   0.006   1.115  0.4326 -1.2531 -1.5622
 4963SOL     OW26347   1.754   0.572  17.506  0.4034  0.3681 -0.3365
 4963SOL    HW126348   1.818   0.527  17.560  0.8119 -1.1527 -2.1056
 4963SOL    HW226349   1.783   0.663  17.515  1.4581 -0.0534  0.6089
 4964SOL     OW26350   2.599   2.565   4.577 -0.1773  0.2679  0.1449
 4964SOL    HW126351   2.694   2.553   4.575 -0.0070  1.5889 -0.2306
 4964SOL    HW226352   2.592   2.656   4.606 -0.5889  0.0425  0.7519
 4965SOL     OW26353   0.212   4.095  10.176  0.0571 -0.1118 -0.3465
 4965SOL    HW126354   0.286   4.087  10.237 -0.4875 -0.9131  0.2004
 4965SOL    HW226355   0.174   4.180  10.199 -0.1087 -0.7755  1.8642
 4966SOL     OW26356   4.547   2.901   5.953 -0.0516  0.4023  0.0164
 4966SOL    HW126357   4.560   2.993   5.930  1.1566  1.1183  3.5875
 4966SOL    HW226358   4.532   2.859   5.869  1.6751  0.6756 -0.4243
 4967SOL     OW26359   2.679   1.468   7.407  0.6328 -0.5598 -0.3240
 4967SOL    HW126360   2.641   1.530   7.468  0.8342 -0.0015 -0.7639
 4967SOL    HW226361   2.689   1.520   7.327  2.2599 -0.7368 -0.2286
 4968SOL     OW26362   4.381   0.131   7.756  0.4059  0.0695 -0.0047
 4968SOL    HW126363   4.305   0.161   7.805  0.7351 -0.4964  0.8512
 4968SOL    HW226364   4.433   0.212   7.747  1.2389 -0.4439  0.1793
 4969SOL     OW26365   1.820   1.147  17.210  0.5471 -0.2940 -0.1790
 4969SOL    HW126366   1.876   1.142  17.133  0.2186  0.4883 -0.4647
 4969SOL    HW226367   1.745   1.188  17.168  0.2510  1.3523  1.9555
 4970SOL     OW26368   2.527   2.642   9.065  0.0345 -0.6350  0.4084
 4970SOL    HW126369   2.464   2.685   9.007 -0.2146 -1.8441 -0.2106
 4970SOL    HW226370   2.458   2.622   9.128 -0.8450 -0.7007 -0.5863
 4971SOL     OW26371   4.127   0.446   2.115  0.5253 -0.4334  0.6726
 4971SOL    HW126372   4.148   0.463   2.023 -0.1442 -0.0657  0.5928
 4971SOL    HW226373   4.103   0.532   2.151  2.3253 -0.9294  3.0979
 4972SOL     OW26374   4.573   2.936   9.050  1.0605 -0.5779 -0.1210
 4972SOL    HW126375   4.584   2.868   9.116 -0.6430 -0.6737  0.0665
 4972SOL    HW226376   4.620   3.012   9.085 -0.5350  0.3347  0.0177
 4973SOL     OW26377   1.828   2.146   4.100  0.1394 -0.1381 -0.5404
 4973SOL    HW126378   1.924   2.140   4.097  0.1700 -0.2303  0.7360
 4973SOL    HW226379   1.815   2.209   4.029  3.6487  2.6757  1.2643
 4974SOL     OW26380   2.383   3.252   6.891  0.6125  0.9777  0.0504
 4974SOL    HW126381   2.297   3.287   6.912 -0.1584 -0.0541 -1.3750
 4974SOL    HW226382   2.371   3.157   6.883 -2.4481  1.5976 -2.7960
 4975SOL     OW26383   2.821   1.599   9.134 -0.2265  0.4936  0.1044
 4975SOL    HW126384   2.880   1.601   9.058 -0.7037  0.4661 -0.2678
 4975SOL    HW226385   2.734   1.574   9.103  0.0608 -0.0814 -0.2388
 4976SOL     OW26386   4.456   4.704   8.774  0.1221  0.4444  0.2836
 4976SOL    HW126387   4.527   0.018   8.721 -0.2812  0.5144 -0.2131
 4976SOL    HW226388   4.451   0.009   8.865 -1.0188  2.0889 -0.2877
 4977SOL     OW26389   0.008   0.961   3.671 -0.1752  0.7825  0.2344
 4977SOL    HW126390   0.052   0.884   3.634  2.1767  1.5125  1.4530
 4977SOL    HW226391   0.083   1.010   3.706 -0.1499  1.0840 -0.2415
 4978SOL     OW26392   3.256   0.700   3.136  0.2656  0.1655  0.0378
 4978SOL    HW126393   3.177   0.693   3.082 -0.1628 -0.5864  0.7692
 4978SOL    HW226394   3.317   0.749   3.080 -0.8415  2.2108  0.6285
 4979SOL     OW26395   3.265   3.371  10.015 -0.1090 -0.4608 -0.5911
 4979SOL    HW126396   3.303   3.416   9.940  1.4093  1.5860  1.3849
 4979SOL    HW226397   3.180   3.335   9.990 -0.5918 -0.7782  1.4816
 4980SOL     OW26398   2.776   0.937  14.651  0.4262 -0.4332 -0.6229
 4980SOL    HW126399   2.867   0.911  14.662  0.4490  0.1798  0.6925
 4980SOL    HW226400   2.746   0.853  14.687 -1.8883  0.4087 -0.5549
 4981SOL     OW26401   2.509   0.181  14.225  0.0581  0.7322  0.2591
 4981SOL    HW126402   2.600   0.199  14.202  0.2665 -0.2762  0.2963
 4981SOL    HW226403   2.494   0.090  14.199 -1.9142  1.8731 -2.6626
 4982SOL     OW26404   1.644   4.638   5.132 -0.3596  0.0349  0.1509
 4982SOL    HW126405   1.699   4.716   5.136 -0.4934  0.2591 -2.0454
 4982SOL    HW226406   1.668   4.595   5.214  0.8713  1.5249  0.5685
 4983SOL     OW26407   2.208   0.441  14.295 -0.6026  0.1837 -0.5142
 4983SOL    HW126408   2.176   0.463  14.208  0.5020  0.1063 -0.9415
 4983SOL    HW226409   2.129   0.410  14.339 -0.3329 -1.4877 -1.1997
 4984SOL     OW26410   1.107   3.252   5.507 -0.1467 -0.0039 -0.5647
 4984SOL    HW126411   1.182   3.308   5.488 -1.5674  1.6341 -1.3399
 4984SOL    HW226412   1.100   3.198   5.428  2.4275  0.8262 -1.3486
 4985SOL     OW26413   4.069   1.515  13.679 -0.0103 -0.8598  0.5649
 4985SOL    HW126414   4.076   1.447  13.745 -1.9500 -1.7897 -0.2048
 4985SOL    HW226415   4.069   1.595  13.731  0.1047  1.3077 -2.7426
 4986SOL     OW26416   2.732   2.124   5.082  0.6685  0.7223 -0.0573
 4986SOL    HW126417   2.770   2.050   5.035 -2.0595  0.5536 -2.0251
 4986SOL    HW226418   2.780   2.117   5.164 -0.3005  2.0649  0.6224
 4987SOL     OW26419   3.751   0.831  10.873 -0.0256 -0.5838 -0.2029
 4987SOL    HW126420   3.788   0.750  10.908 -1.5237 -1.3111 -0.3339
 4987SOL    HW226421   3.826   0.867  10.825  0.4179 -1.1203  0.0899
 4988SOL     OW26422   1.124   0.469   6.117  0.2468  0.4438  0.0781
 4988SOL    HW126423   1.141   0.411   6.043  1.4494  0.1855  0.5496
 4988SOL    HW226424   1.048   0.428   6.159  1.1002 -0.2332  0.9567
 4989SOL     OW26425   0.061   4.489   7.067  0.2822  0.2952  0.0209
 4989SOL    HW126426   0.024   4.463   6.982  0.0438 -0.3442  0.3229
 4989SOL    HW226427   0.087   4.403   7.099 -0.7832  0.5393  1.5072
 4990SOL     OW26428   2.235   0.444   8.110  0.0380  0.1059  0.0812
 4990SOL    HW126429   2.185   0.412   8.185  0.5743 -2.6058 -0.7140
 4990SOL    HW226430   2.200   0.384   8.045  1.2051  0.6229 -1.0319
 4991SOL     OW26431   0.109   1.462   2.214  0.0410  0.2524 -0.1980
 4991SOL    HW126432   0.075   1.546   2.183  0.6039  0.1872 -0.9675
 4991SOL    HW226433   0.075   1.457   2.304 -0.7616  1.9651 -0.4224
 4992SOL     OW26434   3.444   4.399   6.615  0.3978 -0.1679  0.0842
 4992SOL    HW126435   3.468   4.309   6.593 -0.4653 -0.0679 -1.2628
 4992SOL    HW226436   3.403   4.380   6.699 -0.5888  1.7761  0.0570
 4993SOL     OW26437   2.733   4.629  12.125  0.1950 -0.3268  0.4956
 4993SOL    HW126438   2.758   4.549  12.078  1.3671  0.3411 -0.0385
 4993SOL    HW226439   2.720   4.597  12.214  0.7477  0.4731  0.8740
 4994SOL     OW26440   3.807   2.496   1.975 -0.6113 -0.0157  0.4743
 4994SOL    HW126441   3.840   2.536   2.056 -0.1512 -1.5822  1.0500
 4994SOL    HW226442   3.725   2.453   1.999  0.5572 -1.5540  1.7163
 4995SOL     OW26443   1.890   3.573   2.236  0.2858  0.2691 -0.2418
 4995SOL    HW126444   1.954   3.510   2.202  1.1539  0.5870  0.7911
 4995SOL    HW226445   1.833   3.509   2.279 -1.3762  2.0246  0.1651
 4996SOL     OW26446   0.039   2.610   7.285  0.0953 -0.2278  0.2567
 4996SOL    HW126447   0.076   2.683   7.234 -0.5907  0.2433  0.4431
 4996SOL    HW226448   4.682   2.642   7.326 -0.3416 -2.0337  0.7829
 4997SOL     OW26449   1.732   3.756   4.658  0.2027 -0.2486  0.0723
 4997SOL    HW126450   1.776   3.675   4.683 -0.3427 -1.4734 -2.9190
 4997SOL    HW226451   1.743   3.809   4.737  3.1404  3.2060 -2.5941
 4998SOL     OW26452   3.708   0.559   3.120  0.2610 -0.2339 -0.3266
 4998SOL    HW126453   3.636   0.516   3.074 -0.7251 -0.3678  1.3242
 4998SOL    HW226454   3.721   0.496   3.191  2.2674  1.1741  0.5681
 4999SOL     OW26455   4.538   2.397   7.111 -0.1762 -0.0137 -0.2010
 4999SOL    HW126456   4.568   2.458   7.178 -0.1857  0.4960 -0.6597
 4999SOL    HW226457   4.594   2.322   7.132 -0.7101  0.4108  2.7709
 5000SOL     OW26458   1.338   4.453   0.519 -0.2032  0.0002  0.2688
 5000SOL    HW126459   1.339   4.437   0.425 -1.7850 -0.5904  0.3544
 5000SOL    HW226460   1.404   4.389   0.547  1.5289  1.1988 -1.1238
 5001SOL     OW26461   4.110   1.612  10.324 -0.2583  0.4744  0.1726
 5001SOL    HW126462   4.064   1.539  10.283 -0.1717  0.7989 -0.4988
 5001SOL    HW226463   4.191   1.562  10.330 -0.8066 -0.3548  0.6541
 5002SOL     OW26464   4.574   4.677   7.686 -0.7533 -0.1891  0.1002
 5002SOL    HW126465   4.566   4.705   7.595  0.6850  1.1383  0.3909
 5002SOL    HW226466   4.523   0.022   7.729 -1.3276 -1.0425  0.7724
 5003SOL     OW26467   2.246   2.629   4.206  0.1506 -0.1374  0.8040
 5003SOL    HW126468   2.297   2.652   4.127 -1.3625 -1.1561 -0.4647
 5003SOL    HW226469   2.273   2.538   4.216 -1.0664 -0.4677  1.0242
 5004SOL     OW26470   3.283   0.096  15.177  0.1185 -0.1870 -0.1842
 5004SOL    HW126471   3.266   0.188  15.155 -1.8880  0.1518  2.6962
 5004SOL    HW226472   3.376   0.102  15.155  0.7519  2.8121  3.3254
 5005SOL     OW26473   0.290   1.582  14.318 -0.2411 -0.6457  0.2278
 5005SOL    HW126474   0.207   1.628  14.324  0.1768  0.2576 -0.7858
 5005SOL    HW226475   0.323   1.625  14.239  0.8230 -1.0028  0.4793
 5006SOL     OW26476   3.296   4.079   3.454  0.2926 -0.2746  0.0427
 5006SOL    HW126477   3.390   4.075   3.472  0.4755 -0.3798 -0.9642
 5006SOL    HW226478   3.272   3.990   3.478  3.5363 -1.4431 -1.1403
 5007SOL     OW26479   3.191   0.430   3.821  0.7308  0.7764  0.2467
 5007SOL    HW126480   3.144   0.356   3.859  1.2637  0.0451 -0.5167
 5007SOL    HW226481   3.155   0.505   3.868 -0.4517  2.0081 -2.5956
 5008SOL     OW26482   1.383   3.574   1.974 -0.3972 -0.1517  0.0400
 5008SOL    HW126483   1.357   3.639   2.039  0.3506  1.1709 -0.9883
 5008SOL    HW226484   1.332   3.498   2.003  2.1172 -1.6131  0.6489
 5009SOL     OW26485   0.087   3.696   1.546  0.1921  0.7786 -0.5658
 5009SOL    HW126486   0.098   3.757   1.474  0.5730 -0.5612 -1.6499
 5009SOL    HW226487   0.027   3.627   1.517  0.3836  0.1139  0.5765
 5010SOL     OW26488   3.597   0.770   0.624 -0.1637  0.1455 -0.2159
 5010SOL    HW126489   3.597   0.864   0.643 -0.0453 -0.2348  1.6556
 5010SOL    HW226490   3.562   0.742   0.709 -0.8669  0.6922 -0.3309
 5011SOL     OW26491   1.605   3.068   4.748  0.6491  0.3426  0.4029
 5011SOL    HW126492   1.627   2.977   4.731 -1.2744  0.0362 -0.4160
 5011SOL    HW226493   1.611   3.080   4.843  0.1763 -0.5647  0.5472
 5012SOL     OW26494   1.548   3.969  17.407 -0.1944 -0.3374 -0.4902
 5012SOL    HW126495   1.505   3.883  17.403 -0.4635 -0.2009 -0.5493
 5012SOL    HW226496   1.470   4.021  17.386 -1.0669 -1.7156 -0.6932
 5013SOL     OW26497   2.091   3.358   6.448  0.1184  0.3124  0.6487
 5013SOL    HW126498   2.094   3.357   6.352 -0.0911 -0.1767  0.6488
 5013SOL    HW226499   2.021   3.420   6.468 -1.3215 -1.4919  1.2302
 5014SOL     OW26500   0.853   0.665   8.308  0.1380 -0.2262  0.0266
 5014SOL    HW126501   0.765   0.642   8.339 -0.8542  2.4056 -0.8883
 5014SOL    HW226502   0.852   0.618   8.225 -1.6959 -0.6604  0.2963
 5015SOL     OW26503   3.320   3.344   2.057  0.1215 -0.4232 -0.0425
 5015SOL    HW126504   3.321   3.400   2.134 -1.7307  1.2638 -1.2541
 5015SOL    HW226505   3.410   3.343   2.024  0.1723  0.8065  0.0661
 5016SOL     OW26506   0.091   4.355   1.372 -0.0586 -0.0562 -0.1813
 5016SOL    HW126507   0.010   4.342   1.421 -0.2142 -1.0684 -0.7080
 5016SOL    HW226508   0.047   4.339   1.288 -0.8827 -1.4230  0.5010
 5017SOL     OW26509   4.560   0.690   2.455 -0.7092 -0.0030 -0.7185
 5017SOL    HW126510   4.624   0.655   2.393  0.8340  0.9731  0.3224
 5017SOL    HW226511   4.484   0.701   2.399 -0.6892  2.2813 -0.2954
 5018SOL     OW26512   1.315   4.408   8.690  0.0925  0.3766 -0.0638
 5018SOL    HW126513   1.255   4.394   8.763  1.4291 -1.6998  0.6292
 5018SOL    HW226514   1.261   4.369   8.621  0.1275  2.0305 -1.0360
 5019SOL     OW26515   2.046   2.749   9.585  0.1845  0.2288  0.3106
 5019SOL    HW126516   2.109   2.678   9.598  0.5288  0.6706  1.0607
 5019SOL    HW226517   2.037   2.782   9.675  1.1098  3.1556 -0.6631
 5020SOL     OW26518   0.278   2.574   1.765  0.3968  0.3594  0.1610
 5020SOL    HW126519   0.229   2.652   1.739  1.6241  1.2328  0.4539
 5020SOL    HW226520   0.224   2.530   1.830  0.3738 -0.0157 -0.1142
 5021SOL     OW26521   1.973   0.608   0.761  0.4798 -0.7526 -0.0268
 5021SOL    HW126522   1.992   0.514   0.766 -1.1489 -1.1088 -0.7321
 5021SOL    HW226523   2.051   0.647   0.801  1.1748 -0.0853 -2.0094
 5022SOL     OW26524   4.150   0.797   3.305 -0.1910 -1.0227  0.0029
 5022SOL    HW126525   4.244   0.814   3.320 -0.2904 -0.2542 -0.2429
 5022SOL    HW226526   4.119   0.880   3.341 -0.5472 -0.4723 -1.5408
 5023SOL     OW26527   1.023   0.169  15.682 -0.4334  0.7066 -0.4102
 5023SOL    HW126528   1.086   0.225  15.637 -0.1416  0.3695 -0.4258
 5023SOL    HW226529   0.969   0.145  15.606  1.2837  0.0010 -1.4072
 5024SOL     OW26530   3.294   4.440   2.934  0.5473 -0.0426  0.2014
 5024SOL    HW126531   3.358   4.508   2.955 -0.4704  0.9404  0.1315
 5024SOL    HW226532   3.301   4.395   3.018 -1.3492 -0.1729  0.2961
 5025SOL     OW26533   1.893   3.491   4.177  0.2158 -0.2200  0.4368
 5025SOL    HW126534   1.870   3.400   4.195  1.5210 -0.4782  0.8314
 5025SOL    HW226535   1.817   3.535   4.140  0.8398 -0.1736 -0.8039
 5026SOL     OW26536   3.386   3.398   3.534  0.2944 -0.4738  0.7535
 5026SOL    HW126537   3.458   3.354   3.578  0.9999 -1.6927 -1.6412
 5026SOL    HW226538   3.309   3.356   3.574  1.2943 -2.5128  0.5176
 5027SOL     OW26539   1.555   3.345   1.579  0.3518 -0.4288 -0.6868
 5027SOL    HW126540   1.650   3.358   1.590 -0.0187  0.9137  0.8730
 5027SOL    HW226541   1.538   3.332   1.672 -0.4655 -1.0791 -0.9229
 5028SOL     OW26542   1.177   4.605   6.277 -0.2586  0.0683 -0.0133
 5028SOL    HW126543   1.116   4.622   6.204 -2.6466  0.2804  2.0235
 5028SOL    HW226544   1.123   4.627   6.353  1.0452 -1.0691  1.2338
 5029SOL     OW26545   0.872   2.103   7.134 -0.9645 -0.5148  0.1876
 5029SOL    HW126546   0.855   2.073   7.044  0.9821  0.3179 -0.4537
 5029SOL    HW226547   0.874   2.023   7.187 -0.8083 -1.1125 -0.7196
 5030SOL     OW26548   3.778   3.436  11.057 -0.4943 -0.3165  0.0362
 5030SOL    HW126549   3.694   3.389  11.051  0.0606 -1.2373 -0.6038
 5030SOL    HW226550   3.833   3.362  11.081  0.2885 -0.0976 -1.0981
 5031SOL     OW26551   1.668   2.112  17.248  0.0664  0.6024  0.7770
 5031SOL    HW126552   1.742   2.088  17.192 -0.6918  0.8168 -0.3031
 5031SOL    HW226553   1.591   2.078  17.203  1.7539 -1.8252 -0.2615
 5032SOL     OW26554   0.974   4.681   0.659 -0.4153  0.0465 -0.0478
 5032SOL    HW126555   1.010   4.594   0.644 -1.1242 -0.9354  4.0111
 5032SOL    HW226556   0.882   4.662   0.643  0.2895 -0.0151 -3.9897
 5033SOL     OW26557   3.455   4.190   7.825 -0.3716  0.8294  0.7733
 5033SOL    HW126558   3.468   4.148   7.740 -0.9531  3.0152 -0.3757
 5033SOL    HW226559   3.443   4.111   7.879 -1.3302  0.0394 -0.5913
 5034SOL     OW26560   0.286   0.877   1.369  0.3520  0.3409  0.4265
 5034SOL    HW126561   0.376   0.908   1.376  1.0664 -1.5102 -0.4651
 5034SOL    HW226562   0.296   0.782   1.382 -2.7465 -0.2055 -0.9987
 5035SOL     OW26563   3.363   2.425  11.580  0.7018  0.3866 -0.7853
 5035SOL    HW126564   3.370   2.389  11.669 -1.2087 -1.6014 -1.4496
 5035SOL    HW226565   3.420   2.496  11.608  0.4965 -0.2394  1.2766
 5036SOL     OW26566   1.914   0.281   5.909  0.2026 -0.1393 -0.3906
 5036SOL    HW126567   1.822   0.291   5.931  0.5674 -1.9994  2.0352
 5036SOL    HW226568   1.930   0.190   5.935  0.1296  0.1256  0.5996
 5037SOL     OW26569   3.143   3.027  15.723  0.4789  0.0011  0.3019
 5037SOL    HW126570   3.141   3.051  15.630 -2.5067 -2.1649 -0.1948
 5037SOL    HW226571   3.200   2.952  15.708 -1.1717 -1.1931  0.0048
 5038SOL     OW26572   0.795   0.427   8.504  0.4785 -0.2731  0.0619
 5038SOL    HW126573   0.739   0.378   8.444 -0.3312  4.3618 -2.9791
 5038SOL    HW226574   0.861   0.457   8.442 -0.8949  2.3363 -0.1356
 5039SOL     OW26575   0.197   4.255   7.141 -0.2991  0.3038 -0.7540
 5039SOL    HW126576   0.174   4.311   7.215 -2.9525 -1.8152  0.0196
 5039SOL    HW226577   0.279   4.212   7.165 -0.6826  0.0382  0.0906
 5040SOL     OW26578   4.545   0.159   3.735  0.2586  0.9868 -0.5032
 5040SOL    HW126579   4.599   0.098   3.784 -0.8828  0.6381  0.3163
 5040SOL    HW226580   4.609   0.206   3.681  0.5150  0.6183 -0.5165
 5041SOL     OW26581   3.366   0.996  12.250  0.0438  0.1144 -0.4157
 5041SOL    HW126582   3.391   0.904  12.252  2.2235  0.6951 -1.4112
 5041SOL    HW226583   3.310   1.001  12.172 -1.9542  0.3265  1.0108
 5042SOL     OW26584   0.510   4.301   1.239 -0.1733  0.2220 -0.5494
 5042SOL    HW126585   0.581   4.239   1.225 -0.8248 -0.6155 -0.1587
 5042SOL    HW226586   0.557   4.348   1.308  0.3429  1.0023 -1.4425
 5043SOL     OW26587   2.809   4.048  14.935  0.3903 -0.7281  0.1289
 5043SOL    HW126588   2.800   4.047  14.839  0.4317  0.9674  0.1073
 5043SOL    HW226589   2.830   4.140  14.951 -1.6873 -0.3239  0.4837
 5044SOL     OW26590   4.461   2.227   0.461  0.0911  0.4007 -0.0756
 5044SOL    HW126591   4.487   2.251   0.550 -1.6015  1.6024  0.0736
 5044SOL    HW226592   4.466   2.315   0.426  0.2289  0.4973  0.1846
 5045SOL     OW26593   1.389   3.267  13.954  0.5522  0.3037 -0.1179
 5045SOL    HW126594   1.335   3.260  14.033  1.8501  1.2297  0.8376
 5045SOL    HW226595   1.422   3.356  13.954  1.1294  0.0850 -0.6109
 5046SOL     OW26596   4.291   0.726   1.850  0.1603 -0.3564  0.1257
 5046SOL    HW126597   4.372   0.751   1.806 -0.5133  1.9583  0.2227
 5046SOL    HW226598   4.308   0.636   1.878 -3.6056 -1.6232 -1.7490
 5047SOL     OW26599   2.607   2.212   8.298  0.5212 -0.2491 -0.1047
 5047SOL    HW126600   2.531   2.165   8.330  0.2972 -0.4346 -0.9022
 5047SOL    HW226601   2.662   2.142   8.263  1.1864 -0.2719  0.9651
 5048SOL     OW26602   2.859   3.255  15.554  0.0081  0.6156  0.0170
 5048SOL    HW126603   2.916   3.301  15.492  0.2176  0.4579  0.0906
 5048SOL    HW226604   2.862   3.172  15.506 -3.5012  0.6104 -0.1641
 5049SOL     OW26605   3.272   3.013   8.846  0.2539 -0.0280  0.8834
 5049SOL    HW126606   3.207   3.078   8.818  1.2381  1.3747  1.8919
 5049SOL    HW226607   3.318   3.076   8.902  0.2366 -0.7760  1.7549
 5050SOL     OW26608   2.770   1.827  15.139 -0.8866 -0.4645  0.1262
 5050SOL    HW126609   2.697   1.804  15.196 -0.7869  0.2038  0.5210
 5050SOL    HW226610   2.823   1.748  15.148 -1.6369 -1.0407 -0.4927
 5051SOL     OW26611   0.638   0.268   7.175  0.1213  0.5666 -0.1123
 5051SOL    HW126612   0.688   0.262   7.094 -0.7198 -0.7282 -0.5321
 5051SOL    HW226613   0.654   0.187   7.223  0.8291  1.5298  1.2890
 5052SOL     OW26614   4.705   2.133   9.307 -0.3369  0.1643 -0.3248
 5052SOL    HW126615   4.631   2.109   9.252  1.2806  0.4743 -2.5929
 5052SOL    HW226616   4.654   2.119   9.387 -0.0454 -0.7084 -0.2946
 5053SOL     OW26617   4.700   2.848  14.775 -0.0606  0.3845  0.2103
 5053SOL    HW126618   0.014   2.908  14.840  1.0435  0.7264 -0.7339
 5053SOL    HW226619   4.610   2.879  14.781 -0.4515 -0.5238 -1.0899
 5054SOL     OW26620   2.113   0.155   5.304  0.0870  0.0479  0.1959
 5054SOL    HW126621   2.026   0.157   5.263  0.7634  0.1873 -1.2192
 5054SOL    HW226622   2.150   0.243   5.296  3.2719 -1.5380 -2.3569
 5055SOL     OW26623   3.376   2.906   2.575  0.1208 -0.2838  0.2965
 5055SOL    HW126624   3.413   2.819   2.558  3.2106  1.0069  0.4382
 5055SOL    HW226625   3.283   2.884   2.565 -0.3144  1.4904  0.4974
 5056SOL     OW26626   3.048   1.141   4.880 -0.3101  0.2223  0.0305
 5056SOL    HW126627   3.078   1.232   4.872 -1.2948  0.7473  2.2774
 5056SOL    HW226628   3.114   1.100   4.824 -0.4521 -0.4054  0.3185
 5057SOL     OW26629   3.832   2.824   6.101 -0.3778 -0.0433  0.1439
 5057SOL    HW126630   3.775   2.861   6.168 -1.9982 -2.2108 -0.0061
 5057SOL    HW226631   3.809   2.882   6.028  0.4863  0.4950  0.3064
 5058SOL     OW26632   1.960   2.678   8.884  0.1327 -0.2051  0.0432
 5058SOL    HW126633   1.998   2.761   8.914  1.1057 -0.2405 -1.0787
 5058SOL    HW226634   1.885   2.662   8.942 -0.6864 -0.6917 -1.1499
 5059SOL     OW26635   4.584   0.933   6.271  0.2504 -0.7091 -0.2538
 5059SOL    HW126636   4.542   0.977   6.345  1.0361  2.1444 -1.4939
 5059SOL    HW226637   4.522   0.863   6.248 -1.6640  0.7179  0.5035
 5060SOL     OW26638   0.575   2.372  12.083 -0.3272 -0.1214 -0.4001
 5060SOL    HW126639   0.566   2.356  11.989  2.3542 -1.7648 -0.3895
 5060SOL    HW226640   0.522   2.451  12.088 -0.5937 -0.2854 -0.6338
 5061SOL     OW26641   2.886   3.000  15.034 -0.0651 -0.1821  0.1783
 5061SOL    HW126642   2.849   2.912  15.035  0.0089 -0.2214 -0.9582
 5061SOL    HW226643   2.835   3.031  14.959 -0.6792  0.6288  0.9366
 5062SOL     OW26644   3.101   3.907   1.305 -0.1270  0.0100  0.4832
 5062SOL    HW126645   3.042   3.904   1.230 -0.2070  3.5801  0.4302
 5062SOL    HW226646   3.163   3.978   1.288 -0.9330  0.4488 -0.5714
 5063SOL     OW26647   4.519   4.437  10.481  0.3551  0.5204  0.5920
 5063SOL    HW126648   4.461   4.458  10.554 -2.0037  2.4167 -1.8489
 5063SOL    HW226649   4.600   4.439  10.532  0.8346 -0.1259 -0.1457
 5064SOL     OW26650   3.741   2.049  15.076 -0.1412 -0.4717  0.1903
 5064SOL    HW126651   3.746   2.105  14.999 -1.2575 -0.5159  0.0852
 5064SOL    HW226652   3.719   1.966  15.032  1.3081 -0.2287 -1.0121
 5065SOL     OW26653   2.126   3.866   1.574  0.4816 -0.2560  0.3539
 5065SOL    HW126654   2.097   3.904   1.491 -0.6751  0.5281  1.1175
 5065SOL    HW226655   2.040   3.827   1.589  1.2734 -1.3087  2.2460
 5066SOL     OW26656   1.738   3.494   2.608 -0.1587  0.1082 -0.0849
 5066SOL    HW126657   1.662   3.502   2.665 -0.4882 -0.7228 -0.3952
 5066SOL    HW226658   1.780   3.578   2.624 -0.4345 -0.0427  1.3848
 5067SOL     OW26659   3.857   1.767   3.164 -0.6780  0.2331  0.1094
 5067SOL    HW126660   3.894   1.766   3.076 -0.3352 -1.9003  0.2808
 5067SOL    HW226661   3.877   1.677   3.188  2.1278  0.8504  0.0584
 5068SOL     OW26662   0.476   2.019   5.697 -0.7622 -0.1698  0.0592
 5068SOL    HW126663   0.490   2.087   5.763  0.1321 -0.5175  0.2351
 5068SOL    HW226664   0.526   1.951   5.743  0.7815  0.5421 -0.5527
 5069SOL     OW26665   3.513   1.729  13.419 -0.1268  0.7023  0.0771
 5069SOL    HW126666   3.423   1.726  13.453  0.2620 -2.1417  0.8505
 5069SOL    HW226667   3.490   1.794  13.353  0.1341  0.2387 -0.4651
 5070SOL     OW26668   0.430   0.213   5.358  0.4000  0.5907  0.0214
 5070SOL    HW126669   0.376   0.142   5.391 -0.2232  0.8823 -0.3620
 5070SOL    HW226670   0.415   0.194   5.265  0.1212 -3.4414  0.9010
 5071SOL     OW26671   0.325   4.140   2.374  0.2943 -0.0115 -0.1604
 5071SOL    HW126672   0.252   4.186   2.416  1.0235  0.2031  0.8717
 5071SOL    HW226673   0.280   4.098   2.301  0.4436 -1.1513  0.3971
 5072SOL     OW26674   0.761   0.032  13.111 -0.2731 -0.0860 -0.3320
 5072SOL    HW126675   0.713   0.104  13.069  2.8572  1.9757 -0.3802
 5072SOL    HW226676   0.690   4.693  13.126 -2.5673  2.2982 -1.3071
 5073SOL     OW26677   1.247   0.339  15.894  0.2925 -0.5688  0.6982
 5073SOL    HW126678   1.330   0.296  15.913  1.1914  1.3032  1.0122
 5073SOL    HW226679   1.272   0.412  15.837 -0.1679 -1.7629 -1.0516
 5074SOL     OW26680   4.563   0.038  16.309  0.5289  0.4257  0.4783
 5074SOL    HW126681   4.508   4.683  16.315  2.4376 -0.9285  0.5497
 5074SOL    HW226682   4.534   0.072  16.225  3.7360  0.2982 -0.6692
 5075SOL     OW26683   1.496   4.485   8.346 -0.2617 -0.1532  0.4929
 5075SOL    HW126684   1.547   4.508   8.424  0.0833 -2.2459  0.8661
 5075SOL    HW226685   1.559   4.515   8.280 -0.2380  1.0698  1.0700
 5076SOL     OW26686   1.499   1.105   9.104 -0.1603  0.1392 -0.0533
 5076SOL    HW126687   1.528   1.141   9.188  2.8129  1.1122 -1.5075
 5076SOL    HW226688   1.472   1.016   9.125 -2.3882  1.3988  2.4132
 5077SOL     OW26689   2.617   1.375   4.182 -0.4605 -0.0618 -0.0703
 5077SOL    HW126690   2.586   1.460   4.152 -0.7675 -0.1822 -0.0983
 5077SOL    HW226691   2.604   1.384   4.277  0.7505  1.0153 -0.0096
 5078SOL     OW26692   4.060   0.033   8.866 -0.0061 -0.4361  0.0107
 5078SOL    HW126693   3.993   4.691   8.846 -1.0672  0.3398  1.0490
 5078SOL    HW226694   4.056   0.027   8.961  1.1823 -3.7637 -0.1360
 5079SOL     OW26695   0.581   0.880  11.068  0.1172  0.5031  0.2188
 5079SOL    HW126696   0.573   0.807  11.129 -2.3379 -0.9742 -1.8722
 5079SOL    HW226697   0.628   0.848  10.991  0.3098  0.0008  0.5478
 5080SOL     OW26698   1.424   3.340   0.495 -0.3529 -0.0914  0.0060
 5080SOL    HW126699   1.362   3.288   0.545 -1.4405 -1.5633 -2.8230
 5080SOL    HW226700   1.487   3.369   0.561 -0.6890 -0.2173  0.3805
 5081SOL     OW26701   3.330   4.159   1.651 -0.1246  0.2161 -0.2319
 5081SOL    HW126702   3.385   4.237   1.654 -1.1733  0.9577 -0.1158
 5081SOL    HW226703   3.251   4.184   1.698  0.2395 -0.5955  0.8057
 5082SOL     OW26704   1.772   3.002   2.985 -0.1927  0.4956 -0.3319
 5082SOL    HW126705   1.750   3.006   3.078 -0.4941  0.2690 -0.3928
 5082SOL    HW226706   1.685   2.969   2.960 -0.3402  0.3859  0.3271
 5083SOL     OW26707   1.308   2.913   5.782 -0.0930 -0.0394  0.3382
 5083SOL    HW126708   1.269   2.838   5.737  1.1870  0.7723 -2.0836
 5083SOL    HW226709   1.384   2.862   5.812  0.7013  0.6760 -0.4705
 5084SOL     OW26710   4.253   0.613   2.312 -0.5629  0.1871 -0.3098
 5084SOL    HW126711   4.251   0.517   2.301 -2.8407  0.3662 -1.5156
 5084SOL    HW226712   4.186   0.623   2.380 -1.4256  0.5654 -1.2180
 5085SOL     OW26713   2.780   0.925   4.274 -0.0490 -0.3421 -0.4100
 5085SOL    HW126714   2.689   0.897   4.261 -0.3472  0.7763 -0.7510
 5085SOL    HW226715   2.790   0.903   4.366 -0.5367  1.8400  0.1721
 5086SOL     OW26716   3.550   0.186   6.843  0.1557 -0.1878  0.5567
 5086SOL    HW126717   3.490   0.115   6.818  0.1849 -0.1094  0.2588
 5086SOL    HW226718   3.531   0.202   6.935  2.3929 -3.6704  1.6457
 5087SOL     OW26719   0.388   0.012   3.049  0.4134  0.0301  0.2279
 5087SOL    HW126720   0.377   4.684   3.129  1.0798 -2.9773 -1.6034
 5087SOL    HW226721   0.376   4.669   2.981  1.5475  0.0028  0.0518
 5088SOL     OW26722   4.614   1.487   2.993 -0.2235 -0.0605  0.1056
 5088SOL    HW126723   4.647   1.444   3.072  0.6566 -0.4198 -0.4580
 5088SOL    HW226724   4.552   1.552   3.025 -0.2793  0.4595 -1.0733
 5089SOL     OW26725   0.347   4.583   7.154  0.2701 -0.9136  0.2929
 5089SOL    HW126726   0.258   4.566   7.182 -0.2272 -0.8555 -1.2822
 5089SOL    HW226727   0.357   4.661   7.209 -1.7529 -1.4483  1.4119
 5090SOL     OW26728   2.480   2.946   5.370  0.0170 -0.4212 -0.2743
 5090SOL    HW126729   2.497   3.040   5.370  0.6391 -0.5562  2.4175
 5090SOL    HW226730   2.423   2.943   5.293 -0.2631  0.5910 -0.1066
 5091SOL     OW26731   0.547   2.268   4.986 -0.1372 -0.2069 -0.6329
 5091SOL    HW126732   0.639   2.284   5.009  0.5045 -0.4277 -2.9703
 5091SOL    HW226733   0.508   2.236   5.067 -1.6740  2.2012 -0.4289
 5092SOL     OW26734   0.534   2.270   6.375 -0.0769  0.3472 -0.0645
 5092SOL    HW126735   0.532   2.365   6.373 -3.4276  0.2829  0.7328
 5092SOL    HW226736   0.627   2.245   6.371 -0.1053  0.0966  0.8297
 5093SOL     OW26737   0.308   0.265  12.427 -0.2587  0.5238 -0.1654
 5093SOL    HW126738   0.280   0.181  12.391  0.2803 -0.1427  0.9542
 5093SOL    HW226739   0.386   0.232  12.472 -0.8617 -2.9947 -1.7513
 5094SOL     OW26740   4.278   3.454   6.698  0.6661 -0.7816  0.5292
 5094SOL    HW126741   4.326   3.527   6.657 -0.2551 -0.3369  0.2565
 5094SOL    HW226742   4.241   3.420   6.616 -1.1867 -2.0498  1.9129
 5095SOL     OW26743   1.058   2.940   4.961 -0.3823  0.3042  0.3404
 5095SOL    HW126744   1.036   2.850   4.983  0.3096 -0.1119 -0.6397
 5095SOL    HW226745   1.128   2.958   5.024 -0.4447 -0.8931  0.7388
 5096SOL     OW26746   2.255   0.405   2.260 -0.2535 -0.3571 -0.6619
 5096SOL    HW126747   2.252   0.310   2.267 -2.0374 -0.1635  1.3289
 5096SOL    HW226748   2.296   0.414   2.346 -0.1871 -2.9094 -0.4236
 5097SOL     OW26749   2.397   0.734   9.020  0.3665 -0.2706 -0.5484
 5097SOL    HW126750   2.441   0.748   8.936  1.9700  1.5857  0.5945
 5097SOL    HW226751   2.309   0.707   8.994  0.3118  0.3471 -0.9946
 5098SOL     OW26752   1.395   4.109  10.957 -0.2081 -0.2806 -0.0935
 5098SOL    HW126753   1.370   4.075  10.871 -1.2809  0.1730  0.0432
 5098SOL    HW226754   1.319   4.079  11.007 -0.3589 -1.1926 -0.8577
 5099SOL     OW26755   1.548   4.348  16.420  0.5777 -0.4946  0.8086
 5099SOL    HW126756   1.630   4.325  16.376 -0.0733 -0.3587 -0.4599
 5099SOL    HW226757   1.534   4.437  16.387  0.9933 -1.1673 -1.1506
 5100SOL     OW26758   4.404   2.648  10.670 -0.4374  0.3609  0.0212
 5100SOL    HW126759   4.407   2.577  10.606 -1.0863  0.4126 -0.0700
 5100SOL    HW226760   4.329   2.622  10.724  0.1714  0.3528  0.8645
 5101SOL     OW26761   2.957   0.495   6.958  0.3549  0.1263 -0.2066
 5101SOL    HW126762   2.983   0.488   7.050 -0.3922  0.1385  0.0040
 5101SOL    HW226763   3.035   0.541   6.928 -0.0414  0.5550 -0.5533
 5102SOL     OW26764   2.993   2.282   3.234  0.0202 -0.9755  0.1995
 5102SOL    HW126765   3.073   2.235   3.255  1.1095  1.3610  1.2633
 5102SOL    HW226766   2.990   2.288   3.139 -2.0823  1.2089  0.4103
 5103SOL     OW26767   2.257   1.491   8.294 -0.0448  0.3417 -0.4932
 5103SOL    HW126768   2.277   1.494   8.201 -1.2019  0.5390 -0.7324
 5103SOL    HW226769   2.339   1.521   8.334 -1.0388 -0.0664  1.8797
 5104SOL     OW26770   2.430   3.600   1.001  0.0038 -0.2415  0.2131
 5104SOL    HW126771   2.483   3.555   0.935  1.0759 -0.2331  1.0497
 5104SOL    HW226772   2.489   3.603   1.076  0.8146  0.6888 -0.4598
 5105SOL     OW26773   1.481   3.281   5.656 -0.5054 -0.6157  0.0598
 5105SOL    HW126774   1.519   3.344   5.594 -0.0040  1.2371  2.2337
 5105SOL    HW226775   1.519   3.309   5.739 -1.2384  1.3264 -0.2438
 5106SOL     OW26776   2.522   0.132   8.840 -0.5984  0.6488 -0.0897
 5106SOL    HW126777   2.430   0.109   8.834 -0.7045  0.6314  1.4851
 5106SOL    HW226778   2.557   0.115   8.752  1.4335  0.5592  0.7333
 5107SOL     OW26779   1.754   0.131   4.292  0.7111  0.0963  0.6889
 5107SOL    HW126780   1.750   0.064   4.224 -2.1945  1.1696 -0.1868
 5107SOL    HW226781   1.773   0.212   4.244 -1.0471  0.2588  0.2808
 5108SOL     OW26782   3.637   1.255  14.912 -0.4255  0.1472 -0.0450
 5108SOL    HW126783   3.631   1.337  14.864  0.0649 -0.4475 -1.1002
 5108SOL    HW226784   3.552   1.211  14.899 -1.0082  1.0106  0.7796
 5109SOL     OW26785   3.221   4.467   0.096  0.1986  0.2491  0.2694
 5109SOL    HW126786   3.264   4.465   0.181  0.1992 -1.4626  0.2172
 5109SOL    HW226787   3.300   4.467   0.041  0.1296 -0.9341  0.1856
 5110SOL     OW26788   3.651   3.174  16.695 -0.1986  0.3322  0.4054
 5110SOL    HW126789   3.651   3.093  16.746  1.7576 -0.8193 -1.3666
 5110SOL    HW226790   3.591   3.146  16.626 -1.8835  2.7557  0.9112
 5111SOL     OW26791   4.407   2.671  12.504  0.6046 -0.7311  0.2521
 5111SOL    HW126792   4.419   2.594  12.561  4.3421  1.0892  1.9547
 5111SOL    HW226793   4.496   2.707  12.504  0.7724 -1.1125  2.0258
 5112SOL     OW26794   2.590   0.261   4.052  0.1839 -0.7859 -0.1252
 5112SOL    HW126795   2.596   0.290   4.143  0.2488 -0.9884 -0.0648
 5112SOL    HW226796   2.496   0.275   4.040  0.4967  1.1325 -0.2922
 5113SOL     OW26797   1.576   1.395  15.383  0.2370  0.2816 -0.2003
 5113SOL    HW126798   1.517   1.325  15.410 -1.5064  1.9710  0.3855
 5113SOL    HW226799   1.561   1.405  15.289 -1.0262 -0.0501 -0.0304
 5114SOL     OW26800   4.488   2.979   5.142  0.4429 -0.1997 -0.1705
 5114SOL    HW126801   4.535   2.963   5.060  0.8899 -0.5091  0.1515
 5114SOL    HW226802   4.400   2.964   5.106  0.1352 -1.5489  1.1238
 5115SOL     OW26803   0.926   0.923   8.215  0.1666  0.6879  0.2280
 5115SOL    HW126804   0.935   0.838   8.258 -0.4625  0.0624 -0.8776
 5115SOL    HW226805   0.882   0.894   8.136 -0.2450 -0.1280  0.7661
 5116SOL     OW26806   0.967   2.150  10.591 -0.4611  0.2134 -0.4426
 5116SOL    HW126807   0.879   2.186  10.596 -0.4467  0.4479 -1.9865
 5116SOL    HW226808   1.022   2.220  10.556 -1.0964  1.8683  1.8179
 5117SOL     OW26809   0.058   0.300   7.230 -0.0400  0.6756 -0.1052
 5117SOL    HW126810   0.013   0.223   7.195 -0.4273  1.7729 -2.0008
 5117SOL    HW226811   0.012   0.301   7.314 -0.4588  0.2940 -0.3315
 5118SOL     OW26812   3.264   2.323  11.373 -0.3320 -0.2625 -0.1785
 5118SOL    HW126813   3.343   2.272  11.392 -0.9272 -0.9993  0.3186
 5118SOL    HW226814   3.262   2.387  11.444 -2.6754 -0.4764 -0.0784
 5119SOL     OW26815   0.810   2.232  15.161 -0.2968  0.1472 -0.8413
 5119SOL    HW126816   0.741   2.226  15.095 -1.2087  0.6387  0.0730
 5119SOL    HW226817   0.761   2.205  15.238  0.2010 -0.1157 -0.6114
 5120SOL     OW26818   2.773   0.529   1.652  0.0869 -0.0009  0.7550
 5120SOL    HW126819   2.691   0.553   1.696 -1.2090 -1.0209 -1.1027
 5120SOL    HW226820   2.742   0.522   1.561  0.6224 -1.3420  0.6803
 5121SOL     OW26821   3.366   4.079   7.169 -0.5114  0.1153 -0.4456
 5121SOL    HW126822   3.318   4.015   7.220  0.7612  0.6124  1.3855
 5121SOL    HW226823   3.394   4.018   7.101 -1.6934  1.8831 -2.5263
 5122SOL     OW26824   3.210   2.342   2.425  0.2581  0.1166  0.2677
 5122SOL    HW126825   3.288   2.292   2.403  1.2488  2.2452 -1.0248
 5122SOL    HW226826   3.195   2.315   2.516 -0.4359  0.6763  0.3168
 5123SOL     OW26827   2.839   3.905   2.803 -0.7780 -0.2089 -0.5062
 5123SOL    HW126828   2.781   3.980   2.813 -0.4659  0.2823 -2.3086
 5123SOL    HW226829   2.778   3.866   2.740  2.2391 -0.3706 -3.2969
 5124SOL     OW26830   1.781   0.331   0.799  0.0226 -0.2033  0.1562
 5124SOL    HW126831   1.871   0.332   0.766 -0.7026  0.1092 -1.8281
 5124SOL    HW226832   1.794   0.343   0.893  0.4287  0.8230 -0.0266
 5125SOL     OW26833   1.701   2.477   5.615 -0.0226  0.4639 -0.0853
 5125SOL    HW126834   1.794   2.457   5.630 -0.5243 -0.6325  1.5498
 5125SOL    HW226835   1.670   2.507   5.701 -3.0655  1.7647 -1.6505
 5126SOL     OW26836   4.313   1.472   5.200 -0.2841  0.1411 -0.1877
 5126SOL    HW126837   4.218   1.460   5.197 -0.0126 -1.9289  0.1175
 5126SOL    HW226838   4.330   1.420   5.279  1.2573  0.3530 -0.3876
 5127SOL     OW26839   1.008   3.296   4.559 -0.0636  0.9625  0.0279
 5127SOL    HW126840   1.052   3.274   4.641 -1.1506 -2.4353 -0.2926
 5127SOL    HW226841   0.936   3.353   4.584 -0.1231  0.7612  0.3147
 5128SOL     OW26842   4.449   4.537   5.298  0.1784 -0.1010  0.4679
 5128SOL    HW126843   4.426   4.544   5.391  0.6950  2.7969  0.3732
 5128SOL    HW226844   4.540   4.568   5.293  0.1340 -0.4771 -2.3922
 5129SOL     OW26845   4.207   2.431   4.585 -0.2238 -0.1469  0.1739
 5129SOL    HW126846   4.279   2.450   4.645  0.7611 -0.4273 -0.9221
 5129SOL    HW226847   4.172   2.518   4.566  0.2203 -0.1401 -0.6220
 5130SOL     OW26848   4.721   1.316   2.767  0.2217  0.2448  0.3102
 5130SOL    HW126849   0.060   1.378   2.805 -0.4304  0.0969  1.6282
 5130SOL    HW226850   4.647   1.338   2.824  1.1066 -0.5447  1.7752
 5131SOL     OW26851   1.889   2.500   3.664  0.2312 -0.0230 -0.2828
 5131SOL    HW126852   1.893   2.558   3.588  0.7362 -1.1720 -1.1356
 5131SOL    HW226853   1.836   2.527   3.738  2.7290  2.4723  0.6229
 5132SOL     OW26854   0.991   2.476   7.999  0.2051 -0.5456  0.2174
 5132SOL    HW126855   0.898   2.498   7.990 -0.1650 -1.8379  0.9071
 5132SOL    HW226856   0.990   2.403   8.061  1.5414  1.2608  2.3408
 5133SOL     OW26857   2.085   4.045   2.216  0.0931 -0.8422 -0.8782
 5133SOL    HW126858   2.000   4.025   2.256 -0.2182 -0.7994 -1.5043
 5133SOL    HW226859   2.088   4.140   2.211  3.0974 -0.8530  0.9083
 5134SOL     OW26860   1.108   3.269   7.035  0.2664  0.2864 -0.0088
 5134SOL    HW126861   1.079   3.318   6.958  2.2799 -0.6279 -1.3434
 5134SOL    HW226862   1.115   3.184   6.992 -0.7662  0.3611 -0.3122
 5135SOL     OW26863   4.341   4.120   2.449  0.2641  0.0458  0.3324
 5135SOL    HW126864   4.276   4.189   2.465  2.3085  1.8086  1.1728
 5135SOL    HW226865   4.293   4.070   2.383  0.1621  1.0884 -0.3825
 5136SOL     OW26866   2.338   3.872   3.334  0.4090  0.8142 -0.5333
 5136SOL    HW126867   2.339   3.803   3.268  1.6062  1.9167 -1.6658
 5136SOL    HW226868   2.257   3.920   3.314 -0.6974 -0.5489  0.6180
 5137SOL     OW26869   1.075   1.040   6.372 -0.0455  0.0960  0.6095
 5137SOL    HW126870   1.006   1.019   6.309 -0.5316 -0.2334  1.2530
 5137SOL    HW226871   1.115   1.116   6.330 -0.9989  0.9068  1.1744
 5138SOL     OW26872   2.677   4.265  17.089  0.3955 -0.2711  0.2568
 5138SOL    HW126873   2.748   4.207  17.065  2.9940  1.6461  3.2586
 5138SOL    HW226874   2.625   4.276  17.010  1.8960  0.8544 -0.5831
 5139SOL     OW26875   0.607   4.238   4.537 -0.0964 -0.0565  0.7609
 5139SOL    HW126876   0.571   4.248   4.449  2.0968 -0.1108 -0.1484
 5139SOL    HW226877   0.554   4.306   4.578  0.8032  0.5663  0.9027
 5140SOL     OW26878   1.249   3.472   6.095  0.9194 -0.2292 -0.0152
 5140SOL    HW126879   1.164   3.465   6.139  0.1402 -2.3805 -1.8657
 5140SOL    HW226880   1.303   3.408   6.142 -1.2839 -2.2576 -0.2342
 5141SOL     OW26881   0.027   1.715   5.295 -0.3009  0.0418  0.2911
 5141SOL    HW126882   0.023   1.621   5.313 -1.0578  0.3271  1.5823
 5141SOL    HW226883   0.038   1.715   5.200 -2.8093  0.8030 -0.0022
 5142SOL     OW26884   1.075   3.857   8.664 -0.3830 -0.0322 -0.0222
 5142SOL    HW126885   0.986   3.822   8.652 -0.3938  0.4435 -1.3270
 5142SOL    HW226886   1.116   3.782   8.707  1.6249 -0.7050 -3.1161
 5143SOL     OW26887   4.708   0.837   4.372 -0.2646  0.4942  0.4706
 5143SOL    HW126888   4.685   0.889   4.295  1.2987  1.2728  0.5242
 5143SOL    HW226889   4.629   0.851   4.425 -0.1187  0.8154  0.6043
 5144SOL     OW26890   0.176   1.374   9.555 -0.5471 -0.4547 -0.2132
 5144SOL    HW126891   0.108   1.374   9.487  1.0124 -4.8153 -1.7866
 5144SOL    HW226892   0.237   1.434   9.513  0.3397 -1.2903 -0.1215
 5145SOL     OW26893   4.032   4.191   8.807  0.3185 -0.5890 -0.2713
 5145SOL    HW126894   3.989   4.275   8.792  0.2387 -0.6265 -0.2542
 5145SOL    HW226895   3.957   4.132   8.816 -2.4893  2.7715 -1.6128
 5146SOL     OW26896   0.557   0.765   6.679  0.7253 -0.2137  0.4149
 5146SOL    HW126897   0.648   0.795   6.676  0.9046 -0.6613  1.5793
 5146SOL    HW226898   0.516   0.849   6.662  0.3859 -0.7649 -1.4877
 5147SOL     OW26899   0.612   3.345   8.077 -0.2529  0.3850 -0.2239
 5147SOL    HW126900   0.650   3.363   8.163  1.2782  1.2906 -1.0904
 5147SOL    HW226901   0.523   3.380   8.085 -0.2090  1.2884 -3.6805
 5148SOL     OW26902   0.087   1.506   6.939 -0.1595 -0.4731  0.1419
 5148SOL    HW126903   0.151   1.549   6.882  0.6332  0.1323  1.4794
 5148SOL    HW226904   0.045   1.583   6.977  1.3341  0.4649 -0.1041
 5149SOL     OW26905   2.893   1.141   5.986 -0.2111  0.1382  0.1329
 5149SOL    HW126906   2.823   1.102   6.039 -0.7900  1.0919  0.0829
 5149SOL    HW226907   2.901   1.222   6.037  0.4349  0.2626 -0.1770
 5150SOL     OW26908   4.358   0.610   8.394 -0.0739 -0.2894  0.4065
 5150SOL    HW126909   4.326   0.557   8.467 -1.9509 -0.1540 -0.3302
 5150SOL    HW226910   4.421   0.546   8.363 -0.6369 -1.9049  2.5859
 5151SOL     OW26911   1.400   4.589   1.373  0.2211  0.1567 -0.4266
 5151SOL    HW126912   1.345   4.515   1.346 -0.9453  0.7734  0.2885
 5151SOL    HW226913   1.486   4.550   1.390 -0.7284 -1.0561  1.5381
 5152SOL     OW26914   0.518   2.038   8.674  0.4985  0.0110  0.0220
 5152SOL    HW126915   0.601   2.026   8.629  1.5118  0.1412  1.8601
 5152SOL    HW226916   0.455   2.019   8.604 -0.9063 -0.1875  1.3380
 5153SOL     OW26917   4.434   1.556  17.078 -0.7255 -0.3112 -0.6836
 5153SOL    HW126918   4.529   1.564  17.080 -0.9400  1.2650  1.6295
 5153SOL    HW226919   4.420   1.483  17.138 -0.2768  0.4755  0.3530
 5154SOL     OW26920   3.249   3.846   4.766  0.8199  0.1409  0.1620
 5154SOL    HW126921   3.162   3.828   4.800  0.2617  1.5551 -0.5277
 5154SOL    HW226922   3.227   3.876   4.678 -2.3534 -1.1782  0.5078
 5155SOL     OW26923   2.311   3.082   5.187  0.0043  0.0761 -0.1955
 5155SOL    HW126924   2.275   3.148   5.247  2.6948 -0.0502  1.5736
 5155SOL    HW226925   2.234   3.049   5.140 -1.1199  1.3728  0.7101
 5156SOL     OW26926   3.037   1.770  12.284  0.5168 -0.3689 -0.4125
 5156SOL    HW126927   3.029   1.676  12.299 -2.0399  0.0232  0.5658
 5156SOL    HW226928   3.061   1.779  12.192  0.2935 -0.0614 -0.4406
 5157SOL     OW26929   2.598   0.596   2.495 -0.4722  0.2479  0.9846
 5157SOL    HW126930   2.692   0.615   2.488 -0.1646 -1.4762  0.2888
 5157SOL    HW226931   2.579   0.610   2.402  2.3151  0.5286  0.4460
 5158SOL     OW26932   4.392   4.659   3.242 -0.0932  0.2021  0.1706
 5158SOL    HW126933   4.412   4.624   3.155 -0.2017  0.1659  0.1601
 5158SOL    HW226934   4.437   0.020   3.249 -0.1863  0.1093  1.9888
 5159SOL     OW26935   3.654   3.538   4.735  0.4107 -0.0902 -0.0290
 5159SOL    HW126936   3.657   3.633   4.729  1.4991 -0.2257 -1.6647
 5159SOL    HW226937   3.746   3.518   4.716  0.5153 -0.8691  1.2888
 5160SOL     OW26938   3.344   1.948   3.180 -0.2954 -0.3414  0.5047
 5160SOL    HW126939   3.410   1.879   3.183  0.2567  0.2093  0.9003
 5160SOL    HW226940   3.264   1.896   3.189 -0.9991  0.7179  0.3926
 5161SOL     OW26941   4.204   2.952   1.165  0.0969  0.1302 -0.2829
 5161SOL    HW126942   4.148   2.944   1.242  1.7810  0.6783  0.9947
 5161SOL    HW226943   4.236   3.041   1.176 -1.3881  0.8420 -1.6494
 5162SOL     OW26944   0.975   2.765   2.599 -0.4465 -0.6097 -0.2619
 5162SOL    HW126945   0.923   2.692   2.633 -1.4895 -0.0380 -0.6306
 5162SOL    HW226946   0.945   2.769   2.509 -0.3794  0.7687 -0.2183
 5163SOL     OW26947   3.578   1.555   3.864 -0.3693 -0.3289 -0.0351
 5163SOL    HW126948   3.601   1.643   3.836  0.2808 -0.3497  0.4350
 5163SOL    HW226949   3.663   1.514   3.848  0.3730  1.3220 -0.3288
 5164SOL     OW26950   0.711   2.511   3.728  0.5643  0.1665  0.0848
 5164SOL    HW126951   0.764   2.431   3.727  1.4646  0.7604  0.6146
 5164SOL    HW226952   0.622   2.480   3.742 -0.5140  3.1753 -0.0958
 5165SOL     OW26953   3.248   2.595   4.776  0.4754  0.3824 -0.0861
 5165SOL    HW126954   3.204   2.668   4.732 -0.4494 -0.6541 -0.8852
 5165SOL    HW226955   3.171   2.539   4.770 -0.4212  1.5611  0.3805
 5166SOL     OW26956   0.544   2.627   9.574 -0.1444  0.5231  0.1593
 5166SOL    HW126957   0.544   2.600   9.666 -2.0663 -2.6202 -0.7425
 5166SOL    HW226958   0.585   2.713   9.584  0.7359  0.0954  0.2007
 5167SOL     OW26959   0.574   4.399   7.099 -0.2802  0.1784 -0.3962
 5167SOL    HW126960   0.504   4.457   7.129  1.6380  2.2372  0.0879
 5167SOL    HW226961   0.591   4.367   7.187  1.1496  1.6366 -0.1443
 5168SOL     OW26962   3.685   0.472   8.037  0.7180 -0.3822 -0.2651
 5168SOL    HW126963   3.615   0.415   8.069 -0.2702  0.7201 -0.4673
 5168SOL    HW226964   3.715   0.501   8.123 -0.5862  2.0311 -0.6261
 5169SOL     OW26965   2.585   3.864   9.352  0.0521 -0.2769  0.3893
 5169SOL    HW126966   2.571   3.797   9.419  0.1982 -1.1900 -0.4858
 5169SOL    HW226967   2.501   3.907   9.365 -0.5887 -0.8087 -1.9614
 5170SOL     OW26968   0.615   0.558   4.323 -0.2144  0.0586  0.2419
 5170SOL    HW126969   0.653   0.472   4.304 -0.2761  0.4726 -1.8023
 5170SOL    HW226970   0.684   0.622   4.305 -0.0226 -0.0604  0.5619
 5171SOL     OW26971   4.554   3.971   6.046 -0.3458  0.3701 -0.1601
 5171SOL    HW126972   4.485   3.921   6.003 -0.6792  0.1180  0.6613
 5171SOL    HW226973   4.510   4.045   6.088 -1.1632 -0.1959 -0.0262
 5172SOL     OW26974   0.759   4.535   9.935  0.6138 -0.4477 -0.1248
 5172SOL    HW126975   0.827   4.602   9.940  0.0701  0.2199 -1.6626
 5172SOL    HW226976   0.800   4.463   9.982  0.0910 -1.1951 -0.8319
 5173SOL     OW26977   2.336   2.156  14.888 -0.1256 -0.1593  0.2155
 5173SOL    HW126978   2.247   2.188  14.883 -0.4969 -1.5787 -2.5904
 5173SOL    HW226979   2.326   2.068  14.925 -1.1875  0.5194  1.5191
 5174SOL     OW26980   4.583   2.803   3.416  0.0402 -0.3039 -0.0161
 5174SOL    HW126981   4.523   2.869   3.451 -1.4650 -3.1360  2.7211
 5174SOL    HW226982   4.512   2.756   3.372  0.1292 -0.7960  0.3683
 5175SOL     OW26983   0.611   4.231   8.177  0.0678 -0.1129  0.6792
 5175SOL    HW126984   0.626   4.137   8.190 -2.3066 -0.7304 -1.0786
 5175SOL    HW226985   0.704   4.253   8.168  0.0734 -0.1829  0.5676
 5176SOL     OW26986   4.674   2.761  10.609  0.1662  0.4901  0.6299
 5176SOL    HW126987   4.584   2.775  10.579  0.4807  0.3369 -0.4037
 5176SOL    HW226988   4.719   2.784  10.528  1.5005 -1.2955  0.8829
 5177SOL     OW26989   1.718   0.906   4.320  0.1300 -0.0745  0.0394
 5177SOL    HW126990   1.749   0.980   4.269  0.2808 -0.8267 -0.9702
 5177SOL    HW226991   1.793   0.849   4.338  1.3347  2.1813  2.0816
 5178SOL     OW26992   0.827   2.771   2.074 -0.0064  0.0770 -0.4632
 5178SOL    HW126993   0.912   2.801   2.041  1.1029 -2.0153  0.4290
 5178SOL    HW226994   0.771   2.805   2.004  0.6042 -0.0107 -1.0009
 5179SOL     OW26995   3.786   3.718   9.535  0.4404  0.2168  0.0055
 5179SOL    HW126996   3.787   3.645   9.474 -0.4403  0.8809 -0.7934
 5179SOL    HW226997   3.863   3.763   9.499 -0.4735 -1.0047 -3.4077
 5180SOL     OW26998   2.925   3.049   1.821 -0.4544  0.0069 -0.1959
 5180SOL    HW126999   2.934   2.999   1.740 -0.5986 -0.2658 -0.0407
 5180SOL    HW227000   3.004   3.102   1.829 -0.9485  0.7454 -0.1775
 5181SOL     OW27001   1.076   0.350   9.986 -0.5576 -0.7095 -0.6724
 5181SOL    HW127002   1.093   0.279   9.923 -0.8608  0.3087 -1.9073
 5181SOL    HW227003   1.001   0.387   9.940 -0.9810  0.9399  1.3714
 5182SOL     OW27004   2.391   1.110   7.739  0.2203  0.2520  0.6889
 5182SOL    HW127005   2.454   1.056   7.786 -1.3126 -1.3409  0.9377
 5182SOL    HW227006   2.407   1.092   7.646 -0.7133 -1.8208  0.9279
 5183SOL     OW27007   1.189   4.270   4.862 -0.5937 -0.1441  0.3021
 5183SOL    HW127008   1.196   4.218   4.942 -3.0089 -0.3410  0.4005
 5183SOL    HW227009   1.096   4.292   4.865 -0.4841  1.0753 -3.9064
 5184SOL     OW27010   4.206   2.320   9.179  0.2005 -0.1566  0.7269
 5184SOL    HW127011   4.154   2.244   9.205  0.0898 -0.1492  0.5307
 5184SOL    HW227012   4.278   2.286   9.127 -0.6384 -1.4136  0.3787
 5185SOL     OW27013   0.545   0.070   4.503  0.1885  0.3717  0.2342
 5185SOL    HW127014   0.527   0.006   4.435 -3.0400  1.2509  0.2612
 5185SOL    HW227015   0.457   0.072   4.541 -0.0560 -2.0304 -0.2302
 5186SOL     OW27016   1.588   1.757   5.490 -0.0096 -0.7099  0.4188
 5186SOL    HW127017   1.526   1.828   5.507  1.6045  0.5632  1.0343
 5186SOL    HW227018   1.578   1.761   5.395 -2.9793 -3.4922  0.5930
 5187SOL     OW27019   0.065   4.527   7.833 -0.4292 -0.1763 -0.5756
 5187SOL    HW127020   4.714   4.519   7.893  0.1623  0.1278  0.1907
 5187SOL    HW227021   0.017   4.543   7.752 -0.4988 -1.8535 -0.8563
 5188SOL     OW27022   2.356   2.955  14.928  0.1957  0.6725  0.0816
 5188SOL    HW127023   2.276   3.008  14.929 -0.6645 -0.5392 -3.5219
 5188SOL    HW227024   2.351   2.919  15.016  2.1543  1.6549  0.5930
 5189SOL     OW27025   2.385   2.774   8.439 -0.0120 -0.0282  0.3391
 5189SOL    HW127026   2.370   2.705   8.374  0.8870 -0.5577  0.6978
 5189SOL    HW227027   2.429   2.723   8.506  2.3834 -0.6962 -1.7400
 5190SOL     OW27028   1.062   2.910  11.528  0.0395 -0.3977 -0.8592
 5190SOL    HW127029   1.100   2.954  11.604 -0.8079 -0.0823 -0.6180
 5190SOL    HW227030   1.037   2.827  11.569  0.3069  0.6160  1.3597
 5191SOL     OW27031   0.617   4.330   8.476  0.1162 -0.6629  0.3904
 5191SOL    HW127032   0.638   4.368   8.561  2.0111 -3.0086  0.9657
 5191SOL    HW227033   0.679   4.371   8.415 -0.0770  0.2212  0.7875
 5192SOL     OW27034   3.365   2.664   5.986  0.0574 -0.0633  0.4142
 5192SOL    HW127035   3.340   2.572   5.988 -0.1772 -0.0026  0.2869
 5192SOL    HW227036   3.455   2.655   5.957  0.2957  0.6599  0.9394
 5193SOL     OW27037   1.826   0.402   8.183 -0.4083 -0.0846 -0.6903
 5193SOL    HW127038   1.851   0.477   8.128  1.0903  1.1701  1.6872
 5193SOL    HW227039   1.819   0.445   8.268  1.9336 -2.8740  0.8943
 5194SOL     OW27040   2.470   2.796   5.594 -0.3318  0.3075 -0.1706
 5194SOL    HW127041   2.384   2.758   5.614  1.5263 -2.8125  1.8443
 5194SOL    HW227042   2.450   2.854   5.520  0.9240 -0.9658 -1.4839
 5195SOL     OW27043   0.400   3.900  15.839 -0.0188 -0.2666  0.1640
 5195SOL    HW127044   0.338   3.863  15.776 -0.8472  0.1468  0.7467
 5195SOL    HW227045   0.480   3.916  15.788 -0.3163  2.4157  0.5414
 5196SOL     OW27046   2.032   4.262   6.590 -0.0821  0.5930  0.0220
 5196SOL    HW127047   2.010   4.326   6.522 -0.7982  0.0528 -0.2539
 5196SOL    HW227048   2.075   4.196   6.535 -1.8710 -0.8572  0.3828
 5197SOL     OW27049   2.544   4.065   5.131 -0.3137 -0.1486  0.6078
 5197SOL    HW127050   2.498   4.071   5.215 -0.0083 -2.0292  0.9209
 5197SOL    HW227051   2.476   4.013   5.086 -0.2703 -0.5102  0.9644
 5198SOL     OW27052   0.798   4.666   2.871  0.5938 -0.4731 -0.0912
 5198SOL    HW127053   0.767   4.655   2.781 -2.0101 -2.4047  1.0420
 5198SOL    HW227054   0.750   4.601   2.921  0.0329  0.4005  0.4890
 5199SOL     OW27055   4.283   3.090   7.381  0.4035 -0.7145  0.0626
 5199SOL    HW127056   4.359   3.147   7.366 -1.0555  0.8672 -1.3470
 5199SOL    HW227057   4.294   3.054   7.469  0.0874 -1.3573 -0.1622
 5200SOL     OW27058   2.642   4.016   6.597 -0.0152 -0.1829 -0.2127
 5200SOL    HW127059   2.671   3.994   6.686 -1.1498 -1.3883 -0.1449
 5200SOL    HW227060   2.715   3.991   6.540 -0.5198  0.1035 -0.9787
 5201SOL     OW27061   2.684   3.282  15.244 -0.0901 -0.1765 -0.7913
 5201SOL    HW127062   2.644   3.208  15.197  0.4863 -1.9135  1.4758
 5201SOL    HW227063   2.708   3.235  15.323 -0.8622  1.1781  0.2544
 5202SOL     OW27064   3.093   3.215   8.798  0.2155  0.3166 -0.0283
 5202SOL    HW127065   3.091   3.268   8.878  0.3409 -0.3577  0.4287
 5202SOL    HW227066   3.011   3.250   8.765  1.7609  2.4686 -1.5971
 5203SOL     OW27067   2.778   0.006   9.770  0.1906 -0.0702  0.4742
 5203SOL    HW127068   2.756   0.000   9.677  0.1539 -0.1112  0.4856
 5203SOL    HW227069   2.865   4.691   9.766 -0.2397 -1.1991  1.9484
 5204SOL     OW27070   3.340   0.408   0.442 -0.1131  0.1397  0.2440
 5204SOL    HW127071   3.431   0.430   0.422  0.2532 -0.2278  1.4989
 5204SOL    HW227072   3.297   0.487   0.475  1.1917  1.0210 -0.1506
 5205SOL     OW27073   4.075   1.329   7.771  0.0044  0.1965  0.1155
 5205SOL    HW127074   4.059   1.400   7.708 -1.0621 -0.0691  0.0883
 5205SOL    HW227075   4.164   1.355   7.795 -0.3536  2.3595 -0.9281
 5206SOL     OW27076   4.433   3.634  12.001 -0.4759 -0.0257 -0.1131
 5206SOL    HW127077   4.426   3.728  11.985 -0.6409 -0.1607 -0.8534
 5206SOL    HW227078   4.339   3.626  11.985 -0.3806 -0.1998 -0.5935
 5207SOL     OW27079   4.194   2.944  14.051  0.0370  0.0285  0.4775
 5207SOL    HW127080   4.205   2.855  14.084 -2.3016 -1.6077 -3.1869
 5207SOL    HW227081   4.281   2.960  14.015 -0.9061 -0.9797 -2.2435
 5208SOL     OW27082   3.079   4.642   4.083  0.5589  0.3943  0.1310
 5208SOL    HW127083   3.174   4.654   4.089  0.6687  0.1177 -1.0194
 5208SOL    HW227084   3.051   0.003   4.119 -0.6605  0.3210 -0.6428
 5209SOL     OW27085   1.778   3.488   2.984  0.1318 -0.1984  0.4826
 5209SOL    HW127086   1.787   3.416   2.921 -1.1405 -1.6253  1.9116
 5209SOL    HW227087   1.749   3.562   2.931  0.7311  1.4551  2.4565
 5210SOL     OW27088   1.368   2.059   2.896  0.1841  0.8054  0.3956
 5210SOL    HW127089   1.426   2.037   2.968  2.0909 -1.7455 -1.9126
 5210SOL    HW227090   1.430   2.098   2.834 -2.5206 -0.1271 -2.8808
 5211SOL     OW27091   0.240   3.467  10.876  0.0939 -0.1584  0.1879
 5211SOL    HW127092   0.159   3.509  10.904  0.8617  2.6161 -1.7300
 5211SOL    HW227093   0.278   3.459  10.964  0.2260 -2.8045 -0.1096
 5212SOL     OW27094   3.739   3.971   3.386 -0.8448 -0.6217 -1.1088
 5212SOL    HW127095   3.830   3.956   3.411 -0.4398 -0.8910 -2.8026
 5212SOL    HW227096   3.753   3.982   3.292 -1.2104  2.4096 -0.8063
 5213SOL     OW27097   1.096   0.316   3.544  0.0189 -0.6678  1.1575
 5213SOL    HW127098   1.119   0.291   3.455  0.0239 -1.1136  1.2859
 5213SOL    HW227099   1.096   0.412   3.542  3.9320 -0.7077 -0.6851
 5214SOL     OW27100   0.583   3.534  10.884  0.3783  0.5112 -0.2762
 5214SOL    HW127101   0.662   3.529  10.830 -0.8089 -3.1242 -1.7190
 5214SOL    HW227102   0.581   3.444  10.917  2.6275  0.5801  0.0099
 5215SOL     OW27103   0.556   0.246   4.745 -0.1225  0.6038 -0.3724
 5215SOL    HW127104   0.545   0.274   4.654  1.9937 -1.2493 -1.2152
 5215SOL    HW227105   0.601   0.322   4.783  3.2155 -1.0460 -1.0400
 5216SOL     OW27106   2.141   4.590  17.457  0.3144 -0.4308 -0.2579
 5216SOL    HW127107   2.146   4.598  17.553 -0.7874  2.5922 -0.4532
 5216SOL    HW227108   2.182   4.504  17.449 -0.4405 -0.9527  1.4933
 5217SOL     OW27109   0.524   0.031   8.545 -0.3124  0.1882 -0.2935
 5217SOL    HW127110   0.479   4.669   8.549 -0.5103  0.5122  3.9155
 5217SOL    HW227111   0.617   0.016   8.529 -0.1038  0.4192  0.6797
 5218SOL     OW27112   4.194   0.708   8.187 -0.6595 -0.3083 -0.2170
 5218SOL    HW127113   4.246   0.699   8.266 -0.3993 -1.9361 -0.5756
 5218SOL    HW227114   4.213   0.795   8.152 -3.6329 -0.0810 -1.3146
 5219SOL     OW27115   2.508   3.192   5.537 -0.2079 -0.2322  0.0993
 5219SOL    HW127116   2.568   3.182   5.463  0.8933  1.3477  0.7823
 5219SOL    HW227117   2.483   3.281   5.514 -1.3605 -0.2590  1.2605
 5220SOL     OW27118   1.443   1.079   6.389 -0.2616 -0.5154 -0.6116
 5220SOL    HW127119   1.513   1.036   6.437  0.6753  0.8127 -0.7839
 5220SOL    HW227120   1.416   1.018   6.320 -2.3412 -0.9655  0.6023
 5221SOL     OW27121   0.822   0.720   4.239  0.2418  0.4876 -0.1889
 5221SOL    HW127122   0.810   0.728   4.144 -2.2594 -0.3879  0.0616
 5221SOL    HW227123   0.894   0.656   4.237  1.9494  2.3762  1.4549
 5222SOL     OW27124   3.448   2.927   7.178 -0.1271 -0.2022  0.2636
 5222SOL    HW127125   3.360   2.945   7.213  0.3389  0.3563  1.1420
 5222SOL    HW227126   3.446   2.958   7.088  3.0536  0.8196  0.5426
 5223SOL     OW27127   0.169   3.100   3.611  0.3439  0.0369 -0.2641
 5223SOL    HW127128   0.103   3.115   3.542 -0.2213 -2.9572 -0.3509
 5223SOL    HW227129   0.121   3.136   3.685  0.1947 -0.6687 -0.0245
 5224SOL     OW27130   2.506   0.617   1.148 -0.0396 -0.6976 -0.0109
 5224SOL    HW127131   2.433   0.558   1.132  0.3829 -1.0612 -0.5717
 5224SOL    HW227132   2.574   0.559   1.182 -0.3527 -1.8276 -1.3408
 5225SOL     OW27133   0.766   3.220   8.435  0.6726  0.1741  0.2747
 5225SOL    HW127134   0.807   3.263   8.360 -0.3387 -0.4782 -0.6564
 5225SOL    HW227135   0.821   3.260   8.503 -1.0088  0.5839  1.4237
 5226SOL     OW27136   0.380   4.198   4.992  0.1350 -0.0912  0.1051
 5226SOL    HW127137   0.291   4.210   4.960  0.1494  0.7372  0.3791
 5226SOL    HW227138   0.429   4.192   4.910 -0.4158 -0.8113 -0.1715
 5227SOL     OW27139   3.930   2.961   2.819 -0.0799 -0.4056 -0.4306
 5227SOL    HW127140   3.879   2.894   2.772 -1.0075 -0.8148  1.1610
 5227SOL    HW227141   3.974   2.904   2.881 -1.0337  0.0391  0.6536
 5228SOL     OW27142   1.145   1.482   7.610 -0.0544  0.0500  0.2878
 5228SOL    HW127143   1.164   1.508   7.519  0.9779 -2.5536 -0.2446
 5228SOL    HW227144   1.054   1.510   7.602 -1.3330 -3.5883  2.2714
 5229SOL     OW27145   2.993   1.420   2.121 -0.6441 -0.3896 -0.0081
 5229SOL    HW127146   2.992   1.394   2.213 -0.3180  0.8470  0.3442
 5229SOL    HW227147   3.086   1.444   2.120  0.2306 -3.6707 -1.0149
 5230SOL     OW27148   0.399   1.635   6.593 -0.3275  0.0334 -0.2443
 5230SOL    HW127149   0.438   1.690   6.661 -0.0404 -1.3282  0.7056
 5230SOL    HW227150   0.414   1.551   6.638  0.5534 -0.0400 -0.6635
 5231SOL     OW27151   1.743   0.904   3.339  0.8163  0.2240 -0.3285
 5231SOL    HW127152   1.668   0.845   3.337  0.5570  0.5433  0.0721
 5231SOL    HW227153   1.811   0.838   3.324  2.0388  1.5520 -0.6144
 5232SOL     OW27154   2.411   1.989   4.641  0.1466 -0.0100 -0.6191
 5232SOL    HW127155   2.386   1.896   4.643  0.9855 -0.1715  1.5263
 5232SOL    HW227156   2.476   1.987   4.710 -0.4581  1.0355 -0.0278
 5233SOL     OW27157   0.592   0.397   5.435 -1.1777  0.5569 -1.1986
 5233SOL    HW127158   0.559   0.455   5.504 -2.5587 -0.5042 -0.9919
 5233SOL    HW227159   0.534   0.322   5.435 -0.9655  0.3836  0.6414
 5234SOL     OW27160   1.864   2.072  13.480  0.8763 -0.1484 -0.4900
 5234SOL    HW127161   1.813   2.041  13.406 -1.3422 -0.6887  1.2622
 5234SOL    HW227162   1.952   2.082  13.443 -0.2887  0.5990 -2.9917
 5235SOL     OW27163   3.653   1.486   8.219  0.1181 -0.8190  0.2557
 5235SOL    HW127164   3.635   1.564   8.165  2.5174  1.5819  2.9821
 5235SOL    HW227165   3.704   1.429   8.161  0.8150  0.4061 -0.3454
 5236SOL     OW27166   4.409   1.944   5.942 -0.1192  0.4020  0.0546
 5236SOL    HW127167   4.397   1.898   5.860 -1.3811 -0.0387  0.4875
 5236SOL    HW227168   4.485   2.002   5.934 -0.2102  0.5039 -0.0652
 5237SOL     OW27169   4.358   2.120   6.181 -0.2085 -0.4570 -0.5008
 5237SOL    HW127170   4.349   2.175   6.103 -0.2856 -0.7855 -0.7277
 5237SOL    HW227171   4.394   2.047   6.131  2.2560 -0.1633  0.8846
 5238SOL     OW27172   2.886   3.946   8.590 -0.5017  0.2949  0.2834
 5238SOL    HW127173   2.816   3.972   8.650 -0.3145 -1.5112  1.2883
 5238SOL    HW227174   2.866   3.853   8.579 -0.8459  0.4752 -0.6256
 5239SOL     OW27175   3.807   1.315  13.250 -0.0161  0.1212  0.2517
 5239SOL    HW127176   3.900   1.305  13.233 -0.5348 -3.2736 -0.5861
 5239SOL    HW227177   3.815   1.386  13.313  2.6197 -0.9376  1.0751
 5240SOL     OW27178   1.463   0.899   9.474 -0.8826 -0.2842 -0.0634
 5240SOL    HW127179   1.494   0.964   9.537 -1.8429  0.8836 -0.7949
 5240SOL    HW227180   1.467   0.821   9.529 -0.4683 -0.2952 -0.1104
 5241SOL     OW27181   1.537   1.590   8.748 -0.3912  0.2218  0.7375
 5241SOL    HW127182   1.632   1.600   8.746 -0.5886  1.3975 -3.1222
 5241SOL    HW227183   1.515   1.672   8.704 -1.9888 -0.8153 -0.3894
 5242SOL     OW27184   2.991   1.415   3.349  0.7043  0.1403 -0.8023
 5242SOL    HW127185   3.063   1.472   3.376  1.4594  0.0117 -2.5906
 5242SOL    HW227186   3.033   1.372   3.275  0.0937  0.8088 -1.5257
 5243SOL     OW27187   0.109   3.472  13.791  0.3021  0.2821 -0.3320
 5243SOL    HW127188   0.075   3.543  13.846  1.7569 -1.4615  2.8366
 5243SOL    HW227189   0.044   3.460  13.721  0.2405 -2.0577  0.1388
 5244SOL     OW27190   1.402   0.980  16.868 -0.0667  0.3551  0.0022
 5244SOL    HW127191   1.354   1.037  16.928  0.6714  0.5141  0.4470
 5244SOL    HW227192   1.351   0.900  16.859  2.3746 -1.0957 -0.9329
 5245SOL     OW27193   3.614   1.934   6.292 -0.3186  0.5366  0.1936
 5245SOL    HW127194   3.624   1.987   6.213  1.2586 -1.4097 -0.9184
 5245SOL    HW227195   3.706   1.916   6.309 -0.7699 -2.2540 -0.2436
 5246SOL     OW27196   4.289   0.393   2.797  0.1530  0.5507 -0.8726
 5246SOL    HW127197   4.376   0.392   2.757  0.4289  1.0065 -0.2867
 5246SOL    HW227198   4.307   0.386   2.891 -1.6480 -0.3709 -0.5895
 5247SOL     OW27199   0.677   4.375   6.191  0.2511 -0.9747 -0.2562
 5247SOL    HW127200   0.617   4.348   6.261 -0.8136 -1.9481 -1.5321
 5247SOL    HW227201   0.633   4.452   6.155  1.2817 -0.1866  0.1878
 5248SOL     OW27202   3.783   2.950   8.418  0.0792  0.4699 -0.7674
 5248SOL    HW127203   3.731   3.007   8.474 -0.0705  0.5570 -0.9915
 5248SOL    HW227204   3.705   2.926   8.367 -1.2773  0.4853  1.3301
 5249SOL     OW27205   3.806   4.698   5.526 -0.5792 -0.1207  0.2892
 5249SOL    HW127206   3.815   0.070   5.533 -1.0248 -0.1375  1.0457
 5249SOL    HW227207   3.735   4.690   5.589 -1.2214  2.7017 -0.0755
 5250SOL     OW27208   4.538   2.191  16.132 -0.1005  0.1934 -0.2333
 5250SOL    HW127209   4.560   2.283  16.119  1.3074 -0.2837 -1.3123
 5250SOL    HW227210   4.587   2.175  16.213  1.8132 -0.4594 -1.4982
 5251SOL     OW27211   0.370   1.721   8.516  0.0246 -0.4588 -0.2775
 5251SOL    HW127212   0.379   1.815   8.537  0.5335 -0.2758 -1.3222
 5251SOL    HW227213   0.405   1.681   8.595  1.7310 -0.6963 -1.1583
 5252SOL     OW27214   3.948   4.435   2.422  0.3857 -0.2364  0.2058
 5252SOL    HW127215   3.902   4.494   2.482  1.6326  0.4004  0.5364
 5252SOL    HW227216   3.885   4.405   2.355  1.0127 -2.2145  0.4863
 5253SOL     OW27217   3.006   4.411   2.032  0.3186 -0.3779 -0.1290
 5253SOL    HW127218   2.984   4.454   1.950 -2.4160 -1.6684 -0.0767
 5253SOL    HW227219   2.934   4.441   2.088 -2.3275 -3.5282 -1.8126
 5254SOL     OW27220   0.013   4.209   4.296 -0.1877  0.2765 -0.1855
 5254SOL    HW127221   0.017   4.304   4.295  0.2956  0.2446 -1.3071
 5254SOL    HW227222   4.642   4.194   4.287  0.2485 -2.3487 -0.4205
 5255SOL     OW27223   0.337   4.439   2.651 -0.0570  0.7144  1.1122
 5255SOL    HW127224   0.393   4.474   2.582  1.1620 -0.6462  1.3918
 5255SOL    HW227225   0.252   4.466   2.618  0.5754  1.2940 -0.0346
 5256SOL     OW27226   4.101   0.756   0.450 -0.3078 -0.0518  0.2355
 5256SOL    HW127227   4.110   0.840   0.495  0.2201 -0.3628  0.7081
 5256SOL    HW227228   4.190   0.723   0.435  0.4493  2.9162 -1.8668
 5257SOL     OW27229   2.725   4.252   7.677  0.1188  0.0163  0.1839
 5257SOL    HW127230   2.809   4.247   7.630 -0.0190 -1.2936  0.0513
 5257SOL    HW227231   2.675   4.298   7.610  0.9707 -0.2065 -0.6085
 5258SOL     OW27232   1.495   4.376  10.097 -1.0845 -0.1412  0.1598
 5258SOL    HW127233   1.430   4.439  10.128 -1.7176  0.0165 -1.4725
 5258SOL    HW227234   1.569   4.430  10.070 -1.5075  0.2248 -0.2719
 5259SOL     OW27235   4.132   3.793  11.427 -0.1797  0.4142 -0.0359
 5259SOL    HW127236   4.179   3.818  11.507  0.7266 -1.4307  0.0051
 5259SOL    HW227237   4.062   3.858  11.423  0.3233  0.8927 -1.1033
 5260SOL     OW27238   0.949   0.855   3.019  0.4299 -0.1792 -0.1302
 5260SOL    HW127239   0.960   0.949   3.002 -0.3941 -0.0728 -0.1102
 5260SOL    HW227240   0.906   0.831   2.936 -2.3077 -0.5454  1.3845
 5261SOL     OW27241   2.694   4.412   3.981  0.5157  0.8416 -0.0977
 5261SOL    HW127242   2.611   4.372   4.009  0.8006 -0.4542 -1.1503
 5261SOL    HW227243   2.674   4.506   3.988 -1.0231  0.6316 -1.8814
 5262SOL     OW27244   4.358   2.671   3.280 -0.3676  0.9734  0.7018
 5262SOL    HW127245   4.412   2.606   3.234  0.2573  1.3123  0.9550
 5262SOL    HW227246   4.298   2.688   3.207 -0.0310  1.4438  0.5280
 5263SOL     OW27247   0.585   4.299   2.388 -0.0845 -0.2695  0.3944
 5263SOL    HW127248   0.608   4.337   2.303 -1.4498  1.1732  0.6710
 5263SOL    HW227249   0.500   4.257   2.371  0.6953 -1.5770 -0.3021
 5264SOL     OW27250   3.561   4.573   8.519 -0.5283  0.4017  0.6098
 5264SOL    HW127251   3.584   4.554   8.428  0.9342  1.5104  0.7523
 5264SOL    HW227252   3.498   4.506   8.543 -0.1257 -0.5426 -0.9923
 5265SOL     OW27253   3.276   2.209   2.660 -0.0012  0.6908  0.3403
 5265SOL    HW127254   3.371   2.213   2.649  0.0626 -0.3970  0.4505
 5265SOL    HW227255   3.261   2.215   2.754 -3.1892  0.7764 -0.1991
 5266SOL     OW27256   3.605   2.486   3.446 -0.4613  0.0956 -0.1347
 5266SOL    HW127257   3.542   2.530   3.504  0.0215  0.5389  0.0562
 5266SOL    HW227258   3.569   2.397   3.449  1.7669 -0.7757  0.6956
 5267SOL     OW27259   3.179   4.648   7.512 -0.0604  0.0098  0.0514
 5267SOL    HW127260   3.174   4.665   7.418  2.6239 -0.8128 -0.2379
 5267SOL    HW227261   3.274   4.649   7.522 -0.1497  1.6884  0.6076
 5268SOL     OW27262   3.614   1.598   5.399 -0.1696 -0.3981  0.1793
 5268SOL    HW127263   3.555   1.673   5.387  0.8791  0.3335 -0.3842
 5268SOL    HW227264   3.673   1.636   5.464  0.1405  1.3438 -1.1128
 5269SOL     OW27265   2.002   4.181   9.319  0.1430 -0.1457  0.1049
 5269SOL    HW127266   2.047   4.148   9.241  0.1435 -0.0444  0.0621
 5269SOL    HW227267   1.964   4.262   9.286 -1.0331 -0.7755 -0.0791
 5270SOL     OW27268   3.108   1.847   4.207  0.2999  0.3766  0.3099
 5270SOL    HW127269   3.081   1.760   4.236 -0.6945  0.8112  0.6992
 5270SOL    HW227270   3.118   1.828   4.113  2.5188  0.0189  0.6065
 5271SOL     OW27271   0.193   3.322   7.857  0.6877 -0.1509 -0.2264
 5271SOL    HW127272   0.126   3.253   7.853  2.2850 -1.7700  0.6580
 5271SOL    HW227273   0.247   3.283   7.925 -0.6985 -1.8087 -0.0578
 5272SOL     OW27274   3.600   3.578   8.800  0.5746  0.0580  0.1919
 5272SOL    HW127275   3.563   3.504   8.849 -2.1166  1.7766  0.7372
 5272SOL    HW227276   3.539   3.598   8.730 -0.2540  2.3774  1.5848
 5273SOL     OW27277   2.653   3.166   5.327  0.0676  0.4114  0.2679
 5273SOL    HW127278   2.723   3.121   5.281  0.7147  1.2482  0.4400
 5273SOL    HW227279   2.649   3.242   5.269  1.3061 -0.1438 -0.5422
 5274SOL     OW27280   4.125   4.223   4.567  0.2965 -0.1213 -0.8890
 5274SOL    HW127281   4.105   4.252   4.656  3.6589  0.4000 -0.3174
 5274SOL    HW227282   4.214   4.256   4.552 -0.2179  0.7076 -2.1480
 5275SOL     OW27283   3.942   1.792  15.885 -0.2634  0.2105  0.2565
 5275SOL    HW127284   3.890   1.867  15.855  0.3137  0.7749  0.6757
 5275SOL    HW227285   4.023   1.817  15.839  0.4869 -1.6070  0.5723
 5276SOL     OW27286   3.691   4.228   4.811  0.3381  0.6068 -0.3334
 5276SOL    HW127287   3.705   4.323   4.811 -2.2299  0.9908  1.1711
 5276SOL    HW227288   3.602   4.232   4.845  0.6573  1.9005  0.3428
 5277SOL     OW27289   4.011   3.244  12.631  0.2760 -0.1174  0.5772
 5277SOL    HW127290   3.994   3.151  12.643 -1.4002  0.3986  2.1835
 5277SOL    HW227291   4.101   3.250  12.661  0.5248 -1.4661  0.0892
 5278SOL     OW27292   4.557   1.772   9.281 -0.5605 -0.4806 -0.2639
 5278SOL    HW127293   4.579   1.741   9.368 -1.3019  0.0923  0.1226
 5278SOL    HW227294   4.609   1.707   9.233 -0.1648  0.4637 -1.1249
 5279SOL     OW27295   4.311   1.630   0.099 -0.1579  0.4003 -0.4756
 5279SOL    HW127296   4.318   1.556   0.038 -0.9141  0.5628 -0.7529
 5279SOL    HW227297   4.366   1.603   0.173  0.1728 -0.3588 -0.9955
 5280SOL     OW27298   3.010   1.132   0.259 -0.4604 -0.2648 -0.2211
 5280SOL    HW127299   3.094   1.128   0.213 -0.4036 -0.2808 -0.1169
 5280SOL    HW227300   3.052   1.137   0.346 -0.1420  0.3911 -0.4126
 5281SOL     OW27301   0.041   0.041   8.417  0.5737 -0.4877  0.3254
 5281SOL    HW127302   0.124   0.006   8.384  0.3550 -0.1932 -0.5328
 5281SOL    HW227303   4.699   4.721   8.362  0.4718  1.6896 -1.2588
 5282SOL     OW27304   4.026   0.004   8.096  0.7169 -0.5020  0.3971
 5282SOL    HW127305   4.012   0.048   8.012 -1.6526 -1.7780  0.1080
 5282SOL    HW227306   4.094   0.057   8.138  0.2857 -1.0915  1.8508
 5283SOL     OW27307   0.554   1.090   4.248 -0.7843  0.1651  0.0235
 5283SOL    HW127308   0.503   1.009   4.244  0.3316 -0.5891  1.2155
 5283SOL    HW227309   0.539   1.123   4.159  0.4490  2.1964  0.5890
 5284SOL     OW27310   4.516   2.975   3.180 -0.3353  0.1686  0.5090
 5284SOL    HW127311   4.521   2.913   3.252  0.8382  0.5981  0.8055
 5284SOL    HW227312   4.436   2.945   3.137  0.2164  0.4196 -0.7126
 5285SOL     OW27313   1.001   0.286   4.745  0.1200  0.0961  0.1534
 5285SOL    HW127314   0.929   0.332   4.701  0.1297  1.7596  1.8859
 5285SOL    HW227315   1.033   0.350   4.808 -1.6190  0.1978  0.9482
 5286SOL     OW27316   0.906   0.128   5.927  0.3209  0.7875  0.0821
 5286SOL    HW127317   0.874   0.065   5.992 -3.8047 -0.4527 -3.1095
 5286SOL    HW227318   0.966   0.082   5.869 -1.5025 -1.3706 -0.0868
 5287SOL     OW27319   4.109   2.680   4.611  0.4822  0.1507  0.0760
 5287SOL    HW127320   4.048   2.681   4.538  2.3747 -0.2281 -1.5187
 5287SOL    HW227321   4.053   2.672   4.688  1.5231  0.0482  0.8300
 5288SOL     OW27322   2.907   4.343   7.876 -0.3350 -0.1931  0.0185
 5288SOL    HW127323   2.952   4.305   7.952  0.4645 -0.7302 -0.7320
 5288SOL    HW227324   2.862   4.269   7.836  0.1025  0.5569 -1.8375
 5289SOL     OW27325   1.800   0.443   9.164  0.1485 -0.4070  0.1119
 5289SOL    HW127326   1.761   0.530   9.156  1.4211 -0.0284 -2.2356
 5289SOL    HW227327   1.754   0.392   9.097  0.4234 -0.3167 -0.1459
 5290SOL     OW27328   0.575   0.734  13.811  0.4505 -0.6694 -0.1614
 5290SOL    HW127329   0.636   0.805  13.830  0.4046 -0.7854  0.4471
 5290SOL    HW227330   0.502   0.752  13.872  0.7743  4.5064 -1.2455
 5291SOL     OW27331   0.243   2.763  16.991 -0.1793  0.0887  0.8024
 5291SOL    HW127332   0.277   2.682  17.029  1.2900 -0.4631 -1.6614
 5291SOL    HW227333   0.234   2.814  17.071 -0.7733  0.9427  0.1938
 5292SOL     OW27334   0.549   2.573   3.216 -0.2746  0.6671 -0.3998
 5292SOL    HW127335   0.482   2.576   3.148  1.2603 -2.0576 -2.0396
 5292SOL    HW227336   0.628   2.601   3.171  2.4211 -1.8029  2.8173
 5293SOL     OW27337   1.689   1.237   7.305 -0.2681 -0.0128 -0.7543
 5293SOL    HW127338   1.705   1.171   7.373 -0.1504  2.0683  1.2134
 5293SOL    HW227339   1.677   1.173   7.235  1.5488 -1.5140  0.2948
 5294SOL     OW27340   2.196   3.715  11.535 -0.3875  0.4039  0.1616
 5294SOL    HW127341   2.129   3.783  11.544  0.2218  1.1049 -0.6089
 5294SOL    HW227342   2.239   3.733  11.451 -1.9028  0.1525 -0.6779
 5295SOL     OW27343   1.678   3.615   1.975 -0.1211 -0.0876 -0.0854
 5295SOL    HW127344   1.741   3.557   2.017 -0.1636 -0.4225 -0.4807
 5295SOL    HW227345   1.597   3.564   1.976 -2.0604  3.0278  1.8429
 5296SOL     OW27346   1.274   3.207  12.343 -0.0188 -0.2540 -0.0694
 5296SOL    HW127347   1.332   3.279  12.368 -2.3097  1.8111 -0.5836
 5296SOL    HW227348   1.343   3.149  12.313  0.2833 -0.9936  2.0925
 5297SOL     OW27349   4.486   2.146  12.007 -0.2509  0.2058  0.5073
 5297SOL    HW127350   4.526   2.233  12.001 -0.0920 -0.0122 -1.4097
 5297SOL    HW227351   4.565   2.098  12.032 -0.2774  0.6697  1.5205
 5298SOL     OW27352   4.002   2.490   6.565 -0.1139  0.6762 -0.3070
 5298SOL    HW127353   3.971   2.490   6.656  1.1055  3.1898  0.1110
 5298SOL    HW227354   4.078   2.547   6.569 -0.2977  0.9209 -0.3109
 5299SOL     OW27355   4.404   0.183  11.065  0.3654  0.0803  0.0628
 5299SOL    HW127356   4.414   0.115  11.131  1.0369  0.4606  0.3500
 5299SOL    HW227357   4.385   0.120  10.995 -0.5812  0.3775  0.0451
 5300SOL     OW27358   2.134   4.574   0.066  0.7089  0.3311 -0.4594
 5300SOL    HW127359   2.116   4.484   0.094  1.1432  0.5314  0.4666
 5300SOL    HW227360   2.109   4.617   0.148  3.1944 -0.5723  0.7869
 5301SOL     OW27361   2.447   4.063  15.917  0.1701  0.0137  0.3224
 5301SOL    HW127362   2.435   4.101  15.830  1.2072 -0.5406 -0.0648
 5301SOL    HW227363   2.506   3.994  15.888 -1.1507 -1.0858  0.2685
 5302SOL     OW27364   3.624   1.966   2.287  0.1268  0.6059 -0.1116
 5302SOL    HW127365   3.541   2.013   2.279 -0.1690  0.5579  2.4308
 5302SOL    HW227366   3.586   1.881   2.265 -0.2031  1.2085 -1.8553
 5303SOL     OW27367   0.925   3.607   7.006  0.3839  0.1100 -0.3512
 5303SOL    HW127368   0.855   3.560   6.960  0.5174 -0.2811 -0.1566
 5303SOL    HW227369   0.934   3.680   6.944 -1.3430 -0.3699 -1.1458
 5304SOL     OW27370   1.842   2.660   7.341 -0.3013 -0.2705  0.0867
 5304SOL    HW127371   1.782   2.659   7.415 -0.8981 -1.7889 -0.4141
 5304SOL    HW227372   1.879   2.576   7.368 -0.4613  0.3614  2.2149
 5305SOL     OW27373   4.388   0.599   7.950 -0.2632  0.6597 -0.2097
 5305SOL    HW127374   4.440   0.674   7.978 -0.5174  0.0014  2.0603
 5305SOL    HW227375   4.317   0.600   8.014 -1.2890  0.7410 -1.3377
 5306SOL     OW27376   1.167   1.896   4.077  0.5594 -0.0535 -0.7136
 5306SOL    HW127377   1.155   1.961   4.146  0.9585  0.0640 -0.7558
 5306SOL    HW227378   1.221   1.830   4.120  1.1000  1.4559  0.9167
 5307SOL     OW27379   0.858   2.379  11.998 -0.2175  0.3845  0.4003
 5307SOL    HW127380   0.877   2.301  12.050  1.6780  0.5470 -0.0495
 5307SOL    HW227381   0.762   2.380  11.992 -0.2958 -3.6044  0.6930
 5308SOL     OW27382   1.685   2.112   1.776  0.0778 -0.8970 -0.4904
 5308SOL    HW127383   1.680   2.020   1.750 -1.9381 -0.8987 -0.0447
 5308SOL    HW227384   1.641   2.100   1.860  0.5346 -0.9375 -0.2548
 5309SOL     OW27385   4.415   3.573   6.144 -0.3078  0.5643 -0.3575
 5309SOL    HW127386   4.458   3.591   6.228 -1.2408  2.0390 -0.2038
 5309SOL    HW227387   4.452   3.487   6.126  1.8385  0.9743  2.0359
 5310SOL     OW27388   2.941   3.099   7.692 -0.4936 -0.6713  0.0039
 5310SOL    HW127389   2.955   3.009   7.722  3.5853 -0.4046 -1.0429
 5310SOL    HW227390   2.847   3.112   7.682 -0.8496 -1.9818  1.5000
 5311SOL     OW27391   0.435   4.106   7.174 -0.3356 -0.3012 -0.1707
 5311SOL    HW127392   0.488   4.103   7.253 -2.4119 -1.8433  1.1635
 5311SOL    HW227393   0.505   4.123   7.110  0.4295  1.5103  1.1750
 5312SOL     OW27394   0.667   0.464  14.852 -0.3226 -0.3492  0.3982
 5312SOL    HW127395   0.737   0.499  14.907  0.5519 -0.3754 -0.7000
 5312SOL    HW227396   0.684   0.516  14.773 -0.2709 -0.7464  0.1483
 5313SOL     OW27397   4.225   3.026   6.552  0.4565  0.3193  0.4732
 5313SOL    HW127398   4.184   3.046   6.636 -0.5371 -0.9073  0.2710
 5313SOL    HW227399   4.203   3.111   6.513  1.2775  0.6377  0.6886
 5314SOL     OW27400   4.367   1.293  12.764 -0.4410  0.0175  0.5618
 5314SOL    HW127401   4.307   1.360  12.797  0.2112  0.9827 -0.1968
 5314SOL    HW227402   4.432   1.291  12.833 -1.5946  0.7093  1.6673
 5315SOL     OW27403   2.309   3.351   2.962 -0.3741 -0.1252  0.3728
 5315SOL    HW127404   2.381   3.371   2.902  1.2141 -1.7987  1.7061
 5315SOL    HW227405   2.340   3.377   3.049  0.3024  1.7207 -0.4150
 5316SOL     OW27406   2.604   2.972   5.755 -0.3566  0.4224  0.6046
 5316SOL    HW127407   2.580   2.896   5.703  1.8335 -1.0015  1.6654
 5316SOL    HW227408   2.524   3.019   5.732 -0.7553  0.3914  1.9610
 5317SOL     OW27409   0.569   2.334   1.974  0.4191 -0.0773  0.4262
 5317SOL    HW127410   0.611   2.296   2.051  1.8253  1.0491  0.1982
 5317SOL    HW227411   0.628   2.405   1.952 -2.0075  2.1390  1.0755
 5318SOL     OW27412   1.880   1.008   9.873  0.0769  0.4479  0.3655
 5318SOL    HW127413   1.951   0.983   9.814 -0.3110 -2.7956  1.2659
 5318SOL    HW227414   1.816   0.937   9.874 -0.2147  0.6715 -2.3704
 5319SOL     OW27415   3.968   4.233   9.129  0.0481  0.2055 -0.3138
 5319SOL    HW127416   3.876   4.222   9.104 -0.3779 -0.0023  1.3473
 5319SOL    HW227417   3.986   4.322   9.096 -3.0980  0.8906 -0.1973
 5320SOL     OW27418   3.808   0.014   6.305 -0.5214  0.2753 -0.0948
 5320SOL    HW127419   3.810   4.650   6.265  3.9618 -0.1683  1.1155
 5320SOL    HW227420   3.717   0.021   6.335 -0.8154  3.1166 -1.7477
 5321SOL     OW27421   3.370   1.360   3.790 -0.2077 -0.2868  0.4547
 5321SOL    HW127422   3.413   1.435   3.832 -1.4598  0.7921 -0.1538
 5321SOL    HW227423   3.280   1.389   3.775  1.6005  4.4749 -1.3691
 5322SOL     OW27424   4.381   3.330   5.816 -0.1964 -0.6914  0.4524
 5322SOL    HW127425   4.385   3.357   5.908  0.6218  0.5885  0.0362
 5322SOL    HW227426   4.443   3.259   5.832 -0.5494 -1.0588  0.1748
 5323SOL     OW27427   1.076   0.267   3.079  0.1443  0.5063 -0.0873
 5323SOL    HW127428   1.123   0.298   3.156  1.5934  1.2693 -1.2560
 5323SOL    HW227429   1.023   0.343   3.053  0.0771  0.2403 -0.7417
 5324SOL     OW27430   4.671   2.184   4.377 -0.0261  0.2248  0.2119
 5324SOL    HW127431   4.688   2.161   4.285 -0.1852 -0.1112  0.2678
 5324SOL    HW227432   4.576   2.171   4.383  0.0221  0.6473  1.7612
 5325SOL     OW27433   3.045   2.335   5.263 -0.4279 -0.2561  0.3025
 5325SOL    HW127434   3.090   2.251   5.272  0.4258  0.4357  2.4040
 5325SOL    HW227435   3.015   2.336   5.172  0.8516  1.8566 -0.0991
 5326SOL     OW27436   0.008   0.506   8.432  0.2122 -0.1265 -0.8717
 5326SOL    HW127437   0.036   0.593   8.404 -0.4018  0.4827  0.4088
 5326SOL    HW227438   0.098   0.475   8.442 -0.3131 -0.8258  1.7578
 5327SOL     OW27439   3.846   0.545   3.876  0.0113 -0.5730  0.5597
 5327SOL    HW127440   3.918   0.591   3.920  0.4806 -0.2005 -0.6057
 5327SOL    HW227441   3.855   0.457   3.913 -0.8473 -1.1336 -0.5968
 5328SOL     OW27442   3.946   0.675   2.235 -0.0504 -0.3227  0.4941
 5328SOL    HW127443   3.927   0.728   2.158 -0.8539 -0.1998  0.7716
 5328SOL    HW227444   3.974   0.746   2.293  0.2463 -1.4953  1.8067
 5329SOL     OW27445   1.082   3.105   4.072  0.3800 -0.2505  0.0282
 5329SOL    HW127446   1.089   3.148   4.158  0.9034  1.3760 -0.8255
 5329SOL    HW227447   1.057   3.183   4.022  0.5842  0.7767  1.4984
 5330SOL     OW27448   3.645   2.559   1.699  0.5548  0.2339 -0.0000
 5330SOL    HW127449   3.588   2.567   1.622  0.9289 -3.0101 -0.5890
 5330SOL    HW227450   3.612   2.477   1.733 -1.2753  0.7464 -0.5568
 5331SOL     OW27451   0.711   1.304   9.585 -0.6121 -0.0579 -0.2310
 5331SOL    HW127452   0.673   1.285   9.671 -1.4228 -1.7082 -0.9417
 5331SOL    HW227453   0.792   1.253   9.593 -0.7130 -0.3757 -1.2275
 5332SOL     OW27454   1.177   3.069   2.134  0.0548 -0.4466  0.4506
 5332SOL    HW127455   1.173   3.000   2.199  0.9861 -0.3344  0.6346
 5332SOL    HW227456   1.262   3.052   2.093  1.3173  0.5700  2.6721
 5333SOL     OW27457   1.302   1.450   9.257 -0.6373 -0.1386  0.0992
 5333SOL    HW127458   1.257   1.468   9.175  1.1017 -2.7807 -1.4195
 5333SOL    HW227459   1.243   1.507   9.307  0.1756  0.7273  0.0784
 5334SOL     OW27460   3.045   2.978   5.554  0.0574  0.3810  0.1390
 5334SOL    HW127461   3.042   2.930   5.637 -0.4621  0.2347  0.0279
 5334SOL    HW227462   2.958   3.017   5.559 -0.6845 -1.1924 -0.8573
 5335SOL     OW27463   3.261   3.839  16.746 -0.0360  0.0677  0.1205
 5335SOL    HW127464   3.224   3.751  16.734 -2.6309  1.2022 -0.3250
 5335SOL    HW227465   3.196   3.892  16.700  0.3650 -0.0420 -0.5697
 5336SOL     OW27466   2.131   2.919   4.764  0.5480 -0.3125  0.0877
 5336SOL    HW127467   2.218   2.922   4.804 -0.4924 -1.0844  2.4126
 5336SOL    HW227468   2.152   2.945   4.674 -0.3207 -2.1667 -0.6490
 5337SOL     OW27469   2.368   2.412   4.621  1.0283  0.0148 -1.2029
 5337SOL    HW127470   2.337   2.480   4.682  1.1168 -2.1571  1.2731
 5337SOL    HW227471   2.462   2.428   4.612  0.6064  3.1103 -0.2452
 5338SOL     OW27472   0.716   4.638   2.610  0.5129  0.2892  0.7404
 5338SOL    HW127473   0.671   4.649   2.526  0.2283  1.0143  0.9877
 5338SOL    HW227474   0.707   4.544   2.621  2.1928 -0.0285 -0.5571
 5339SOL     OW27475   3.062   3.678   5.402  0.2208  0.6842  0.6608
 5339SOL    HW127476   3.120   3.635   5.340  0.2222  2.9028 -0.8756
 5339SOL    HW227477   3.057   3.762   5.356  1.7519  0.6829  0.4993
 5340SOL     OW27478   3.686   1.071   4.831  0.1518  0.0507  0.1286
 5340SOL    HW127479   3.650   0.993   4.788 -0.7982 -0.4757  1.8843
 5340SOL    HW227480   3.768   1.088   4.786  1.5115 -0.1472  2.5714
 5341SOL     OW27481   3.297   3.352   5.238  0.4327  0.2220  0.0778
 5341SOL    HW127482   3.302   3.376   5.330  2.8900  0.5764 -0.1457
 5341SOL    HW227483   3.354   3.410   5.187  2.0256 -1.0408  0.4280
 5342SOL     OW27484   3.752   3.559   3.476  0.1999 -0.4904  0.2630
 5342SOL    HW127485   3.720   3.636   3.525  0.4653  0.3188 -0.8350
 5342SOL    HW227486   3.677   3.500   3.466  1.2152 -1.4933 -1.3200
 5343SOL     OW27487   3.001   4.471   4.587  0.3105  0.2594  0.1390
 5343SOL    HW127488   2.912   4.479   4.552 -0.3998 -3.1914  1.1256
 5343SOL    HW227489   3.016   4.549   4.640  1.8892 -0.6832  1.0826
 5344SOL     OW27490   0.854   0.121  15.470 -0.3048  0.0108 -0.3750
 5344SOL    HW127491   0.813   0.188  15.416 -1.1128 -0.2732 -0.1151
 5344SOL    HW227492   0.802   0.046  15.441  0.7330 -0.5669 -0.7300
 5345SOL     OW27493   1.059   4.099   5.107  0.6398  0.1219 -0.2750
 5345SOL    HW127494   1.115   4.027   5.079  0.0661  0.0177 -1.1171
 5345SOL    HW227495   0.981   4.088   5.054  1.0446 -0.0071 -0.8494
 5346SOL     OW27496   2.855   4.708   5.530  0.1693 -0.1783 -0.1203
 5346SOL    HW127497   2.770   4.711   5.485 -0.6819 -2.4437  1.3354
 5346SOL    HW227498   2.830   4.716   5.622 -0.9092 -1.4010 -0.2995
 5347SOL     OW27499   1.702   4.620   8.930 -0.1239 -0.0792 -0.0485
 5347SOL    HW127500   1.679   4.560   9.002 -0.0872  0.2258  0.2166
 5347SOL    HW227501   1.616   4.641   8.894  0.0112 -1.6082 -1.2796
 5348SOL     OW27502   1.523   2.189   0.873 -0.2176  0.2079 -0.2158
 5348SOL    HW127503   1.483   2.228   0.795  2.7045  1.5110 -1.0514
 5348SOL    HW227504   1.596   2.137   0.839  1.1277  1.1354  1.2343
 5349SOL     OW27505   0.068   1.048  12.992  0.0886 -0.5648  0.3149
 5349SOL    HW127506   0.014   0.969  12.977  0.1974 -0.5205 -0.3305
 5349SOL    HW227507   0.025   1.084  13.070 -1.3277  2.5322 -1.9081
 5350SOL     OW27508   2.719   2.229   3.938 -0.7430  0.1245  0.4560
 5350SOL    HW127509   2.684   2.237   4.026 -1.7737 -2.4264  0.2784
 5350SOL    HW227510   2.645   2.182   3.900  0.8921  0.9291 -3.8268
 5351SOL     OW27511   1.846   0.447   1.736 -0.1126 -0.0603  0.2713
 5351SOL    HW127512   1.890   0.361   1.741  0.4337  0.2636  1.1786
 5351SOL    HW227513   1.772   0.419   1.682  2.3934  0.2258 -3.3062
 5352SOL     OW27514   4.332   2.301   2.075 -0.5456 -0.8025  0.0742
 5352SOL    HW127515   4.346   2.342   1.989 -2.7452  1.4729  0.7815
 5352SOL    HW227516   4.353   2.367   2.141  0.2324  1.5411 -2.4858
 5353SOL     OW27517   1.778   2.922   6.719 -0.3920 -0.5247  0.2793
 5353SOL    HW127518   1.825   2.868   6.782  0.9249  0.2983  0.0096
 5353SOL    HW227519   1.840   2.916   6.646  0.9206 -2.7782  1.5707
 5354SOL     OW27520   4.190   3.871   4.787  0.6841  0.3683 -0.1011
 5354SOL    HW127521   4.128   3.923   4.838  2.3670  2.1572  0.1439
 5354SOL    HW227522   4.214   3.806   4.852 -1.2463  0.1372  0.3680
 5355SOL     OW27523   1.668   1.722   6.535  0.0929 -0.2982 -0.1084
 5355SOL    HW127524   1.651   1.815   6.549 -0.4921 -0.1905 -1.5133
 5355SOL    HW227525   1.637   1.703   6.446  0.4274  2.3669 -0.7809
 5356SOL     OW27526   0.617   1.361   3.707  0.0287  0.5063 -0.0508
 5356SOL    HW127527   0.543   1.367   3.647  0.5292  1.7241 -0.5291
 5356SOL    HW227528   0.619   1.452   3.735 -2.3806 -0.9657  4.9207
 5357SOL     OW27529   0.981   1.880   3.277 -0.0125  0.2243  0.1839
 5357SOL    HW127530   0.937   1.797   3.294 -0.9679  0.8096  0.6231
 5357SOL    HW227531   1.012   1.897   3.366  0.3141 -0.0301  0.1159
 5358SOL     OW27532   0.453   0.966   3.784 -0.5176  0.3130 -0.0808
 5358SOL    HW127533   0.501   1.028   3.730 -0.4819 -1.6294 -2.2872
 5358SOL    HW227534   0.497   0.886   3.756  0.8591  1.0780 -0.0886
 5359SOL     OW27535   1.940   1.389  16.593 -0.2379 -0.7275 -0.3366
 5359SOL    HW127536   1.925   1.445  16.517 -0.7564 -1.8110 -1.0200
 5359SOL    HW227537   2.028   1.417  16.616 -0.4478 -0.0104 -0.3856
 5360SOL     OW27538   3.485   3.469   4.529 -0.0125  0.7340  0.7908
 5360SOL    HW127539   3.537   3.514   4.595  0.0776 -1.2397  2.0824
 5360SOL    HW227540   3.499   3.515   4.447 -1.2445 -0.9592 -0.3710
 5361SOL     OW27541   2.737   2.756   8.297 -0.1631  0.2382 -0.6677
 5361SOL    HW127542   2.724   2.732   8.205  1.6250 -0.3091 -0.7713
 5361SOL    HW227543   2.769   2.676   8.339 -0.1826  0.3767 -0.3913
 5362SOL     OW27544   4.298   4.624   4.069 -0.2970 -0.2376  0.3433
 5362SOL    HW127545   4.227   4.681   4.097 -1.3702 -0.9759 -0.8952
 5362SOL    HW227546   4.266   4.542   4.108 -1.9417  0.2442  0.0231
 5363SOL     OW27547   1.790   1.064   6.401 -0.1504 -0.1631  0.0746
 5363SOL    HW127548   1.835   1.114   6.333  0.1382  0.6654  0.8619
 5363SOL    HW227549   1.828   1.105   6.479 -4.3803  0.7716  1.6479
 5364SOL     OW27550   3.612   1.992   4.669 -0.2525 -0.1484  0.0715
 5364SOL    HW127551   3.596   1.897   4.669 -0.0225 -0.2036  4.1026
 5364SOL    HW227552   3.659   2.013   4.750 -3.7349  1.0079  1.7761
 5365SOL     OW27553   1.883   2.548  13.747 -0.4041 -0.1597 -0.5628
 5365SOL    HW127554   1.876   2.617  13.812 -1.0408 -1.7321  1.0364
 5365SOL    HW227555   1.817   2.486  13.779  0.0077 -0.1011  0.3872
 5366SOL     OW27556   1.691   4.415   2.897 -0.1589 -0.4971  0.1028
 5366SOL    HW127557   1.655   4.327   2.907 -2.3069  0.2247 -1.1911
 5366SOL    HW227558   1.606   4.460   2.892 -0.8985 -1.5142  3.2591
 5367SOL     OW27559   4.321   1.711  16.033  0.0081 -0.0565  0.0611
 5367SOL    HW127560   4.294   1.802  16.044 -1.0769 -0.6483  2.3245
 5367SOL    HW227561   4.407   1.699  16.073  0.8880  1.2251 -1.4020
 5368SOL     OW27562   2.778   4.504   1.503  0.6290 -0.5728 -0.2658
 5368SOL    HW127563   2.866   4.538   1.520  1.4239 -2.3240 -0.8843
 5368SOL    HW227564   2.794   4.411   1.487 -0.9761 -0.9017  0.0611
 5369SOL     OW27565   1.847   2.845   5.433 -0.5740 -0.2317  0.5132
 5369SOL    HW127566   1.830   2.775   5.370 -1.5664  1.5699 -1.2342
 5369SOL    HW227567   1.759   2.883   5.429 -0.0049  0.7850 -2.0930
 5370SOL     OW27568   4.523   4.427  15.968  0.3615 -0.2816 -0.8122
 5370SOL    HW127569   4.562   4.498  15.917 -1.6226  0.0114 -1.9730
 5370SOL    HW227570   4.591   4.363  15.948 -0.8940 -1.9584  0.2709
 5371SOL     OW27571   3.678   1.521  12.488 -0.2667  0.1226  0.2243
 5371SOL    HW127572   3.620   1.468  12.543 -0.7083 -0.6341 -0.9600
 5371SOL    HW227573   3.765   1.488  12.509 -0.7370 -1.8035 -0.8608
 5372SOL     OW27574   2.341   3.916   2.205 -0.2984 -0.0298  0.3322
 5372SOL    HW127575   2.258   3.964   2.204  0.4113  1.1964  0.0540
 5372SOL    HW227576   2.322   3.859   2.131 -2.0150 -1.1793  1.6634
 5373SOL     OW27577   4.084   3.059   2.332 -0.6300  0.1938  0.5762
 5373SOL    HW127578   3.988   3.054   2.332 -0.5046 -1.7398 -2.7394
 5373SOL    HW227579   4.094   2.966   2.313  1.4548  0.7726 -1.0529
 5374SOL     OW27580   1.897   1.898   1.828  0.1544 -0.1868  0.1067
 5374SOL    HW127581   1.843   1.976   1.843 -0.2416 -1.1658  3.7906
 5374SOL    HW227582   1.924   1.925   1.740 -1.5603  0.2999 -0.2772
 5375SOL     OW27583   2.514   1.956  15.482  0.2711 -0.2470 -0.0523
 5375SOL    HW127584   2.432   1.996  15.512 -0.7246 -1.7979 -0.6786
 5375SOL    HW227585   2.566   1.920  15.554  1.7862  1.2961 -0.4090
 5376SOL     OW27586   2.491   3.739  11.524 -0.5732 -0.0676 -0.5376
 5376SOL    HW127587   2.552   3.772  11.458  0.3623 -2.9801 -1.1407
 5376SOL    HW227588   2.468   3.654  11.486 -2.1041 -0.7532  1.9304
 5377SOL     OW27589   0.347   4.639  13.653 -0.5520 -0.1397  0.4528
 5377SOL    HW127590   0.253   4.624  13.665 -0.6076 -1.1658 -1.1215
 5377SOL    HW227591   0.363   4.584  13.576  0.4658  0.5988  0.1509
 5378SOL     OW27592   2.815   3.713   6.940 -0.0288  0.0576 -0.0094
 5378SOL    HW127593   2.838   3.727   6.848  4.0256 -0.8339  0.8399
 5378SOL    HW227594   2.897   3.746   6.976  0.7591  0.0263 -1.7510
 5379SOL     OW27595   0.335   1.202   2.291 -0.0676  0.0165  0.4901
 5379SOL    HW127596   0.265   1.163   2.342 -0.2506 -0.4932 -0.1480
 5379SOL    HW227597   0.396   1.130   2.275  0.1712  0.3888 -0.2792
 5380SOL     OW27598   3.674   2.292  15.487  0.3418 -0.6101 -0.0213
 5380SOL    HW127599   3.759   2.299  15.444  0.6227  0.1147  0.6320
 5380SOL    HW227600   3.661   2.380  15.523 -0.5804 -1.2615  1.2554
 5381SOL     OW27601   1.414   2.555   7.285 -0.1260  0.1796 -0.4779
 5381SOL    HW127602   1.325   2.590   7.297 -0.1053  0.1500 -0.2467
 5381SOL    HW227603   1.418   2.520   7.374  0.4453  0.2132 -0.4937
 5382SOL     OW27604   0.039   2.836   9.560 -0.2141 -0.2814 -0.3706
 5382SOL    HW127605   4.700   2.866   9.626  1.1222 -1.8751  1.5978
 5382SOL    HW227606   0.114   2.887   9.587 -1.1608  0.3939  0.9600
 5383SOL     OW27607   2.272   2.460  13.138  0.2758 -0.3982 -0.4725
 5383SOL    HW127608   2.268   2.494  13.049 -1.4939  0.3649 -0.1030
 5383SOL    HW227609   2.362   2.478  13.165 -0.1733 -1.6422  1.8834
 5384SOL     OW27610   4.375   3.840   2.652  0.1049  0.3084 -0.7699
 5384SOL    HW127611   4.408   3.929   2.642  1.5161  0.1070  2.0786
 5384SOL    HW227612   4.288   3.868   2.625  0.6865  1.9518 -0.8886
 5385SOL     OW27613   1.422   2.256   8.886 -0.1395  0.1393  0.5373
 5385SOL    HW127614   1.360   2.232   8.954 -2.5163 -1.6114 -2.2708
 5385SOL    HW227615   1.471   2.335   8.908  1.9980 -0.7905 -0.8307
 5386SOL     OW27616   2.310   1.294   3.466  0.4010 -0.1616 -0.5374
 5386SOL    HW127617   2.270   1.319   3.382 -0.1709  1.8523  0.3352
 5386SOL    HW227618   2.227   1.302   3.512  0.1547  0.2825 -1.0517
 5387SOL     OW27619   2.284   0.900   2.825  0.4822 -0.4976 -0.0567
 5387SOL    HW127620   2.358   0.895   2.885 -0.4326  2.3966  1.2768
 5387SOL    HW227621   2.341   0.931   2.754  1.5371  0.8221  1.3730
 5388SOL     OW27622   0.886   2.509   4.820  0.5391 -0.3716 -0.3712
 5388SOL    HW127623   0.973   2.475   4.803  1.7087  1.2035  2.4766
 5388SOL    HW227624   0.863   2.536   4.731  2.9787  0.4193 -0.7463
 5389SOL     OW27625   0.575   2.714   3.520 -0.0280 -0.1253 -0.2506
 5389SOL    HW127626   0.602   2.768   3.594 -1.6242  0.3836 -0.0336
 5389SOL    HW227627   0.601   2.626   3.548  0.6275  0.1678  0.0449
 5390SOL     OW27628   0.055   0.773   6.551 -0.6452  0.3788  0.4043
 5390SOL    HW127629   4.707   0.713   6.529 -0.0455 -0.3408  0.4204
 5390SOL    HW227630   0.126   0.740   6.496 -1.5344 -0.8665  0.0131
 5391SOL     OW27631   0.497   4.309   6.418 -0.3557  0.2690 -0.1380
 5391SOL    HW127632   0.525   4.358   6.495 -1.4375 -1.2175  1.1982
 5391SOL    HW227633   0.532   4.223   6.439  0.5695  0.7551  0.3071
 5392SOL     OW27634   1.517   0.967   6.041 -0.6367  0.2544  0.2119
 5392SOL    HW127635   1.462   0.929   6.109  2.6074 -1.4034  1.9327
 5392SOL    HW227636   1.461   0.951   5.965 -0.7624  1.6272  0.0124
 5393SOL     OW27637   1.109   2.085   6.347 -0.5671  0.4394  0.4679
 5393SOL    HW127638   1.042   2.130   6.295 -1.0826  0.1368  0.8676
 5393SOL    HW227639   1.107   1.991   6.329 -1.1490  0.4961  0.2301
 5394SOL     OW27640   4.057   2.115   7.978  0.5029  0.0559 -0.3910
 5394SOL    HW127641   4.111   2.036   7.971  0.3965 -0.2226  2.0366
 5394SOL    HW227642   3.992   2.101   7.909 -0.5937 -2.3837  1.1352
 5395SOL     OW27643   2.625   2.309   4.911 -0.7303 -0.1090  0.2392
 5395SOL    HW127644   2.648   2.379   4.973 -0.0677 -0.7722  0.7517
 5395SOL    HW227645   2.674   2.244   4.961  0.6543  0.8284  0.0925
 5396SOL     OW27646   0.131   1.133  15.823  0.0890 -0.1579  0.1778
 5396SOL    HW127647   0.047   1.162  15.789  0.4986 -0.8945 -1.4725
 5396SOL    HW227648   0.179   1.127  15.740  1.9284  0.3103  1.1846
 5397SOL     OW27649   0.423   0.205  15.312  0.3345  0.2859 -0.3742
 5397SOL    HW127650   0.455   0.219  15.402 -2.1426  1.0674  0.3722
 5397SOL    HW227651   0.451   0.283  15.264  0.2422 -0.3607 -1.4611
 5398SOL     OW27652   4.688   3.774  15.605 -0.2328  0.5447  0.0896
 5398SOL    HW127653   4.639   3.764  15.686 -0.3907 -2.3168 -0.3673
 5398SOL    HW227654   4.625   3.816  15.545 -1.1997 -0.3552  0.4774
 5399SOL     OW27655   3.006   2.336   8.626 -0.2780  0.3146 -0.2639
 5399SOL    HW127656   3.025   2.396   8.698  1.7632  1.8199 -2.0270
 5399SOL    HW227657   3.055   2.390   8.564 -2.2151  2.5299  0.1367
 5400SOL     OW27658   0.586   1.861   4.652 -0.1150  0.4131  0.3817
 5400SOL    HW127659   0.509   1.913   4.676 -0.3389  0.4410 -0.4004
 5400SOL    HW227660   0.576   1.846   4.558  0.9118  1.8824  0.0356
 5401SOL     OW27661   1.160   2.838   2.788 -0.7915 -0.1988  0.2503
 5401SOL    HW127662   1.196   2.751   2.800  1.6397  0.7933  0.1273
 5401SOL    HW227663   1.101   2.819   2.714 -2.0859  0.5367  1.0904
 5402SOL     OW27664   4.112   1.394   2.990  0.3159  0.6189  0.5937
 5402SOL    HW127665   4.078   1.306   3.006 -1.8482  1.7199  2.0103
 5402SOL    HW227666   4.187   1.383   3.049  1.2518 -1.4263 -0.9738
 5403SOL     OW27667   0.316   3.260   8.636 -0.4944  0.1885 -0.1774
 5403SOL    HW127668   0.334   3.214   8.718  0.3838  1.9287  0.6149
 5403SOL    HW227669   0.386   3.228   8.579  0.9297  1.2282  0.9924
 5404SOL     OW27670   0.402   0.520   9.300 -0.2869 -0.3339  0.1984
 5404SOL    HW127671   0.483   0.571   9.292 -1.1370  1.1776  1.5160
 5404SOL    HW227672   0.342   0.593   9.314 -0.2497  0.1188 -1.9969
 5405SOL     OW27673   3.506   1.131   0.183  0.3022 -0.1138  0.5675
 5405SOL    HW127674   3.484   1.040   0.163  1.0882 -0.3892  0.9719
 5405SOL    HW227675   3.422   1.176   0.173  0.5998  0.3971  0.3431
 5406SOL     OW27676   0.960   2.981   1.986  0.3690  0.3409  0.3770
 5406SOL    HW127677   1.052   2.968   2.010 -0.1969 -0.7764  1.9759
 5406SOL    HW227678   0.970   2.977   1.891 -1.6151 -1.6924  0.2591
 5407SOL     OW27679   1.261   1.078   5.589 -0.1311 -0.0903 -0.6861
 5407SOL    HW127680   1.204   1.074   5.665  2.5037 -1.2350  1.2344
 5407SOL    HW227681   1.197   1.101   5.522  0.2582 -2.1451 -1.7330
 5408SOL     OW27682   1.662   3.640   5.759  0.3495 -0.0398 -0.0383
 5408SOL    HW127683   1.628   3.584   5.829  0.3788  0.1105  0.0963
 5408SOL    HW227684   1.663   3.728   5.798 -2.5797 -0.1742  0.3698
 5409SOL     OW27685   4.501   3.833   8.854 -0.3955 -0.2811 -0.2250
 5409SOL    HW127686   4.535   3.749   8.885  0.7164 -0.0121 -0.7095
 5409SOL    HW227687   4.544   3.896   8.913 -0.1814 -1.0921  0.4779
 5410SOL     OW27688   1.140   0.221   8.061 -0.7667 -0.4700  0.2052
 5410SOL    HW127689   1.235   0.216   8.056 -0.6501  1.1697  0.8430
 5410SOL    HW227690   1.128   0.313   8.085  0.7992  0.0362 -0.9892
 5411SOL     OW27691   1.398   1.327  11.857 -0.3485 -0.1093  0.4041
 5411SOL    HW127692   1.364   1.311  11.945  2.8917 -0.6421  1.5509
 5411SOL    HW227693   1.467   1.392  11.868 -0.6212  0.2524 -0.0620
 5412SOL     OW27694   2.303   1.803   2.820 -0.9650  0.2743 -0.8649
 5412SOL    HW127695   2.299   1.885   2.870  2.1494 -0.1422  0.0379
 5412SOL    HW227696   2.384   1.820   2.773 -1.0961  3.6473  0.0788
 5413SOL     OW27697   1.366   2.505   7.553  0.2803 -0.0053 -0.1756
 5413SOL    HW127698   1.277   2.487   7.582  0.0727 -0.1664 -0.9010
 5413SOL    HW227699   1.383   2.593   7.586  0.4469 -0.9668  2.3202
 5414SOL     OW27700   1.173   2.622   5.882 -0.5382  0.1428  0.2460
 5414SOL    HW127701   1.210   2.538   5.908  1.7897  0.7690 -1.0701
 5414SOL    HW227702   1.177   2.636   5.788  0.0290  1.1991  0.4217
 5415SOL     OW27703   2.062   0.611  14.489 -0.7800 -0.3031  1.1065
 5415SOL    HW127704   2.123   0.672  14.447 -1.6743 -0.1288  0.0642
 5415SOL    HW227705   1.999   0.601  14.417 -0.7889  0.0444  1.0695
 5416SOL     OW27706   2.986   1.979   8.842 -0.6966  0.4662 -0.5598
 5416SOL    HW127707   2.967   1.943   8.929 -1.1957  3.0225  0.3902
 5416SOL    HW227708   3.030   2.062   8.860  1.6977 -0.8156 -0.5686
 5417SOL     OW27709   0.547   0.032  15.118  0.6527 -0.0876 -0.1622
 5417SOL    HW127710   0.547   0.118  15.159 -2.2752  0.1375 -0.6105
 5417SOL    HW227711   0.548   4.696  15.193 -1.4016  0.2450  0.1144
 5418SOL     OW27712   4.181   2.374   7.537 -0.4456  0.3561  0.4948
 5418SOL    HW127713   4.154   2.440   7.473  0.1566  1.1975  1.1019
 5418SOL    HW227714   4.163   2.421   7.619  1.1205  2.9088 -0.6200
 5419SOL     OW27715   2.677   2.448   7.599 -0.2514  0.5884  0.7898
 5419SOL    HW127716   2.717   2.367   7.630 -0.5101 -0.2491 -1.0772
 5419SOL    HW227717   2.738   2.513   7.635  1.6143 -0.4583 -0.4551
 5420SOL     OW27718   0.359   1.375   6.408 -0.0859 -0.0423  0.2066
 5420SOL    HW127719   0.375   1.457   6.363  0.0154 -0.0750  0.1832
 5420SOL    HW227720   0.291   1.413   6.464 -0.9097 -0.8108 -0.2842
 5421SOL     OW27721   3.841   4.025   8.619 -0.4367  0.4406 -0.3124
 5421SOL    HW127722   3.874   3.981   8.540 -1.3465 -0.6115 -0.0997
 5421SOL    HW227723   3.797   4.098   8.574 -1.4657 -0.4760 -0.7799
 5422SOL     OW27724   0.540   4.679   7.803 -0.3214 -0.0704  0.2206
 5422SOL    HW127725   0.635   4.678   7.788 -0.1567  0.4978  1.2136
 5422SOL    HW227726   0.520   4.587   7.816 -0.4319 -0.1905 -0.7772
 5423SOL     OW27727   4.532   3.684   3.357 -0.2929  0.5432 -0.3240
 5423SOL    HW127728   4.448   3.688   3.403 -1.4900 -1.3513 -2.3667
 5423SOL    HW227729   4.499   3.707   3.271 -0.4930  3.0059  0.4260
 5424SOL     OW27730   1.557   3.523   8.068 -0.1114 -0.0402  0.6941
 5424SOL    HW127731   1.615   3.447   8.069 -1.3771 -0.9970  2.9421
 5424SOL    HW227732   1.570   3.550   8.159  0.5127 -2.0478  1.2043
 5425SOL     OW27733   4.441   1.055   8.920 -0.2616  0.1413 -0.1373
 5425SOL    HW127734   4.533   1.078   8.935 -0.7140  1.6196  0.4187
 5425SOL    HW227735   4.397   1.121   8.975 -1.2287  0.1245 -0.8882
 5426SOL     OW27736   3.417   3.760   6.726 -0.1724 -0.0093 -0.7805
 5426SOL    HW127737   3.427   3.671   6.691 -1.3149 -1.5930  2.9137
 5426SOL    HW227738   3.346   3.788   6.668 -0.6822  0.6779  0.1734
 5427SOL     OW27739   3.032   3.144  13.047  0.4631  0.5249 -0.1941
 5427SOL    HW127740   3.092   3.108  12.982 -0.8324 -2.1252  0.0882
 5427SOL    HW227741   2.999   3.061  13.082 -0.7473  0.8284 -0.6181
 5428SOL     OW27742   4.130   0.090   6.836 -0.1821 -0.2353 -0.7552
 5428SOL    HW127743   4.163   0.164   6.786 -1.3155  0.4338 -0.5114
 5428SOL    HW227744   4.175   0.096   6.920 -1.1423  0.9365 -0.3351
 5429SOL     OW27745   1.291   4.063   9.666  0.6134  0.2937 -0.8828
 5429SOL    HW127746   1.220   4.056   9.602  1.1674  1.0320 -1.5765
 5429SOL    HW227747   1.267   4.146   9.707 -0.3364 -0.2862 -0.2778
 5430SOL     OW27748   1.526   4.045  11.310  0.0905  0.0213 -0.0260
 5430SOL    HW127749   1.476   3.968  11.337  0.5537 -0.3943 -0.3493
 5430SOL    HW227750   1.510   4.044  11.215 -1.3451 -1.0171  0.2386
 5431SOL     OW27751   2.150   0.615   7.220 -0.5690  0.0233  0.2750
 5431SOL    HW127752   2.241   0.584   7.215  0.0389  1.5919  1.6390
 5431SOL    HW227753   2.151   0.678   7.292  0.5381 -2.6746  2.6251
 5432SOL     OW27754   0.665   2.294   7.225 -0.0423 -0.2261 -0.0652
 5432SOL    HW127755   0.674   2.344   7.144  0.8325  2.3313  1.6212
 5432SOL    HW227756   0.714   2.213   7.208  0.1276 -0.1194 -0.0896
 5433SOL     OW27757   2.672   4.055   8.714  0.0675  0.5864 -0.1410
 5433SOL    HW127758   2.602   4.072   8.651 -1.0055 -0.6637  0.7324
 5433SOL    HW227759   2.614   4.052   8.790 -1.1539  1.1994 -1.0509
 5434SOL     OW27760   3.522   2.342   1.779 -0.4091  0.1488 -0.0932
 5434SOL    HW127761   3.502   2.331   1.872  1.4169  3.2832  0.6629
 5434SOL    HW227762   3.436   2.315   1.746 -0.9890  0.1377  1.3799
 5435SOL     OW27763   1.052   2.284   9.491  0.0345 -0.0560 -0.7197
 5435SOL    HW127764   1.106   2.352   9.449 -0.3444  1.1295  0.6668
 5435SOL    HW227765   0.967   2.325   9.504  1.3475  2.6452 -0.4685
 5436SOL     OW27766   1.310   3.300   3.438 -0.4464  0.1212  0.3872
 5436SOL    HW127767   1.277   3.321   3.350  1.9155  0.3849 -0.4253
 5436SOL    HW227768   1.226   3.271   3.474 -0.1268 -0.3437  0.7621
 5437SOL     OW27769   1.865   4.196   7.396 -0.2626 -0.0533  0.8927
 5437SOL    HW127770   1.941   4.158   7.439  0.4631  2.9914  2.2601
 5437SOL    HW227771   1.794   4.137   7.423  1.3348 -1.3942  2.1944
 5438SOL     OW27772   3.399   0.357  13.232 -0.0816 -0.1532 -0.2453
 5438SOL    HW127773   3.354   0.361  13.317  0.5441  1.7843 -0.0041
 5438SOL    HW227774   3.458   0.431  13.248 -0.5806 -0.1303  1.5709
 5439SOL     OW27775   3.861   0.777   3.370  0.1540 -0.2994  0.8132
 5439SOL    HW127776   3.867   0.777   3.466 -0.5280 -0.5314  0.8571
 5439SOL    HW227777   3.952   0.787   3.341 -0.0024  0.5668  0.6319
 5440SOL     OW27778   2.641   2.357   5.712 -0.0997 -0.0760  0.0525
 5440SOL    HW127779   2.664   2.440   5.670 -2.2814  0.4587 -0.0403
 5440SOL    HW227780   2.547   2.374   5.714 -0.1184 -0.4508  2.1197
 5441SOL     OW27781   3.103   2.654  16.013 -0.0822  0.5939 -0.2905
 5441SOL    HW127782   3.109   2.720  16.082 -0.4040  0.8668 -0.5271
 5441SOL    HW227783   3.191   2.615  16.006  0.1181  0.9637  0.1183
 5442SOL     OW27784   1.995   2.176   5.022  0.5364 -0.0858 -0.2041
 5442SOL    HW127785   1.947   2.204   5.100  1.2900  0.1188  0.1878
 5442SOL    HW227786   2.065   2.131   5.069  2.8201 -0.0346 -3.5895
 5443SOL     OW27787   1.213   3.871   8.297 -0.2283 -0.3422  0.1465
 5443SOL    HW127788   1.222   3.812   8.222 -2.5313  0.0029 -0.3955
 5443SOL    HW227789   1.253   3.814   8.363 -0.0623  1.1554  1.3463
 5444SOL     OW27790   3.002   3.521   3.327  0.0924 -0.1922 -0.4330
 5444SOL    HW127791   3.096   3.524   3.341  0.2458 -2.1401 -1.0320
 5444SOL    HW227792   2.987   3.478   3.242  0.0942  0.6475 -0.8546
 5445SOL     OW27793   1.434   2.781   1.293 -0.6732  0.2017  0.1559
 5445SOL    HW127794   1.525   2.791   1.263 -0.5350 -1.8175 -0.1130
 5445SOL    HW227795   1.422   2.692   1.259  0.9262 -0.0443  0.2276
 5446SOL     OW27796   4.414   3.555   2.624 -0.7912  0.4304 -0.4500
 5446SOL    HW127797   4.469   3.585   2.552 -1.3406  0.8766 -0.6814
 5446SOL    HW227798   4.365   3.635   2.642 -0.6743  0.3202  0.3438
 5447SOL     OW27799   1.527   2.507   3.402 -0.2107  0.0243 -0.4231
 5447SOL    HW127800   1.506   2.414   3.395 -2.1838  0.3402  1.4346
 5447SOL    HW227801   1.515   2.519   3.496  0.8580 -0.5488 -0.2099
 5448SOL     OW27802   0.761   0.295   6.868 -0.2671 -0.4512 -0.0439
 5448SOL    HW127803   0.685   0.324   6.819  0.1769 -1.0443 -1.0876
 5448SOL    HW227804   0.739   0.202   6.878 -2.3499 -0.1477 -2.0241
 5449SOL     OW27805   1.152   2.117   6.626  0.2495 -0.0586  0.1077
 5449SOL    HW127806   1.167   2.126   6.532  1.8652  0.2973  0.4007
 5449SOL    HW227807   1.144   2.209   6.651  0.0506 -0.4883  1.6224
 5450SOL     OW27808   3.468   4.581  14.384 -0.5236  0.6777  0.1160
 5450SOL    HW127809   3.474   4.495  14.424  0.2558  0.0228 -1.4198
 5450SOL    HW227810   3.540   4.623  14.431  0.5778 -0.5766 -0.4691
 5451SOL     OW27811   0.728   3.378   5.778  0.0011  0.3457  0.2935
 5451SOL    HW127812   0.755   3.351   5.690 -1.8279  1.4563 -0.5957
 5451SOL    HW227813   0.812   3.400   5.820  1.3100 -1.8016 -1.1969
 5452SOL     OW27814   2.292   2.870  10.653  0.1682  0.2180  0.0843
 5452SOL    HW127815   2.202   2.841  10.636 -0.0934  1.6794 -0.9969
 5452SOL    HW227816   2.268   2.962  10.657 -0.0880  0.1289  0.5974
 5453SOL     OW27817   3.108   3.124  16.886  0.8821 -0.1479  0.4276
 5453SOL    HW127818   3.026   3.173  16.882  1.4017  0.4610 -3.0079
 5453SOL    HW227819   3.081   3.034  16.870  0.4405 -0.1647  1.2794
 5454SOL     OW27820   3.923   2.382   2.363  0.7293 -0.2899  0.4609
 5454SOL    HW127821   3.969   2.327   2.300 -1.1554 -3.0311  1.5070
 5454SOL    HW227822   3.919   2.333   2.445  0.3199  1.4933  1.5014
 5455SOL     OW27823   2.668   4.395   2.641 -0.2310  0.0339 -0.0398
 5455SOL    HW127824   2.707   4.310   2.659  0.1855  0.4002  0.7733
 5455SOL    HW227825   2.719   4.455   2.695 -0.4065 -0.8900  1.1701
 5456SOL     OW27826   4.662   1.769   1.628  0.1663  0.4324 -0.2506
 5456SOL    HW127827   4.620   1.692   1.589  1.5408  1.3786 -3.5992
 5456SOL    HW227828   4.653   1.825   1.550  1.5179 -1.5928 -1.8709
 5457SOL     OW27829   3.310   0.362   4.626 -0.2827  0.0274 -0.2790
 5457SOL    HW127830   3.309   0.449   4.667  0.0550  0.0095 -0.2345
 5457SOL    HW227831   3.400   0.364   4.594  0.8533  2.1081  3.0347
 5458SOL     OW27832   1.891   4.005   6.948 -0.4485 -0.4045  0.8496
 5458SOL    HW127833   1.882   4.083   6.893 -2.0023 -2.1733 -1.3904
 5458SOL    HW227834   1.916   4.054   7.026  1.2803  0.1326 -0.0484
 5459SOL     OW27835   0.990   1.384   9.871  0.2144  0.1873  0.9608
 5459SOL    HW127836   1.065   1.421   9.918 -0.6823  3.0408  0.1737
 5459SOL    HW227837   1.014   1.292   9.873 -1.4295 -0.1315  5.0427
 5460SOL     OW27838   3.226   3.161  10.838 -0.1567 -0.2758 -0.7780
 5460SOL    HW127839   3.268   3.183  10.921  1.8458 -0.8293 -1.6593
 5460SOL    HW227840   3.192   3.245  10.807  0.7613 -0.1501 -1.4444
 5461SOL     OW27841   0.541   1.778   6.793  0.3427  0.1983  0.3207
 5461SOL    HW127842   0.594   1.757   6.870  0.2020  2.0316  0.9273
 5461SOL    HW227843   0.482   1.840   6.836 -1.1443  0.5682 -2.2956
 5462SOL     OW27844   3.620   0.835  11.688 -0.1524  0.0514 -0.5246
 5462SOL    HW127845   3.637   0.907  11.628  0.4151  0.7420  0.4868
 5462SOL    HW227846   3.580   0.883  11.760 -0.3637  1.2921 -1.4656
 5463SOL     OW27847   3.294   2.730   6.267 -0.0610  0.2749 -0.1429
 5463SOL    HW127848   3.311   2.700   6.178 -2.8643 -0.3424 -0.4823
 5463SOL    HW227849   3.209   2.776   6.263 -0.5966 -0.7988 -1.1279
 5464SOL     OW27850   1.552   0.252   5.531 -0.1385  0.3762  0.1242
 5464SOL    HW127851   1.495   0.303   5.474  0.1921  0.6283  0.0213
 5464SOL    HW227852   1.640   0.253   5.495  0.3962 -1.3719  1.3906
 5465SOL     OW27853   3.909   4.152   2.172  0.0555 -0.7351 -0.1374
 5465SOL    HW127854   3.856   4.103   2.236  1.9487 -1.6505  0.7096
 5465SOL    HW227855   3.994   4.121   2.203  1.0547 -0.6594 -2.8370
 5466SOL     OW27856   0.004   0.950   4.103 -0.0619 -0.0767  0.2346
 5466SOL    HW127857   4.699   0.870   4.060 -1.3085  0.4245  0.1279
 5466SOL    HW227858   4.694   1.022   4.049 -1.5253 -0.6130  0.4310
 5467SOL     OW27859   1.672   1.721   7.085  0.5989 -0.4488 -0.1013
 5467SOL    HW127860   1.686   1.646   7.143 -1.1333  0.0638  0.9906
 5467SOL    HW227861   1.576   1.718   7.082  0.4967  2.9794 -0.2399
 5468SOL     OW27862   1.220   2.959   3.356 -0.3629  0.2793 -0.1014
 5468SOL    HW127863   1.292   2.907   3.392 -1.1388 -0.3376  0.5691
 5468SOL    HW227864   1.143   2.952   3.412  0.4534 -0.1560  0.9453
 5469SOL     OW27865   3.283   4.719  16.361  0.0706  0.4855 -0.6314
 5469SOL    HW127866   3.235   4.637  16.371  0.1400  0.5987  0.6530
 5469SOL    HW227867   3.320   4.711  16.273 -0.5112 -1.8175 -0.6730
 5470SOL     OW27868   3.957   0.804   4.879 -0.3690  0.8520 -0.5597
 5470SOL    HW127869   3.866   0.775   4.876  0.3442 -1.4476 -0.2904
 5470SOL    HW227870   3.987   0.747   4.950  0.0521  1.4336 -0.2716
 5471SOL     OW27871   1.227   1.545   8.759  0.2879  0.3226  0.2901
 5471SOL    HW127872   1.314   1.538   8.797 -0.2952  2.1488  1.9349
 5471SOL    HW227873   1.186   1.608   8.818 -2.4473 -0.5737 -0.6065
 5472SOL     OW27874   1.620   0.991   5.317  0.4751  0.4541  0.2147
 5472SOL    HW127875   1.688   0.928   5.294 -0.6314 -0.7808  0.3446
 5472SOL    HW227876   1.667   1.069   5.346 -0.9145  0.9132  1.2512
 5473SOL     OW27877   1.197   2.958   1.832  0.2365 -0.1430  0.2387
 5473SOL    HW127878   1.288   2.943   1.855  0.4007 -0.3538 -0.5677
 5473SOL    HW227879   1.206   3.031   1.770 -2.3768 -1.3611 -1.5429
 5474SOL     OW27880   0.478   0.475   7.087  0.0639  0.1402  0.2768
 5474SOL    HW127881   0.530   0.399   7.112  2.0534  0.8637 -1.7012
 5474SOL    HW227882   0.532   0.523   7.025  0.2638  0.7098  0.8878
 5475SOL     OW27883   2.162   2.341   7.096 -0.0228 -0.3123  1.2220
 5475SOL    HW127884   2.234   2.279   7.105 -1.5160 -2.2069  0.1356
 5475SOL    HW227885   2.090   2.278   7.091  1.4447 -1.7607 -1.5027
 5476SOL     OW27886   2.564   0.170  14.627  0.7216  0.0464  0.4456
 5476SOL    HW127887   2.535   0.087  14.665  0.3604  0.2308  0.5706
 5476SOL    HW227888   2.486   0.208  14.587  0.1017 -1.9756 -0.2829
 5477SOL     OW27889   4.083   1.402  13.914  0.3039  0.4567 -0.4648
 5477SOL    HW127890   4.136   1.350  13.973 -0.9670  0.9284  1.1013
 5477SOL    HW227891   4.012   1.445  13.963  1.6142 -1.3966  3.0256
 5478SOL     OW27892   2.294   2.909   7.965 -0.1586  0.4064 -0.3621
 5478SOL    HW127893   2.218   2.852   7.962 -1.2087  1.8884 -1.8410
 5478SOL    HW227894   2.304   2.937   8.056  1.3506 -0.8867 -0.1275
 5479SOL     OW27895   2.856   2.038   5.317 -0.0956  0.1319 -0.4787
 5479SOL    HW127896   2.845   1.947   5.341 -1.0327  0.5459  0.6323
 5479SOL    HW227897   2.951   2.034   5.304  0.4293  1.0420  3.0704
 5480SOL     OW27898   2.542   0.218  12.132 -0.7408 -0.1630 -0.0186
 5480SOL    HW127899   2.637   0.222  12.120 -0.5668 -0.1040  1.3983
 5480SOL    HW227900   2.510   0.239  12.044 -0.3060 -0.1508 -0.1741
 5481SOL     OW27901   3.256   0.816   6.558  0.6425 -0.0450  0.2429
 5481SOL    HW127902   3.297   0.861   6.484 -3.5668 -1.5284 -2.9577
 5481SOL    HW227903   3.286   0.726   6.553 -1.6066 -0.8212  0.7174
 5482SOL     OW27904   4.306   3.819   8.134  0.1089 -0.0533 -0.2187
 5482SOL    HW127905   4.371   3.888   8.146  0.1793 -0.6827  2.9966
 5482SOL    HW227906   4.330   3.787   8.047  2.3071  0.4025  0.2222
 5483SOL     OW27907   1.217   4.201   6.676  0.6222  0.1318 -0.1706
 5483SOL    HW127908   1.261   4.194   6.591 -0.8350  0.5965 -0.9489
 5483SOL    HW227909   1.203   4.295   6.691  0.7602  0.2462 -0.7802
 5484SOL     OW27910   3.840   4.531  16.037  0.4849 -0.0011  0.3417
 5484SOL    HW127911   3.752   4.521  15.999  1.2309  3.1753 -2.2810
 5484SOL    HW227912   3.829   4.598  16.105 -0.7937 -0.2606  0.4004
 5485SOL     OW27913   2.056   0.131   3.005 -0.6928  0.3635  0.0928
 5485SOL    HW127914   1.960   0.134   3.014 -0.8715 -1.5363 -1.1182
 5485SOL    HW227915   2.061   0.116   2.911 -1.0756 -2.0177  0.4625
 5486SOL     OW27916   0.904   2.273  10.306 -0.5122 -0.5376 -0.9347
 5486SOL    HW127917   0.924   2.213  10.378  0.7798 -0.1052 -0.9391
 5486SOL    HW227918   0.831   2.331  10.326 -0.9090 -1.2258 -0.3727
 5487SOL     OW27919   3.117   1.743  13.199 -0.6297 -0.3842  0.2401
 5487SOL    HW127920   3.158   1.824  13.171  0.7300 -0.2475  2.6164
 5487SOL    HW227921   3.062   1.719  13.124  0.7872 -3.2291  0.1151
 5488SOL     OW27922   4.609   4.439  11.365  0.4101  0.0371  0.1275
 5488SOL    HW127923   4.643   4.399  11.445  0.7745 -1.8016 -0.9388
 5488SOL    HW227924   4.585   4.521  11.407  0.4867  0.5220 -0.7891
 5489SOL     OW27925   0.486   4.573   6.878 -0.0824 -0.3966  0.2242
 5489SOL    HW127926   0.533   4.537   6.954  2.6805  1.1598 -0.7527
 5489SOL    HW227927   0.396   4.563   6.910 -0.3182 -1.0993 -0.6809
 5490SOL     OW27928   1.859   3.920   0.381 -0.5466  0.2546  0.2066
 5490SOL    HW127929   1.909   3.842   0.356 -0.7813  0.3110 -0.4590
 5490SOL    HW227930   1.867   3.911   0.476  0.9372  0.1738  0.0792
 5491SOL     OW27931   0.037   3.016  10.109  0.2275 -0.6311  0.2099
 5491SOL    HW127932   0.031   2.977  10.196  4.0857 -0.6522  0.4660
 5491SOL    HW227933   4.705   3.092  10.126  0.5942 -0.2584 -0.2660
 5492SOL     OW27934   1.407   0.789   3.525  0.0154 -0.6408 -0.1629
 5492SOL    HW127935   1.452   0.708   3.549  0.4700 -0.1073  0.7638
 5492SOL    HW227936   1.464   0.850   3.572 -1.3384  0.0918  0.5368
 5493SOL     OW27937   3.722   1.135   9.604 -0.0740  0.6849  0.4845
 5493SOL    HW127938   3.781   1.072   9.646 -0.1186  1.0013  1.0179
 5493SOL    HW227939   3.790   1.192   9.568  0.8978 -1.3316 -0.8858
 5494SOL     OW27940   4.643   3.026  15.985  0.5097  0.3279 -0.2470
 5494SOL    HW127941   4.647   3.045  15.891  0.5654  0.3792 -0.2339
 5494SOL    HW227942   0.009   2.994  15.994  0.0946 -0.0707  2.3366
 5495SOL     OW27943   2.953   0.535   4.157  0.5638 -0.1037  0.2843
 5495SOL    HW127944   2.946   0.576   4.071 -0.7843 -0.2941  0.2917
 5495SOL    HW227945   2.962   0.444   4.131  0.5339  0.0015 -0.0883
 5496SOL     OW27946   2.875   0.810  11.657 -0.2369 -0.4861 -0.3162
 5496SOL    HW127947   2.957   0.834  11.615  0.5932 -1.6308  0.6637
 5496SOL    HW227948   2.912   0.794  11.744 -0.1523  1.7218  0.0502
 5497SOL     OW27949   3.620   1.220   7.063 -0.3815  0.5087  0.3971
 5497SOL    HW127950   3.672   1.222   7.144 -0.0896  1.5465  0.1759
 5497SOL    HW227951   3.531   1.241   7.092 -0.5544 -0.5625  0.6373
 5498SOL     OW27952   1.799   4.003   4.524 -0.1315  0.1378 -0.1821
 5498SOL    HW127953   1.816   3.961   4.440 -1.1643 -1.2001  0.2919
 5498SOL    HW227954   1.762   3.926   4.567  3.4574  1.0644  4.5854
 5499SOL     OW27955   2.009   2.229   7.673  0.3817 -0.3387  0.2918
 5499SOL    HW127956   2.086   2.218   7.617  1.0951  1.4430  0.9240
 5499SOL    HW227957   2.052   2.216   7.757  1.5488 -1.6573 -0.5044
 5500SOL     OW27958   4.067   1.409  10.571  0.0838 -0.4051  0.7005
 5500SOL    HW127959   3.977   1.442  10.561 -0.0965 -0.8004  1.0406
 5500SOL    HW227960   4.092   1.385  10.482  0.7540  0.9795  0.5142
 5501SOL     OW27961   0.851   1.083   5.608  0.1012 -0.5654  0.3702
 5501SOL    HW127962   0.828   1.169   5.645  2.3085 -0.9052  2.5330
 5501SOL    HW227963   0.935   1.099   5.564  0.6819 -0.6842  1.4368
 5502SOL     OW27964   3.158   2.506  16.344  0.1549  0.3910 -0.4502
 5502SOL    HW127965   3.066   2.502  16.317 -0.1870  0.1111  0.7362
 5502SOL    HW227966   3.206   2.442  16.292  0.0679 -0.2944  0.3189
 5503SOL     OW27967   1.403   4.358  14.689 -0.6381  0.2122 -0.5986
 5503SOL    HW127968   1.482   4.407  14.665 -2.2908  1.5913 -3.2438
 5503SOL    HW227969   1.342   4.415  14.642  0.2449 -1.4955 -3.8101
 5504SOL     OW27970   2.127   3.543   5.507 -0.4874  0.1775  0.2482
 5504SOL    HW127971   2.123   3.636   5.530  1.2838  0.3654 -0.2061
 5504SOL    HW227972   2.182   3.514   5.580  0.6495 -0.3449 -0.8279
 5505SOL     OW27973   3.695   3.081   2.531 -0.4635 -0.4457  0.1844
 5505SOL    HW127974   3.607   3.079   2.492  0.3307 -0.0679 -1.6594
 5505SOL    HW227975   3.745   3.038   2.461  2.2151 -1.3734  2.7085
 5506SOL     OW27976   1.537   4.700   2.909  0.2294 -1.0168  0.5550
 5506SOL    HW127977   1.465   4.643   2.935  0.3521 -1.3562  0.1551
 5506SOL    HW227978   1.505   0.055   2.955 -2.8563 -1.1079 -1.5026
 5507SOL     OW27979   1.531   4.644   7.241 -0.1518 -0.3651 -0.0673
 5507SOL    HW127980   1.604   4.667   7.297 -2.0240  4.0013  0.5359
 5507SOL    HW227981   1.571   4.649   7.154  3.8221  0.0145  1.7734
 5508SOL     OW27982   4.291   3.133   7.681  0.1661  0.1853 -0.5955
 5508SOL    HW127983   4.370   3.080   7.698 -1.6100 -1.5735  2.2607
 5508SOL    HW227984   4.247   3.130   7.766  2.1255  1.2625  0.4464
 5509SOL     OW27985   0.466   1.504   2.332  0.5220 -0.0182 -0.2667
 5509SOL    HW127986   0.551   1.547   2.338 -0.3742  1.9485 -1.6236
 5509SOL    HW227987   0.443   1.498   2.424  2.3095  1.0520  0.2452
 5510SOL     OW27988   0.973   0.759   3.975 -0.1109 -0.4123  0.4942
 5510SOL    HW127989   0.939   0.703   3.905  3.9992 -2.3874  0.0711
 5510SOL    HW227990   0.989   0.692   4.041  0.3549 -1.4948 -0.7011
 5511SOL     OW27991   4.022   3.038  17.490 -0.1664 -0.1089 -0.5585
 5511SOL    HW127992   3.933   3.032  17.455 -0.1977 -0.2603 -0.4557
 5511SOL    HW227993   4.026   3.132  17.506  1.5550 -0.8210  3.1631
 5512SOL     OW27994   1.309   0.657   3.239 -0.8197  0.0481  0.0688
 5512SOL    HW127995   1.404   0.651   3.230 -1.0212  0.4018 -2.2111
 5512SOL    HW227996   1.308   0.722   3.309  2.6911  0.0069  0.1646
 5513SOL     OW27997   0.151   3.449   3.258  0.0475  0.0099  0.3215
 5513SOL    HW127998   0.236   3.493   3.260  0.6457 -1.1465  0.4759
 5513SOL    HW227999   0.128   3.466   3.349 -1.2398 -0.0778  0.0074
 5514SOL     OW28000   3.261   4.589   1.791  0.0432  0.2048 -0.5088
 5514SOL    HW128001   3.286   4.648   1.720  1.0188  1.4629  0.8849
 5514SOL    HW228002   3.212   4.652   1.843 -0.3722  1.5191 -2.4945
 5515SOL     OW28003   3.225   1.317   0.249 -0.4960  0.5309 -0.2752
 5515SOL    HW128004   3.134   1.344   0.235 -0.6506 -0.2697 -0.7991
 5515SOL    HW228005   3.219   1.277   0.336  0.0285  1.5004  0.2061
 5516SOL     OW28006   2.041   3.117   8.005  0.0809  0.7193 -0.2726
 5516SOL    HW128007   2.130   3.102   8.036 -0.9299 -0.9074  1.7502
 5516SOL    HW228008   2.001   3.080   8.084  1.0009  0.5966  0.1297
 5517SOL     OW28009   2.064   1.329  14.087 -0.0503  0.2209 -0.2686
 5517SOL    HW128010   2.128   1.258  14.077 -1.1406 -0.7324 -0.5356
 5517SOL    HW228011   1.982   1.280  14.098  0.2226  0.0414  0.9657
 5518SOL     OW28012   0.242   2.075   9.419  0.0574 -0.4837  0.6065
 5518SOL    HW128013   0.231   1.981   9.436 -1.5318 -0.5473 -0.6792
 5518SOL    HW228014   0.158   2.099   9.380  0.6863  1.2719  0.3456
 5519SOL     OW28015   0.590   1.753  15.678  0.5684 -0.6736  0.6627
 5519SOL    HW128016   0.671   1.716  15.642  1.4914  2.1992 -0.2264
 5519SOL    HW228017   0.637   1.803  15.746  1.5202  0.8566 -1.1045
 5520SOL     OW28018   3.507   2.409   6.340 -0.4839 -0.4238 -0.2368
 5520SOL    HW128019   3.543   2.416   6.252  1.1333 -0.5959  0.4069
 5520SOL    HW228020   3.549   2.484   6.382 -4.2125  1.8539 -0.6043
 5521SOL     OW28021   4.618   2.239   1.085  0.3420 -0.0495  0.0572
 5521SOL    HW128022   4.559   2.297   1.134  0.6427 -0.5825  1.0423
 5521SOL    HW228023   4.664   2.295   1.023 -0.1863  0.6287  0.2791
 5522SOL     OW28024   2.117   2.005   7.215  0.0458  0.0581 -0.3955
 5522SOL    HW128025   2.029   1.967   7.221 -1.4149  3.5236 -0.0091
 5522SOL    HW228026   2.148   1.992   7.125  0.7098  0.0780 -0.1737
 5523SOL     OW28027   4.537   1.929   4.921 -0.3409 -0.2936  0.0525
 5523SOL    HW128028   4.514   1.957   5.009 -0.0108 -0.2129  0.1116
 5523SOL    HW228029   4.465   1.970   4.872  1.2642  1.9935 -0.4183
 5524SOL     OW28030   0.519   4.411   7.819 -0.2639 -0.0065 -0.4617
 5524SOL    HW128031   0.560   4.334   7.781 -0.1177 -0.2510  0.1863
 5524SOL    HW228032   0.425   4.400   7.803 -0.6492  0.4917  1.3554
 5525SOL     OW28033   1.961   2.402   1.277  0.0789  0.1174 -0.0130
 5525SOL    HW128034   1.867   2.418   1.276  0.1383  0.3143 -1.8417
 5525SOL    HW228035   2.005   2.476   1.234 -0.0211  0.4738  0.4877
 5526SOL     OW28036   2.854   2.948   6.952 -0.2766 -0.3965 -0.0947
 5526SOL    HW128037   2.798   3.025   6.945  0.7646  0.4087  0.4391
 5526SOL    HW228038   2.875   2.929   6.860  0.0294  0.2206 -0.1529
 5527SOL     OW28039   2.703   3.034  13.192  0.0590 -0.0833  0.1784
 5527SOL    HW128040   2.736   3.105  13.138 -1.6193  0.6789  0.1356
 5527SOL    HW228041   2.608   3.040  13.182  0.4481  2.2722 -2.1385
 5528SOL     OW28042   3.783   4.234   6.248  0.1235  0.2609 -0.0283
 5528SOL    HW128043   3.703   4.211   6.294 -0.2470  1.3997 -0.0934
 5528SOL    HW228044   3.809   4.149   6.213  0.5049  0.2145  0.3689
 5529SOL     OW28045   4.647   3.026   1.095 -0.0375  0.3625 -0.2075
 5529SOL    HW128046   4.576   2.969   1.124 -1.4384  1.3521 -1.6635
 5529SOL    HW228047   4.599   3.107   1.080  0.0052  0.1355 -1.6504
 5530SOL     OW28048   4.283   3.192   1.234  0.2722  0.0019 -0.3146
 5530SOL    HW128049   4.296   3.267   1.291 -0.1296 -0.8307  0.8553
 5530SOL    HW228050   4.357   3.200   1.174  0.1646  1.4593 -0.2464
 5531SOL     OW28051   0.670   2.253  12.316 -0.6459 -0.5872  0.1873
 5531SOL    HW128052   0.760   2.284  12.301 -0.8164 -1.7206 -3.1107
 5531SOL    HW228053   0.632   2.252  12.229 -0.0802 -4.3317 -0.0114
 5532SOL     OW28054   2.174   2.893   5.495  0.5322 -0.3571  0.5024
 5532SOL    HW128055   2.226   2.963   5.534  1.3893  0.6058 -2.3215
 5532SOL    HW228056   2.094   2.897   5.546 -0.0543  1.4272 -0.5832
 5533SOL     OW28057   4.268   4.062   7.302  0.2781 -0.1367  0.3320
 5533SOL    HW128058   4.331   4.119   7.346  0.5824  0.6140 -1.0530
 5533SOL    HW228059   4.280   3.983   7.355  0.7806 -0.8645 -0.8694
 5534SOL     OW28060   0.092   1.439   0.703  0.8264 -1.0524 -0.6591
 5534SOL    HW128061   0.027   1.503   0.731  0.2406 -1.4339 -1.1422
 5534SOL    HW228062   0.159   1.500   0.672  0.9785 -0.5570  0.6469
 5535SOL     OW28063   1.710   4.350   3.908  0.1075  0.2111  0.3154
 5535SOL    HW128064   1.772   4.363   3.981 -0.8763  1.3495  0.9330
 5535SOL    HW228065   1.629   4.327   3.954  0.5492  0.0444  1.0225
 5536SOL     OW28066   2.155   1.122  10.715  0.0914  0.3074  0.2375
 5536SOL    HW128067   2.235   1.117  10.661  0.7626 -0.4627  1.3079
 5536SOL    HW228068   2.168   1.193  10.777 -1.3936  1.2239 -0.4979
 5537SOL     OW28069   0.155   2.503  15.465  0.5459 -0.1105  0.2495
 5537SOL    HW128070   0.131   2.483  15.555 -0.4627 -0.4750 -0.1049
 5537SOL    HW228071   0.212   2.579  15.476  1.7529 -0.9897  0.1412
 5538SOL     OW28072   1.344   0.125   1.136  0.6419  0.7151  0.2107
 5538SOL    HW128073   1.285   0.199   1.123 -0.1794  0.1120  0.4652
 5538SOL    HW228074   1.362   0.129   1.229 -1.6320 -1.8503  0.7711
 5539SOL     OW28075   2.127   4.321   9.563 -0.4861 -0.1182 -0.1761
 5539SOL    HW128076   2.194   4.371   9.517  1.2440 -1.4494  0.8638
 5539SOL    HW228077   2.133   4.373   9.643  1.1094 -0.7443  0.1171
 5540SOL     OW28078   1.617   3.455   8.817 -0.2027 -0.2996 -0.2398
 5540SOL    HW128079   1.567   3.385   8.774  0.9026 -2.7606  2.4576
 5540SOL    HW228080   1.700   3.413   8.841 -0.9784 -2.0672 -0.5929
 5541SOL     OW28081   3.508   2.965   9.608 -0.1777 -0.1746  0.4254
 5541SOL    HW128082   3.576   2.903   9.580 -0.1331  0.9714 -2.0048
 5541SOL    HW228083   3.441   2.905   9.642  0.0194  0.9539  2.7378
 5542SOL     OW28084   2.879   4.646   0.357 -0.8042  0.1404 -0.6326
 5542SOL    HW128085   2.881   4.551   0.348 -1.1558  0.0254  0.5515
 5542SOL    HW228086   2.968   4.663   0.325  0.1398 -1.7295  1.0354
 5543SOL     OW28087   2.786   1.377  13.228  0.0133  0.1946  0.7977
 5543SOL    HW128088   2.744   1.437  13.290  0.5854 -0.6159  1.9652
 5543SOL    HW228089   2.795   1.295  13.276 -0.0267 -0.1842  0.1556
 5544SOL     OW28090   0.066   3.789   7.724 -0.1668 -0.2460 -0.4777
 5544SOL    HW128091   0.118   3.807   7.802 -1.0929  1.6739 -0.3029
 5544SOL    HW228092   4.711   3.836   7.753 -0.0481 -0.2634 -0.1290
 5545SOL     OW28093   1.259   3.918   2.379  0.3630 -0.3308 -0.2129
 5545SOL    HW128094   1.244   3.961   2.463  1.1717  0.4438 -0.4638
 5545SOL    HW228095   1.275   3.992   2.320 -1.9681  1.6468  1.6459
 5546SOL     OW28096   2.734   4.028   6.228  0.0544 -0.5508  0.1212
 5546SOL    HW128097   2.759   4.099   6.287  0.0289 -0.2455 -0.2405
 5546SOL    HW228098   2.769   3.950   6.272 -2.3240 -2.6671 -1.7199
 5547SOL     OW28099   2.879   4.538   4.982  0.0405 -0.1451 -0.3314
 5547SOL    HW128100   2.840   4.454   4.959  0.3088 -0.2954 -0.2439
 5547SOL    HW228101   2.973   4.529   4.966 -0.1542 -1.1459 -0.9137
 5548SOL     OW28102   1.360   3.266   6.879 -0.3521  0.7283 -0.3608
 5548SOL    HW128103   1.441   3.218   6.895 -0.4519  0.2386 -1.3031
 5548SOL    HW228104   1.344   3.237   6.789 -1.0815  0.0746 -0.0134
 5549SOL     OW28105   1.994   3.885   3.306 -0.6125  0.3145 -0.0275
 5549SOL    HW128106   1.946   3.809   3.274 -1.4664  0.0394  1.9213
 5549SOL    HW228107   2.034   3.859   3.388  1.0863  1.4899 -0.4834
 5550SOL     OW28108   2.736   4.136  14.669 -0.2203  0.5893 -0.1483
 5550SOL    HW128109   2.690   4.068  14.620  1.0458 -1.6096  1.7049
 5550SOL    HW228110   2.797   4.169  14.604  0.0579  0.3523 -0.0074
 5551SOL     OW28111   3.225   3.815   3.521 -0.2767  0.0320 -0.1219
 5551SOL    HW128112   3.266   3.739   3.480  0.8370  1.8504 -2.3776
 5551SOL    HW228113   3.199   3.783   3.607  2.1865 -0.3513  0.4770
 5552SOL     OW28114   2.143   3.924   5.132 -0.0785  0.1836 -0.0468
 5552SOL    HW128115   2.179   3.885   5.211  0.4176  1.8488  0.5573
 5552SOL    HW228116   2.063   3.873   5.125 -1.6611  2.2706  2.7682
 5553SOL     OW28117   2.336   3.237   1.353 -0.0925  0.6992 -0.1019
 5553SOL    HW128118   2.303   3.147   1.345  0.3287  0.3711  1.8104
 5553SOL    HW228119   2.410   3.223   1.411  0.0389  1.1870 -0.1502
 5554SOL     OW28120   3.805   3.701   8.060  0.0053  0.0736 -0.0558
 5554SOL    HW128121   3.821   3.657   8.143  1.1388  1.8156  0.6605
 5554SOL    HW228122   3.882   3.758   8.063  1.0926 -1.3268 -1.0094
 5555SOL     OW28123   0.474   2.466   6.617 -0.0146 -0.6492 -0.0602
 5555SOL    HW128124   0.410   2.397   6.636  0.4697 -0.9198  0.5901
 5555SOL    HW228125   0.550   2.409   6.619 -0.5332 -1.3749 -1.8756
 5556SOL     OW28126   2.362   4.187  15.328 -0.1406  0.3612  0.4070
 5556SOL    HW128127   2.438   4.129  15.321 -1.2736 -1.1599  0.5427
 5556SOL    HW228128   2.387   4.249  15.397  1.8461  0.7165 -0.6407
 5557SOL     OW28129   3.024   1.468  11.903  0.0459  0.2640 -0.3944
 5557SOL    HW128130   3.027   1.421  11.987 -2.0528  0.1873 -0.3473
 5557SOL    HW228131   2.983   1.397  11.855  0.3578 -0.5330  0.5132
 5558SOL     OW28132   0.933   1.322   3.470  0.0706  0.9326 -0.3232
 5558SOL    HW128133   0.994   1.260   3.510 -0.0051  2.3776  2.0120
 5558SOL    HW228134   0.894   1.265   3.404  0.9057  0.2088 -0.1978
 5559SOL     OW28135   0.851   1.205   3.927 -0.1237  0.1959  0.0530
 5559SOL    HW128136   0.849   1.285   3.875  0.3236  0.6613  0.7534
 5559SOL    HW228137   0.939   1.169   3.923 -0.0837  0.3960 -0.8623
 5560SOL     OW28138   0.543   1.976   6.470 -0.1228  0.6686 -0.0198
 5560SOL    HW128139   0.474   2.001   6.531 -0.9566 -1.7290  0.0188
 5560SOL    HW228140   0.563   2.065   6.441 -1.2573  1.7342  2.4835
 5561SOL     OW28141   1.757   1.767  17.324 -0.2269 -0.0020  0.2298
 5561SOL    HW128142   1.666   1.748  17.348 -0.1682 -1.9235 -1.0504
 5561SOL    HW228143   1.761   1.843  17.382 -2.3771  0.8197 -0.6789
 5562SOL     OW28144   3.377   0.700   4.671  0.5299 -0.8818 -0.3351
 5562SOL    HW128145   3.385   0.693   4.575 -0.0944 -0.2192 -0.4404
 5562SOL    HW228146   3.285   0.717   4.689  1.1795  1.9572  0.4346
 5563SOL     OW28147   1.278   0.494   5.652 -0.0485 -0.4199  0.7384
 5563SOL    HW128148   1.241   0.581   5.661  0.5642  0.1209 -1.9560
 5563SOL    HW228149   1.311   0.495   5.562  4.9776  1.4621  2.6125
 5564SOL     OW28150   1.190   2.505   3.276 -0.3148  0.4604 -0.1478
 5564SOL    HW128151   1.203   2.521   3.369  1.0275  1.7848 -0.5681
 5564SOL    HW228152   1.246   2.573   3.240  1.4246 -2.4495 -2.9084
 5565SOL     OW28153   0.487   4.600  11.696 -0.6502  0.0654  0.7444
 5565SOL    HW128154   0.570   4.636  11.663 -0.7247  0.5472  1.0846
 5565SOL    HW228155   0.526   4.582  11.781  0.4547  1.5517  0.5667
 5566SOL     OW28156   1.129   1.120  15.664  0.2739 -0.3400 -0.2334
 5566SOL    HW128157   1.130   1.096  15.757  0.2086  0.1331 -0.1088
 5566SOL    HW228158   1.208   1.074  15.638  0.0032 -0.9905  0.1083
 5567SOL     OW28159   1.100   2.952   3.617  0.0170 -0.4873 -1.0219
 5567SOL    HW128160   1.043   2.886   3.579 -0.6288 -0.9855  0.7886
 5567SOL    HW228161   1.130   2.907   3.696 -0.7587 -1.1452 -1.1062
 5568SOL     OW28162   3.172   0.984   7.012  0.6148  0.6534 -0.1723
 5568SOL    HW128163   3.163   0.989   7.107  0.8378  0.7649 -0.1582
 5568SOL    HW228164   3.079   0.996   6.990  1.2562  2.8224 -1.7521
 5569SOL     OW28165   0.042   4.411   3.378  0.6470 -0.2339 -0.1833
 5569SOL    HW128166   0.013   4.346   3.313 -1.3354 -0.6742  1.1548
 5569SOL    HW228167   4.676   4.421   3.410  0.0783  2.4242 -2.6038
 5570SOL     OW28168   3.346   4.404  13.114 -0.2174  0.7011 -0.5516
 5570SOL    HW128169   3.314   4.317  13.090  0.5977  0.9423 -2.4128
 5570SOL    HW228170   3.381   4.437  13.032  2.0720  0.1872  0.2311
 5571SOL     OW28171   3.819   1.095   3.546 -0.3083 -0.1548  0.0816
 5571SOL    HW128172   3.784   1.126   3.629 -1.3028 -1.8601  0.3114
 5571SOL    HW228173   3.750   1.110   3.481 -0.1957  0.7003  0.1697
 5572SOL     OW28174   1.902   3.183   6.776  0.0348  0.0573 -0.1519
 5572SOL    HW128175   1.917   3.101   6.823 -0.5009  0.6922  1.1038
 5572SOL    HW228176   1.979   3.235   6.800  0.3489  0.3537 -1.7893
 5573SOL     OW28177   0.496   3.834   4.416  0.2474 -0.0836 -0.3975
 5573SOL    HW128178   0.496   3.865   4.507  0.2992 -1.1532 -0.0335
 5573SOL    HW228179   0.587   3.810   4.397  0.2288 -0.0300 -0.5565
 5574SOL     OW28180   2.993   3.830  15.052 -0.1585 -0.3581 -0.0462
 5574SOL    HW128181   2.958   3.758  15.000  2.3381 -1.9954  0.5045
 5574SOL    HW228182   2.938   3.899  15.015 -0.3318  0.0708  1.0125
 5575SOL     OW28183   0.607   0.527   6.565 -0.1120 -0.7801  0.2322
 5575SOL    HW128184   0.577   0.466   6.632  2.0863 -1.0097  1.0070
 5575SOL    HW228185   0.584   0.608   6.611  3.9702 -0.1582  1.2212
 5576SOL     OW28186   4.711   1.037   8.422 -0.2137  0.6198  0.1837
 5576SOL    HW128187   4.719   1.052   8.516 -1.8164  0.8269  0.2993
 5576SOL    HW228188   4.620   1.007   8.420  0.1486 -0.3645 -1.4719
 5577SOL     OW28189   4.047   0.502  17.235 -0.1128  0.3232 -0.7132
 5577SOL    HW128190   4.067   0.531  17.145  2.3818  1.2493  0.1405
 5577SOL    HW228191   4.104   0.426  17.241 -2.2554 -1.3569 -1.7238
 5578SOL     OW28192   1.075   0.467  16.054  0.1291 -0.5045 -0.1496
 5578SOL    HW128193   1.045   0.396  16.112 -0.9776  0.5950  0.6152
 5578SOL    HW228194   1.136   0.421  15.995  1.3422 -1.1067  1.5724
 5579SOL     OW28195   0.096   2.441   4.795  0.2043  0.1188  0.0674
 5579SOL    HW128196   0.146   2.390   4.731 -0.9796 -0.4101 -0.4348
 5579SOL    HW228197   0.164   2.463   4.859  1.2866  0.3953 -1.1663
 5580SOL     OW28198   0.919   1.572   9.617 -0.1022  0.4482  0.2803
 5580SOL    HW128199   0.874   1.538   9.695  2.5635  0.7338  1.9175
 5580SOL    HW228200   0.968   1.496   9.586  0.0408 -0.2491  2.1487
 5581SOL     OW28201   4.002   0.929  10.811  0.2249  0.2803  0.0462
 5581SOL    HW128202   4.033   1.014  10.782 -0.2346 -0.2801 -2.0997
 5581SOL    HW228203   4.064   0.904  10.879  0.5889  1.4001  0.1204
 5582SOL     OW28204   1.437   3.709   9.100 -0.8727  0.0780 -0.2737
 5582SOL    HW128205   1.428   3.616   9.078 -2.6365  1.0452 -3.5715
 5582SOL    HW228206   1.533   3.711   9.101 -0.8941 -0.4855  1.6156
 5583SOL     OW28207   0.080   1.103   6.001 -0.8290 -0.0369 -0.3014
 5583SOL    HW128208   0.117   1.186   5.971 -0.8070 -0.3156 -1.0661
 5583SOL    HW228209   0.155   1.072   6.051 -1.2881 -0.0070  0.4026
 5584SOL     OW28210   1.195   2.337   4.267  0.5294  0.5972  0.2647
 5584SOL    HW128211   1.251   2.306   4.338 -1.4464 -0.7113  1.2319
 5584SOL    HW228212   1.206   2.430   4.285  0.6261  0.4091  1.1952
 5585SOL     OW28213   0.293   2.811  12.433  0.1558 -0.2561  0.1150
 5585SOL    HW128214   0.347   2.857  12.497 -1.7775  0.0052  1.5756
 5585SOL    HW228215   0.246   2.884  12.391  0.9838  2.3924  3.8534
 5586SOL     OW28216   1.764   0.872   2.442 -0.0867  0.1269  0.2998
 5586SOL    HW128217   1.704   0.845   2.511  0.2906 -1.5243 -0.0193
 5586SOL    HW228218   1.723   0.952   2.410 -0.1395  0.2507  0.6842
 5587SOL     OW28219   1.924   0.462   2.189 -0.3184  0.4576 -0.1904
 5587SOL    HW128220   1.829   0.455   2.182 -0.2454 -0.6457 -0.1952
 5587SOL    HW228221   1.930   0.557   2.186  0.3233  0.4482  0.5589
 5588SOL     OW28222   2.391   3.624   4.988 -0.4192  0.2698  0.0770
 5588SOL    HW128223   2.313   3.593   5.033 -0.5543 -1.8266 -1.6181
 5588SOL    HW228224   2.445   3.647   5.063  3.0731  0.1609 -2.3571
 5589SOL     OW28225   1.551   0.385  10.144  0.0442 -0.1088 -0.0063
 5589SOL    HW128226   1.592   0.298  10.142 -1.4338 -0.7576 -1.5902
 5589SOL    HW228227   1.463   0.361  10.116  1.2738 -1.5848 -2.6504
 5590SOL     OW28228   2.132   4.719   1.255 -0.2700 -0.1756 -0.2609
 5590SOL    HW128229   2.072   0.064   1.286 -1.8442 -1.3211 -0.8040
 5590SOL    HW228230   2.063   4.657   1.232 -0.7098  1.9119 -4.5512
 5591SOL     OW28231   1.312   4.322   2.033 -0.0333  0.1474 -0.3670
 5591SOL    HW128232   1.241   4.374   1.995 -1.0436 -0.2481  1.0134
 5591SOL    HW228233   1.343   4.278   1.953  0.2557  1.7028 -1.1098
 5592SOL     OW28234   2.821   3.561  16.594 -0.5695  0.1139  0.7084
 5592SOL    HW128235   2.819   3.546  16.688  1.6348 -3.4360  0.1660
 5592SOL    HW228236   2.892   3.500  16.576  0.2467  1.6753 -1.4001
 5593SOL     OW28237   3.259   2.880  13.361  0.1773 -0.4329 -0.7684
 5593SOL    HW128238   3.344   2.902  13.398 -0.3190 -1.1107  0.7535
 5593SOL    HW228239   3.215   2.843  13.437  1.9625 -3.4394 -1.1851
 5594SOL     OW28240   2.601   1.939   4.094 -0.5189  0.6555  0.2639
 5594SOL    HW128241   2.626   1.993   4.019 -1.4094  0.0626 -0.4629
 5594SOL    HW228242   2.683   1.918   4.138 -0.7600 -3.1470 -1.0974
 5595SOL     OW28243   0.147   1.495  11.888 -0.3691 -0.4855  0.2683
 5595SOL    HW128244   0.147   1.401  11.906  0.8315 -0.3560  0.9657
 5595SOL    HW228245   0.054   1.501  11.869 -0.7747 -3.3345  1.2626
 5596SOL     OW28246   3.027   4.119   9.646 -0.7783 -0.3866  0.3833
 5596SOL    HW128247   2.932   4.110   9.653 -0.7359  0.1827  1.6736
 5596SOL    HW228248   3.044   4.210   9.622 -0.1744 -0.3027  1.1058
 5597SOL     OW28249   2.905   2.143   4.822  0.2033 -0.3768 -0.5250
 5597SOL    HW128250   2.960   2.201   4.875 -1.7849  2.0658 -1.1667
 5597SOL    HW228251   2.828   2.189   4.790  0.9285  0.1254 -1.5232
 5598SOL     OW28252   0.717   2.940   8.334 -0.0738  0.0940 -0.1432
 5598SOL    HW128253   0.742   3.032   8.343 -1.0570  0.2972  0.4382
 5598SOL    HW228254   0.659   2.922   8.408 -0.0249 -1.3374 -0.4626
 5599SOL     OW28255   0.902   2.778   4.119 -0.0783  0.5783  0.3289
 5599SOL    HW128256   0.836   2.763   4.051 -0.7308  0.0655  1.0729
 5599SOL    HW228257   0.979   2.793   4.063 -1.4048  0.3634 -1.5662
 5600SOL     OW28258   1.989   0.739   8.268  0.3667 -0.2829 -0.5770
 5600SOL    HW128259   2.078   0.717   8.238  0.4265 -2.0990  0.9156
 5600SOL    HW228260   2.005   0.823   8.310  0.8618  0.3175 -1.9606
 5601SOL     OW28261   3.078   2.205  13.308  0.6020  0.1349  0.4243
 5601SOL    HW128262   3.117   2.144  13.245  0.2364 -0.3306  0.6461
 5601SOL    HW228263   3.137   2.280  13.309 -2.4240  2.5062 -0.1190
 5602SOL     OW28264   1.081   2.443   3.040 -0.4074  0.7183 -0.2016
 5602SOL    HW128265   1.121   2.454   3.126 -1.4701  0.7921  0.2786
 5602SOL    HW228266   1.137   2.374   3.004  0.2949  0.2741  1.7345
 5603SOL     OW28267   1.553   0.163   0.547  0.0451 -0.5589  0.3615
 5603SOL    HW128268   1.590   0.157   0.636  0.6108 -0.6694  0.1220
 5603SOL    HW228269   1.460   0.151   0.567 -0.5963  2.5662 -0.8231
 5604SOL     OW28270   3.131   4.720  12.853 -0.6757  0.5791 -0.7431
 5604SOL    HW128271   3.093   4.671  12.926  0.8124  1.0903  0.4009
 5604SOL    HW228272   3.104   0.088  12.869 -1.4970 -0.3215  3.0899
 5605SOL     OW28273   4.046   0.781   2.881 -0.1144 -0.4154  0.4779
 5605SOL    HW128274   4.085   0.750   2.799  0.3885  1.4272  0.0198
 5605SOL    HW228275   4.024   0.693   2.911 -1.5688 -0.4269 -0.6301
 5606SOL     OW28276   0.708   4.036  15.379  0.0285 -0.3564  0.4754
 5606SOL    HW128277   0.787   3.986  15.360  1.3520  1.3679  1.3454
 5606SOL    HW228278   0.655   3.966  15.415 -0.2908 -0.8467 -0.9712
 5607SOL     OW28279   0.461   3.322   5.758 -0.4387  0.0971  0.6799
 5607SOL    HW128280   0.554   3.337   5.776  0.4353 -2.8600 -1.3446
 5607SOL    HW228281   0.447   3.369   5.676 -1.5267 -0.5874  0.4780
 5608SOL     OW28282   1.053   0.191   6.253  0.6983  0.2556 -0.2147
 5608SOL    HW128283   0.969   0.146   6.244  1.2428 -0.5257 -1.4346
 5608SOL    HW228284   1.040   0.230   6.339 -2.5059  0.0556 -0.6009
 5609SOL     OW28285   0.401   0.403  14.222 -1.0516  0.2235 -0.1879
 5609SOL    HW128286   0.323   0.454  14.200 -1.0955 -0.6839 -2.1473
 5609SOL    HW228287   0.469   0.468  14.205  0.1454 -0.5760  1.5476
 5610SOL     OW28288   0.480   2.242   5.462  0.1431  0.0845  0.2608
 5610SOL    HW128289   0.457   2.212   5.374 -0.3267  0.8549  0.1246
 5610SOL    HW228290   0.442   2.329   5.466  0.2229  0.0750  1.0835
 5611SOL     OW28291   1.735   4.546   1.135 -0.7123  0.1787 -0.1571
 5611SOL    HW128292   1.659   4.491   1.155 -0.0679  0.3175  2.6153
 5611SOL    HW228293   1.704   4.584   1.052  1.1893  0.4410 -0.7572
 5612SOL     OW28294   0.157   0.636   4.214  0.1658 -0.6732  0.1240
 5612SOL    HW128295   0.097   0.670   4.148 -0.8615 -1.6706  0.5466
 5612SOL    HW228296   0.217   0.577   4.168  2.1430  0.9436  0.6271
 5613SOL     OW28297   4.216   0.766   5.600 -0.1047  0.1444  0.3974
 5613SOL    HW128298   4.273   0.817   5.542  0.8521 -1.5226 -0.1306
 5613SOL    HW228299   4.286   0.722   5.649 -1.1092 -2.0406 -0.1607
 5614SOL     OW28300   0.793   4.500   3.957 -1.2783 -0.2413 -0.6878
 5614SOL    HW128301   0.845   4.580   3.947 -0.1711 -0.4364  3.5531
 5614SOL    HW228302   0.805   4.472   4.048  0.0552  0.7456 -0.5648
 5615SOL     OW28303   4.514   3.394   8.432 -0.0615  0.0824  0.0688
 5615SOL    HW128304   4.552   3.372   8.517 -1.4488  1.2461  0.9936
 5615SOL    HW228305   4.430   3.349   8.436 -1.8728  3.3539 -0.7940
 5616SOL     OW28306   2.568   2.614   3.165  0.0641 -0.1788 -0.2039
 5616SOL    HW128307   2.502   2.673   3.129 -1.1111 -0.8372  0.8918
 5616SOL    HW228308   2.601   2.672   3.233  0.7389 -0.5422 -0.2210
 5617SOL     OW28309   2.937   3.712  15.308 -0.0920 -0.2276  0.1790
 5617SOL    HW128310   2.965   3.724  15.217 -2.2484 -0.3596 -0.5035
 5617SOL    HW228311   2.864   3.775  15.302 -0.4449 -0.6123  0.4694
 5618SOL     OW28312   2.044   3.670   7.704  0.4422 -0.2867 -0.4270
 5618SOL    HW128313   2.133   3.659   7.670  0.5940 -1.2961  0.3097
 5618SOL    HW228314   2.054   3.755   7.748 -1.8893  0.1363 -0.7115
 5619SOL     OW28315   1.508   2.159   3.361 -0.6120  0.8180 -0.3287
 5619SOL    HW128316   1.544   2.085   3.410  0.1086  1.2328 -0.2285
 5619SOL    HW228317   1.586   2.171   3.306 -1.2616 -0.1873 -1.4726
 5620SOL     OW28318   4.551   2.077   3.312 -0.5338 -0.1080  0.0425
 5620SOL    HW128319   4.490   2.039   3.249 -0.0017 -0.2706 -0.3738
 5620SOL    HW228320   4.500   2.156   3.332  0.9961  0.5001  1.5831
 5621SOL     OW28321   1.200   1.542   7.361 -0.2878  0.3000  0.2471
 5621SOL    HW128322   1.191   1.467   7.303  2.7155  0.0434  0.0942
 5621SOL    HW228323   1.177   1.612   7.299 -0.6498 -1.4566 -1.5981
 5622SOL     OW28324   1.787   0.290   4.948 -0.6230 -0.2132  0.7231
 5622SOL    HW128325   1.707   0.324   4.988 -1.0060  0.0377 -0.2682
 5622SOL    HW228326   1.750   0.249   4.870  0.1372  0.2500  0.1124
 5623SOL     OW28327   0.237   1.902   5.834 -0.3846 -0.2926 -0.2308
 5623SOL    HW128328   0.306   1.951   5.788 -1.1260 -0.4732 -1.5357
 5623SOL    HW228329   0.163   1.919   5.775  1.0016  0.4735 -1.7500
 5624SOL     OW28330   4.373   0.009  10.850  0.0484  0.5396 -0.6028
 5624SOL    HW128331   4.320   4.707  10.774  0.3683  3.1927 -1.6829
 5624SOL    HW228332   4.461   4.719  10.815 -0.1527  1.2708 -1.3845
 5625SOL     OW28333   3.746   3.641   6.692 -0.1400  0.5773 -0.8722
 5625SOL    HW128334   3.800   3.565   6.668  1.3344  0.7307  1.9525
 5625SOL    HW228335   3.699   3.603   6.767 -1.1192  0.0836 -1.7392
 5626SOL     OW28336   1.816   1.539  15.438  0.0557 -0.3484 -0.3572
 5626SOL    HW128337   1.723   1.515  15.430 -0.2222  0.3604  0.6706
 5626SOL    HW228338   1.849   1.482  15.507 -1.0578 -0.6405 -0.0712
 5627SOL     OW28339   1.349   3.708   3.851  0.2528  0.2510  0.2435
 5627SOL    HW128340   1.392   3.792   3.836  1.0132 -0.5247 -1.8945
 5627SOL    HW228341   1.334   3.684   3.760 -0.9633 -1.3159  0.8503
 5628SOL     OW28342   4.436   2.368   7.413 -0.0759  0.1233 -0.3658
 5628SOL    HW128343   4.349   2.407   7.423  0.1178 -0.0147  1.8710
 5628SOL    HW228344   4.480   2.382   7.496  0.8210  0.3730 -0.8882
 5629SOL     OW28345   4.586   3.110   8.480  0.3553 -0.2309  0.3030
 5629SOL    HW128346   4.542   3.138   8.561  1.2179 -1.7040  1.2959
 5629SOL    HW228347   4.561   3.018   8.485 -0.1194 -0.1011  0.2493
 5630SOL     OW28348   2.090   1.075   2.295  0.3377  0.1814  0.4794
 5630SOL    HW128349   2.020   1.076   2.230  0.9618  0.6882 -0.1827
 5630SOL    HW228350   2.152   1.132   2.251 -0.9731  0.0448 -1.5173
 5631SOL     OW28351   0.339   1.718  14.076 -0.2770  0.5584 -0.3347
 5631SOL    HW128352   0.369   1.808  14.058 -1.0014  0.7963 -0.3541
 5631SOL    HW228353   0.396   1.669  14.017  2.2565  0.5401  2.1308
 5632SOL     OW28354   1.871   4.486   4.163  0.0371  1.0235  0.0513
 5632SOL    HW128355   1.823   4.555   4.116 -1.7082 -0.0878  0.2024
 5632SOL    HW228356   1.865   4.507   4.256  1.1787 -1.4575  0.6743
 5633SOL     OW28357   3.740   2.009   4.308 -0.5572 -0.0672 -0.5683
 5633SOL    HW128358   3.820   1.997   4.360 -1.8084 -0.9846  1.1445
 5633SOL    HW228359   3.674   2.025   4.375 -0.2604 -1.7628  0.1255
 5634SOL     OW28360   1.975   3.808  14.648 -0.0413  0.8190 -0.3324
 5634SOL    HW128361   2.045   3.808  14.582 -1.6691  0.4955 -2.0522
 5634SOL    HW228362   1.927   3.730  14.620  0.1455  1.0082 -1.1834
 5635SOL     OW28363   0.466   3.416   7.126  0.8948  0.4688  0.0527
 5635SOL    HW128364   0.395   3.462   7.171 -0.4534 -1.1609 -0.3856
 5635SOL    HW228365   0.465   3.468   7.046  1.0874  0.6521  0.1726
 5636SOL     OW28366   0.380   4.717   5.737  0.0248  0.6040  0.7881
 5636SOL    HW128367   0.340   0.018   5.821  0.6536 -0.2058  1.3233
 5636SOL    HW228368   0.472   4.720   5.760 -0.2820 -0.7605  2.1975
 5637SOL     OW28369   0.302   3.997   7.664 -0.1456  0.9023 -0.6607
 5637SOL    HW128370   0.243   4.021   7.735  0.1928 -0.5469  0.1155
 5637SOL    HW228371   0.347   3.922   7.704 -1.9655  0.9987  1.5730
 5638SOL     OW28372   3.581   4.708   3.929  0.3642 -0.4376 -0.6228
 5638SOL    HW128373   3.618   0.018   4.011  1.3788  1.7990 -1.9928
 5638SOL    HW228374   3.622   0.043   3.865 -2.9282  2.1039 -0.4259
 5639SOL     OW28375   3.147   3.595  13.616 -0.0576 -0.1683 -0.3926
 5639SOL    HW128376   3.189   3.667  13.567  0.9731  1.1295  2.4094
 5639SOL    HW228377   3.104   3.544  13.548  2.2119 -3.1145  0.4035
 5640SOL     OW28378   3.191   0.977   5.270  0.7889  0.1423 -0.1536
 5640SOL    HW128379   3.121   1.030   5.232 -0.9667 -0.3041  2.4580
 5640SOL    HW228380   3.241   0.966   5.189  0.5068  1.7012 -0.5496
 5641SOL     OW28381   4.136   2.609   3.722  0.1768 -0.3800 -0.0321
 5641SOL    HW128382   4.091   2.547   3.779  0.0157 -1.0578 -0.9043
 5641SOL    HW228383   4.222   2.570   3.735 -0.6574 -2.4797 -0.8484
 5642SOL     OW28384   1.239   3.331   1.960  0.1491 -0.2105  0.3999
 5642SOL    HW128385   1.239   3.245   2.002  1.8416 -0.0458  0.7281
 5642SOL    HW228386   1.148   3.334   1.929 -0.4209 -1.0890  1.9433
 5643SOL     OW28387   4.331   0.777  15.973 -0.0536 -0.3186  0.1467
 5643SOL    HW128388   4.280   0.702  15.942  2.3326 -2.0990  0.4526
 5643SOL    HW228389   4.274   0.806  16.043 -0.9203  0.0308 -0.7061
 5644SOL     OW28390   0.965   4.159   0.951 -0.4702  0.3844 -0.2199
 5644SOL    HW128391   1.035   4.216   0.982 -1.6738  1.4721  0.4712
 5644SOL    HW228392   0.886   4.206   0.977 -0.5314  0.0097  0.2725
 5645SOL     OW28393   3.008   1.024   7.231 -0.1366 -0.5339 -0.0995
 5645SOL    HW128394   3.041   1.079   7.302 -1.2306 -1.7856  1.3907
 5645SOL    HW228395   2.921   1.063   7.222  0.2766  0.3823 -0.1109
 5646SOL     OW28396   4.661   3.390   0.439  0.5940 -0.1787  0.4971
 5646SOL    HW128397   4.658   3.304   0.480  0.7511  0.9196  2.8354
 5646SOL    HW228398   4.674   3.362   0.348 -0.2114  0.6454  0.1343
 5647SOL     OW28399   1.462   1.108   4.945  0.3389 -0.6987  0.3197
 5647SOL    HW128400   1.424   1.186   4.905 -0.0006 -0.4238  1.1755
 5647SOL    HW228401   1.481   1.132   5.036  1.5051 -0.9632  0.1496
 5648SOL     OW28402   1.586   4.046   1.957 -0.3835 -0.2437 -0.7533
 5648SOL    HW128403   1.580   4.067   1.864 -1.4478 -1.5703 -0.9722
 5648SOL    HW228404   1.663   3.990   1.951  1.1668  2.1329 -2.6468
 5649SOL     OW28405   0.925   0.859   7.742 -0.0644 -0.4116  0.5567
 5649SOL    HW128406   0.957   0.949   7.734  2.3081 -1.3314 -0.0993
 5649SOL    HW228407   0.876   0.843   7.662  0.8188 -2.2059  0.3758
 5650SOL     OW28408   0.845   1.582   1.143 -0.2544  0.4564 -0.4147
 5650SOL    HW128409   0.755   1.610   1.125 -0.5365  0.2350  0.6373
 5650SOL    HW228410   0.860   1.621   1.230 -0.9112  0.4554 -0.2954
 5651SOL     OW28411   3.016   1.230   8.358 -0.1890  0.0797  0.1244
 5651SOL    HW128412   2.981   1.206   8.272  0.1889 -2.1844  0.6010
 5651SOL    HW228413   2.938   1.216   8.412 -0.6199  0.8027 -0.3195
 5652SOL     OW28414   2.921   2.772   2.409  0.3358 -0.1054  0.4742
 5652SOL    HW128415   2.842   2.800   2.363 -1.0543 -0.9769  2.3197
 5652SOL    HW228416   2.940   2.687   2.368 -0.7210  0.6032 -1.5155
 5653SOL     OW28417   1.013   4.590   2.620  0.4862 -0.0594 -0.2945
 5653SOL    HW128418   1.105   4.613   2.608 -0.0098  0.9404 -2.1846
 5653SOL    HW228419   1.006   4.619   2.711 -1.0960  0.7007 -0.6524
 5654SOL     OW28420   2.996   0.191  12.340 -0.2717 -0.0352  0.0108
 5654SOL    HW128421   3.025   0.111  12.383 -0.1981 -0.1294 -0.2136
 5654SOL    HW228422   2.998   0.244  12.419 -1.0006 -0.7891  0.5289
 5655SOL     OW28423   0.822   1.382  11.727  0.0035  0.0598  0.2877
 5655SOL    HW128424   0.773   1.424  11.798  1.0855  1.9801 -0.0875
 5655SOL    HW228425   0.872   1.456  11.692  0.0886 -0.6357 -1.0653
 5656SOL     OW28426   3.646   3.776   5.130 -0.0128  0.5223  0.2583
 5656SOL    HW128427   3.731   3.757   5.090  0.9456  0.0014  2.5787
 5656SOL    HW228428   3.590   3.779   5.052  1.1780 -0.3229 -0.6352
 5657SOL     OW28429   2.007   2.763   6.044  0.5745 -0.0207  0.5136
 5657SOL    HW128430   2.089   2.801   6.011  1.1571 -1.4363  0.3407
 5657SOL    HW228431   2.020   2.796   6.133  1.0591  0.7380  0.1700
 5658SOL     OW28432   1.641   2.822   5.225  0.7137 -0.5699 -0.1140
 5658SOL    HW128433   1.549   2.796   5.231  0.5623 -0.1386 -0.5502
 5658SOL    HW228434   1.671   2.749   5.169  1.2461  0.0591 -0.6534
 5659SOL     OW28435   2.073   3.375   1.411  0.0557 -0.5237  0.1501
 5659SOL    HW128436   2.051   3.463   1.378  0.5656 -0.8620 -1.1013
 5659SOL    HW228437   2.161   3.362   1.376 -0.0964  0.6996 -0.7101
 5660SOL     OW28438   3.761   0.371  16.240 -0.0190  0.3275 -1.2491
 5660SOL    HW128439   3.698   0.339  16.176 -1.5256  0.9517 -0.0614
 5660SOL    HW228440   3.843   0.356  16.193  0.4928 -1.7630  0.2971
 5661SOL     OW28441   2.737   4.112  15.766 -0.3333 -0.1367  0.0503
 5661SOL    HW128442   2.759   4.053  15.838 -1.5046 -0.1267  0.4117
 5661SOL    HW228443   2.694   4.051  15.705  1.4377 -1.3197 -0.0161
 5662SOL     OW28444   3.332   2.890  16.685  0.2940  0.0226 -0.1246
 5662SOL    HW128445   3.314   2.976  16.648  0.6560 -0.3288 -1.1311
 5662SOL    HW228446   3.288   2.830  16.625 -1.8107  0.5592  0.8865
 5663SOL     OW28447   0.811   3.796   8.639  0.2233  0.2587  0.1155
 5663SOL    HW128448   0.728   3.753   8.662  0.1813 -0.0178 -0.5592
 5663SOL    HW228449   0.811   3.779   8.545 -1.4869  0.8951  0.0030
 5664SOL     OW28450   0.706   0.136   5.591 -0.5527  0.1599  0.2696
 5664SOL    HW128451   0.792   0.173   5.570  1.0996 -2.0955  3.0799
 5664SOL    HW228452   0.690   0.092   5.508  0.8699 -0.9872  0.6238
 5665SOL     OW28453   0.011   4.142   2.931 -0.7491 -0.3613 -0.3091
 5665SOL    HW128454   0.085   4.123   2.875 -0.9588 -0.3628 -0.5866
 5665SOL    HW228455   4.671   4.201   2.890 -0.5092  0.5371  0.5964
 5666SOL     OW28456   3.622   1.419   3.513  0.2203 -0.6721 -0.2181
 5666SOL    HW128457   3.565   1.493   3.493 -0.8510 -1.3127  0.4289
 5666SOL    HW228458   3.699   1.472   3.535 -0.0340  0.2301 -1.4954
 5667SOL     OW28459   1.099   3.918   0.486  0.2893 -0.7104  0.0267
 5667SOL    HW128460   1.071   3.896   0.574  2.2546 -0.9284  0.6009
 5667SOL    HW228461   1.035   3.869   0.435  0.0263  0.4809 -0.7868
 5668SOL     OW28462   1.421   4.705  14.252  0.2521  0.2053  0.3307
 5668SOL    HW128463   1.370   4.625  14.264  0.6812 -0.1155 -0.0021
 5668SOL    HW228464   1.505   4.674  14.286 -0.2908 -1.7648 -0.1207
 5669SOL     OW28465   1.605   4.480  14.563 -0.4799  0.7157  0.8108
 5669SOL    HW128466   1.624   4.487  14.470  0.8505  0.5675  1.0712
 5669SOL    HW228467   1.635   4.566  14.594 -1.8435  1.9191 -1.2004
 5670SOL     OW28468   4.443   3.531   5.239 -0.1197 -0.2336 -0.0925
 5670SOL    HW128469   4.354   3.564   5.250 -0.1799  0.2972 -2.1884
 5670SOL    HW228470   4.439   3.500   5.148  1.5772  0.8696 -0.5419
 5671SOL     OW28471   2.826   2.784   5.813  0.1954 -0.0934  0.2083
 5671SOL    HW128472   2.801   2.725   5.742 -1.5594 -1.8789  2.2967
 5671SOL    HW228473   2.768   2.858   5.794 -0.8361 -0.8653  0.3524
 5672SOL     OW28474   0.157   2.616   9.911  0.3773 -0.2440 -0.5270
 5672SOL    HW128475   0.224   2.678   9.882 -1.4690  2.1442  0.2556
 5672SOL    HW228476   0.072   2.658   9.900 -0.0097 -0.7734  0.4234
 5673SOL     OW28477   0.190   2.506   3.693 -0.0491 -0.1257  0.4782
 5673SOL    HW128478   0.174   2.589   3.739 -0.1404  1.2757 -2.0886
 5673SOL    HW228479   0.113   2.501   3.637  0.0564  2.6853  0.0736
 5674SOL     OW28480   3.744   0.823   7.295  0.0048  0.0836 -0.2040
 5674SOL    HW128481   3.774   0.806   7.385 -1.8731 -0.7962  0.2618
 5674SOL    HW228482   3.716   0.914   7.303  3.0654  0.7057  3.8376
 5675SOL     OW28483   1.868   1.991   9.071  0.5905  0.4104 -0.0209
 5675SOL    HW128484   1.851   1.902   9.104 -0.3485  1.1273  1.4012
 5675SOL    HW228485   1.949   2.016   9.114  0.1631  0.0518  0.9948
 5676SOL     OW28486   4.330   1.659   4.790  0.3174 -0.5009 -0.8071
 5676SOL    HW128487   4.342   1.670   4.885 -0.3105  2.0963 -1.0140
 5676SOL    HW228488   4.418   1.673   4.755 -0.6223  0.5244 -2.7529
 5677SOL     OW28489   1.174   2.903  16.382 -0.5411  0.0505  0.5929
 5677SOL    HW128490   1.094   2.879  16.430 -1.0046  1.8642  0.7165
 5677SOL    HW228491   1.236   2.851  16.433 -1.8378 -3.2787 -1.2301
 5678SOL     OW28492   3.184   0.914   5.572 -0.4021 -0.8996  0.0921
 5678SOL    HW128493   3.214   0.884   5.486 -2.6370  1.0803 -1.3607
 5678SOL    HW228494   3.261   0.920   5.628  0.3216 -0.8357 -0.9091
 5679SOL     OW28495   3.247   1.991   4.396 -1.0038 -0.3418 -0.4578
 5679SOL    HW128496   3.193   1.945   4.461 -0.4685  0.9820  0.9233
 5679SOL    HW228497   3.225   1.930   4.325  0.8908 -0.8856 -0.5707
 5680SOL     OW28498   1.295   0.532   4.242 -0.1193  0.2079  0.2158
 5680SOL    HW128499   1.311   0.439   4.257  0.5047 -0.0142 -1.7857
 5680SOL    HW228500   1.368   0.577   4.286 -0.7859 -0.4383  1.9492
 5681SOL     OW28501   0.540   2.917   4.770 -0.1044 -0.1455 -0.1651
 5681SOL    HW128502   0.499   2.993   4.811 -0.5549  0.1853 -1.2426
 5681SOL    HW228503   0.623   2.950   4.736 -0.1346 -0.6781 -0.7641
 5682SOL     OW28504   3.766   3.607   5.351  0.3366  0.2936  0.1101
 5682SOL    HW128505   3.764   3.512   5.340  0.0537  0.0091  2.6533
 5682SOL    HW228506   3.742   3.628   5.260 -1.7866 -2.2905  0.0697
 5683SOL     OW28507   3.086   2.740  15.049  0.8740 -0.2151 -0.0657
 5683SOL    HW128508   2.996   2.774  15.049  0.6646 -0.7718 -0.2235
 5683SOL    HW228509   3.125   2.803  14.988 -0.6922  1.5230  0.7188
 5684SOL     OW28510   3.253   2.639   0.987  0.2610 -0.2814 -0.6506
 5684SOL    HW128511   3.187   2.709   0.982 -0.8097 -1.2725 -0.2745
 5684SOL    HW228512   3.283   2.648   0.896 -0.5716  1.4137 -0.7529
 5685SOL     OW28513   3.453   4.097   3.924  0.5659 -0.5372 -0.5493
 5685SOL    HW128514   3.542   4.123   3.948 -0.2094  0.2261  1.5087
 5685SOL    HW228515   3.414   4.075   4.009 -1.4228 -2.9222 -2.0718
 5686SOL     OW28516   1.558   2.415   9.091  0.0363 -0.6403 -0.1876
 5686SOL    HW128517   1.645   2.376   9.085  0.9253  1.2993 -0.1937
 5686SOL    HW228518   1.510   2.335   9.111 -1.0693  0.0851  0.0556
 5687SOL     OW28519   3.446   0.405   5.267  0.0248  0.8644  0.0015
 5687SOL    HW128520   3.352   0.423   5.261  0.0922  2.1492  2.5937
 5687SOL    HW228521   3.480   0.490   5.238  0.4420  0.7504  0.1598
 5688SOL     OW28522   1.107   1.925   8.449 -0.0795  0.3000 -0.3843
 5688SOL    HW128523   1.136   1.924   8.358 -1.2262  0.7085 -0.7508
 5688SOL    HW228524   1.104   1.832   8.474 -0.4998  0.1389 -1.0501
 5689SOL     OW28525   1.743   1.365   0.677 -0.2221  0.3486 -0.5077
 5689SOL    HW128526   1.835   1.342   0.660 -0.3239  0.8067 -1.6650
 5689SOL    HW228527   1.695   1.293   0.636  2.7665 -0.1989 -3.0545
 5690SOL     OW28528   0.026   2.855   3.657 -0.1936 -0.3950  0.0018
 5690SOL    HW128529   0.011   2.843   3.563  0.9743 -0.6173 -0.1618
 5690SOL    HW228530   0.071   2.940   3.653 -3.0211  1.1036  0.1194
 5691SOL     OW28531   4.128   2.869   6.085  0.6328 -0.2879  0.4279
 5691SOL    HW128532   4.043   2.824   6.085  0.8450 -0.7134 -2.5009
 5691SOL    HW228533   4.158   2.835   6.001 -0.4389 -0.9717  0.3251
 5692SOL     OW28534   4.583   3.754   3.743 -0.2532 -0.4080 -0.3898
 5692SOL    HW128535   4.676   3.745   3.761 -0.3835  0.7281  0.8409
 5692SOL    HW228536   4.590   3.786   3.653 -2.0704  1.1724  0.0299
 5693SOL     OW28537   0.726   4.312   6.868 -0.1874  0.2103  0.0195
 5693SOL    HW128538   0.738   4.218   6.878  0.7044  0.5193  1.9669
 5693SOL    HW228539   0.694   4.336   6.955 -0.7397 -0.0646 -0.1104
 5694SOL     OW28540   2.239   3.820   6.869  0.2728 -0.1005 -0.2438
 5694SOL    HW128541   2.174   3.888   6.849 -0.4387  0.0847  2.7041
 5694SOL    HW228542   2.230   3.770   6.788 -2.8983  0.1173 -0.0612
 5695SOL     OW28543   4.525   1.285   9.842  0.0719 -0.3442 -0.1030
 5695SOL    HW128544   4.602   1.272   9.898 -0.8420 -0.0147  1.2134
 5695SOL    HW228545   4.555   1.369   9.806 -1.4938  0.4111  0.3954
 5696SOL     OW28546   2.022   1.532   5.522  0.1338  1.0737 -0.4399
 5696SOL    HW128547   1.972   1.614   5.516 -2.8349 -0.4626  3.4686
 5696SOL    HW228548   1.984   1.493   5.600 -1.5381  1.6647 -0.9493
 5697SOL     OW28549   4.700   0.821  10.383  0.7817  0.0391 -0.4641
 5697SOL    HW128550   4.656   0.804  10.300  2.6324  0.0904 -1.4711
 5697SOL    HW228551   0.051   0.760  10.386  1.3789  0.7406 -0.9926
 5698SOL     OW28552   3.236   4.376  15.476 -0.5867 -0.1600 -0.1852
 5698SOL    HW128553   3.277   4.448  15.428 -1.5044  0.9561  0.7089
 5698SOL    HW228554   3.266   4.305  15.419 -0.8526 -0.2048 -0.2701
 5699SOL     OW28555   0.947   1.107   8.690  0.1419 -0.1014 -0.1485
 5699SOL    HW128556   1.023   1.132   8.638 -0.7006 -0.4474 -1.5625
 5699SOL    HW228557   0.976   1.020   8.718 -3.7190 -0.8095  1.6006
 5700SOL     OW28558   0.460   3.737  12.321 -0.0495  0.3613  0.0803
 5700SOL    HW128559   0.386   3.787  12.285 -1.0469 -0.6287  0.7469
 5700SOL    HW228560   0.459   3.670  12.253 -1.5878  0.1553  0.2931
 5701SOL     OW28561   4.679   4.595   5.641 -0.2717 -0.4366 -0.0640
 5701SOL    HW128562   4.718   4.632   5.562  2.3491 -0.3726  1.2675
 5701SOL    HW228563   4.586   4.578   5.623 -0.0528 -0.4456 -1.1749
 5702SOL     OW28564   0.715   1.068  12.298 -0.2808  0.0518 -0.3205
 5702SOL    HW128565   0.647   1.119  12.342 -0.2673  0.2604 -0.5438
 5702SOL    HW228566   0.728   1.130  12.227  1.8528  0.2565  0.2359
 5703SOL     OW28567   2.484   0.082   3.694  0.2908  0.3310 -0.5629
 5703SOL    HW128568   2.522   0.009   3.646 -1.2549 -0.0611 -1.1852
 5703SOL    HW228569   2.544   0.108   3.764 -1.2336 -2.6166  1.8504
 5704SOL     OW28570   3.438   1.943  13.887 -0.1998  0.6505  0.5575
 5704SOL    HW128571   3.502   1.912  13.952  0.0816 -0.1444 -0.0937
 5704SOL    HW228572   3.423   1.858  13.845 -0.7527  0.2818  1.5017
 5705SOL     OW28573   3.740   4.270   8.549  0.0660  0.5364  0.8287
 5705SOL    HW128574   3.736   4.315   8.634  0.0269 -0.8293  1.5574
 5705SOL    HW228575   3.777   4.343   8.500 -2.1060 -0.8028 -2.7881
 5706SOL     OW28576   0.753   2.179   0.579  0.1992 -0.3889  0.4501
 5706SOL    HW128577   0.751   2.205   0.671 -2.3706 -0.7502  0.5054
 5706SOL    HW228578   0.847   2.185   0.562 -0.2400  3.9587 -0.5539
 5707SOL     OW28579   3.543   3.241   3.695  0.8297  0.2085  0.2655
 5707SOL    HW128580   3.582   3.238   3.782  3.1614 -0.4906 -0.8034
 5707SOL    HW228581   3.572   3.166   3.643 -0.2940 -0.3167  0.3970
 5708SOL     OW28582   3.403   1.193   4.911 -0.2426 -0.4409  0.1816
 5708SOL    HW128583   3.394   1.168   4.819 -0.0589  0.8280 -0.1852
 5708SOL    HW228584   3.414   1.287   4.899 -0.9221 -0.1149  2.2646
 5709SOL     OW28585   1.478   1.208  16.083  0.1891  0.6129  0.7154
 5709SOL    HW128586   1.559   1.201  16.133  0.7351  0.4577 -0.1924
 5709SOL    HW228587   1.513   1.176  16.001  0.8677 -0.6859  1.5204
 5710SOL     OW28588   4.217   1.113   9.163 -0.6253  0.1898 -0.0265
 5710SOL    HW128589   4.169   1.039   9.200 -1.3489  0.8449  0.3458
 5710SOL    HW228590   4.299   1.111   9.213 -1.3877 -0.6605  1.1904
 5711SOL     OW28591   3.604   3.551  14.322 -0.0448  0.1004 -0.3024
 5711SOL    HW128592   3.527   3.559  14.265  1.4968 -1.4538 -2.6218
 5711SOL    HW228593   3.595   3.634  14.368 -0.2166  1.0498 -2.0370
 5712SOL     OW28594   4.605   2.536   1.854  0.4094  0.1738  0.2166
 5712SOL    HW128595   4.687   2.522   1.900  1.0284 -0.4297 -1.0736
 5712SOL    HW228596   4.624   2.588   1.776 -0.3875  0.3513  0.1374
 5713SOL     OW28597   3.382   2.351  13.522 -0.0077  0.1417 -0.7275
 5713SOL    HW128598   3.311   2.338  13.586 -0.5405 -1.4974 -1.6752
 5713SOL    HW228599   3.377   2.447  13.514  0.1249  0.1508 -0.6892
 5714SOL     OW28600   3.640   4.153  11.058  0.4174  0.1685 -0.6544
 5714SOL    HW128601   3.599   4.222  11.006  2.7086  2.0516  0.0308
 5714SOL    HW228602   3.674   4.091  10.994 -0.3167 -1.6608  0.7420
 5715SOL     OW28603   2.128   2.490   6.008  0.2307 -0.2099 -0.2853
 5715SOL    HW128604   2.203   2.535   6.046  0.8061 -0.4046 -1.1866
 5715SOL    HW228605   2.074   2.569   6.001 -3.0542 -2.2772  1.9789
 5716SOL     OW28606   1.604   1.315   4.382  0.4733 -0.0189 -0.3826
 5716SOL    HW128607   1.583   1.271   4.300 -2.4538 -1.0676  0.9575
 5716SOL    HW228608   1.612   1.237   4.437 -1.8955  0.9892  1.3900
 5717SOL     OW28609   1.125   1.437   5.063 -0.2702 -0.0859 -0.1502
 5717SOL    HW128610   1.202   1.495   5.059  1.5461 -2.3049  2.4699
 5717SOL    HW228611   1.106   1.446   5.156  0.2264  0.9860 -0.1445
 5718SOL     OW28612   4.219   1.711  16.949 -0.1348  0.2956 -0.3467
 5718SOL    HW128613   4.273   1.643  16.990 -2.1854 -0.2107  1.5434
 5718SOL    HW228614   4.233   1.783  17.010 -2.9794  0.6650 -0.1392
 5719SOL     OW28615   1.946   1.664   5.155 -0.2679 -0.1068  0.4117
 5719SOL    HW128616   1.997   1.616   5.090  0.2942  0.6246  0.3175
 5719SOL    HW228617   1.994   1.746   5.163 -1.0943  0.2696  1.4209
 5720SOL     OW28618   3.187   0.225   8.741  0.9358 -0.2294 -0.2416
 5720SOL    HW128619   3.168   0.314   8.769  0.0713 -0.3318 -0.5015
 5720SOL    HW228620   3.149   0.173   8.812  2.9440 -1.4280 -0.0267
 5721SOL     OW28621   3.443   2.337   5.148  0.3949  0.0862 -0.0909
 5721SOL    HW128622   3.439   2.268   5.215  0.9153 -0.6818 -0.8543
 5721SOL    HW228623   3.477   2.284   5.076 -1.7943  0.8963 -1.6891
 5722SOL     OW28624   2.534   2.378   6.012 -0.1307  0.2074  0.3012
 5722SOL    HW128625   2.625   2.385   6.039 -0.5331  3.3988  0.8242
 5722SOL    HW228626   2.537   2.392   5.917 -0.6765  0.6062  0.3397
 5723SOL     OW28627   4.153   1.840   4.192 -0.2357  0.2544  0.6146
 5723SOL    HW128628   4.166   1.819   4.285 -0.6184 -0.0570  0.5988
 5723SOL    HW228629   4.109   1.924   4.204  0.5679  0.8570 -0.6740
 5724SOL     OW28630   1.210   0.574   7.543  0.3427  0.2824  0.4455
 5724SOL    HW128631   1.228   0.580   7.637  0.2209  0.3845  0.4620
 5724SOL    HW228632   1.117   0.554   7.536  0.6432 -0.5844 -1.0227
 5725SOL     OW28633   0.081   1.118   5.233 -0.1253 -0.6866  0.1256
 5725SOL    HW128634   0.101   1.060   5.159  0.7819  0.4541 -0.5301
 5725SOL    HW228635   0.146   1.085   5.294 -0.6313 -1.6210  0.1601
 5726SOL     OW28636   1.768   0.745   9.896 -0.1258 -0.0374  0.1088
 5726SOL    HW128637   1.815   0.710   9.972  0.7452 -1.3070 -1.0163
 5726SOL    HW228638   1.680   0.761   9.930 -0.7078  0.9091 -1.8224
 5727SOL     OW28639   4.052   4.556   5.226 -0.4540  0.2641  0.4308
 5727SOL    HW128640   4.106   4.559   5.147 -1.0159 -3.7009 -0.1285
 5727SOL    HW228641   4.047   4.650   5.241  0.9092  0.3381  0.4520
 5728SOL     OW28642   1.299   3.985   4.970  0.4232 -0.1635 -0.1033
 5728SOL    HW128643   1.294   3.897   5.009  2.4017 -0.7628 -1.2186
 5728SOL    HW228644   1.351   4.029   5.037  1.1046  0.2997 -0.9503
 5729SOL     OW28645   0.276   3.064   8.318 -0.5456 -0.3909 -0.1001
 5729SOL    HW128646   0.281   2.968   8.324  0.2277 -0.1801  2.3503
 5729SOL    HW228647   0.347   3.088   8.377  0.2512 -1.8011 -0.4811
 5730SOL     OW28648   0.145   3.941  10.834 -0.9471  0.5912  0.0411
 5730SOL    HW128649   0.206   3.925  10.762  1.0332  1.7419  1.4657
 5730SOL    HW228650   0.198   3.907  10.906  0.9301  0.1363 -1.5495
 5731SOL     OW28651   0.809   1.808   4.810 -0.0434 -0.2199  0.3770
 5731SOL    HW128652   0.870   1.762   4.752 -2.2767  1.4142 -3.2239
 5731SOL    HW228653   0.726   1.794   4.766 -0.6526  0.9269  1.1800
 5732SOL     OW28654   0.361   0.062   8.983 -0.6104  0.2106 -0.7078
 5732SOL    HW128655   0.356   0.117   8.905 -2.0697  1.2017  0.0828
 5732SOL    HW228656   0.390   0.131   9.044  1.7055 -2.2158  0.9364
 5733SOL     OW28657   3.835   4.442   3.814  0.0483  0.1532 -0.5536
 5733SOL    HW128658   3.817   4.458   3.907 -0.3388 -3.1350 -0.0701
 5733SOL    HW228659   3.924   4.476   3.812 -0.2816  1.1499  1.0159
 5734SOL     OW28660   3.786   0.472   4.304  0.2159  0.0684 -0.1106
 5734SOL    HW128661   3.819   0.548   4.351 -3.0083 -0.2135  2.6122
 5734SOL    HW228662   3.851   0.469   4.234 -0.4184 -2.0903 -0.6216
 5735SOL     OW28663   3.545   1.600   5.974 -0.4036 -0.5577  0.0800
 5735SOL    HW128664   3.514   1.687   5.998 -1.4190 -0.7362 -0.5775
 5735SOL    HW228665   3.519   1.567   6.060  0.0743  0.1859  0.5109
 5736SOL     OW28666   0.451   2.380  11.853  0.1458 -0.2928 -0.4760
 5736SOL    HW128667   0.393   2.456  11.851 -0.8767 -0.9316  3.2246
 5736SOL    HW228668   0.399   2.306  11.822 -2.2246  0.5503  1.5044
 5737SOL     OW28669   0.260   4.408   0.386 -0.2325  0.2469 -0.0593
 5737SOL    HW128670   0.217   4.418   0.471  1.5667  1.4262  0.7078
 5737SOL    HW228671   0.256   4.496   0.348  1.6290  0.1217 -0.5222
 5738SOL     OW28672   0.905   2.670  14.792 -1.0031  0.1907 -0.2653
 5738SOL    HW128673   0.931   2.704  14.706  1.7866 -1.3792 -0.0469
 5738SOL    HW228674   0.947   2.585  14.781  0.5908  0.8784  0.5642
 5739SOL     OW28675   2.127   0.494   4.041 -0.1573  0.1789  0.0619
 5739SOL    HW128676   2.049   0.531   4.001  0.7096  0.0992 -1.7347
 5739SOL    HW228677   2.124   0.531   4.129  0.3012  1.5345 -0.5033
 5740SOL     OW28678   0.755   0.218   9.804 -0.2849 -0.0087  0.0438
 5740SOL    HW128679   0.779   0.310   9.815  2.4768 -0.9369  1.8157
 5740SOL    HW228680   0.827   0.165   9.836 -0.0846  0.1249 -0.1892
 5741SOL     OW28681   0.696   3.438   4.266  0.0146 -0.0704 -0.1950
 5741SOL    HW128682   0.700   3.462   4.173  0.5701  4.4037  1.0177
 5741SOL    HW228683   0.786   3.409   4.283 -0.5711 -1.5527  0.4051
 5742SOL     OW28684   2.147   3.891  15.067  0.8164  0.4443 -0.1676
 5742SOL    HW128685   2.117   3.954  15.001  0.9837  1.9675  1.1920
 5742SOL    HW228686   2.067   3.902  15.118  1.9902  1.1523  1.5169
 5743SOL     OW28687   0.303   4.474  10.714  0.1051  0.0539  1.2530
 5743SOL    HW128688   0.356   4.485  10.636 -0.5785  1.6299  1.0247
 5743SOL    HW228689   0.237   4.414  10.680 -0.0331  0.5686  0.6286
 5744SOL     OW28690   1.557   1.380   5.334  0.2784 -0.9305 -0.7753
 5744SOL    HW128691   1.641   1.359   5.373 -0.0994 -2.2659 -0.7111
 5744SOL    HW228692   1.591   1.436   5.264  1.3520  0.1479  0.6093
 5745SOL     OW28693   3.436   4.547   7.337 -0.4080  0.2792 -0.3399
 5745SOL    HW128694   3.392   4.509   7.413 -0.6988 -3.2091 -2.2177
 5745SOL    HW228695   3.513   4.489   7.333 -1.1119 -0.6037 -1.0809
 5746SOL     OW28696   1.094   1.028   5.168  0.1399 -0.2668 -0.1348
 5746SOL    HW128697   1.096   0.932   5.166 -1.0272 -0.2677 -2.0250
 5746SOL    HW228698   1.185   1.052   5.155  0.1463 -1.0249 -1.5600
 5747SOL     OW28699   0.679   2.050   2.813 -0.2870 -0.2028  0.2007
 5747SOL    HW128700   0.716   2.023   2.729  1.0383  2.0526  0.0603
 5747SOL    HW228701   0.729   1.993   2.872  1.1854 -0.2177 -1.0541
 5748SOL     OW28702   3.492   2.112   4.441 -0.1861 -0.1897 -0.2750
 5748SOL    HW128703   3.518   2.050   4.508 -0.1259 -1.6357 -1.6456
 5748SOL    HW228704   3.415   2.060   4.417  1.7272 -2.9150 -0.4019
 5749SOL     OW28705   3.473   1.739   2.586 -0.2816  0.3104  0.3221
 5749SOL    HW128706   3.382   1.767   2.576 -0.2993 -0.1728 -0.8322
 5749SOL    HW228707   3.505   1.796   2.657 -0.6654 -0.2757  0.9628
 5750SOL     OW28708   3.636   1.030  11.519  0.2972  0.2723  0.2298
 5750SOL    HW128709   3.702   1.026  11.450  1.5352 -0.7075  1.4851
 5750SOL    HW228710   3.563   0.990  11.471 -0.2481 -1.2027  2.2959
 5751SOL     OW28711   3.923   0.281   2.214  0.2758  0.1565  0.3468
 5751SOL    HW128712   3.871   0.252   2.139 -1.5323 -0.9528  2.0333
 5751SOL    HW228713   4.003   0.316   2.177  1.7856 -2.2701  1.2852
 5752SOL     OW28714   3.927   1.497  14.481  0.3911 -0.7949  0.0322
 5752SOL    HW128715   3.851   1.550  14.507  0.0338 -1.4200  0.2682
 5752SOL    HW228716   3.964   1.541  14.405 -2.2775  0.2142 -0.6902
 5753SOL     OW28717   4.584   3.661   2.443 -0.1719  0.5114  0.0415
 5753SOL    HW128718   4.550   3.744   2.409 -1.5465 -0.7357 -1.6455
 5753SOL    HW228719   4.601   3.608   2.365  3.0228  0.2145  0.9365
 5754SOL     OW28720   2.395   1.249   4.911  0.0879  0.3453  0.2587
 5754SOL    HW128721   2.474   1.296   4.937 -0.5685  1.1382  0.7827
 5754SOL    HW228722   2.332   1.291   4.969  1.1301 -0.4014  1.9444
 5755SOL     OW28723   4.548   0.710   8.565 -0.4245 -0.2758 -0.3947
 5755SOL    HW128724   4.468   0.698   8.514 -0.4018  0.6629 -0.6600
 5755SOL    HW228725   4.606   0.641   8.532  2.3312  1.2252  1.2748
 5756SOL     OW28726   0.657   2.601   2.487 -0.3892  0.4089 -0.8692
 5756SOL    HW128727   0.581   2.626   2.434  0.7477  0.9598 -2.2530
 5756SOL    HW228728   0.726   2.649   2.441  2.5735 -1.3539  1.6936
 5757SOL     OW28729   1.247   2.070   0.678 -0.1746 -0.1276 -0.3420
 5757SOL    HW128730   1.159   2.042   0.655 -0.1625  0.4765 -1.1347
 5757SOL    HW228731   1.292   2.072   0.594  0.5780 -1.4162  0.0298
 5758SOL     OW28732   1.668   4.597   8.583 -0.1577  0.6005  0.1160
 5758SOL    HW128733   1.756   4.559   8.573 -0.4660 -0.0528 -0.1274
 5758SOL    HW228734   1.650   4.586   8.676  0.4637  1.9908  0.4017
 5759SOL     OW28735   0.189   2.118   7.676 -0.0851 -0.0267  0.3674
 5759SOL    HW128736   0.251   2.191   7.666  0.3767 -0.4543  0.1253
 5759SOL    HW228737   0.251   2.045   7.675 -1.1959 -0.9785  1.3533
 5760SOL     OW28738   1.577   3.447   8.325  0.4056  0.1670  0.3828
 5760SOL    HW128739   1.636   3.502   8.376 -0.1223  3.2818 -2.4317
 5760SOL    HW228740   1.546   3.378   8.384  2.6411 -0.5434  0.7619
 5761SOL     OW28741   1.754   0.614   2.744  0.1650  0.0699 -0.9002
 5761SOL    HW128742   1.666   0.587   2.717  0.9403 -2.0273 -1.3177
 5761SOL    HW228743   1.781   0.526   2.771 -1.3289  0.5650  2.2727
 5762SOL     OW28744   0.024   3.376  14.691 -0.2010  0.3610  0.1743
 5762SOL    HW128745   4.670   3.415  14.651  0.2302  2.9127  1.8153
 5762SOL    HW228746   0.025   3.295  14.640 -1.1601  0.7217 -0.4204
 5763SOL     OW28747   0.961   1.575   5.856 -0.0952  0.2516  0.3707
 5763SOL    HW128748   0.877   1.581   5.902  0.1784  1.8053  0.6513
 5763SOL    HW228749   1.009   1.536   5.929 -0.4030  0.1674  0.5312
 5764SOL     OW28750   2.947   2.573  12.191  0.1361  0.5847  0.1379
 5764SOL    HW128751   2.969   2.649  12.244  2.8861  1.2824 -2.0088
 5764SOL    HW228752   2.867   2.534  12.227  0.3509 -0.0154 -0.0215
 5765SOL     OW28753   3.038   1.984  13.455 -0.2713 -0.4665 -0.5603
 5765SOL    HW128754   3.115   2.013  13.504  0.0097 -4.9009  1.5842
 5765SOL    HW228755   3.022   2.064  13.405  3.4285 -0.1428 -1.2474
 5766SOL     OW28756   4.088   0.515  14.365 -0.1218 -0.3169  0.2771
 5766SOL    HW128757   4.176   0.481  14.349 -0.1159  0.4271 -1.2422
 5766SOL    HW228758   4.050   0.504  14.278  1.2611 -3.1103  0.0259
 5767SOL     OW28759   4.109   1.329   9.026 -0.3219 -0.4015 -0.3504
 5767SOL    HW128760   4.138   1.241   9.049 -1.4545 -1.0105 -1.2377
 5767SOL    HW228761   4.121   1.316   8.932  0.6043 -0.0492 -0.2750
 5768SOL     OW28762   1.120   0.864   4.450  0.0810  0.8750 -0.5716
 5768SOL    HW128763   1.130   0.840   4.358 -3.7254 -2.2779 -0.1363
 5768SOL    HW228764   1.184   0.935   4.460  1.1085 -0.1452  0.1914
 5769SOL     OW28765   1.959   1.230  10.564 -0.0760 -0.4849  0.0239
 5769SOL    HW128766   2.025   1.173  10.603  1.3440  2.0560  1.4021
 5769SOL    HW228767   1.877   1.183  10.579 -0.3373 -1.0088 -2.9431
 5770SOL     OW28768   2.456   3.011   7.567 -0.2456 -0.7216 -0.0270
 5770SOL    HW128769   2.436   2.918   7.553  1.2117 -1.0463  0.0422
 5770SOL    HW228770   2.418   3.052   7.489  1.1674 -1.7737 -1.2764
 5771SOL     OW28771   3.959   3.889   8.429  0.2668  1.2125  0.3467
 5771SOL    HW128772   4.043   3.847   8.415  0.0203  0.1345  2.1284
 5771SOL    HW228773   3.937   3.921   8.341 -0.4121 -1.3916 -0.4293
 5772SOL     OW28774   2.477   4.328   1.803 -0.0377 -0.9482 -0.4827
 5772SOL    HW128775   2.502   4.312   1.712 -0.3190  0.9858 -0.8986
 5772SOL    HW228776   2.568   4.329   1.835  0.3417 -2.0997 -1.5266
 5773SOL     OW28777   4.719   3.492  16.529 -0.4826 -0.2508 -0.0389
 5773SOL    HW128778   0.057   3.506  16.456  0.4792 -0.4289  0.7391
 5773SOL    HW228779   4.638   3.473  16.481  0.6938 -1.2983 -1.6016
 5774SOL     OW28780   2.108   0.820  17.644  0.3009 -0.1701  0.6027
 5774SOL    HW128781   2.123   0.912  17.666  1.1110  0.2953 -1.8916
 5774SOL    HW228782   2.152   0.800  17.561 -1.3290 -1.0207 -0.0522
 5775SOL     OW28783   3.013   1.463   8.642 -0.1797  0.3270  0.1767
 5775SOL    HW128784   3.083   1.527   8.627  0.0336  0.1805  0.5496
 5775SOL    HW228785   3.067   1.388   8.666  0.9237  1.0993  0.1356
 5776SOL     OW28786   3.158   3.370   6.299  0.4006 -0.0423 -0.3050
 5776SOL    HW128787   3.194   3.342   6.215  1.7165  1.0644 -0.1046
 5776SOL    HW228788   3.161   3.465   6.307 -1.3978 -0.0103 -0.0769
 5777SOL     OW28789   3.369   0.165  12.294 -0.0923 -0.0724 -0.0386
 5777SOL    HW128790   3.378   0.148  12.388  0.7486  0.6625  0.0172
 5777SOL    HW228791   3.346   0.257  12.301 -0.8979 -0.3648  1.2020
 5778SOL     OW28792   0.944   2.769   7.746  0.0005  0.1822  0.1265
 5778SOL    HW128793   0.898   2.756   7.829 -0.2771 -1.9295 -0.3574
 5778SOL    HW228794   1.013   2.836   7.754  1.2336 -0.9192 -1.3017
 5779SOL     OW28795   3.211   3.560  13.339  0.1857 -0.0932 -0.1423
 5779SOL    HW128796   3.188   3.501  13.267 -3.6442 -0.1380  1.1638
 5779SOL    HW228797   3.192   3.640  13.290  0.9669  0.6440  0.7504
 5780SOL     OW28798   1.902   1.143   3.231 -0.2715  0.1610 -0.0557
 5780SOL    HW128799   1.842   1.073   3.258 -0.2957 -0.5361 -1.9439
 5780SOL    HW228800   1.984   1.093   3.240  0.2886  1.0901 -0.0692
 5781SOL     OW28801   2.593   3.614  13.136  0.1229  0.1137 -0.6904
 5781SOL    HW128802   2.657   3.685  13.131  0.5987 -0.2653  0.0479
 5781SOL    HW228803   2.512   3.663  13.152  0.5086  1.5380 -2.9750
 5782SOL     OW28804   3.572   4.185   6.435  0.7644 -0.0131  0.2906
 5782SOL    HW128805   3.478   4.186   6.419  0.7958  0.7251  0.1101
 5782SOL    HW228806   3.580   4.117   6.502 -0.2528  2.2218  2.6816
 5783SOL     OW28807   0.279   2.212  11.713 -0.5975 -0.0667  0.3274
 5783SOL    HW128808   0.199   2.162  11.727  0.6176 -2.4657 -1.1543
 5783SOL    HW228809   0.340   2.138  11.710 -0.2356  0.2572 -0.5108
 5784SOL     OW28810   4.665   1.146   5.681 -0.4294 -0.4075  0.1188
 5784SOL    HW128811   4.690   1.185   5.765 -1.5250 -0.4528  0.4661
 5784SOL    HW228812   4.661   1.231   5.637 -1.6811  1.1844  3.2715
 5785SOL     OW28813   2.587   1.913   9.822 -0.0395 -0.3216 -0.1485
 5785SOL    HW128814   2.609   1.904   9.730 -2.0786 -1.2324 -0.5438
 5785SOL    HW228815   2.503   1.959   9.816  0.5273  0.6294 -0.7323
 5786SOL     OW28816   3.711   1.529   5.761  0.2375 -0.2766  0.4187
 5786SOL    HW128817   3.673   1.557   5.844 -0.9966  1.2977 -0.6779
 5786SOL    HW228818   3.630   1.493   5.724  0.2596  1.2420 -1.1461
 5787SOL     OW28819   2.182   4.043   8.172 -0.1067 -0.3084 -1.0004
 5787SOL    HW128820   2.159   3.952   8.187  0.3108 -0.2208  0.2160
 5787SOL    HW228821   2.223   4.040   8.085 -0.1638  1.5537 -1.1088
 5788SOL     OW28822   0.021   2.577  13.350 -0.2132  0.5488 -0.0509
 5788SOL    HW128823   4.713   2.594  13.261 -2.5690  2.0305  1.0532
 5788SOL    HW228824   0.098   2.633  13.354  0.0810  0.0963  0.5717
 5789SOL     OW28825   0.375   3.581   8.824  0.6485  0.1865  0.2374
 5789SOL    HW128826   0.351   3.495   8.790  0.6347  0.3622 -0.1968
 5789SOL    HW228827   0.404   3.557   8.912  0.8230  0.2523  0.1972
 5790SOL     OW28828   2.967   0.145   8.372 -0.1008 -0.5407  0.2299
 5790SOL    HW128829   2.996   0.211   8.435  1.5147 -0.8717 -0.1725
 5790SOL    HW228830   2.902   0.202   8.330  1.0476  0.0257 -0.7703
 5791SOL     OW28831   0.786   0.638   6.160 -0.5484 -0.0479  0.4496
 5791SOL    HW128832   0.711   0.656   6.217 -1.9968 -0.2531 -1.4220
 5791SOL    HW228833   0.819   0.563   6.210 -2.6222 -0.9654  0.4367
 5792SOL     OW28834   4.425   2.992   3.523  0.5537  0.0157  0.0511
 5792SOL    HW128835   4.407   3.033   3.608  2.7120  1.5330 -0.2320
 5792SOL    HW228836   4.340   3.007   3.480 -0.1483  0.7410  1.6579
 5793SOL     OW28837   0.430   3.578   3.005  0.1797  0.4250 -0.0364
 5793SOL    HW128838   0.368   3.510   2.977  0.2530  0.0148  0.7889
 5793SOL    HW228839   0.518   3.544   2.995 -0.1041 -1.0475  2.3678
 5794SOL     OW28840   3.921   0.017   3.210 -0.1768 -0.1348 -0.3163
 5794SOL    HW128841   3.906   4.699   3.296  2.9108  1.1331  0.8113
 5794SOL    HW228842   3.851   0.081   3.198  0.4226  0.4152 -0.8587
 5795SOL     OW28843   1.435   1.223   7.467  0.0841  0.2395  0.2248
 5795SOL    HW128844   1.481   1.305   7.484 -0.9296  0.7896  0.3651
 5795SOL    HW228845   1.483   1.195   7.389  0.3534 -0.1588  0.5350
 5796SOL     OW28846   0.225   1.246   6.734 -0.2862  1.0743  0.1600
 5796SOL    HW128847   0.190   1.218   6.819 -1.2885  0.8725 -0.3273
 5796SOL    HW228848   0.214   1.166   6.683  0.6515  0.2297  1.2842
 5797SOL     OW28849   1.497   2.497   4.170 -0.4676  0.5412 -0.2672
 5797SOL    HW128850   1.501   2.418   4.223 -1.2506 -0.1803 -1.2834
 5797SOL    HW228851   1.415   2.535   4.202 -1.2501 -0.6249 -0.8540
 5798SOL     OW28852   1.745   3.518   6.978  0.0639  0.1728  0.3011
 5798SOL    HW128853   1.825   3.488   7.020  0.9223  1.8932 -0.1091
 5798SOL    HW228854   1.789   3.562   6.905 -2.4712 -3.2963 -3.3724
 5799SOL     OW28855   0.891   4.035  11.657  0.0227 -0.3899 -0.1836
 5799SOL    HW128856   0.889   4.060  11.749 -1.5496 -1.0221 -0.0426
 5799SOL    HW228857   0.802   4.029  11.623 -0.4587  2.3685  0.6301
 5800SOL     OW28858   0.329   3.371   0.641 -0.2121 -0.4993 -0.3555
 5800SOL    HW128859   0.334   3.462   0.614 -2.1616 -0.0532  0.7884
 5800SOL    HW228860   0.249   3.356   0.691  0.7039  0.6867  1.4677
 5801SOL     OW28861   0.737   3.994   4.543 -0.1324 -0.1596 -0.0804
 5801SOL    HW128862   0.700   4.082   4.535 -1.4789 -0.6892  0.2442
 5801SOL    HW228863   0.811   3.996   4.483  0.8546 -1.3370  1.0988
 5802SOL     OW28864   2.526   0.686   6.238  0.2155 -0.0359  0.5056
 5802SOL    HW128865   2.443   0.651   6.205 -0.0118  0.8592  0.1141
 5802SOL    HW228866   2.584   0.617   6.205  1.3284  0.9878  0.3181
 5803SOL     OW28867   4.433   1.018   7.473  0.5871 -0.4494  0.0117
 5803SOL    HW128868   4.419   1.081   7.544  0.1855  1.5651 -1.8698
 5803SOL    HW228869   4.391   1.076   7.409  1.7249  2.7180  2.1050
 5804SOL     OW28870   0.934   1.414   3.747 -0.2973  0.0411  0.2460
 5804SOL    HW128871   0.908   1.398   3.657  0.7302  2.7876 -0.5292
 5804SOL    HW228872   0.910   1.504   3.770 -1.1827 -0.6556  2.1195
 5805SOL     OW28873   1.162   4.382   7.855  0.7268  0.3905 -0.2639
 5805SOL    HW128874   1.076   4.389   7.815  0.4715  0.3713  0.2779
 5805SOL    HW228875   1.145   4.408   7.946 -0.3144 -0.7583 -0.1325
 5806SOL     OW28876   0.425   0.285  11.462  0.2225 -0.7757 -0.7744
 5806SOL    HW128877   0.394   0.198  11.487  0.5114 -0.4056  0.8181
 5806SOL    HW228878   0.339   0.327  11.471  0.6170 -0.5898  1.9857
 5807SOL     OW28879   0.931   1.458   7.935  0.1584 -0.2757  0.1629
 5807SOL    HW128880   0.951   1.421   8.021 -1.1524  1.8649  1.3831
 5807SOL    HW228881   1.004   1.518   7.922 -0.9539  1.2796  1.1586
 5808SOL     OW28882   1.960   1.711  16.049  0.1773 -0.4198 -0.1054
 5808SOL    HW128883   1.891   1.658  16.090 -0.2521 -1.8441 -2.6660
 5808SOL    HW228884   1.953   1.670  15.963 -1.2063  0.7798 -0.5618
 5809SOL     OW28885   1.196   1.255  10.465 -0.0150  0.3922 -0.1962
 5809SOL    HW128886   1.132   1.186  10.449 -0.9677  0.8428  1.7892
 5809SOL    HW228887   1.157   1.310  10.533 -0.2840 -0.0367 -0.0050
 5810SOL     OW28888   3.002   3.745  17.531 -0.3274  0.0754 -0.0363
 5810SOL    HW128889   2.990   3.807  17.459 -0.0208 -0.8057 -0.8447
 5810SOL    HW228890   2.913   3.708  17.533  0.0652 -0.8731  0.0113
 5811SOL     OW28891   1.125   0.498   8.222  0.0655  0.3534  0.1061
 5811SOL    HW128892   1.034   0.519   8.202 -0.0610  0.0498  0.3671
 5811SOL    HW228893   1.170   0.577   8.193 -0.2784  0.4009 -0.3010
 5812SOL     OW28894   4.158   1.884   2.911 -0.5900 -0.8085 -0.0137
 5812SOL    HW128895   4.203   1.833   2.844 -3.5996 -2.0538 -1.0944
 5812SOL    HW228896   4.101   1.812   2.939 -0.4926  0.5924  3.8503
 5813SOL     OW28897   2.672   0.989  10.392 -0.7911 -0.3903  0.2680
 5813SOL    HW128898   2.582   0.977  10.361 -0.5192  2.7662 -1.7898
 5813SOL    HW228899   2.652   1.005  10.484  0.6825 -1.5770  0.7921
 5814SOL     OW28900   3.851   4.042   2.883  0.2272 -0.6428 -0.0373
 5814SOL    HW128901   3.850   3.985   2.805 -0.7292  0.1047 -0.5692
 5814SOL    HW228902   3.827   4.124   2.840  0.1644 -0.8216 -0.3483
 5815SOL     OW28903   0.827   3.337   1.246 -0.6278  0.0074 -0.6961
 5815SOL    HW128904   0.739   3.299   1.252 -0.4991 -0.1949 -0.0880
 5815SOL    HW228905   0.818   3.407   1.310  1.1767  0.9923 -1.5235
 5816SOL     OW28906   3.293   2.446   5.397 -0.0276  0.4970  0.3928
 5816SOL    HW128907   3.231   2.440   5.324  0.1306 -1.5974  0.4389
 5816SOL    HW228908   3.276   2.362   5.439  0.4441  0.5367  0.6647
 5817SOL     OW28909   3.345   0.550   4.955  0.2729  0.8772  0.2307
 5817SOL    HW128910   3.365   0.566   5.047  2.7144 -0.1857 -0.1048
 5817SOL    HW228911   3.405   0.603   4.902  2.4057 -0.9011  0.8589
 5818SOL     OW28912   4.563   3.681   0.309  0.2219 -0.0708  0.2522
 5818SOL    HW128913   4.580   3.632   0.390  1.2664 -1.2140 -0.6603
 5818SOL    HW228914   4.649   3.685   0.267 -1.3710 -0.4694 -3.0655
 5819SOL     OW28915   1.017   1.639  13.353 -0.2546 -0.0853 -0.4688
 5819SOL    HW128916   0.974   1.643  13.268  0.1959  0.8749 -0.6597
 5819SOL    HW228917   1.014   1.733  13.373  1.3860 -0.5631  2.1707
 5820SOL     OW28918   3.423   1.366   5.265 -0.2852  0.0428 -0.4926
 5820SOL    HW128919   3.369   1.315   5.325 -0.3961  0.6382 -0.0919
 5820SOL    HW228920   3.509   1.372   5.306 -1.0392  0.9033  0.9503
 5821SOL     OW28921   1.115   2.795   9.052  0.2253 -0.4755 -0.6461
 5821SOL    HW128922   1.065   2.861   9.005 -1.4506 -0.1880  1.4985
 5821SOL    HW228923   1.182   2.850   9.092 -1.4116  2.5691 -2.1651
 5822SOL     OW28924   0.859   1.685  12.740 -0.1287 -0.4844 -0.0032
 5822SOL    HW128925   0.926   1.753  12.734 -1.3054  0.7161  0.4608
 5822SOL    HW228926   0.819   1.680  12.653  0.4702  1.0045 -0.3717
 5823SOL     OW28927   0.243   2.742   4.430  0.0859 -0.2245 -0.6082
 5823SOL    HW128928   0.280   2.754   4.517 -0.1036  1.3731 -0.7348
 5823SOL    HW228929   0.245   2.647   4.417  0.0155 -0.4242  0.7960
 5824SOL     OW28930   3.302   3.544   9.010 -0.1725  0.1077  0.5880
 5824SOL    HW128931   3.275   3.606   8.943  1.3582  0.4749  0.3166
 5824SOL    HW228932   3.362   3.494   8.955  0.3327  2.7465 -1.2348
 5825SOL     OW28933   1.739   4.498   3.684 -0.1832  0.2335  0.0363
 5825SOL    HW128934   1.816   4.548   3.712  0.3391 -0.5662  0.0222
 5825SOL    HW228935   1.741   4.432   3.753 -0.1273  0.6153  0.3970
 5826SOL     OW28936   2.720   4.352   9.923  0.4839 -0.3082 -0.4968
 5826SOL    HW128937   2.683   4.264   9.926  0.8958 -0.4537  0.5151
 5826SOL    HW228938   2.642   4.403   9.903 -1.4542 -2.4486  1.5336
 5827SOL     OW28939   2.621   0.639   0.096  0.1333  0.1458 -0.0297
 5827SOL    HW128940   2.531   0.618   0.119  1.2852 -3.6533  1.0221
 5827SOL    HW228941   2.603   0.607   0.008 -0.0711 -0.0074  0.0693
 5828SOL     OW28942   3.681   3.313  15.417  0.2633  0.1675  0.0005
 5828SOL    HW128943   3.757   3.336  15.362 -0.6440 -1.3150 -1.8615
 5828SOL    HW228944   3.669   3.399  15.458 -0.1760  0.4446 -0.7107
 5829SOL     OW28945   2.515   2.635   6.404 -0.3050  0.7665 -0.3248
 5829SOL    HW128946   2.539   2.652   6.495 -0.2396 -3.6983  0.5020
 5829SOL    HW228947   2.512   2.727   6.382 -4.4178  1.2720  2.1907
 5830SOL     OW28948   4.171   2.735   5.820  0.4433  0.0219 -0.0507
 5830SOL    HW128949   4.263   2.762   5.819  0.1516  1.0474 -0.0375
 5830SOL    HW228950   4.149   2.734   5.727  3.5849 -3.3563 -0.7435
 5831SOL     OW28951   0.921   4.130   4.755  0.1252 -0.0297 -0.0015
 5831SOL    HW128952   0.856   4.100   4.818  0.2543  1.2886  0.7487
 5831SOL    HW228953   0.893   4.216   4.723 -0.6237 -0.2361  0.0984
 5832SOL     OW28954   0.822   0.751  10.983  0.5715  0.1409 -0.4050
 5832SOL    HW128955   0.916   0.765  10.976  0.9399 -1.4463  1.4426
 5832SOL    HW228956   0.809   0.685  10.914  0.7593 -0.9118  0.5738
 5833SOL     OW28957   1.831   3.307   2.063 -0.6849 -0.0900 -0.1495
 5833SOL    HW128958   1.909   3.342   2.107 -2.3061  0.7690  2.0090
 5833SOL    HW228959   1.876   3.259   1.993 -3.5466 -0.3474 -1.8403
 5834SOL     OW28960   0.961   0.056   9.917 -0.8990  0.3162 -0.0102
 5834SOL    HW128961   1.041   0.085   9.873 -0.6292  0.2755  0.4599
 5834SOL    HW228962   0.996   4.717   9.981  0.4078  0.8860 -0.1798
 5835SOL     OW28963   0.862   3.734   1.924  0.4980  0.1676  0.1530
 5835SOL    HW128964   0.812   3.671   1.977  1.7051  0.0875  1.2004
 5835SOL    HW228965   0.931   3.676   1.893  1.3795  1.5661 -0.4812
 5836SOL     OW28966   1.671   3.332   5.883  0.3986  0.7685  0.2665
 5836SOL    HW128967   1.607   3.382   5.934 -2.2183 -1.9958 -0.2504
 5836SOL    HW228968   1.742   3.328   5.946  0.9524  0.9219 -0.3469
 5837SOL     OW28969   3.757   3.655   5.620  0.1617 -0.2319 -0.0054
 5837SOL    HW128970   3.737   3.748   5.610  2.6699  0.0788 -2.3443
 5837SOL    HW228971   3.773   3.627   5.529  1.4820  1.1593 -0.1989
 5838SOL     OW28972   2.289   0.268  14.061 -0.3749  0.2305  0.6442
 5838SOL    HW128973   2.379   0.263  14.091  0.1642 -2.2110 -1.3654
 5838SOL    HW228974   2.255   0.340  14.115 -1.6531  0.1238 -0.0228
 5839SOL     OW28975   1.659   4.134   8.925  0.0722 -1.0319  0.2994
 5839SOL    HW128976   1.715   4.073   8.877 -0.6049 -1.6265  0.2636
 5839SOL    HW228977   1.611   4.175   8.852  0.9381 -0.8192 -0.1463
 5840SOL     OW28978   1.227   4.240  11.265  0.3511  0.3087 -0.0355
 5840SOL    HW128979   1.189   4.204  11.184  0.4058 -0.1864  0.1611
 5840SOL    HW228980   1.205   4.155  11.303 -0.7275 -0.0358 -1.4290
 5841SOL     OW28981   1.744   2.251   7.338  0.5713 -0.0574  0.3792
 5841SOL    HW128982   1.681   2.214   7.276  0.8853 -1.7723  1.0894
 5841SOL    HW228983   1.793   2.171   7.354  0.6268 -0.0006  0.4861
 5842SOL     OW28984   0.442   3.642  17.174  0.1937 -0.0918 -0.3286
 5842SOL    HW128985   0.361   3.596  17.151 -0.7862  1.8670 -0.8265
 5842SOL    HW228986   0.487   3.658  17.091 -1.0022  0.3888 -0.8873
 5843SOL     OW28987   1.548   0.927   0.886 -0.3110  0.2033 -0.2406
 5843SOL    HW128988   1.581   0.838   0.904  2.8270  1.6666  1.3622
 5843SOL    HW228989   1.614   0.952   0.821  0.2891 -0.9855 -0.1006
 5844SOL     OW28990   1.176   4.513   3.985  0.4480 -0.4773  0.1046
 5844SOL    HW128991   1.251   4.511   4.045 -0.3973 -0.2185  1.1789
 5844SOL    HW228992   1.186   4.426   3.947 -0.3258 -1.1204  1.3808
 5845SOL     OW28993   2.515   0.636  14.464 -0.2598  0.1150  0.1803
 5845SOL    HW128994   2.511   0.680  14.379  0.1514  1.4786  0.8540
 5845SOL    HW228995   2.573   0.563  14.445 -0.4676  0.4438 -1.7066
 5846SOL     OW28996   4.127   3.741   5.499  0.7891  0.1373  0.1788
 5846SOL    HW128997   4.047   3.790   5.516 -0.4870 -1.5768 -0.8562
 5846SOL    HW228998   4.142   3.712   5.589 -2.6363 -0.1083  0.6625
 5847SOL     OW28999   1.790   0.816   5.628  0.1058 -0.1741 -0.0566
 5847SOL    HW129000   1.837   0.899   5.616 -0.7817  0.3412  0.0829
 5847SOL    HW229001   1.701   0.849   5.627  0.5331  0.9701 -1.5032
 5848SOL     OW29002   3.346   0.257  16.427  0.0489 -0.0390 -0.3544
 5848SOL    HW129003   3.322   0.164  16.432 -1.2423  0.3601  0.7949
 5848SOL    HW229004   3.369   0.274  16.518 -0.2916 -3.0481  0.3151
 5849SOL     OW29005   1.741   2.632   5.012  0.4308  0.1649  1.1273
 5849SOL    HW129006   1.737   2.696   4.940  1.7560 -0.5026  0.4621
 5849SOL    HW229007   1.834   2.627   5.035  0.6023 -3.3056 -0.3544
 5850SOL     OW29008   2.129   3.857   9.224  0.0864 -0.1528 -0.0628
 5850SOL    HW129009   2.118   3.932   9.166  0.4481 -0.2325 -0.2338
 5850SOL    HW229010   2.139   3.791   9.156 -1.7923 -1.8205  1.2975
 5851SOL     OW29011   0.796   1.191  15.669 -0.3492  0.0727 -0.1677
 5851SOL    HW129012   0.859   1.262  15.679 -1.6210  0.6247  3.7476
 5851SOL    HW229013   0.852   1.130  15.620  0.0461  0.9160 -0.7562
 5852SOL     OW29014   1.595   1.475  12.223 -0.1370  0.4210 -0.0533
 5852SOL    HW129015   1.661   1.469  12.292  1.6351 -0.1268 -1.7956
 5852SOL    HW229016   1.642   1.480  12.140 -0.1574  2.6917  0.0688
 5853SOL     OW29017   1.181   4.576   3.203  0.2886 -0.0909  0.0542
 5853SOL    HW129018   1.146   4.523   3.132  0.1309  0.7315 -0.4771
 5853SOL    HW229019   1.109   4.637   3.221  0.1582  0.6397 -2.9553
 5854SOL     OW29020   3.613   0.376  10.324 -0.1258 -0.0501  0.4046
 5854SOL    HW129021   3.541   0.404  10.267  1.5886  0.2172 -1.6612
 5854SOL    HW229022   3.642   0.460  10.358  1.5717  0.0573 -1.2946
 5855SOL     OW29023   3.938   3.086   7.843 -0.1407  0.6372 -0.0488
 5855SOL    HW129024   3.860   3.082   7.899  0.4164 -0.7909  0.6058
 5855SOL    HW229025   3.895   3.076   7.758 -0.4515  1.2193  0.0341
 5856SOL     OW29026   1.007   3.184   6.287  0.5306  0.3277 -0.0502
 5856SOL    HW129027   0.998   3.249   6.217 -2.6350 -0.0265  0.0073
 5856SOL    HW229028   0.977   3.231   6.365 -1.1417 -0.6887 -0.0838
 5857SOL     OW29029   1.197   1.936   8.191  0.5289 -0.1082  0.4302
 5857SOL    HW129030   1.142   1.888   8.129 -1.0479  4.1866 -1.4752
 5857SOL    HW229031   1.253   1.995   8.141  2.0139  0.1502  2.4072
 5858SOL     OW29032   4.320   1.220   7.283 -0.1088  0.1076  0.3710
 5858SOL    HW129033   4.272   1.250   7.360 -0.4396  0.2466  0.1113
 5858SOL    HW229034   4.358   1.301   7.249 -0.8489 -1.3607 -4.0081
 5859SOL     OW29035   4.204   1.307   7.517 -0.1185 -0.2172 -0.3380
 5859SOL    HW129036   4.168   1.396   7.517 -0.8768 -0.5250 -0.3672
 5859SOL    HW229037   4.123   1.257   7.521 -0.1598 -0.0192  1.5415
 5860SOL     OW29038   0.292   0.628   2.794  0.0032  0.2329 -0.2972
 5860SOL    HW129039   0.331   0.555   2.746 -1.2601 -0.6301  0.0012
 5860SOL    HW229040   0.205   0.628   2.754  0.1537  2.9103 -0.6107
 5861SOL     OW29041   0.334   3.171   4.033  0.2639  0.3315 -0.4858
 5861SOL    HW129042   0.378   3.086   4.035 -0.5040 -0.0477  0.2551
 5861SOL    HW229043   0.416   3.220   4.021 -0.2651  0.9716 -1.4654
 5862SOL     OW29044   3.111   2.312   8.003  0.1711 -0.6165  0.4736
 5862SOL    HW129045   3.021   2.278   8.004 -0.9955  2.4191  0.4914
 5862SOL    HW229046   3.133   2.301   8.096 -1.2247  0.1822  0.9033
 5863SOL     OW29047   2.802   4.493   7.008 -1.1106  0.1756 -0.3060
 5863SOL    HW129048   2.839   4.516   7.093 -1.4260 -1.1558  0.1970
 5863SOL    HW229049   2.853   4.537   6.939  1.3414  0.2834  1.5810
 5864SOL     OW29050   1.334   1.699   2.621  0.1707 -0.2784  0.2095
 5864SOL    HW129051   1.243   1.720   2.600 -0.2502 -1.2352  1.0341
 5864SOL    HW229052   1.350   1.629   2.558  1.9539  1.5495 -1.3654
 5865SOL     OW29053   3.951   1.853  10.673  0.0417  0.3666  0.3384
 5865SOL    HW129054   3.977   1.919  10.737  3.2927  0.5638 -1.2096
 5865SOL    HW229055   3.876   1.902  10.640 -0.6849 -2.1629 -1.7215
 5866SOL     OW29056   2.650   0.191   6.141  0.3461  0.2341 -0.2333
 5866SOL    HW129057   2.611   0.150   6.219  0.6305  0.9812  0.3029
 5866SOL    HW229058   2.631   0.281   6.167  1.1885  0.0020  1.2141
 5867SOL     OW29059   4.282   0.001  16.566  0.2405 -0.4715 -0.6695
 5867SOL    HW129060   4.229   4.689  16.494 -0.1769  0.3603 -0.7686
 5867SOL    HW229061   4.251   0.091  16.571  0.6727 -0.2909 -1.1066
 5868SOL     OW29062   3.603   2.575  13.736 -0.0968 -0.1771  0.2827
 5868SOL    HW129063   3.654   2.500  13.764  0.4429  0.6324  1.4650
 5868SOL    HW229064   3.582   2.544  13.647 -1.2533 -1.4175  0.9966
 5869SOL     OW29065   2.642   3.824  11.305  0.2451  0.1702 -0.1659
 5869SOL    HW129066   2.592   3.902  11.326 -2.0799 -1.3162 -0.1341
 5869SOL    HW229067   2.720   3.850  11.256 -0.4691  3.2891  0.3849
 5870SOL     OW29068   0.614   1.135   8.071  0.3534  0.5784 -0.8794
 5870SOL    HW129069   0.601   1.164   8.161  0.2715  0.4298 -0.8422
 5870SOL    HW229070   0.671   1.058   8.077  0.3809  0.6678  0.0624
 5871SOL     OW29071   0.623   0.977  14.893 -0.1099  0.6283  0.2017
 5871SOL    HW129072   0.660   0.963  14.806  1.5748  2.3679  0.6285
 5871SOL    HW229073   0.705   0.951  14.936  0.7748  1.4962 -0.9636
 5872SOL     OW29074   2.998   0.089   3.237  0.3908  0.3800 -0.0118
 5872SOL    HW129075   3.028   0.139   3.161 -3.0555  2.1483 -0.1985
 5872SOL    HW229076   3.075   0.036   3.257  0.6867 -0.2590 -2.7504
 5873SOL     OW29077   1.114   3.368   1.372  0.3264  0.0352 -0.2573
 5873SOL    HW129078   1.128   3.446   1.426 -0.4045  1.3223 -1.8886
 5873SOL    HW229079   1.204   3.336   1.362  0.2447  0.1868 -1.5757
 5874SOL     OW29080   4.651   1.029   8.094 -0.0769  0.3677 -0.2066
 5874SOL    HW129081   4.573   1.075   8.063 -0.0335  2.7259  3.1589
 5874SOL    HW229082   4.657   1.060   8.184 -2.1086 -0.4588  0.2195
 5875SOL     OW29083   1.359   3.724  15.953  0.5529  0.3351 -0.0725
 5875SOL    HW129084   1.356   3.648  16.011 -1.4184  2.3902  2.4848
 5875SOL    HW229085   1.397   3.787  16.015  0.8339 -0.9963  1.1251
 5876SOL     OW29086   4.082   1.743   0.020  0.0407 -0.1288 -0.5251
 5876SOL    HW129087   4.153   1.682   0.040  0.7416  1.3546  1.6029
 5876SOL    HW229088   4.013   1.686  17.682 -0.9540  1.5437 -1.3353
 5877SOL     OW29089   0.899   4.288   2.813  0.1321  0.3932 -0.2394
 5877SOL    HW129090   0.842   4.289   2.736 -2.1103 -1.3910  1.4196
 5877SOL    HW229091   0.944   4.205   2.798 -1.1851 -0.2838 -0.4630
 5878SOL     OW29092   1.048   0.965   4.141 -0.5139 -0.0706 -0.1508
 5878SOL    HW129093   1.000   0.899   4.092  0.2443  1.2620 -2.7154
 5878SOL    HW229094   0.978   1.024   4.168  0.5509  1.5245 -0.8502
 5879SOL     OW29095   0.015   0.532   3.901  0.0830  0.6967 -0.3750
 5879SOL    HW129096   0.057   0.451   3.872 -0.8294  0.8055 -1.9673
 5879SOL    HW229097   4.689   0.553   3.822  0.8946  0.6962 -0.8900
 5880SOL     OW29098   3.870   2.427   6.877  0.2621  0.3821 -0.1583
 5880SOL    HW129099   3.955   2.461   6.851  0.4174  1.1219  1.3429
 5880SOL    HW229100   3.866   2.451   6.969 -1.9642 -1.4509  0.2146
 5881SOL     OW29101   2.225   1.163   5.454  0.1918  0.1292 -0.5128
 5881SOL    HW129102   2.249   1.215   5.532 -1.1117 -1.0608  0.6767
 5881SOL    HW229103   2.302   1.109   5.435 -1.5189 -1.4386 -2.8618
 5882SOL     OW29104   4.329   1.691   6.043  0.0019 -0.0784 -0.1264
 5882SOL    HW129105   4.368   1.670   6.128 -0.6516  0.2419  0.2482
 5882SOL    HW229106   4.388   1.762   6.019 -0.5668 -0.1020 -1.6143
 5883SOL     OW29107   1.790   1.691   8.754  0.0292 -0.5682  0.0127
 5883SOL    HW129108   1.834   1.774   8.732 -1.5339 -0.2153 -1.7281
 5883SOL    HW229109   1.843   1.665   8.830 -2.3184 -0.7003  1.5927
 5884SOL     OW29110   4.133   3.558   0.724 -0.3596 -0.0419 -0.0825
 5884SOL    HW129111   4.105   3.480   0.772  2.9970  0.3264  2.4551
 5884SOL    HW229112   4.139   3.626   0.791  0.9095 -1.5670  1.3242
 5885SOL     OW29113   1.486   3.922  11.704  0.3855  0.4649  0.2124
 5885SOL    HW129114   1.408   3.876  11.736  1.4650 -0.2856  1.7445
 5885SOL    HW229115   1.462   3.923  11.611  0.4443 -2.0084  0.1791
 5886SOL     OW29116   1.644   1.042   8.196 -0.3991  0.2731  0.6733
 5886SOL    HW129117   1.568   1.099   8.190 -0.9031 -0.3947  0.7973
 5886SOL    HW229118   1.675   1.059   8.107 -0.6100 -2.1530  0.1270
 5887SOL     OW29119   3.024   0.858   2.280 -0.9017  0.3021 -0.4555
 5887SOL    HW129120   2.958   0.853   2.211  0.5289 -2.0349 -1.6841
 5887SOL    HW229121   2.984   0.794   2.338 -0.7590 -0.3291 -1.0501
 5888SOL     OW29122   4.101   0.055   2.639 -0.0993  0.4311  0.4746
 5888SOL    HW129123   4.163   4.707   2.624  2.7795  2.9428  0.2421
 5888SOL    HW229124   4.106   0.104   2.557  0.1289 -1.3885 -0.5924
 5889SOL     OW29125   2.256   3.518   8.009 -0.1239  0.4039  0.2619
 5889SOL    HW129126   2.334   3.564   7.980  0.0097  0.6656  1.0316
 5889SOL    HW229127   2.279   3.425   8.009  1.9139  0.9353 -3.2268
 5890SOL     OW29128   3.100   0.171   3.868 -0.5746  0.2373  0.3949
 5890SOL    HW129129   3.166   0.117   3.911 -0.4762 -1.0338 -1.3369
 5890SOL    HW229130   3.105   0.136   3.779 -1.2851 -0.1321  0.4939
 5891SOL     OW29131   0.358   2.233   7.026 -0.0597 -0.6951 -0.1951
 5891SOL    HW129132   0.296   2.289   7.073 -0.5240 -1.2883 -0.1074
 5891SOL    HW229133   0.429   2.291   6.999 -0.8517  0.4553  0.1751
 5892SOL     OW29134   0.380   0.755   8.072  0.1010 -0.3503 -0.5676
 5892SOL    HW129135   0.324   0.727   8.144  0.3408  1.0363  0.1529
 5892SOL    HW229136   0.313   0.786   8.011 -0.1141  0.2276 -0.0361
 5893SOL     OW29137   0.071   4.077   6.990  0.1256  0.2670 -0.0126
 5893SOL    HW129138   0.110   4.138   7.053 -1.5645 -0.3073  1.5876
 5893SOL    HW229139   0.087   4.122   6.906  0.1849  0.5226  0.1346
 5894SOL     OW29140   3.875   1.569   3.547  0.2570 -0.5220 -0.6928
 5894SOL    HW129141   3.968   1.573   3.570 -0.2591 -0.6575  1.3772
 5894SOL    HW229142   3.865   1.661   3.522  1.5308 -0.1816  0.0326
 5895SOL     OW29143   1.031   0.574   8.749  0.5592  0.2804  0.1239
 5895SOL    HW129144   0.937   0.574   8.767  0.9671 -0.9154  2.2005
 5895SOL    HW229145   1.027   0.573   8.653  0.6768  0.0912  0.1207
 5896SOL     OW29146   0.344   0.632   3.918 -0.2073 -0.0450  0.5310
 5896SOL    HW129147   0.334   0.546   3.958 -1.6377 -1.0140 -1.8557
 5896SOL    HW229148   0.436   0.657   3.927  0.1851  0.4928 -5.1398
 5897SOL     OW29149   4.472   2.298   1.718 -0.6900  0.7511  0.3726
 5897SOL    HW129150   4.512   2.371   1.765  1.3230 -0.0341 -0.1075
 5897SOL    HW229151   4.446   2.347   1.640  0.0992 -2.7380 -2.0839
 5898SOL     OW29152   4.066   0.767   3.889 -0.5109 -0.2226 -0.0441
 5898SOL    HW129153   4.052   0.852   3.931  3.0481  0.6067 -0.5839
 5898SOL    HW229154   4.094   0.711   3.962  0.2719  1.6869  1.1121
 5899SOL     OW29155   1.856   3.200  14.820 -0.1733  0.1467  0.1989
 5899SOL    HW129156   1.914   3.129  14.849  0.5515  0.9534  0.7218
 5899SOL    HW229157   1.902   3.276  14.857 -3.0748  1.6918  0.6148
 5900SOL     OW29158   0.917   4.135   3.252  0.1930  0.4100  0.3486
 5900SOL    HW129159   0.911   4.230   3.257  0.5650  0.4595 -0.1971
 5900SOL    HW229160   0.850   4.110   3.315  1.3672  1.6611  2.0948
 5901SOL     OW29161   0.604   0.671   3.408  0.2046 -0.4911 -0.2109
 5901SOL    HW129162   0.515   0.651   3.381  0.3491 -0.4546 -0.7189
 5901SOL    HW229163   0.639   0.709   3.328  0.7644  0.8861  0.6877
 5902SOL     OW29164   4.415   3.666   4.048 -0.0112  0.0250 -0.1530
 5902SOL    HW129165   4.473   3.694   3.978  1.2529 -0.7974  0.5677
 5902SOL    HW229166   4.358   3.610   3.995  2.6887 -1.8228 -1.1043
 5903SOL     OW29167   2.632   4.557  17.147 -0.8695 -0.0949 -0.4931
 5903SOL    HW129168   2.628   4.643  17.188  0.7819 -1.3514  2.3183
 5903SOL    HW229169   2.721   4.557  17.113 -1.4447  1.7562 -2.0169
 5904SOL     OW29170   0.492   3.359   5.259  0.3280 -0.7906 -0.0483
 5904SOL    HW129171   0.434   3.284   5.244 -0.2436 -1.1707  3.9548
 5904SOL    HW229172   0.428   3.423   5.226 -2.0632 -2.2250  1.7666
 5905SOL     OW29173   4.123   0.742   8.518  0.4592 -0.0655  0.0999
 5905SOL    HW129174   4.193   0.803   8.493  0.3689  0.9523  2.3767
 5905SOL    HW229175   4.053   0.790   8.474 -1.1130 -1.6356  0.8786
 5906SOL     OW29176   0.214   3.019  14.669 -0.3164  0.0080  0.3322
 5906SOL    HW129177   0.133   3.066  14.651 -0.5856  1.0746  4.3752
 5906SOL    HW229178   0.194   2.992  14.758 -0.0054 -0.7942  0.1585
 5907SOL     OW29179   0.432   1.533  15.485 -0.0064 -0.5003  0.4703
 5907SOL    HW129180   0.473   1.543  15.570  0.0432  0.7190  0.3009
 5907SOL    HW229181   0.458   1.614  15.440  0.7046 -0.0839  1.6181
 5908SOL     OW29182   1.256   2.756   9.850 -0.0713 -0.2633 -0.0705
 5908SOL    HW129183   1.339   2.720   9.817 -0.5671 -0.0189 -1.5752
 5908SOL    HW229184   1.215   2.675   9.878  0.4139  0.4507  2.6678
 5909SOL     OW29185   2.801   0.315   9.244 -0.2773 -0.1058 -0.1236
 5909SOL    HW129186   2.856   0.236   9.246 -2.5864 -1.7581 -0.8335
 5909SOL    HW229187   2.729   0.308   9.307  0.5887 -2.2802  0.6480
 5910SOL     OW29188   4.615   4.135   6.531  0.2425 -0.8031  0.0540
 5910SOL    HW129189   4.542   4.080   6.501 -0.2990 -1.2078  2.1207
 5910SOL    HW229190   4.641   4.173   6.447 -2.6379  0.8881 -0.0851
 5911SOL     OW29191   4.225   3.815   2.954  0.2802  0.1000 -0.0858
 5911SOL    HW129192   4.181   3.889   2.996  0.4130 -0.9996  1.9513
 5911SOL    HW229193   4.304   3.854   2.916  0.5985  0.6312  1.1124
 5912SOL     OW29194   3.676   2.771   2.927  0.2764 -0.5253  0.0503
 5912SOL    HW129195   3.593   2.819   2.927  0.2347 -0.6019 -3.7360
 5912SOL    HW229196   3.711   2.788   3.014  1.3993  0.6292 -0.6228
 5913SOL     OW29197   0.239   4.440   5.397 -0.6089 -0.1865  0.4945
 5913SOL    HW129198   0.213   4.359   5.439  1.8106 -1.5001 -0.5329
 5913SOL    HW229199   0.300   4.397   5.336 -0.5799  0.1867  0.2587
 5914SOL     OW29200   0.807   0.125   3.745 -0.3179  0.3337  0.8940
 5914SOL    HW129201   0.864   0.078   3.807 -0.3008 -0.6171  0.1629
 5914SOL    HW229202   0.783   0.207   3.787 -2.9754  0.4825 -0.9441
 5915SOL     OW29203   3.143   3.385   3.088 -0.4605  0.0096  0.2267
 5915SOL    HW129204   3.138   3.475   3.054 -1.0989  0.3029  1.0720
 5915SOL    HW229205   3.225   3.351   3.053 -0.1086  3.1001 -1.9302
 5916SOL     OW29206   2.415   0.010   2.510  0.4470  0.3668 -0.0088
 5916SOL    HW129207   2.413   4.658   2.568  2.0052  0.5139  0.2285
 5916SOL    HW229208   2.491   4.708   2.458  0.4634 -0.9695  0.6678
 5917SOL     OW29209   3.469   3.650   5.361 -0.2859 -0.1557 -0.6395
 5917SOL    HW129210   3.520   3.729   5.379  0.9580 -1.1546  0.3283
 5917SOL    HW229211   3.463   3.656   5.266  0.6031 -1.8636 -0.8126
 5918SOL     OW29212   3.926   2.638  13.779 -0.3794 -0.0818  0.0222
 5918SOL    HW129213   3.906   2.548  13.804 -0.0998 -0.1421  0.0288
 5918SOL    HW229214   3.934   2.628  13.684  0.6332 -4.5162  0.5425
 5919SOL     OW29215   0.122   0.258  16.594 -0.1395  0.2996 -0.1051
 5919SOL    HW129216   0.034   0.223  16.582  1.0766 -2.5274 -0.7905
 5919SOL    HW229217   0.142   0.219  16.679  2.4521  0.1278 -0.8012
 5920SOL     OW29218   2.243   1.001  16.573  0.0566  0.2520  0.6146
 5920SOL    HW129219   2.278   1.085  16.602 -1.2230  0.8639  0.3756
 5920SOL    HW229220   2.154   0.994  16.609  0.0657  0.5315  0.6874
 5921SOL     OW29221   3.358   3.773   4.456  0.0665  0.3133  0.2426
 5921SOL    HW129222   3.350   3.708   4.387  0.3345  0.0797  0.4302
 5921SOL    HW229223   3.368   3.858   4.413 -1.2996 -0.2057 -1.0891
 5922SOL     OW29224   2.959   4.511   1.816  0.0172  0.3893 -0.6122
 5922SOL    HW129225   2.870   4.545   1.803 -0.7128 -1.4798 -0.4497
 5922SOL    HW229226   2.994   4.514   1.727  1.8987 -2.3053  0.0468
 5923SOL     OW29227   3.498   4.066  15.137 -0.0276  0.0365 -0.1468
 5923SOL    HW129228   3.483   4.138  15.076 -0.1904 -1.0590 -1.3791
 5923SOL    HW229229   3.425   4.005  15.122 -0.0463 -0.5556  2.2962
 5924SOL     OW29230   1.667   4.230   5.774  0.1244 -0.1406  0.5393
 5924SOL    HW129231   1.738   4.255   5.833 -1.7512 -0.7228  3.0412
 5924SOL    HW229232   1.670   4.301   5.710 -2.0994  1.7208  2.4974
 5925SOL     OW29233   1.141   4.662   3.604  0.0210 -0.4989  0.3637
 5925SOL    HW129234   1.212   4.705   3.557  1.4780 -1.3801  1.7296
 5925SOL    HW229235   1.120   0.001   3.674 -0.2903 -0.4976  0.2692
 5926SOL     OW29236   1.413   2.700   8.712 -0.4231  0.4676 -0.2967
 5926SOL    HW129237   1.394   2.762   8.641 -0.4602  1.2822  0.4267
 5926SOL    HW229238   1.328   2.678   8.750 -0.5247  0.2891 -0.6190
 5927SOL     OW29239   2.767   1.941   1.737 -0.4714 -0.0146 -0.3367
 5927SOL    HW129240   2.811   1.938   1.822  1.2206  1.9418 -1.1374
 5927SOL    HW229241   2.832   1.902   1.678  1.9050  2.2639  0.7528
 5928SOL     OW29242   0.394   0.163   5.089 -0.2085  0.1565 -0.5060
 5928SOL    HW129243   0.370   0.080   5.048 -0.8160  0.0885 -0.0148
 5928SOL    HW229244   0.473   0.193   5.043 -1.7999  1.9294 -2.0926
 5929SOL     OW29245   0.150   2.756   5.765  0.1509 -0.0550  0.7641
 5929SOL    HW129246   0.215   2.716   5.709 -0.7662  0.6895 -0.8210
 5929SOL    HW229247   0.072   2.705   5.743  0.0817 -0.3397  1.6745
 5930SOL     OW29248   1.465   0.838   4.097  0.4806 -0.2693  0.3910
 5930SOL    HW129249   1.386   0.793   4.068  0.2971 -0.0182  0.5006
 5930SOL    HW229250   1.506   0.778   4.158  1.1079  0.4322  0.6608
 5931SOL     OW29251   0.609   4.395   0.855  0.3187 -0.0448  0.0949
 5931SOL    HW129252   0.644   4.360   0.773  1.3031  2.2164 -0.4503
 5931SOL    HW229253   0.520   4.405   0.822  1.0816  0.1679 -1.9042
 5932SOL     OW29254   3.077   4.221   0.000  0.0808  0.1228 -0.1651
 5932SOL    HW129255   3.058   4.295   0.058  0.7305  0.9857 -1.0554
 5932SOL    HW229256   3.154   4.263  17.656 -1.2530  1.7616 -0.9947
 5933SOL     OW29257   3.553   0.134  13.573  0.4893 -0.2289  0.6043
 5933SOL    HW129258   3.567   0.048  13.613  1.3567 -1.1320 -1.6910
 5933SOL    HW229259   3.459   0.152  13.580  0.3801 -0.6304  0.1545
 5934SOL     OW29260   4.272   0.379  12.837 -0.2316  0.1804 -0.2176
 5934SOL    HW129261   4.331   0.338  12.901  1.6633  2.3590 -0.5743
 5934SOL    HW229262   4.197   0.322  12.850 -1.3447  1.5936 -0.4542
 5935SOL     OW29263   4.312   3.775  17.599  0.1187 -0.9949  0.0097
 5935SOL    HW129264   4.373   3.730  17.541 -0.6777  2.2028 -3.2871
 5935SOL    HW229265   4.309   3.861  17.557  0.7032 -1.4547 -0.9549
 5936SOL     OW29266   3.363   2.547   3.628  0.0611  0.5294 -0.0387
 5936SOL    HW129267   3.334   2.598   3.552  0.6840  1.1978  0.1773
 5936SOL    HW229268   3.354   2.615   3.695  1.0727  0.4277  0.2045
 5937SOL     OW29269   1.821   1.738   4.171  0.3823 -0.1106  0.0696
 5937SOL    HW129270   1.811   1.816   4.117  0.8346  1.1327  1.7758
 5937SOL    HW229271   1.799   1.664   4.115  0.4457  0.8267 -1.1943
 5938SOL     OW29272   2.691   1.671  16.140  0.0826 -0.8888 -0.7562
 5938SOL    HW129273   2.600   1.698  16.140  0.3756  0.0721  1.7716
 5938SOL    HW229274   2.725   1.757  16.119 -1.7284  0.0179  0.0603
 5939SOL     OW29275   2.062   4.090  14.658  0.3021 -0.4845 -0.6082
 5939SOL    HW129276   1.974   4.051  14.652  0.2122  0.0298 -2.6350
 5939SOL    HW229277   2.122   4.017  14.668 -0.1410 -0.8659 -0.7392
 5940SOL     OW29278   4.633   3.392   7.434  0.0300 -0.7737  0.6627
 5940SOL    HW129279   4.680   3.474   7.452 -1.0900 -0.1446  0.6886
 5940SOL    HW229280   4.606   3.408   7.344  2.7883  0.0205 -0.0423
 5941SOL     OW29281   2.066   3.383   3.757 -0.2714 -0.5410 -0.1740
 5941SOL    HW129282   2.142   3.326   3.773  0.4724  0.3644 -0.5132
 5941SOL    HW229283   2.108   3.462   3.723  1.0424 -1.7787 -1.4435
 5942SOL     OW29284   2.350   2.816   1.661  0.6141  0.4628 -0.4519
 5942SOL    HW129285   2.357   2.790   1.753 -1.4240  0.9204 -0.1648
 5942SOL    HW229286   2.424   2.769   1.623 -1.4150 -1.2905 -2.2243
 5943SOL     OW29287   3.998   4.486  12.367 -0.0704  0.5278  0.4749
 5943SOL    HW129288   4.014   4.400  12.328 -0.7465  0.4871  0.2792
 5943SOL    HW229289   4.005   4.461  12.459  2.4131  0.3139  0.2288
 5944SOL     OW29290   4.673   3.736  12.502 -0.6306 -0.0649  0.5688
 5944SOL    HW129291   4.711   3.815  12.541  2.2306 -1.1061 -0.1620
 5944SOL    HW229292   0.024   3.689  12.466 -1.6550 -1.2752  0.0491
 5945SOL     OW29293   2.983   1.206   8.088  0.5293  0.1438 -0.2760
 5945SOL    HW129294   2.907   1.217   8.031  0.2161  0.7154  0.2415
 5945SOL    HW229295   3.038   1.275   8.051  0.8838 -0.4723 -0.8754
 5946SOL     OW29296   0.886   4.180   5.640 -0.2825  0.5914 -0.2721
 5946SOL    HW129297   0.833   4.242   5.691 -1.3231  0.0022 -0.6409
 5946SOL    HW229298   0.816   4.119   5.618 -0.0849  0.1771  0.2482
 5947SOL     OW29299   1.523   1.302  15.693 -0.1225 -0.1910  0.0838
 5947SOL    HW129300   1.608   1.272  15.662 -0.4116 -0.2789 -0.6182
 5947SOL    HW229301   1.468   1.224  15.703  0.3950 -0.7217 -1.2000
 5948SOL     OW29302   1.499   3.055   5.261 -0.1918  0.0724 -0.0476
 5948SOL    HW129303   1.528   3.092   5.344  0.3469  0.1109 -0.2461
 5948SOL    HW229304   1.578   3.012   5.228  1.0758  1.4687  1.1683
 5949SOL     OW29305   1.282   1.718  12.579 -0.1989 -0.4717 -0.0445
 5949SOL    HW129306   1.334   1.711  12.499 -0.8513  0.4870 -0.5447
 5949SOL    HW229307   1.199   1.714  12.532 -0.6563  0.0930  0.7419
 5950SOL     OW29308   2.507   4.005  13.215  0.2487  0.2745 -0.4546
 5950SOL    HW129309   2.447   3.932  13.203  1.1110 -0.5383  0.2207
 5950SOL    HW229310   2.571   3.972  13.278 -2.1991  0.4461  2.1309
 5951SOL     OW29311   0.063   1.220  14.996  0.1815  0.2149  0.1912
 5951SOL    HW129312   0.096   1.130  15.004  1.5812  0.7492  0.4376
 5951SOL    HW229313   0.147   1.263  14.978  0.7410 -1.0683 -0.2896
 5952SOL     OW29314   0.038   4.555   8.175  0.0049 -0.1794  0.1868
 5952SOL    HW129315   0.061   4.466   8.148 -0.6566  0.1701 -1.5275
 5952SOL    HW229316   4.670   4.533   8.197 -1.2396  2.1081 -2.6633
 5953SOL     OW29317   3.326   0.545   6.549 -0.5511  0.2299 -0.4324
 5953SOL    HW129318   3.420   0.555   6.539 -0.1464 -1.4137  1.9778
 5953SOL    HW229319   3.302   0.480   6.483 -1.2558  0.8166 -0.7530
 5954SOL     OW29320   1.272   4.627   8.313 -0.9302 -0.3219  0.2299
 5954SOL    HW129321   1.341   4.570   8.347 -0.5263 -0.1541 -0.3144
 5954SOL    HW229322   1.307   4.711   8.343 -0.1037 -0.8981  0.8811
 5955SOL     OW29323   0.801   0.222   7.456 -0.1287 -0.1752 -0.2617
 5955SOL    HW129324   0.863   0.218   7.383  0.1999  0.2246 -0.0043
 5955SOL    HW229325   0.803   0.140   7.505 -1.2530 -1.3133 -2.1134
 5956SOL     OW29326   0.688   0.958   4.008  0.4168  0.2259 -0.3107
 5956SOL    HW129327   0.610   0.999   3.972  0.5174 -1.2775 -2.3014
 5956SOL    HW229328   0.742   1.037   4.014 -1.7112  1.5192  1.5897
 5957SOL     OW29329   2.015   3.563   6.619  0.2033 -0.4687 -0.3777
 5957SOL    HW129330   1.977   3.638   6.665  4.4861  1.0795  0.6370
 5957SOL    HW229331   2.051   3.609   6.543 -0.5333 -0.4029 -0.6836
 5958SOL     OW29332   3.567   3.847   8.107  0.0077 -0.5147 -0.1832
 5958SOL    HW129333   3.653   3.814   8.080 -0.4933 -0.0851 -2.3703
 5958SOL    HW229334   3.563   3.828   8.200  0.8712  1.8059  0.3139
 5959SOL     OW29335   4.673   1.773   8.004  0.2221 -0.5292 -0.0148
 5959SOL    HW129336   4.662   1.768   8.099  0.2092 -1.1202 -0.0528
 5959SOL    HW229337   0.009   1.848   7.992 -0.8120 -0.0699 -2.1835
 5960SOL     OW29338   2.370   3.667   4.728 -0.0913 -0.3967 -0.4596
 5960SOL    HW129339   2.284   3.699   4.701 -0.5892 -2.0174 -0.8005
 5960SOL    HW229340   2.361   3.628   4.816  1.1446  2.3057  0.8648
 5961SOL     OW29341   0.219   2.952  17.184  0.2727  0.2166 -1.0304
 5961SOL    HW129342   0.184   3.016  17.122  0.9118  1.3316 -0.2357
 5961SOL    HW229343   0.268   3.004  17.248  1.6282 -1.6989 -0.5058
 5962SOL     OW29344   2.507   2.393   9.282 -0.3521  0.3904  0.1795
 5962SOL    HW129345   2.444   2.324   9.263  0.7772 -0.1523 -1.5867
 5962SOL    HW229346   2.577   2.335   9.311 -0.0374  1.7984  2.2464
 5963SOL     OW29347   2.670   1.455   6.951  0.0171 -0.2132 -0.2536
 5963SOL    HW129348   2.709   1.368   6.947 -0.2596 -0.2691 -1.4610
 5963SOL    HW229349   2.578   1.441   6.930 -0.2556 -0.2813  0.9874
 5964SOL     OW29350   1.786   4.422   0.779 -0.2520  0.1026 -0.3761
 5964SOL    HW129351   1.876   4.391   0.779  0.4313  2.0565 -0.5253
 5964SOL    HW229352   1.796   4.497   0.720 -0.7754  0.2287 -0.3071
 5965SOL     OW29353   4.004   2.107  16.432  0.4637  0.1644  0.1369
 5965SOL    HW129354   4.068   2.090  16.363 -0.2382  1.3671 -0.8086
 5965SOL    HW229355   3.988   2.021  16.470 -0.7523 -0.4366 -1.7416
 5966SOL     OW29356   4.388   4.674   3.604  0.5625  0.0386 -0.6635
 5966SOL    HW129357   4.449   0.011   3.647  0.1821 -0.4705  0.5841
 5966SOL    HW229358   4.375   0.004   3.525 -3.4292  0.7864  0.5284
 5967SOL     OW29359   2.251   1.350  17.665  0.4297  0.5233 -0.8067
 5967SOL    HW129360   2.341   1.320  17.647  0.7580  0.3855  1.0548
 5967SOL    HW229361   2.232   1.416  17.598 -0.4711  0.9914 -0.0717
 5968SOL     OW29362   0.796   0.982  14.657  0.4132  0.2746 -0.2541
 5968SOL    HW129363   0.872   0.976  14.599  0.5960  0.9095 -0.0902
 5968SOL    HW229364   0.754   1.050  14.604  0.3812 -0.0997 -0.7003
 5969SOL     OW29365   4.154   0.750   5.983 -0.1346 -0.2840 -1.1411
 5969SOL    HW129366   4.219   0.806   5.940 -0.6489  1.1140 -0.1038
 5969SOL    HW229367   4.077   0.774   5.931 -1.9130 -0.2602  1.5221
 5970SOL     OW29368   3.588   2.090  11.884 -0.4587 -0.4172 -0.0675
 5970SOL    HW129369   3.612   2.182  11.874 -0.2793 -0.5140 -0.5431
 5970SOL    HW229370   3.645   2.062  11.956 -0.7577  0.4448  0.5013
 5971SOL     OW29371   2.778   4.053   9.377  0.6221 -0.2512 -0.1354
 5971SOL    HW129372   2.702   4.004   9.347  0.0396  0.8037 -0.3979
 5971SOL    HW229373   2.852   3.997   9.356  0.5919 -0.3104 -0.0833
 5972SOL     OW29374   0.462   0.414   8.915 -0.3402 -0.1380  0.1334
 5972SOL    HW129375   0.401   0.343   8.893  3.1741 -2.9861 -0.3891
 5972SOL    HW229376   0.528   0.376   8.973 -0.7378  0.5075  1.0176
 5973SOL     OW29377   4.303   0.120   1.353 -0.2396  0.5554  0.0791
 5973SOL    HW129378   4.254   0.193   1.389 -1.8400 -1.2305  1.5258
 5973SOL    HW229379   4.395   0.140   1.369 -0.5839  1.6466  0.6465
 5974SOL     OW29380   0.680   1.002  11.664 -0.7251 -0.7595  0.0243
 5974SOL    HW129381   0.655   1.094  11.654 -1.6672 -0.9050  1.0847
 5974SOL    HW229382   0.775   1.016  11.661 -0.7553 -0.8925 -1.9076
 5975SOL     OW29383   1.624   2.305   8.221 -0.6919  0.4774 -0.1795
 5975SOL    HW129384   1.674   2.227   8.196 -1.1413  0.3420 -0.6472
 5975SOL    HW229385   1.644   2.360   8.145  0.9549  1.8085  1.2293
 5976SOL     OW29386   0.775   2.504   1.981  0.1766  0.4359 -0.1427
 5976SOL    HW129387   0.778   2.588   2.028 -1.4191 -0.4124  1.4900
 5976SOL    HW229388   0.859   2.470   2.013 -1.0472 -1.2200  1.2929
 5977SOL     OW29389   2.125   0.119   7.443 -0.0394 -0.2278  0.3197
 5977SOL    HW129390   2.039   0.091   7.476 -1.6891  2.0934 -2.0522
 5977SOL    HW229391   2.128   0.107   7.348 -0.9082 -0.8434  0.3636
 5978SOL     OW29392   2.391   4.362   2.332  0.0663  0.3064 -0.3322
 5978SOL    HW129393   2.321   4.325   2.385  0.3398  2.7386  1.7425
 5978SOL    HW229394   2.374   4.307   2.255 -1.5476  0.7109 -0.2735
 5979SOL     OW29395   2.194   1.343   3.223  0.1081 -0.2636  0.1007
 5979SOL    HW129396   2.208   1.427   3.179  1.6186 -0.5901 -0.0526
 5979SOL    HW229397   2.224   1.282   3.156  1.7788 -0.2229  0.8022
 5980SOL     OW29398   0.782   3.306  10.789 -0.1708  0.0883 -0.1926
 5980SOL    HW129399   0.746   3.373  10.732  1.5442 -0.5948 -2.0536
 5980SOL    HW229400   0.702   3.274  10.831  0.7325 -2.8282 -0.6895
 5981SOL     OW29401   2.369   3.437   3.240 -0.4270 -0.7491 -0.2708
 5981SOL    HW129402   2.274   3.446   3.244 -0.5799 -1.5864 -1.8265
 5981SOL    HW229403   2.385   3.529   3.219 -1.5342 -0.1882  1.3182
 5982SOL     OW29404   0.188   2.410   5.643  0.3294  0.5524  0.1038
 5982SOL    HW129405   0.113   2.470   5.642 -0.2723 -0.1831  1.1999
 5982SOL    HW229406   0.239   2.437   5.567 -2.1077  2.3162 -0.9341
 5983SOL     OW29407   1.155   3.898  12.137 -1.0631  0.1653 -0.0081
 5983SOL    HW129408   1.150   3.919  12.044 -0.3258  0.5030  0.0301
 5983SOL    HW229409   1.069   3.856  12.139  0.1011 -2.2423  0.2769
 5984SOL     OW29410   0.402   1.185   5.556  0.1889 -0.3854  0.5540
 5984SOL    HW129411   0.479   1.241   5.556  0.3649 -0.6348  1.0782
 5984SOL    HW229412   0.397   1.170   5.650 -2.7956 -0.4154  0.4125
 5985SOL     OW29413   0.371   4.487   2.923 -0.3089 -0.0712 -0.2757
 5985SOL    HW129414   0.360   4.410   2.979  0.2136 -0.1127 -0.2303
 5985SOL    HW229415   0.355   4.456   2.834  0.3008 -2.2559  0.3671
 5986SOL     OW29416   0.027   2.640   8.443  0.6475  0.0015  0.1905
 5986SOL    HW129417   4.688   2.660   8.372 -1.2388  0.5134  2.0032
 5986SOL    HW229418   0.103   2.684   8.404 -0.6198  1.4387 -0.6956
 5987SOL     OW29419   2.680   4.608   3.180  0.5276  0.1814  0.5636
 5987SOL    HW129420   2.686   4.600   3.275  0.6045 -2.7769  0.3260
 5987SOL    HW229421   2.620   4.682   3.179 -1.3799 -1.3916 -0.8846
 5988SOL     OW29422   2.128   0.992   3.203  0.3731 -0.0126  0.5762
 5988SOL    HW129423   2.139   1.026   3.114  2.7616 -1.9114  0.1640
 5988SOL    HW229424   2.193   0.923   3.211  1.8541  1.0282 -2.2314
 5989SOL     OW29425   0.458   4.016   8.852 -0.5825  0.2401  0.6695
 5989SOL    HW129426   0.435   4.085   8.915 -1.6133  0.8170 -0.3453
 5989SOL    HW229427   0.411   4.043   8.774 -1.4521  3.1020  2.1679
 5990SOL     OW29428   2.007   0.211  13.363 -0.0876 -0.3139  0.3246
 5990SOL    HW129429   2.005   0.204  13.458 -1.1209 -0.0418  0.3297
 5990SOL    HW229430   1.984   0.303  13.350  0.2469 -0.2556  0.1365
 5991SOL     OW29431   0.840   4.205  12.225  0.1596 -0.0789 -0.4842
 5991SOL    HW129432   0.915   4.237  12.176 -1.1522  0.9483 -1.8379
 5991SOL    HW229433   0.875   4.141  12.287  0.1158  0.0936 -0.2801
 5992SOL     OW29434   1.099   3.042   8.948 -0.1351  0.1988 -0.1273
 5992SOL    HW129435   1.050   3.108   8.996 -0.3433  0.0168 -0.0918
 5992SOL    HW229436   1.057   3.042   8.862 -0.4680 -1.6083  0.0404
 5993SOL     OW29437   2.218   3.128   7.801  0.4346  0.4954 -0.5006
 5993SOL    HW129438   2.283   3.077   7.850 -0.3078  0.9686  0.9674
 5993SOL    HW229439   2.145   3.128   7.862  1.0139 -0.5378  0.1902
 5994SOL     OW29440   3.363   3.679   5.674 -0.3646 -0.1681 -0.3271
 5994SOL    HW129441   3.327   3.693   5.587 -1.9598  0.7328  0.4862
 5994SOL    HW229442   3.332   3.592   5.700  0.2726  0.4482  2.6161
 5995SOL     OW29443   1.885   1.959   8.776 -0.3458  0.4688 -0.6587
 5995SOL    HW129444   1.858   1.955   8.868 -0.3805 -0.1643 -0.6995
 5995SOL    HW229445   1.964   2.013   8.781 -0.1024 -0.0507  1.2321
 5996SOL     OW29446   1.349   2.551  12.999 -0.3549  0.3945 -0.4015
 5996SOL    HW129447   1.382   2.461  12.998 -1.4837 -0.0296  0.2430
 5996SOL    HW229448   1.424   2.609  12.990 -0.0952  0.0458 -0.4810
 5997SOL     OW29449   3.960   1.298   0.746  0.2059 -0.9202  0.1600
 5997SOL    HW129450   3.989   1.255   0.827 -0.1575 -0.1250  0.7090
 5997SOL    HW229451   3.875   1.255   0.735 -0.1162  0.4858 -2.8545
 5998SOL     OW29452   1.464   2.596   3.697 -0.6540  0.4487 -0.3418
 5998SOL    HW129453   1.474   2.534   3.769  0.2611  0.7904 -0.1667
 5998SOL    HW229454   1.424   2.671   3.742 -1.3362 -1.1798  1.7377
 5999SOL     OW29455   3.433   4.705   6.175 -0.2496  0.1633 -0.3777
 5999SOL    HW129456   3.479   4.621   6.181 -0.5680 -0.0184 -0.4466
 5999SOL    HW229457   3.470   0.024   6.253  0.0991  0.2413 -0.5827
 6000SOL     OW29458   2.361   4.698   1.754 -0.0493  0.5441 -0.0964
 6000SOL    HW129459   2.442   0.005   1.713 -0.0939  1.9702  0.8545
 6000SOL    HW229460   2.316   4.681   1.672  0.6814 -1.2371 -0.1187
 6001SOL     OW29461   0.125   1.211   2.497  0.0319  0.2476  0.2617
 6001SOL    HW129462   0.128   1.134   2.440 -1.6670  2.4523 -2.8265
 6001SOL    HW229463   0.069   1.176   2.566 -1.6418  0.3261 -1.0462
 6002SOL     OW29464   0.962   0.141   5.489  0.4444 -0.2625 -0.0210
 6002SOL    HW129465   1.031   0.096   5.439  0.0124 -0.2574 -0.6291
 6002SOL    HW229466   1.021   0.173   5.558  0.5376 -1.1797  0.3218
 6003SOL     OW29467   4.255   0.037  16.136 -0.5981 -0.2659 -0.3517
 6003SOL    HW129468   4.172   0.047  16.090  1.4100 -1.5153 -4.1971
 6003SOL    HW229469   4.230   0.067  16.223 -0.0786  0.0856 -0.3236
 6004SOL     OW29470   1.157   2.610  13.247 -0.5227 -0.6088  1.1092
 6004SOL    HW129471   1.198   2.566  13.320 -1.3857 -2.4913  0.4611
 6004SOL    HW229472   1.227   2.673  13.229 -0.2192 -1.0391  0.7920
 6005SOL     OW29473   0.299   2.608   2.650  0.0167  0.3743  0.1962
 6005SOL    HW129474   0.293   2.567   2.737 -0.4109 -0.7133 -0.3418
 6005SOL    HW229475   0.290   2.700   2.676  1.6413  0.7708 -0.6278
 6006SOL     OW29476   1.088   2.539   7.597  0.0382 -0.0522 -0.1916
 6006SOL    HW129477   1.096   2.476   7.668  2.4586 -0.2673 -0.6443
 6006SOL    HW229478   1.064   2.626   7.630  1.2657  0.1647  0.1364
 6007SOL     OW29479   1.214   3.735   9.235  0.3504 -0.3329  0.6493
 6007SOL    HW129480   1.292   3.711   9.183  1.5210  3.4959  0.6250
 6007SOL    HW229481   1.164   3.786   9.172  1.4460 -0.3760 -0.2682
 6008SOL     OW29482   0.746   1.394  12.562 -0.2603  0.1893 -0.1805
 6008SOL    HW129483   0.683   1.322  12.556 -0.3044  0.1796  0.4408
 6008SOL    HW229484   0.796   1.372  12.483  0.2479  1.9909 -0.3576
 6009SOL     OW29485   2.530   3.665   5.191  0.3857 -0.1067 -0.1858
 6009SOL    HW129486   2.503   3.648   5.282 -1.7854  1.2287 -0.5824
 6009SOL    HW229487   2.623   3.678   5.207 -0.3580  3.1931  1.3583
 6010SOL     OW29488   4.002   0.770   5.760  0.8327  0.6882 -0.5402
 6010SOL    HW129489   4.073   0.791   5.699  0.8264  3.5044  0.4057
 6010SOL    HW229490   3.959   0.691   5.728 -0.2914  1.5257 -1.1269
 6011SOL     OW29491   3.179   1.985   2.304  0.0202  0.2396  0.1483
 6011SOL    HW129492   3.234   1.966   2.228 -1.8859 -1.1567 -0.8691
 6011SOL    HW229493   3.107   1.924   2.289  0.5879 -0.3187 -0.3338
 6012SOL     OW29494   2.597   3.508  16.948 -0.3234 -0.4344 -0.1914
 6012SOL    HW129495   2.691   3.520  16.960  0.1479  0.5712 -4.9131
 6012SOL    HW229496   2.566   3.593  16.917 -2.3382 -0.1850  2.4194
 6013SOL     OW29497   1.722   1.284  16.182 -0.0828  0.4686 -0.0294
 6013SOL    HW129498   1.788   1.219  16.205 -0.8191  0.2054  1.3355
 6013SOL    HW229499   1.694   1.270  16.272 -1.1571  0.9005 -0.3003
 6014SOL     OW29500   2.752   3.805  13.275  1.0522  0.7300  0.3752
 6014SOL    HW129501   2.693   3.764  13.338  0.2180 -0.5464 -1.2235
 6014SOL    HW229502   2.838   3.790  13.314  0.3929 -0.9098  1.1863
 6015SOL     OW29503   1.906   3.514   8.211 -0.0369  0.3775  0.2003
 6015SOL    HW129504   1.904   3.503   8.116 -1.2714  0.4012  0.2228
 6015SOL    HW229505   1.990   3.474   8.233 -1.1508 -3.0227 -1.8566
 6016SOL     OW29506   0.409   1.194   9.370  0.1955 -0.1680  0.1999
 6016SOL    HW129507   0.430   1.130   9.438 -0.4449  0.2594  0.8138
 6016SOL    HW229508   0.485   1.175   9.317 -0.0698 -0.0065 -0.2359
 6017SOL     OW29509   3.305   4.638   4.350  0.3485 -0.2509 -0.1946
 6017SOL    HW129510   3.316   4.580   4.274 -1.9370 -0.7532 -0.1340
 6017SOL    HW229511   3.398   4.650   4.372 -0.1362  2.8450  0.2062
 6018SOL     OW29512   4.226   1.577   6.554 -0.0917 -0.2080  0.2444
 6018SOL    HW129513   4.319   1.573   6.530 -0.1141 -1.7840  0.4534
 6018SOL    HW229514   4.221   1.671   6.572 -3.0924 -0.3464  0.0619
 6019SOL     OW29515   0.010   4.365  11.641  0.7873  0.6989  0.1361
 6019SOL    HW129516   0.089   4.419  11.643  2.2295 -1.4492  0.6755
 6019SOL    HW229517   0.049   4.280  11.620 -1.5174 -0.3478  0.1551
 6020SOL     OW29518   0.326   0.050   6.038  0.6310  0.1086  0.3950
 6020SOL    HW129519   0.341   0.031   6.131  0.9915 -0.7216  0.1649
 6020SOL    HW229520   0.280   4.693   6.012  0.0281  0.7755 -0.5958
 6021SOL     OW29521   1.875   0.179   5.205 -0.1413  0.0888  0.1452
 6021SOL    HW129522   1.874   0.202   5.112 -0.3247  0.0819  0.1443
 6021SOL    HW229523   1.827   0.256   5.237 -2.0808 -0.4185 -1.5483
 6022SOL     OW29524   4.476   0.918   0.688  0.3982  0.1980 -0.0515
 6022SOL    HW129525   4.567   0.917   0.658 -0.5747 -0.9747 -2.9367
 6022SOL    HW229526   4.484   0.964   0.772 -3.0085  0.5299  0.1140
 6023SOL     OW29527   1.425   2.741   1.563 -0.3584  0.3632  0.0318
 6023SOL    HW129528   1.517   2.769   1.566 -1.0616  2.7568 -1.0006
 6023SOL    HW229529   1.405   2.759   1.471  0.7035 -1.6591 -0.6024
 6024SOL     OW29530   3.373   0.524   1.544  0.5749 -0.3794 -0.5046
 6024SOL    HW129531   3.329   0.440   1.558 -0.1425  0.4062  2.0785
 6024SOL    HW229532   3.429   0.513   1.468 -0.7895 -0.9458 -1.4223
 6025SOL     OW29533   4.481   1.118   1.762  0.3573 -0.0491 -0.6749
 6025SOL    HW129534   4.546   1.101   1.693 -0.2548  1.0275 -1.5206
 6025SOL    HW229535   4.489   1.213   1.757 -2.2041  0.1998  0.3780
 6026SOL     OW29536   0.895   4.585  13.462 -0.4128  0.0426  0.0600
 6026SOL    HW129537   0.963   4.519  13.470  0.0504  0.6022  0.7831
 6026SOL    HW229538   0.908   4.609  13.371 -1.3410 -3.3711 -0.9718
 6027SOL     OW29539   4.242   2.308   5.183  0.0244  0.0141 -0.1254
 6027SOL    HW129540   4.163   2.264   5.152  0.4049 -0.6024 -0.2247
 6027SOL    HW229541   4.294   2.306   5.102  0.3528 -0.3570  0.0950
 6028SOL     OW29542   4.474   0.313  13.083 -0.2296  0.0465  0.0762
 6028SOL    HW129543   4.549   0.365  13.053  0.7753 -1.2800  0.3180
 6028SOL    HW229544   4.477   0.232  13.033  0.2902 -0.8658  1.5705
 6029SOL     OW29545   0.430   0.135   6.966 -0.1047 -0.2457 -0.0998
 6029SOL    HW129546   0.409   0.170   7.053 -0.2190 -0.6357  0.0291
 6029SOL    HW229547   0.377   0.055   6.962 -1.5509  0.7024 -0.0743
 6030SOL     OW29548   4.190   3.379   2.605  0.7707  0.1768 -0.6080
 6030SOL    HW129549   4.269   3.430   2.625  0.8525 -0.6371  1.1011
 6030SOL    HW229550   4.232   3.314   2.548  0.8122  1.3903 -1.9757
 6031SOL     OW29551   1.908   0.360  16.325  0.2225 -0.6610  0.4781
 6031SOL    HW129552   1.943   0.444  16.353  0.2931 -0.1399 -1.1842
 6031SOL    HW229553   1.929   0.315  16.407 -0.4321  0.6990  1.4018
 6032SOL     OW29554   0.177   1.210   1.600  0.5385  0.0073 -0.5767
 6032SOL    HW129555   0.258   1.261   1.598 -0.5031  1.7088  0.5899
 6032SOL    HW229556   0.178   1.182   1.691  1.6530  3.4655  0.4516
 6033SOL     OW29557   1.864   1.315   3.809 -0.1896  0.3017  0.1769
 6033SOL    HW129558   1.881   1.227   3.777 -2.2186 -0.1782  0.4236
 6033SOL    HW229559   1.928   1.331   3.878 -1.6748 -1.1948  1.9102
 6034SOL     OW29560   0.911   4.644  10.305  0.5896  0.4602 -0.0763
 6034SOL    HW129561   0.939   4.598  10.384  1.4876 -0.0010 -0.6730
 6034SOL    HW229562   0.944   0.010  10.315  1.3879  0.1387  0.1104
 6035SOL     OW29563   4.548   2.007  14.769 -0.0670  0.6353  0.1942
 6035SOL    HW129564   4.479   2.036  14.709  0.1893  1.1312  0.1330
 6035SOL    HW229565   4.495   2.022  14.848  2.6651  2.5011  1.6939
 6036SOL     OW29566   0.761   4.674   6.706 -0.5768 -0.0165 -0.4878
 6036SOL    HW129567   0.720   4.690   6.791  3.0100 -1.5916  1.5380
 6036SOL    HW229568   0.835   4.617   6.727  0.3432  1.3862  0.1111
 6037SOL     OW29569   1.295   3.786   5.639  0.3517 -0.1268  0.3448
 6037SOL    HW129570   1.298   3.749   5.727 -0.0532 -0.7706  0.0829
 6037SOL    HW229571   1.229   3.733   5.595  0.0738  0.8057 -0.3639
 6038SOL     OW29572   0.412   2.171  16.904  0.0404  0.1628  0.1876
 6038SOL    HW129573   0.336   2.155  16.960 -0.7252 -0.7278 -1.0810
 6038SOL    HW229574   0.387   2.123  16.825  0.5792  0.2342 -0.0270
 6039SOL     OW29575   0.173   1.716   7.693 -0.5057  0.0413  0.0211
 6039SOL    HW129576   0.186   1.719   7.788 -2.1787  1.3934  0.2166
 6039SOL    HW229577   0.105   1.655   7.664 -0.5242 -0.0307  0.2179
 6040SOL     OW29578   1.932   3.256   8.429  0.1282 -0.4349  0.5023
 6040SOL    HW129579   1.873   3.303   8.489  1.5169 -1.2688  2.5388
 6040SOL    HW229580   2.002   3.320   8.415  0.1123 -0.2951  1.0366
 6041SOL     OW29581   3.574   0.055   5.917 -0.0982  0.7292  0.1672
 6041SOL    HW129582   3.509   0.039   5.986 -0.2435  1.7475  0.2712
 6041SOL    HW229583   3.613   0.138   5.946 -2.1014  1.2070  1.5155
 6042SOL     OW29584   1.925   3.519   4.679 -1.0527  0.0633 -0.0878
 6042SOL    HW129585   1.913   3.425   4.662  2.4112 -0.1563 -1.4667
 6042SOL    HW229586   1.976   3.522   4.760  0.5479  1.3611 -1.1537
 6043SOL     OW29587   2.555   3.278  11.840  0.2113 -0.0214  0.2751
 6043SOL    HW129588   2.608   3.247  11.767  0.5671  1.1673  0.0189
 6043SOL    HW229589   2.623   3.286  11.907  1.1446  0.1204 -0.7053
 6044SOL     OW29590   4.289   2.126   0.727  0.6274  0.5942  0.5212
 6044SOL    HW129591   4.246   2.048   0.693  0.9518  2.0280 -3.1546
 6044SOL    HW229592   4.383   2.113   0.717  0.5007 -0.2430  0.4369
 6045SOL     OW29593   4.252   3.178   0.415 -0.0145  0.4687  0.1458
 6045SOL    HW129594   4.240   3.256   0.361 -4.1325  0.4132  0.9913
 6045SOL    HW229595   4.244   3.113   0.345  1.9089 -1.3328  1.5880
 6046SOL     OW29596   4.207   1.413   1.491  0.5769 -0.0242  0.3748
 6046SOL    HW129597   4.265   1.351   1.447  0.6820 -0.4155  1.0623
 6046SOL    HW229598   4.206   1.361   1.571  3.0197 -0.5170  0.0949
 6047SOL     OW29599   3.988   0.131  14.880 -0.0547 -0.1716 -0.0390
 6047SOL    HW129600   4.076   0.166  14.869  0.8390 -1.8000  2.0960
 6047SOL    HW229601   3.932   0.208  14.890  1.6756  1.2665 -1.3379
 6048SOL     OW29602   2.880   4.286   8.782  0.0798 -0.2837  0.2724
 6048SOL    HW129603   2.834   4.320   8.859 -1.9974  2.7816 -2.3193
 6048SOL    HW229604   2.810   4.241   8.734 -0.3860  2.1756 -1.3703
 6049SOL     OW29605   2.414   4.629  16.987 -0.0552  0.2340 -0.2993
 6049SOL    HW129606   2.481   4.639  16.919 -0.1438  2.2517 -0.0826
 6049SOL    HW229607   2.455   4.562  17.041 -0.7641  1.9844  2.4297
 6050SOL     OW29608   3.151   4.485   4.947  0.0028 -0.3681  0.4229
 6050SOL    HW129609   3.117   4.399   4.971  2.0199 -0.9918  1.0895
 6050SOL    HW229610   3.221   4.490   5.012  0.5265  0.5414 -0.2068
 6051SOL     OW29611   4.654   3.519   3.040 -0.5298  1.0504  0.4138
 6051SOL    HW129612   0.016   3.476   3.050 -0.9988  0.2027  0.7692
 6051SOL    HW229613   4.608   3.488   3.118 -1.8511  0.7130 -0.5115
 6052SOL     OW29614   0.334   0.164   7.792  0.7819  0.6241  0.1878
 6052SOL    HW129615   0.365   0.086   7.839 -1.0016  0.5275  1.1952
 6052SOL    HW229616   0.363   0.229   7.856 -1.2995  1.8296 -0.1106
 6053SOL     OW29617   2.116   2.043   2.734  0.1709  0.0260  0.2127
 6053SOL    HW129618   2.188   2.007   2.785  1.1135 -0.9529 -1.8133
 6053SOL    HW229619   2.147   2.130   2.707  1.7338 -0.5720  0.1018
 6054SOL     OW29620   2.574   3.119   3.418 -0.3996 -0.2866  0.1130
 6054SOL    HW129621   2.608   3.202   3.385  0.6987 -1.3621 -1.4631
 6054SOL    HW229622   2.505   3.102   3.353 -0.6550  2.3418 -0.2957
 6055SOL     OW29623   1.414   2.465  16.116 -0.5676  1.1302  0.4025
 6055SOL    HW129624   1.500   2.446  16.153 -0.0082 -0.2570 -1.5846
 6055SOL    HW229625   1.436   2.506  16.033 -2.1739  2.2753  0.5523
 6056SOL     OW29626   2.384   1.470   6.901 -0.5549  0.0112  0.1753
 6056SOL    HW129627   2.329   1.449   6.826  2.6074 -2.1788 -1.5389
 6056SOL    HW229628   2.331   1.427   6.967 -3.7947  1.6491 -1.3636
 6057SOL     OW29629   1.801   0.209   2.959 -0.2462 -0.0800 -0.8864
 6057SOL    HW129630   1.737   0.210   3.030 -0.7743 -1.0796 -1.3459
 6057SOL    HW229631   1.843   0.295   2.967 -0.0489 -0.1235 -1.4933
 6058SOL     OW29632   1.860   2.541  12.208  0.0425  0.6702  0.3409
 6058SOL    HW129633   1.787   2.576  12.260 -0.9352 -2.3792  1.0470
 6058SOL    HW229634   1.933   2.534  12.269  2.3832  1.0444 -2.4348
 6059SOL     OW29635   2.434   4.536   0.026  0.0038  0.6676 -0.4587
 6059SOL    HW129636   2.433   4.628   0.052 -2.6424  0.0399  1.6646
 6059SOL    HW229637   2.527   4.517   0.022  0.4635  2.8175  0.3224
 6060SOL     OW29638   0.171   4.480   3.870  0.2101 -0.2526  0.6128
 6060SOL    HW129639   0.117   4.406   3.840 -0.6143  0.8903 -0.7378
 6060SOL    HW229640   0.234   4.460   3.801 -0.0205  0.1388  0.2886
 6061SOL     OW29641   3.456   1.070  11.728 -0.6636  0.3739  0.0661
 6061SOL    HW129642   3.492   1.083  11.641  1.5790  1.0069  1.0840
 6061SOL    HW229643   3.398   1.144  11.743  0.9055  1.3497  1.2185
 6062SOL     OW29644   4.387   2.163   9.029 -0.0555 -0.2097  0.0728
 6062SOL    HW129645   4.424   2.099   8.969 -2.5224 -0.9824 -0.6118
 6062SOL    HW229646   4.386   2.113   9.111  0.1534  0.3820  0.4378
 6063SOL     OW29647   0.731   3.454   6.901 -0.2107  0.0044 -0.6722
 6063SOL    HW129648   0.704   3.405   6.979 -2.3902  1.3886 -0.5339
 6063SOL    HW229649   0.654   3.510   6.889 -1.0837 -1.4128 -1.8012
 6064SOL     OW29650   3.167   0.138   5.030  0.2201  0.5049 -0.0910
 6064SOL    HW129651   3.189   0.050   5.059  2.5754  1.2138  0.2723
 6064SOL    HW229652   3.079   0.139   5.069 -0.1286 -0.1882 -0.8422
 6065SOL     OW29653   2.028   4.121   1.805  0.4351 -0.7239  0.0118
 6065SOL    HW129654   2.079   4.041   1.819  0.4650 -0.5199  1.0515
 6065SOL    HW229655   1.977   4.141   1.884  1.4377  0.2255  0.4048
 6066SOL     OW29656   3.884   3.512   3.088 -0.3035 -0.8426  0.3864
 6066SOL    HW129657   3.942   3.558   3.027  0.7558  1.4186  3.0749
 6066SOL    HW229658   3.926   3.545   3.167  0.1825 -0.6348  0.0372
 6067SOL     OW29659   2.085   1.434  17.181  0.6178 -0.5253  0.2288
 6067SOL    HW129660   2.060   1.525  17.167  1.1922 -0.3538  0.3428
 6067SOL    HW229661   2.091   1.437  17.277 -0.2957  2.9327  0.1779
 6068SOL     OW29662   2.948   3.607   8.261  0.1564  0.4775  0.1193
 6068SOL    HW129663   3.017   3.623   8.326  1.0076 -3.4092  0.2079
 6068SOL    HW229664   2.993   3.527   8.233  1.2045  1.1023 -0.0094
 6069SOL     OW29665   3.784   3.356   8.155  0.0050  0.2411 -0.4402
 6069SOL    HW129666   3.827   3.408   8.223 -0.8607 -0.7930  0.8915
 6069SOL    HW229667   3.698   3.379   8.190 -0.1086  1.3544 -1.4454
 6070SOL     OW29668   1.731   0.422   5.242 -0.0586  0.6673  0.2683
 6070SOL    HW129669   1.724   0.488   5.311 -1.5037  0.0713  0.6990
 6070SOL    HW229670   1.808   0.463   5.205 -0.2491 -0.3115 -1.1939
 6071SOL     OW29671   0.935   4.396   3.257  0.7393  0.0354 -0.1580
 6071SOL    HW129672   0.903   4.462   3.319  1.4989  1.6496 -1.5137
 6071SOL    HW229673   1.027   4.390   3.282  0.7083 -2.0989 -0.5714
 6072SOL     OW29674   4.523   0.296  11.661  0.0471 -0.2404 -0.8498
 6072SOL    HW129675   4.561   0.378  11.694  1.8885 -2.1370  1.7917
 6072SOL    HW229676   4.564   0.249  11.734 -2.2787 -0.1159  0.5264
 6073SOL     OW29677   1.765   4.177   6.129 -0.0467  0.3322 -0.4241
 6073SOL    HW129678   1.765   4.267   6.098 -1.0495  1.2941  2.2868
 6073SOL    HW229679   1.683   4.161   6.177  0.3952  2.9682  1.2534
 6074SOL     OW29680   1.331   0.504  12.227 -0.2415 -0.0567 -0.4011
 6074SOL    HW129681   1.306   0.545  12.310 -3.0137  1.4651 -2.0161
 6074SOL    HW229682   1.299   0.570  12.166  0.6327  0.0853 -0.7145
 6075SOL     OW29683   1.235   4.326  13.859 -0.4986  0.2119 -0.3602
 6075SOL    HW129684   1.177   4.400  13.876 -0.3687  0.4061 -0.7848
 6075SOL    HW229685   1.221   4.314  13.766  0.8301 -0.5613 -0.4531
 6076SOL     OW29686   0.747   1.309   8.610  0.0096  0.0480 -0.7420
 6076SOL    HW129687   0.781   1.220   8.617 -0.2417 -0.1696 -2.3143
 6076SOL    HW229688   0.823   1.358   8.642 -1.1702  0.9854  0.5744
 6077SOL     OW29689   1.531   4.350   2.199  0.0726  0.5213 -0.1093
 6077SOL    HW129690   1.445   4.345   2.158  0.8495 -2.2975 -1.4029
 6077SOL    HW229691   1.529   4.286   2.270  0.8378  0.4694 -0.1276
 6078SOL     OW29692   1.090   4.107   7.811 -0.2274  0.7480 -0.9603
 6078SOL    HW129693   1.070   4.199   7.794 -1.4501  1.0348  1.9511
 6078SOL    HW229694   1.079   4.108   7.906 -0.1173 -0.0172 -0.9417
 6079SOL     OW29695   0.161   0.279   4.667 -0.0643 -0.5510 -0.5639
 6079SOL    HW129696   0.130   0.351   4.613  0.7300  1.3776  1.5484
 6079SOL    HW229697   0.220   0.322   4.729 -0.5249  0.3361 -0.7330
 6080SOL     OW29698   2.908   1.995  14.674  0.1109 -0.2866 -0.4440
 6080SOL    HW129699   2.955   2.078  14.672 -0.3681 -0.0662 -2.3087
 6080SOL    HW229700   2.928   1.955  14.589 -1.2480 -0.9456 -0.4605
 6081SOL     OW29701   4.017   3.082   4.626 -0.2016 -0.2167 -0.2499
 6081SOL    HW129702   3.930   3.055   4.594  0.4001 -3.8787  1.1691
 6081SOL    HW229703   4.070   3.102   4.549 -2.6097  1.8818 -1.3402
 6082SOL     OW29704   1.810   1.382   1.137 -0.3572 -0.2682  0.1427
 6082SOL    HW129705   1.786   1.304   1.088  0.2399  0.3551 -1.1236
 6082SOL    HW229706   1.880   1.417   1.083 -2.1654  0.0715 -1.9568
 6083SOL     OW29707   4.444   0.572   6.271 -0.7178  0.1356 -0.3927
 6083SOL    HW129708   4.522   0.589   6.324 -0.6530  1.2830 -0.8691
 6083SOL    HW229709   4.391   0.517   6.329  0.1625 -0.9629 -0.6179
 6084SOL     OW29710   4.546   3.845  14.888  0.8045 -0.0096 -0.1808
 6084SOL    HW129711   4.500   3.792  14.822  2.0926  0.0457 -1.1156
 6084SOL    HW229712   4.635   3.812  14.892  0.0062 -2.1891 -0.1274
 6085SOL     OW29713   2.853   3.230  16.918  0.0768  0.6706  0.3401
 6085SOL    HW129714   2.799   3.243  16.997 -0.7457  1.1941 -0.2968
 6085SOL    HW229715   2.801   3.162  16.875  2.5540 -0.6730 -0.4982
 6086SOL     OW29716   3.184   2.698   0.448  0.2574 -0.1408  0.1890
 6086SOL    HW129717   3.110   2.641   0.430  1.5173 -1.4206 -0.9470
 6086SOL    HW229718   3.224   2.689   0.362 -0.0423  1.5760 -0.1306
 6087SOL     OW29719   3.143   2.915   8.091  0.1534  0.4520 -0.0272
 6087SOL    HW129720   3.195   2.927   8.011  0.0903 -0.1159 -0.1536
 6087SOL    HW229721   3.209   2.941   8.155 -0.1526 -0.9303  0.8479
 6088SOL     OW29722   3.128   2.900  14.837 -0.1904 -0.5772 -0.0285
 6088SOL    HW129723   3.053   2.954  14.812 -0.1940  0.4893  2.1979
 6088SOL    HW229724   3.139   2.848  14.758 -1.2622 -0.6504 -0.1279
 6089SOL     OW29725   0.828   2.746   3.852  0.1504  0.0746 -0.8547
 6089SOL    HW129726   0.762   2.802   3.810 -0.4100 -0.5886 -0.8493
 6089SOL    HW229727   0.816   2.663   3.806  3.1829 -2.2254  2.5314
 6090SOL     OW29728   3.456   4.396  16.329  0.2202  0.3944  0.6775
 6090SOL    HW129729   3.497   4.430  16.409  0.6884  0.5561  0.3725
 6090SOL    HW229730   3.499   4.310  16.328 -0.1402  0.1985  2.1209
 6091SOL     OW29731   2.185   4.279   4.792 -0.3384 -0.0338  0.1235
 6091SOL    HW129732   2.129   4.356   4.800  1.4278  1.4740 -1.7769
 6091SOL    HW229733   2.112   4.226   4.762  0.1548  0.3636 -1.7739
 6092SOL     OW29734   3.094   4.531  10.934 -0.0280  0.0314 -0.1759
 6092SOL    HW129735   3.051   4.537  11.019  2.5728  1.3380  1.0572
 6092SOL    HW229736   3.185   4.555  10.955 -0.3460  0.9206  0.2019
 6093SOL     OW29737   0.376   3.848   1.869 -0.0914  0.1573  0.1460
 6093SOL    HW129738   0.289   3.855   1.829 -0.9114 -0.7910  1.7464
 6093SOL    HW229739   0.344   3.831   1.958 -0.7443  1.0293  0.0826
 6094SOL     OW29740   2.359   4.018  11.611  0.1482 -0.7170 -0.4729
 6094SOL    HW129741   2.352   4.006  11.706 -2.1508  0.6445 -0.4708
 6094SOL    HW229742   2.383   3.933  11.576 -4.4267 -2.9707  1.8862
 6095SOL     OW29743   3.892   2.386   3.771  0.3570 -0.0500  0.1979
 6095SOL    HW129744   3.878   2.304   3.725 -0.6679 -0.6021  1.4662
 6095SOL    HW229745   3.867   2.452   3.707  1.5294  1.0686  0.8889
 6096SOL     OW29746   3.629   0.973  15.723 -0.4788 -0.1848 -0.0018
 6096SOL    HW129747   3.610   1.008  15.636  0.7068 -2.9380 -1.3511
 6096SOL    HW229748   3.690   0.903  15.702 -0.6664  0.1843 -1.7764
 6097SOL     OW29749   1.527   0.832   2.605  0.1409 -0.2077 -0.2281
 6097SOL    HW129750   1.503   0.778   2.681  0.6979  0.3274  0.3332
 6097SOL    HW229751   1.444   0.815   2.562 -0.8155  1.3435  1.0394
 6098SOL     OW29752   4.346   2.995  15.554  0.5460 -0.2193 -0.0098
 6098SOL    HW129753   4.357   3.054  15.479  0.5017  1.6361  1.4359
 6098SOL    HW229754   4.367   3.046  15.632  2.1250  3.3819 -2.7917
 6099SOL     OW29755   0.127   4.293   8.124 -0.8740  0.2549 -0.0794
 6099SOL    HW129756   0.148   4.242   8.203 -0.9496 -0.7962 -0.7292
 6099SOL    HW229757   0.103   4.219   8.067 -0.4816 -0.3399  0.5177
 6100SOL     OW29758   2.727   1.951   4.586  0.1396 -0.3736 -0.2017
 6100SOL    HW129759   2.690   1.909   4.664 -1.4296  1.8055  0.2360
 6100SOL    HW229760   2.741   2.040   4.620  1.3116 -0.6416 -0.0049
 6101SOL     OW29761   1.287   1.240   1.926  0.1968 -0.2176  0.6688
 6101SOL    HW129762   1.302   1.244   1.832  0.0216  2.3349  0.7400
 6101SOL    HW229763   1.233   1.318   1.940  2.6073  1.5327  0.2648
 6102SOL     OW29764   3.773   4.288   6.619 -0.0370  0.4627  0.4783
 6102SOL    HW129765   3.851   4.253   6.575 -0.3633  1.4172 -0.8815
 6102SOL    HW229766   3.713   4.254   6.553  0.2005 -0.0302  0.5153
 6103SOL     OW29767   2.451   3.509   1.283  0.1474  0.4468 -0.6151
 6103SOL    HW129768   2.537   3.480   1.252  0.8864  1.6518  0.3342
 6103SOL    HW229769   2.399   3.429   1.278  0.8444 -0.0090 -0.4131
 6104SOL     OW29770   0.034   0.041   2.491 -0.0835  0.1532 -0.7731
 6104SOL    HW129771   0.097   0.057   2.561 -2.2729  1.9506  0.7587
 6104SOL    HW229772   4.704   0.120   2.492 -2.5204 -1.5049  0.6376
 6105SOL     OW29773   4.254   0.367  15.479  0.3228  0.1533  0.0954
 6105SOL    HW129774   4.294   0.454  15.482  0.4200  0.1564 -1.5126
 6105SOL    HW229775   4.322   0.322  15.530 -2.2637 -1.6744  1.9792
 6106SOL     OW29776   3.607   4.295   2.582  0.0226  0.0822 -0.1918
 6106SOL    HW129777   3.536   4.345   2.540 -0.0180 -0.7308 -1.0915
 6106SOL    HW229778   3.565   4.211   2.597 -0.2701  0.2815  0.0928
 6107SOL     OW29779   2.906   3.530   5.584  0.4755  0.3470 -0.4257
 6107SOL    HW129780   2.817   3.532   5.551 -0.0211 -1.4259  0.7559
 6107SOL    HW229781   2.952   3.581   5.517 -1.9348 -0.0593 -2.3773
 6108SOL     OW29782   2.031   4.076  10.592 -0.3952 -0.2956  0.0417
 6108SOL    HW129783   2.021   4.026  10.673 -1.2295  0.7824  0.6026
 6108SOL    HW229784   1.940   4.080  10.563 -0.2376  4.2118  0.0799
 6109SOL     OW29785   4.226   2.362  14.486 -0.1276  0.4422 -0.6689
 6109SOL    HW129786   4.228   2.442  14.538  1.1694 -0.8485  1.2651
 6109SOL    HW229787   4.145   2.325  14.522  1.0174 -0.2486  1.2105
 6110SOL     OW29788   2.366   3.455  13.310  0.9071  0.0196 -0.7992
 6110SOL    HW129789   2.329   3.513  13.243 -0.9620  0.7627  0.9000
 6110SOL    HW229790   2.354   3.511  13.386  3.7442 -0.2814 -0.1331
 6111SOL     OW29791   2.312   3.795   7.133 -0.5107 -0.1837  0.2743
 6111SOL    HW129792   2.399   3.756   7.136  0.3152  1.6506  0.4975
 6111SOL    HW229793   2.301   3.807   7.038 -0.9647 -1.2381  0.2009
 6112SOL     OW29794   2.586   2.505   2.725  0.1946 -0.4583 -0.6981
 6112SOL    HW129795   2.646   2.564   2.771 -0.8318  1.9092 -2.4345
 6112SOL    HW229796   2.548   2.560   2.657  0.0329  0.2410 -0.0381
 6113SOL     OW29797   3.984   4.189   6.491  0.0404  0.1892  0.0576
 6113SOL    HW129798   4.016   4.150   6.572  1.1151 -0.9963 -0.9346
 6113SOL    HW229799   4.034   4.142   6.425  0.1820  0.9541 -0.3861
 6114SOL     OW29800   2.747   2.069   5.694  0.4678  0.1977  0.0818
 6114SOL    HW129801   2.708   2.052   5.608 -1.7913 -0.6410  1.2755
 6114SOL    HW229802   2.713   2.156   5.713 -2.0633 -0.7441 -0.0994
 6115SOL     OW29803   2.952   1.357   7.167  0.6126 -0.3745 -0.1735
 6115SOL    HW129804   2.869   1.310   7.174 -0.0730  0.7801 -0.5140
 6115SOL    HW229805   3.007   1.292   7.210  0.9830 -0.1292 -0.2825
 6116SOL     OW29806   4.188   3.146   7.934  0.1756 -0.0195  0.4691
 6116SOL    HW129807   4.101   3.125   7.899 -0.3484  1.1300  1.1013
 6116SOL    HW229808   4.165   3.122   8.024  0.9201 -0.1902  0.6199
 6117SOL     OW29809   1.152   3.636   2.811  0.0806  0.5371  0.7251
 6117SOL    HW129810   1.085   3.587   2.764  1.3455 -0.6323  0.1295
 6117SOL    HW229811   1.181   3.569   2.873 -0.8904  0.6642  1.3091
 6118SOL     OW29812   0.454   3.341  16.138  0.0585 -0.6493 -0.3138
 6118SOL    HW129813   0.425   3.348  16.229  1.5944  2.3600 -0.0578
 6118SOL    HW229814   0.513   3.415  16.124 -0.2685 -0.2415  0.4868
 6119SOL     OW29815   0.952   3.733   3.710 -0.2731  0.3399 -0.0017
 6119SOL    HW129816   0.895   3.808   3.727  0.9952  1.0407  1.2308
 6119SOL    HW229817   0.892   3.676   3.663 -1.6920  2.2582 -0.5252
 6120SOL     OW29818   0.264   0.728  10.521 -0.5245 -0.3303 -0.8171
 6120SOL    HW129819   0.290   0.819  10.537  1.6105 -1.5022  2.3233
 6120SOL    HW229820   0.204   0.720  10.595 -0.3879 -0.2874 -0.7026
 6121SOL     OW29821   2.938   1.055   1.999  0.1354  0.5168  0.7920
 6121SOL    HW129822   2.899   1.131   1.954  0.2999  0.6329  0.8467
 6121SOL    HW229823   2.889   0.986   1.953  0.8433 -0.6543  1.8011
 6122SOL     OW29824   3.652   4.044   0.397 -0.7378  0.2384  0.1506
 6122SOL    HW129825   3.714   3.972   0.382 -1.9648 -1.0030  1.0864
 6122SOL    HW229826   3.576   3.987   0.404 -0.8590  0.5350  1.1833
 6123SOL     OW29827   2.323   0.755   5.327  0.3571 -0.3131 -0.1567
 6123SOL    HW129828   2.308   0.760   5.233 -0.8681 -0.9055 -0.0070
 6123SOL    HW229829   2.357   0.842   5.347  1.3362 -0.9186  0.8654
 6124SOL     OW29830   3.226   4.533   0.573  0.2163 -0.0014  0.3990
 6124SOL    HW129831   3.162   4.565   0.636  1.5881  4.2575 -0.4016
 6124SOL    HW229832   3.306   4.524   0.625 -0.5527  0.0400  1.6000
 6125SOL     OW29833   4.239   2.498   2.291  0.1598  0.3183  0.0222
 6125SOL    HW129834   4.144   2.503   2.289  0.1277  0.1666  1.3018
 6125SOL    HW229835   4.267   2.541   2.210  3.0001 -0.3240  0.6596
 6126SOL     OW29836   4.397   2.463   6.070 -0.2815 -0.1519  1.1553
 6126SOL    HW129837   4.365   2.395   6.010 -1.3163 -0.6920  2.3152
 6126SOL    HW229838   4.472   2.490   6.018 -2.5172 -1.5323 -2.8252
 6127SOL     OW29839   2.822   1.248   4.041  0.3972 -0.0005  0.5791
 6127SOL    HW129840   2.740   1.287   4.072 -0.5520  0.4084 -2.5142
 6127SOL    HW229841   2.799   1.202   3.961 -0.7257  2.3160 -0.4097
 6128SOL     OW29842   3.601   2.282  14.805  0.5467  0.1804 -0.2743
 6128SOL    HW129843   3.682   2.234  14.819  2.2446  2.9450 -0.5758
 6128SOL    HW229844   3.536   2.231  14.853 -0.3736  0.3442 -1.3478
 6129SOL     OW29845   3.123   4.244   7.047  0.1825  0.1727 -0.0194
 6129SOL    HW129846   3.137   4.154   7.076  0.7132 -0.1537 -1.2814
 6129SOL    HW229847   3.194   4.246   6.983  1.6896 -2.2507  1.6054
 6130SOL     OW29848   2.945   0.196   6.215 -0.4317  0.0578  0.7492
 6130SOL    HW129849   2.964   0.262   6.281  0.5865  0.7095 -0.2042
 6130SOL    HW229850   2.851   0.210   6.209 -0.5660 -0.2319  2.1072
 6131SOL     OW29851   1.374   1.226  14.634  0.0661 -0.3421  0.0522
 6131SOL    HW129852   1.336   1.313  14.651 -1.4238 -1.3383  1.8909
 6131SOL    HW229853   1.468   1.237  14.622  0.2091 -2.1469 -0.4386
 6132SOL     OW29854   3.623   1.616   7.685  0.4377 -0.8658 -0.1954
 6132SOL    HW129855   3.713   1.649   7.683 -0.5033  1.7358  0.3837
 6132SOL    HW229856   3.636   1.542   7.745  1.1144 -1.3349 -0.9194
 6133SOL     OW29857   1.832   3.160   8.815  0.1569 -0.4278  0.2641
 6133SOL    HW129858   1.891   3.108   8.761  0.7982  1.0421 -0.4246
 6133SOL    HW229859   1.752   3.106   8.820 -1.6145  2.1548 -0.0622
 6134SOL     OW29860   1.981   3.126   1.903  0.7877  0.8936  0.3038
 6134SOL    HW129861   2.011   3.074   1.828  2.9155 -0.2280  1.9024
 6134SOL    HW229862   2.018   3.213   1.885  0.2985  0.8994 -0.6427
 6135SOL     OW29863   3.021   1.406   4.160 -0.4314 -0.6236  0.1577
 6135SOL    HW129864   3.071   1.446   4.089 -1.5521 -0.5230 -0.5745
 6135SOL    HW229865   2.959   1.358   4.106 -0.8415  0.0564  0.0176
 6136SOL     OW29866   1.985   2.126   5.434 -0.1029  0.7238  0.5662
 6136SOL    HW129867   2.080   2.111   5.436 -0.0214  1.3792  1.2967
 6136SOL    HW229868   1.945   2.043   5.407  0.7868  0.3533  0.3952
 6137SOL     OW29869   3.228   0.235   3.356 -0.1116 -0.6273 -0.0497
 6137SOL    HW129870   3.214   0.297   3.427  0.8862 -1.2563  0.7041
 6137SOL    HW229871   3.212   0.148   3.394 -1.6966 -0.1986  0.2252
 6138SOL     OW29872   4.072   4.093   9.346 -0.8224 -0.0740 -0.2898
 6138SOL    HW129873   4.121   4.162   9.390 -1.8549 -1.3151  2.8595
 6138SOL    HW229874   4.040   4.131   9.264 -3.2668 -1.5425 -0.0292
 6139SOL     OW29875   0.305   0.604   7.284 -0.1298 -0.5794  0.3786
 6139SOL    HW129876   0.229   0.589   7.228  1.6881 -0.5886 -2.0945
 6139SOL    HW229877   0.371   0.563   7.227 -0.1881 -0.3902  0.1744
 6140SOL     OW29878   3.185   2.322   7.718  0.0414 -0.1938 -0.0406
 6140SOL    HW129879   3.172   2.312   7.812 -2.1874  0.2991 -0.2961
 6140SOL    HW229880   3.096   2.333   7.684  0.4003 -2.1248 -1.5959
 6141SOL     OW29881   1.495   0.499   1.450  0.9004 -0.2550  0.1861
 6141SOL    HW129882   1.514   0.470   1.360  0.2501 -0.2515  0.0441
 6141SOL    HW229883   1.400   0.484   1.455  1.2383 -3.1729 -2.3383
 6142SOL     OW29884   1.943   3.722   5.119 -0.3809 -0.3686  1.1081
 6142SOL    HW129885   1.911   3.748   5.205 -0.6651 -3.1439  1.8271
 6142SOL    HW229886   1.892   3.770   5.054  0.4107 -0.5295  0.3805
 6143SOL     OW29887   3.370   3.453  12.398 -0.1741  0.1443  0.0907
 6143SOL    HW129888   3.275   3.448  12.390 -0.1190  1.3360 -1.3349
 6143SOL    HW229889   3.382   3.489  12.486  1.9550  0.6824 -0.4286
 6144SOL     OW29890   2.982   0.632   3.915 -0.0055 -0.0772 -0.1458
 6144SOL    HW129891   2.913   0.615   3.850 -1.3445  0.4703  1.1248
 6144SOL    HW229892   2.979   0.727   3.898  1.1666  0.0279  0.2380
 6145SOL     OW29893   1.143   1.285   5.749 -0.8230 -0.4997 -0.0818
 6145SOL    HW129894   1.107   1.339   5.819  0.8181 -2.7801  2.4764
 6145SOL    HW229895   1.223   1.333   5.728  1.0263 -3.6252 -0.1442
 6146SOL     OW29896   2.622   3.355   8.475  0.0531 -0.0605  0.1112
 6146SOL    HW129897   2.565   3.387   8.546  2.4560 -0.1533  2.0872
 6146SOL    HW229898   2.580   3.411   8.409 -0.4751  1.4836  1.7505
 6147SOL     OW29899   3.951   0.569  13.522 -0.1415  0.3865 -0.3314
 6147SOL    HW129900   3.924   0.585  13.613  0.3550  3.6925 -0.7716
 6147SOL    HW229901   3.870   0.586  13.474  1.3176  2.3174 -2.0463
 6148SOL     OW29902   1.107   0.207  14.940  0.5790  0.0349  0.1260
 6148SOL    HW129903   1.029   0.261  14.925 -0.0930 -0.5515  1.4674
 6148SOL    HW229904   1.067   0.120  14.936  1.1671 -0.1062 -2.4619
 6149SOL     OW29905   4.214   4.470  16.898  0.3040 -0.1181 -0.5693
 6149SOL    HW129906   4.198   4.475  16.992 -0.0975 -1.0484 -0.5896
 6149SOL    HW229907   4.309   4.457  16.901  0.3750  0.4196 -0.5458
 6150SOL     OW29908   3.129   1.794   1.215  0.0667  0.2740 -0.2686
 6150SOL    HW129909   3.086   1.727   1.268 -0.3473  2.3393  2.0350
 6150SOL    HW229910   3.108   1.776   1.124  1.8343 -2.5269 -0.0997
 6151SOL     OW29911   3.782   4.356   3.410 -0.8076  0.0051 -0.3585
 6151SOL    HW129912   3.822   4.434   3.448  0.9159  0.3672 -2.8890
 6151SOL    HW229913   3.822   4.283   3.457  1.1996  2.3919  1.5932
 6152SOL     OW29914   0.172   0.574   5.564 -0.5253 -0.1275 -0.0663
 6152SOL    HW129915   0.207   0.504   5.619  0.1191  0.8535  0.7721
 6152SOL    HW229916   0.238   0.573   5.495 -0.0240  0.8214  0.4024
 6153SOL     OW29917   4.403   1.223   7.682  0.4016 -0.4242 -0.1907
 6153SOL    HW129918   4.327   1.263   7.639  0.5615 -0.5736 -0.6215
 6153SOL    HW229919   4.446   1.307   7.699  1.7674 -0.5154 -3.1007
 6154SOL     OW29920   2.560   3.737  15.302 -0.1327 -0.2112  0.1387
 6154SOL    HW129921   2.648   3.759  15.270  0.8398 -2.0383  1.5481
 6154SOL    HW229922   2.516   3.682  15.237  1.6823  1.4153 -2.4686
 6155SOL     OW29923   3.292   1.821  16.096  0.1971 -0.5167  0.1573
 6155SOL    HW129924   3.372   1.853  16.055 -0.8002 -0.8912 -2.0743
 6155SOL    HW229925   3.235   1.895  16.114 -0.7498 -1.0106 -0.8347
 6156SOL     OW29926   0.260   2.808   0.628 -0.1665  0.4334 -0.1756
 6156SOL    HW129927   0.208   2.798   0.549  0.2543 -2.1266 -0.1475
 6156SOL    HW229928   0.302   2.893   0.618  0.4698 -0.1042 -2.1534
 6157SOL     OW29929   4.322   0.928   2.031  0.4164 -0.0075 -0.1675
 6157SOL    HW129930   4.248   0.988   2.022  1.3519  1.6510  3.3105
 6157SOL    HW229931   4.304   0.851   1.978  1.6657 -0.4734  0.0925
 6158SOL     OW29932   0.675   3.474   8.628  0.0778 -0.2992  0.1361
 6158SOL    HW129933   0.760   3.449   8.665  1.7018 -0.2692 -3.5085
 6158SOL    HW229934   0.617   3.409   8.668  2.3688 -1.6067  1.3433
 6159SOL     OW29935   3.825   1.119   0.536 -0.3830  0.1676 -0.4895
 6159SOL    HW129936   3.797   1.197   0.489  1.6947  2.0597  1.4448
 6159SOL    HW229937   3.776   1.053   0.487 -0.2447  0.8531 -1.5612
 6160SOL     OW29938   0.094   0.442  10.418  0.4598 -1.0347 -0.1988
 6160SOL    HW129939   0.182   0.465  10.449  0.1118  0.9511 -0.6542
 6160SOL    HW229940   0.083   0.519  10.362 -0.2215 -0.1992  1.0888
 6161SOL     OW29941   1.088   0.924   2.673 -0.0172 -0.1158 -0.8156
 6161SOL    HW129942   1.029   0.996   2.651  0.7087  1.0215  1.0277
 6161SOL    HW229943   1.118   0.957   2.757  2.2989 -1.4697 -1.1186
 6162SOL     OW29944   4.031   1.132   3.001  0.0716  0.1971  0.0161
 6162SOL    HW129945   3.958   1.077   2.972  0.2965 -0.2301  0.2613
 6162SOL    HW229946   4.102   1.068   2.995  0.3120  0.3143  1.4648
 6163SOL     OW29947   1.967   0.766   3.317 -0.3717  0.1178  0.1470
 6163SOL    HW129948   2.016   0.685   3.305 -0.7085 -0.0494 -0.1009
 6163SOL    HW229949   1.993   0.819   3.242  1.3079 -1.6386 -0.4985
 6164SOL     OW29950   3.639   4.408   9.136  0.7027  0.2071 -0.5168
 6164SOL    HW129951   3.688   4.327   9.122 -0.8232 -0.4443 -2.0833
 6164SOL    HW229952   3.696   4.448   9.202  0.2128 -1.2636  0.7950
 6165SOL     OW29953   2.964   2.184   5.998 -0.1096  0.2075 -0.2649
 6165SOL    HW129954   2.880   2.154   6.032  0.7275 -1.0911  0.6663
 6165SOL    HW229955   2.929   2.264   5.958  4.2365  1.1733 -2.1018
 6166SOL     OW29956   2.017   1.560   3.573  0.5721 -0.5780 -0.0818
 6166SOL    HW129957   1.967   1.611   3.509  0.4818  0.5606  0.8760
 6166SOL    HW229958   1.955   1.556   3.646 -1.5626  2.2446 -1.7409
 6167SOL     OW29959   2.145   1.813   5.836 -0.0642 -1.2433  0.0863
 6167SOL    HW129960   2.198   1.746   5.793 -0.0099 -1.4625  0.4959
 6167SOL    HW229961   2.153   1.786   5.927  0.5385 -1.5793 -0.0687
 6168SOL     OW29962   0.994   0.961   9.103  0.1907  0.0495 -0.0575
 6168SOL    HW129963   1.063   0.909   9.062  0.9601 -0.1391  1.4807
 6168SOL    HW229964   1.021   1.052   9.093  2.4334 -0.5480  0.5278
 6169SOL     OW29965   4.587   2.826   5.529  0.4914 -0.0081  0.2613
 6169SOL    HW129966   4.508   2.838   5.582  1.2794  2.3631  0.8843
 6169SOL    HW229967   4.637   2.899   5.567 -3.2752  2.6211  0.1141
 6170SOL     OW29968   2.292   0.420  17.551  0.3570  0.9041  0.1086
 6170SOL    HW129969   2.227   0.463  17.497 -0.0762 -0.0009 -0.0932
 6170SOL    HW229970   2.240   0.347  17.584  0.0652  0.9548 -0.2403
 6171SOL     OW29971   1.286   1.540  11.579 -0.5303 -0.6900  0.4626
 6171SOL    HW129972   1.195   1.522  11.553 -0.0314  0.3989 -2.0392
 6171SOL    HW229973   1.333   1.519  11.498 -2.4219 -3.0541 -0.0185
 6172SOL     OW29974   1.974   2.692   4.058 -0.2298  0.0606  0.5175
 6172SOL    HW129975   2.033   2.627   4.097  0.7448 -0.2597 -1.4674
 6172SOL    HW229976   2.035   2.763   4.039  0.1053 -0.0066  1.3527
 6173SOL     OW29977   2.855   3.731   5.772  0.5134 -0.4423 -0.2661
 6173SOL    HW129978   2.797   3.655   5.764  0.3500 -0.3331 -0.1216
 6173SOL    HW229979   2.926   3.697   5.718  0.4081 -0.0959 -0.6241
 6174SOL     OW29980   0.011   1.516   6.036 -0.0630 -0.2662  0.4199
 6174SOL    HW129981   0.031   1.453   6.105  0.8921  1.3408  1.5874
 6174SOL    HW229982   0.039   1.600   6.072 -3.2460 -0.0618  2.4138
 6175SOL     OW29983   1.943   0.460  16.746 -0.4163 -0.1384 -0.6170
 6175SOL    HW129984   1.953   0.397  16.675  0.5605 -0.9071  0.1989
 6175SOL    HW229985   2.008   0.433  16.811  0.3327 -1.1037 -1.7850
 6176SOL     OW29986   0.080   1.784  15.268  0.1418  0.2504 -0.2548
 6176SOL    HW129987   0.145   1.853  15.251  0.9185 -0.2420  0.6792
 6176SOL    HW229988   0.124   1.718  15.215 -0.2449  0.9194 -1.3891
 6177SOL     OW29989   1.936   2.342   9.348 -0.6184  0.0357  0.3394
 6177SOL    HW129990   1.956   2.435   9.345 -1.8482  0.2841 -0.5629
 6177SOL    HW229991   1.981   2.311   9.269  0.4643  0.4095  0.8204
 6178SOL     OW29992   2.614   4.587  16.780  0.7706 -0.3971  0.1551
 6178SOL    HW129993   2.690   4.563  16.833 -0.0805 -0.1183  1.4943
 6178SOL    HW229994   2.655   4.585  16.693  2.1456 -0.2147  0.8095
 6179SOL     OW29995   3.156   1.628   4.746 -0.8269 -0.0872 -0.5132
 6179SOL    HW129996   3.176   1.605   4.655 -1.0311  1.0584 -0.8524
 6179SOL    HW229997   3.063   1.605   4.755  0.2381 -3.8060  1.2018
 6180SOL     OW29998   1.770   0.778   6.827  0.3209  0.4634 -0.0208
 6180SOL    HW129999   1.847   0.821   6.866  0.7948 -1.8922  1.6132
 6180SOL    HW230000   1.817   0.715   6.772  1.3116  0.7547  0.4881
 6181SOL     OW30001   0.511   0.351   2.447 -0.2847 -0.6679 -0.1392
 6181SOL    HW130002   0.581   0.416   2.435 -1.4918  1.1512  2.7523
 6181SOL    HW230003   0.550   0.264   2.450  1.7459  0.2836  1.3729
 6182SOL     OW30004   3.037   3.707  11.179 -0.2051  1.0159  0.4860
 6182SOL    HW130005   2.995   3.638  11.231  0.3121  2.5509  2.9451
 6182SOL    HW230006   2.965   3.769  11.186 -0.3884  0.7515  0.9342
 6183SOL     OW30007   1.936   0.105   4.488 -0.7172  0.6436  0.2488
 6183SOL    HW130008   2.009   0.166   4.476 -0.1396 -0.0046  0.4697
 6183SOL    HW230009   1.879   0.130   4.415  1.6483 -0.9064 -2.1402
 6184SOL     OW30010   0.184   4.391   7.383 -0.6924  0.0141 -0.5175
 6184SOL    HW130011   0.162   4.483   7.370 -1.8698 -0.3077 -0.8085
 6184SOL    HW230012   0.278   4.395   7.401 -0.9903  1.7347  0.6437
 6185SOL     OW30013   2.179   4.431   2.660  0.7863  0.1998 -0.2963
 6185SOL    HW130014   2.097   4.418   2.709  1.2362 -0.4052  0.3001
 6185SOL    HW230015   2.154   4.507   2.607 -2.4210 -0.5947  0.0578
 6186SOL     OW30016   4.445   2.588  10.274 -0.8816 -0.1686  0.6621
 6186SOL    HW130017   4.472   2.550  10.358  0.4725 -1.8911 -0.5354
 6186SOL    HW230018   4.362   2.543  10.260 -1.3420  0.4848  1.3646
 6187SOL     OW30019   0.834   3.090   5.311  0.1740  0.0934 -0.6466
 6187SOL    HW130020   0.805   3.168   5.265  2.9630  0.2281 -2.1662
 6187SOL    HW230021   0.801   3.015   5.261  1.5689  0.1808 -1.6989
 6188SOL     OW30022   3.663   2.329   0.480  0.4274 -0.0211 -0.1599
 6188SOL    HW130023   3.628   2.241   0.495  1.2030 -0.6371 -2.0075
 6188SOL    HW230024   3.684   2.329   0.387  2.9501 -1.7630  0.4058
 6189SOL     OW30025   2.176   4.618  14.893  0.0227 -0.5138 -0.0911
 6189SOL    HW130026   2.129   4.701  14.906  0.1764 -0.2405 -1.2926
 6189SOL    HW230027   2.232   4.607  14.970  0.2054  0.6186 -0.0599
 6190SOL     OW30028   3.317   0.437  12.393 -0.2026  0.1753 -0.5329
 6190SOL    HW130029   3.324   0.486  12.311  1.2694  2.6664  1.0762
 6190SOL    HW230030   3.313   0.510  12.455 -1.5670  0.6183 -1.1579
 6191SOL     OW30031   3.196   2.213  16.673  0.3449  0.5018  0.5584
 6191SOL    HW130032   3.234   2.131  16.642  1.0759  0.3770  1.7592
 6191SOL    HW230033   3.232   2.220  16.762 -3.1692  0.9208  1.9681
 6192SOL     OW30034   1.726   1.781   4.705 -0.1329 -0.1586  0.2511
 6192SOL    HW130035   1.815   1.813   4.721  0.1136 -0.6826 -0.0874
 6192SOL    HW230036   1.699   1.842   4.636 -2.9647 -0.5674  1.0320
 6193SOL     OW30037   2.523   1.000   5.028 -0.0476 -0.3440 -0.0849
 6193SOL    HW130038   2.613   1.004   5.061  0.1887  0.9865 -0.9240
 6193SOL    HW230039   2.503   1.094   5.023 -0.2194 -0.6346 -4.7545
 6194SOL     OW30040   3.136   3.223  10.483  0.2544  0.4847  0.0817
 6194SOL    HW130041   3.181   3.194  10.404 -0.2565  2.2965 -0.8850
 6194SOL    HW230042   3.205   3.216  10.549 -0.6428  0.5293  1.0093
 6195SOL     OW30043   2.942   0.059   9.324  0.0432 -0.0792  0.6046
 6195SOL    HW130044   2.944   4.695   9.283  2.0189 -0.2461  1.0306
 6195SOL    HW230045   3.038   0.063   9.325  0.1789 -2.4965 -0.5973
 6196SOL     OW30046   4.458   4.179   4.283 -0.0960 -0.4495  0.0135
 6196SOL    HW130047   4.418   4.094   4.302 -0.4306 -0.3874 -0.4401
 6196SOL    HW230048   4.414   4.196   4.200 -0.1091  1.8132  0.4989
 6197SOL     OW30049   2.074   3.543   2.980  0.0275  0.2805  0.8541
 6197SOL    HW130050   1.988   3.542   2.937 -1.0692 -2.5622  3.0949
 6197SOL    HW230051   2.109   3.458   2.950  1.3015  1.2342 -0.3463
 6198SOL     OW30052   0.776   2.636   6.332 -0.6692  0.0998  0.0025
 6198SOL    HW130053   0.859   2.594   6.356 -2.0059 -3.0935 -0.9988
 6198SOL    HW230054   0.812   2.692   6.264  1.8028 -0.7929  0.5901
 6199SOL     OW30055   2.777   4.566   0.915 -0.6018 -0.5028  0.0507
 6199SOL    HW130056   2.845   4.591   0.978  0.2718  0.2181 -1.1675
 6199SOL    HW230057   2.720   4.642   0.904  1.2525  0.7865 -0.7102
 6200SOL     OW30058   0.525   0.487   1.127  0.8922  0.2386 -0.1152
 6200SOL    HW130059   0.613   0.488   1.165  0.4107 -0.2951  1.0036
 6200SOL    HW230060   0.545   0.492   1.033  0.9431 -1.3058 -0.1929
 6201SOL     OW30061   0.240   3.070   0.853 -0.0918 -0.3318  0.5186
 6201SOL    HW130062   0.293   3.066   0.774 -0.7122  1.7787 -0.0001
 6201SOL    HW230063   0.204   3.158   0.842 -0.4077 -0.7919 -2.0258
 6202SOL     OW30064   3.723   2.659   4.037  0.0581 -0.3360  0.2604
 6202SOL    HW130065   3.675   2.577   4.026  2.2059 -1.4608 -0.6789
 6202SOL    HW230066   3.749   2.688   3.950 -1.7254  2.1678  0.5390
 6203SOL     OW30067   1.034   0.678   4.649  0.1417  0.0080  0.3969
 6203SOL    HW130068   1.065   0.738   4.582 -2.6077  0.9573 -0.0129
 6203SOL    HW230069   1.013   0.602   4.594  0.0650 -0.2504  0.7811
 6204SOL     OW30070   0.772   0.764  14.181 -0.0884  0.3864  0.3268
 6204SOL    HW130071   0.737   0.677  14.166  0.4177  0.3219 -0.4300
 6204SOL    HW230072   0.863   0.739  14.162 -1.0666 -3.8140  1.2523
 6205SOL     OW30073   2.360   3.845   3.614  0.0856  0.1034  0.2843
 6205SOL    HW130074   2.350   3.876   3.524 -0.6141 -1.5341 -0.2040
 6205SOL    HW230075   2.452   3.820   3.618  0.0145 -0.3239 -0.6525
 6206SOL     OW30076   3.819   2.396  10.410  0.3843  0.5312 -0.4120
 6206SOL    HW130077   3.895   2.340  10.428 -1.4228 -1.4153  1.1139
 6206SOL    HW230078   3.787   2.392  10.500  0.6425  1.9764 -0.2622
 6207SOL     OW30079   0.025   0.304   6.478  0.0069 -0.3876 -0.0580
 6207SOL    HW130080   0.093   0.321   6.413 -2.0858  0.4540 -2.0565
 6207SOL    HW230081   0.017   0.216   6.440 -0.3396  0.1646 -1.2951
 6208SOL     OW30082   3.117   2.000   4.708 -0.1339  0.0468  0.1633
 6208SOL    HW130083   3.040   2.033   4.754 -0.0682  0.2912  0.0976
 6208SOL    HW230084   3.088   1.925   4.655 -1.8625  0.9180 -0.1131
 6209SOL     OW30085   3.786   4.210   7.663 -0.3085  0.3579  0.0759
 6209SOL    HW130086   3.779   4.204   7.568 -0.4114 -0.3596  0.1278
 6209SOL    HW230087   3.773   4.303   7.679  2.9219  0.8547 -0.2461
 6210SOL     OW30088   2.254   0.875   7.442 -0.2919 -0.5448  0.0042
 6210SOL    HW130089   2.322   0.873   7.374 -0.1119  1.1692  0.1519
 6210SOL    HW230090   2.285   0.832   7.522 -0.9459  1.3870  1.2831
 6211SOL     OW30091   4.062   1.235   6.977 -0.1187 -0.5274  0.1961
 6211SOL    HW130092   4.050   1.313   6.922 -1.1584 -1.0134 -0.2730
 6211SOL    HW230093   4.138   1.197   6.935 -1.0868 -1.2418 -0.9047
 6212SOL     OW30094   0.295   3.921  10.626  0.0053  0.0742  0.3199
 6212SOL    HW130095   0.316   3.829  10.637  1.3704  0.0683 -2.6080
 6212SOL    HW230096   0.299   3.949  10.535  0.1120  1.1386  0.6525
 6213SOL     OW30097   3.861   1.712  11.753  0.2420  0.0477 -0.3293
 6213SOL    HW130098   3.832   1.644  11.814 -0.3047 -0.2830 -0.9549
 6213SOL    HW230099   3.875   1.659  11.674 -1.3509 -2.6819  1.2208
 6214SOL     OW30100   3.753   2.874   9.513 -0.9178  0.3251  0.2825
 6214SOL    HW130101   3.842   2.909   9.513 -1.2160  1.0871  1.6177
 6214SOL    HW230102   3.764   2.780   9.530 -1.9488  0.2071  0.3020
 6215SOL     OW30103   0.963   3.622   3.969 -0.1699 -0.4836 -0.0205
 6215SOL    HW130104   0.971   3.699   4.025 -0.0601 -1.0585  0.7390
 6215SOL    HW230105   0.992   3.651   3.882  0.6781  2.7534  1.3441
 6216SOL     OW30106   1.326   1.694  12.055  0.5369  0.4505  0.1953
 6216SOL    HW130107   1.269   1.676  11.980 -1.7261  1.5349  1.6656
 6216SOL    HW230108   1.392   1.744  12.007 -0.7051  0.3209 -1.6390
 6217SOL     OW30109   0.840   0.999   5.987  0.1270  0.0218 -0.1834
 6217SOL    HW130110   0.801   1.062   6.048 -0.2752  0.0545 -0.4769
 6217SOL    HW230111   0.764   0.944   5.966 -0.6837  0.6871  1.0006
 6218SOL     OW30112   1.955   0.752   2.598  0.0247 -0.2062 -0.0330
 6218SOL    HW130113   1.883   0.692   2.619  0.5517 -0.0950  1.9993
 6218SOL    HW230114   1.916   0.809   2.531  0.8517  1.1135  0.6212
 6219SOL     OW30115   0.808   3.192  14.785 -0.9523  0.0344  0.0033
 6219SOL    HW130116   0.768   3.170  14.869  0.2747  3.3869  1.4811
 6219SOL    HW230117   0.743   3.146  14.732  1.5430 -0.0787 -2.9541
 6220SOL     OW30118   3.547   4.179   8.375  0.2456 -0.2597 -0.0336
 6220SOL    HW130119   3.607   4.207   8.444  0.7095 -1.3957  0.0175
 6220SOL    HW230120   3.601   4.172   8.296 -0.3799  2.1535 -0.6698
 6221SOL     OW30121   2.911   3.767   6.667 -0.1936  0.6603 -0.6499
 6221SOL    HW130122   2.999   3.781   6.631  1.1801 -2.2404  1.5710
 6221SOL    HW230123   2.885   3.853   6.701  1.6604 -0.2170  2.9625
 6222SOL     OW30124   0.103   0.705  10.728  0.3501 -0.6722  0.2331
 6222SOL    HW130125   0.112   0.739  10.817 -1.2860  0.5389 -0.0696
 6222SOL    HW230126   0.129   0.613  10.735  2.0753  0.0345  3.0623
 6223SOL     OW30127   1.562   2.937   7.966  0.2656 -0.9713 -0.1113
 6223SOL    HW130128   1.517   2.954   7.883 -0.9732 -1.8269  0.3998
 6223SOL    HW230129   1.625   2.871   7.938 -0.2181 -1.2026 -0.6393
 6224SOL     OW30130   2.897   2.911   4.461  0.4372 -0.2303  0.1192
 6224SOL    HW130131   2.892   2.886   4.369  0.5747 -1.0957  0.3439
 6224SOL    HW230132   2.970   2.973   4.469  0.6704 -0.3452 -1.0354
 6225SOL     OW30133   3.931   3.411   2.660  0.0486 -0.3833  0.1492
 6225SOL    HW130134   3.940   3.459   2.742  2.2067  1.1772 -0.9885
 6225SOL    HW230135   4.017   3.377   2.634  0.2789  0.9999 -0.9166
 6226SOL     OW30136   3.868   0.323   8.276 -0.1710 -0.4733 -0.0560
 6226SOL    HW130137   3.935   0.339   8.342 -1.4975 -0.1815  1.2116
 6226SOL    HW230138   3.804   0.271   8.322 -0.4293 -2.1245 -2.2745
 6227SOL     OW30139   1.184   1.599   8.146  0.4641 -0.3551 -0.5822
 6227SOL    HW130140   1.268   1.636   8.172 -0.3620  1.3893 -0.3522
 6227SOL    HW230141   1.186   1.607   8.051 -0.1493  1.0780 -0.4774
 6228SOL     OW30142   4.722   1.693  10.431 -0.1759  0.1813  0.4899
 6228SOL    HW130143   4.626   1.698  10.430 -0.0588  2.5233 -0.0955
 6228SOL    HW230144   0.019   1.708  10.339 -0.0227  0.3444  0.5494
 6229SOL     OW30145   2.401   1.978   4.955 -0.3358 -0.3317 -0.1877
 6229SOL    HW130146   2.314   1.979   4.913  0.6858 -0.2771 -2.2959
 6229SOL    HW230147   2.411   2.072   4.941  0.0905 -0.5961 -1.6273
 6230SOL     OW30148   2.165   3.523   5.124  0.5404  0.4551  0.3352
 6230SOL    HW130149   2.150   3.491   5.214 -0.4538 -0.9028 -0.3090
 6230SOL    HW230150   2.084   3.569   5.104 -0.0181 -1.7213 -2.3626
 6231SOL     OW30151   1.300   1.785   7.563 -0.2011 -0.1465  0.3758
 6231SOL    HW130152   1.329   1.758   7.476  4.2391 -0.7333  2.0505
 6231SOL    HW230153   1.374   1.839   7.592  1.3197 -1.3318 -1.3159
 6232SOL     OW30154   0.513   0.596  12.912 -0.7966  0.3600  0.1574
 6232SOL    HW130155   0.437   0.586  12.970  0.3823 -1.9234  1.3348
 6232SOL    HW230156   0.497   0.530  12.845  2.9576 -0.8598  0.4783
 6233SOL     OW30157   2.797   2.366  11.266  0.3978 -0.3382  0.1674
 6233SOL    HW130158   2.826   2.450  11.303  0.0421 -1.2467  2.4844
 6233SOL    HW230159   2.884   2.336  11.238  1.0906  1.5231  0.3169
 6234SOL     OW30160   1.814   2.588   1.841 -0.9040 -0.4297 -0.3287
 6234SOL    HW130161   1.811   2.494   1.824 -0.0863 -0.6606  0.8290
 6234SOL    HW230162   1.780   2.587   1.930  0.4826 -0.7720  0.2011
 6235SOL     OW30163   4.465   0.369  11.269  0.2528  0.2073 -0.3943
 6235SOL    HW130164   4.419   0.349  11.188 -0.4714  0.7436 -0.1071
 6235SOL    HW230165   4.396   0.376  11.335  1.5575  3.1186  0.6546
 6236SOL     OW30166   0.667   1.314   0.472 -0.1310  0.3329  0.1275
 6236SOL    HW130167   0.726   1.376   0.515 -0.0785  0.5393 -0.2413
 6236SOL    HW230168   0.643   1.250   0.539  0.9944 -0.4622 -0.2106
 6237SOL     OW30169   2.794   2.045   8.219  0.9879  0.6811  0.3069
 6237SOL    HW130170   2.880   2.006   8.237  0.7280  0.0448  0.1362
 6237SOL    HW230171   2.779   2.023   8.128 -0.6146  3.7687 -0.1622
 6238SOL     OW30172   0.508   3.922   3.759 -0.4436  0.5772 -0.0169
 6238SOL    HW130173   0.486   4.014   3.742 -0.7935  0.2314 -1.4368
 6238SOL    HW230174   0.416   3.897   3.769 -0.3601  1.1892  2.3161
 6239SOL     OW30175   1.366   1.778  14.923  0.5805 -0.3831 -0.6345
 6239SOL    HW130176   1.448   1.741  14.954  0.4309 -1.0809 -1.0590
 6239SOL    HW230177   1.404   1.861  14.897 -1.0998  0.3570 -0.7226
 6240SOL     OW30178   3.907   0.942   4.105 -0.4192 -0.1064 -0.4628
 6240SOL    HW130179   3.865   1.021   4.070  1.1979  0.7369 -0.4932
 6240SOL    HW230180   4.001   0.956   4.098 -0.3605 -0.6978 -0.8264
 6241SOL     OW30181   2.070   3.592  11.204  0.3666  0.4071 -0.0415
 6241SOL    HW130182   1.979   3.565  11.214  0.0066  0.9447 -1.8477
 6241SOL    HW230183   2.116   3.528  11.259  0.7464  2.5500  2.1226
 6242SOL     OW30184   3.600   3.906  10.037 -0.3491  0.3301  0.0346
 6242SOL    HW130185   3.599   3.827   9.983  1.1154 -0.1711  0.7510
 6242SOL    HW230186   3.694   3.916  10.050 -0.1875 -1.7384  0.3141
 6243SOL     OW30187   0.501   0.311   6.763  0.1365 -0.1993 -1.0782
 6243SOL    HW130188   0.444   0.273   6.695 -1.9737  2.9528 -1.0902
 6243SOL    HW230189   0.494   0.248   6.835 -0.5131 -0.0168 -0.9812
 6244SOL     OW30190   2.509   1.309   4.455 -0.1570  0.7170 -0.6345
 6244SOL    HW130191   2.418   1.305   4.425 -0.1023 -0.5834 -0.6534
 6244SOL    HW230192   2.525   1.219   4.485  1.0891  0.8705 -0.8394
 6245SOL     OW30193   2.902   1.348   2.636  0.3141  0.7393  0.3325
 6245SOL    HW130194   2.966   1.300   2.583 -1.8210  0.0532 -1.6068
 6245SOL    HW230195   2.823   1.341   2.582  1.5527  0.1964 -1.4070
 6246SOL     OW30196   2.208   2.506  10.862 -0.2270  0.6240  0.3838
 6246SOL    HW130197   2.212   2.468  10.949  1.9004 -0.5695 -0.2360
 6246SOL    HW230198   2.143   2.444  10.830 -0.3677  0.8547  0.2183
 6247SOL     OW30199   2.809   2.810   6.672  0.2205 -0.3328  0.1113
 6247SOL    HW130200   2.733   2.754   6.686 -0.5105 -0.0131 -2.5783
 6247SOL    HW230201   2.820   2.805   6.577  0.3085 -1.8188  0.2049
 6248SOL     OW30202   0.132   2.801  13.683  0.7656  0.5816  0.0614
 6248SOL    HW130203   0.167   2.729  13.736 -1.0348 -0.9857 -0.8993
 6248SOL    HW230204   0.046   2.767  13.657  0.7962  0.3556  0.2635
 6249SOL     OW30205   3.351   3.812   2.647  0.3094 -0.3313 -0.1078
 6249SOL    HW130206   3.375   3.784   2.736  1.1140  3.3805  0.8375
 6249SOL    HW230207   3.257   3.819   2.664 -0.1618 -1.9896 -2.0084
 6250SOL     OW30208   4.604   2.933   7.167 -0.2640  0.2488  0.8793
 6250SOL    HW130209   4.664   3.001   7.199 -0.7220 -0.7569  3.8803
 6250SOL    HW230210   4.532   2.986   7.201  1.7716  3.1324  0.6995
 6251SOL     OW30211   2.729   1.369   8.911 -0.6683 -0.0746 -0.2418
 6251SOL    HW130212   2.804   1.341   8.965 -0.3337  2.9041  0.8209
 6251SOL    HW230213   2.658   1.321   8.954 -1.7897  0.7117 -1.2292
 6252SOL     OW30214   3.189   1.230  15.842  0.3639  0.0580  0.3575
 6252SOL    HW130215   3.198   1.240  15.747  3.3732 -0.2876  0.6274
 6252SOL    HW230216   3.106   1.277  15.855  0.4561  0.4262 -0.3887
 6253SOL     OW30217   3.365   4.110  13.322  0.6253 -0.2322 -0.1945
 6253SOL    HW130218   3.377   4.046  13.251 -0.7422 -0.5437 -0.1456
 6253SOL    HW230219   3.280   4.084  13.357  1.6136 -0.2979  2.1571
 6254SOL     OW30220   3.835   1.909   5.536  0.2705 -0.2313 -0.5519
 6254SOL    HW130221   3.852   1.816   5.519  0.8356 -0.6908  2.6607
 6254SOL    HW230222   3.760   1.920   5.478 -0.6757 -0.6461  0.5886
 6255SOL     OW30223   2.227   4.219   5.068  0.0586  0.0560 -0.0333
 6255SOL    HW130224   2.195   4.130   5.056 -1.7623  0.9279 -1.6602
 6255SOL    HW230225   2.238   4.236   4.975 -0.2049 -0.7352 -0.2139
 6256SOL     OW30226   3.942   1.951   6.832 -0.0972 -0.4206 -0.4181
 6256SOL    HW130227   3.968   2.042   6.844  0.5679 -0.7083  0.3443
 6256SOL    HW230228   3.847   1.948   6.837 -0.0520 -1.3207 -0.0501
 6257SOL     OW30229   3.473   1.031   1.601 -0.0562  0.2442 -0.2409
 6257SOL    HW130230   3.557   1.070   1.625  0.7625 -1.7274  0.1243
 6257SOL    HW230231   3.410   1.055   1.669  1.3782  1.0316  0.8038
 6258SOL     OW30232   1.802   3.111   9.825 -0.2403 -0.1196  0.1798
 6258SOL    HW130233   1.839   3.080   9.742 -0.0852  0.4857  0.0290
 6258SOL    HW230234   1.771   3.197   9.796  3.2595  2.1224  3.1103
 6259SOL     OW30235   3.505   3.104   4.899 -0.1332 -0.2693 -0.5802
 6259SOL    HW130236   3.595   3.137   4.897  0.0599 -0.5695  2.3787
 6259SOL    HW230237   3.479   3.137   4.813  0.1642  2.0812  0.2280
 6260SOL     OW30238   3.989   1.656  14.258  0.4591  0.0362  0.2521
 6260SOL    HW130239   4.081   1.642  14.235  0.7607 -1.3759  2.2673
 6260SOL    HW230240   3.952   1.588  14.202 -1.0037  1.7312 -0.8253
 6261SOL     OW30241   1.591   1.332   6.702  0.7288  0.0695  0.3220
 6261SOL    HW130242   1.589   1.342   6.607  0.3143  2.5248  0.6052
 6261SOL    HW230243   1.680   1.365   6.711  0.6405  0.3466  0.1677
 6262SOL     OW30244   2.663   2.862  15.291 -0.4238  0.0035 -0.1747
 6262SOL    HW130245   2.753   2.836  15.309 -1.3221 -2.8895  0.0438
 6262SOL    HW230246   2.624   2.830  15.372  0.4614 -0.7858 -0.0653
 6263SOL     OW30247   2.392   1.753   3.368  0.1528  0.1341  0.1480
 6263SOL    HW130248   2.341   1.804   3.431  0.5653  1.0555 -0.2671
 6263SOL    HW230249   2.324   1.733   3.304 -1.3421 -0.9130  2.0513
 6264SOL     OW30250   0.762   1.991   8.515 -0.2909 -0.4813 -0.5014
 6264SOL    HW130251   0.748   1.912   8.462  1.4624 -1.2713  0.2092
 6264SOL    HW230252   0.796   2.063   8.461 -0.8184 -0.5085 -0.8745
 6265SOL     OW30253   2.149   4.270   2.439 -0.1283 -0.2997  0.2286
 6265SOL    HW130254   2.155   4.317   2.522  2.1493 -2.4676  1.2965
 6265SOL    HW230255   2.077   4.318   2.400 -0.4010 -0.5609  0.4126
 6266SOL     OW30256   3.470   3.690   2.872 -0.1108  0.5671 -0.3884
 6266SOL    HW130257   3.546   3.678   2.929  0.3230  0.9761 -0.8847
 6266SOL    HW230258   3.429   3.604   2.884  2.0847 -0.9081 -3.6295
 6267SOL     OW30259   0.335   1.123   6.106 -0.2699 -0.0362 -0.0591
 6267SOL    HW130260   0.365   1.214   6.103  0.0534 -0.1050  0.9582
 6267SOL    HW230261   0.379   1.071   6.174  0.1133  0.3904  0.0224
 6268SOL     OW30262   0.432   2.360   3.048 -0.6480 -0.4430  0.4888
 6268SOL    HW130263   0.411   2.270   3.025  1.2152 -0.2544 -1.9280
 6268SOL    HW230264   0.480   2.338   3.128 -0.7380 -0.6997  0.4711
 6269SOL     OW30265   3.058   4.497   8.153  0.4768 -0.8681 -0.1714
 6269SOL    HW130266   3.081   4.449   8.233 -0.8194 -0.9492  0.1569
 6269SOL    HW230267   3.128   4.475   8.092  0.5614 -1.1816  0.0400
 6270SOL     OW30268   3.297   2.603  12.387  0.1065  0.0139 -0.6649
 6270SOL    HW130269   3.269   2.512  12.399  3.2426 -0.9559 -0.8037
 6270SOL    HW230270   3.235   2.646  12.446  0.5367  0.8871 -0.8372
 6271SOL     OW30271   3.509   2.119   3.876 -0.0196 -0.0220 -0.0048
 6271SOL    HW130272   3.555   2.135   3.794  0.5185 -0.8946  0.1211
 6271SOL    HW230273   3.575   2.148   3.939 -2.4965  1.7996  1.7627
 6272SOL     OW30274   2.957   0.264  11.945 -0.1344 -0.3276  0.5334
 6272SOL    HW130275   2.887   0.223  11.995 -2.1753  3.0989  0.5153
 6272SOL    HW230276   2.990   0.330  12.006 -1.4712  0.9562 -0.1133
 6273SOL     OW30277   1.536   3.424   4.585 -0.3755  0.0362  0.0001
 6273SOL    HW130278   1.619   3.404   4.628 -1.2658  1.2285  2.2769
 6273SOL    HW230279   1.514   3.339   4.546 -0.6424 -0.5789  1.5226
 6274SOL     OW30280   1.184   1.348   8.483  0.1979 -0.3281 -0.1361
 6274SOL    HW130281   1.181   1.265   8.530 -1.0312 -0.4299 -0.3773
 6274SOL    HW230282   1.125   1.402   8.536 -0.1744 -0.3047 -0.5707
 6275SOL     OW30283   1.708   4.131   6.537  0.1451 -0.3427  0.0041
 6275SOL    HW130284   1.696   4.221   6.508 -0.8999 -0.6878 -0.6467
 6275SOL    HW230285   1.753   4.142   6.620  1.5558 -1.3995 -0.6078
 6276SOL     OW30286   1.417   0.366  15.528 -0.0507 -0.6126  0.6934
 6276SOL    HW130287   1.354   0.313  15.480 -1.2695  2.9749 -1.5816
 6276SOL    HW230288   1.366   0.445  15.545  0.5831 -0.1343  0.3651
 6277SOL     OW30289   4.021   2.934   9.434 -0.4080  0.0233 -0.1584
 6277SOL    HW130290   4.025   2.839   9.446 -3.1878  0.0120  0.7470
 6277SOL    HW230291   4.114   2.942   9.411 -0.7805 -2.0809 -2.3495
 6278SOL     OW30292   4.351   2.549   4.269  0.7038  0.1146 -0.0726
 6278SOL    HW130293   4.441   2.523   4.249  0.7248  0.1667 -0.0467
 6278SOL    HW230294   4.319   2.549   4.179  0.7120  1.5723 -0.0757
 6279SOL     OW30295   1.361   1.590   8.454 -0.0035  0.1173  0.6039
 6279SOL    HW130296   1.371   1.612   8.547  0.3771 -1.6017  0.9691
 6279SOL    HW230297   1.393   1.502   8.472 -2.1426 -0.5992  0.8592
 6280SOL     OW30298   3.434   3.105   5.520 -0.5962 -0.0121  0.2873
 6280SOL    HW130299   3.355   3.149   5.486 -0.2498 -0.9618 -1.7328
 6280SOL    HW230300   3.409   3.019   5.553 -0.8364 -0.4587 -1.0565
 6281SOL     OW30301   0.761   2.823   2.867  0.4202  0.2020  0.1356
 6281SOL    HW130302   0.733   2.895   2.923 -0.2079  0.3897 -0.4214
 6281SOL    HW230303   0.687   2.821   2.805  1.3817 -1.5539 -0.9433
 6282SOL     OW30304   4.244   4.235  12.204  0.0248 -0.0238  0.2793
 6282SOL    HW130305   4.286   4.166  12.254  1.4230  1.4747  1.1592
 6282SOL    HW230306   4.164   4.242  12.257  1.0965  0.6090  1.8072
 6283SOL     OW30307   0.329   0.229   3.556  0.4170 -0.8207 -0.4118
 6283SOL    HW130308   0.267   0.157   3.550  0.8869 -1.3100  0.5479
 6283SOL    HW230309   0.372   0.201   3.637 -1.0575 -1.6301  0.0953
 6284SOL     OW30310   2.552   2.030   5.519 -0.2626 -0.5904  0.3630
 6284SOL    HW130311   2.461   2.061   5.529 -0.8812 -1.4034 -2.8163
 6284SOL    HW230312   2.535   1.970   5.447  1.0748  1.8978 -2.0051
 6285SOL     OW30313   3.277   3.154   7.457  0.2575 -0.2432  0.1368
 6285SOL    HW130314   3.338   3.224   7.434  0.4309 -0.0098  1.3570
 6285SOL    HW230315   3.195   3.202   7.468  0.9509  0.9215  0.1511
 6286SOL     OW30316   0.656   4.029   7.020 -0.0479 -0.1066 -0.0458
 6286SOL    HW130317   0.673   4.006   6.929  5.0532 -0.8624  1.0949
 6286SOL    HW230318   0.741   4.013   7.061 -0.7009 -2.0864  0.5491
 6287SOL     OW30319   1.651   4.130  10.877  0.2259  0.7436  0.1258
 6287SOL    HW130320   1.562   4.130  10.910  0.8336  2.4042  1.7603
 6287SOL    HW230321   1.685   4.220  10.877 -0.6743  1.0916 -0.6451
 6288SOL     OW30322   4.290   4.527   4.676  0.2150 -0.2873  0.5699
 6288SOL    HW130323   4.374   4.481   4.681 -0.7493 -2.0632  0.2148
 6288SOL    HW230324   4.285   4.527   4.581 -1.5405  0.4068  0.6562
 6289SOL     OW30325   1.507   2.532  14.848 -0.6128 -0.1876  0.1203
 6289SOL    HW130326   1.430   2.585  14.869 -0.5429 -0.2083  0.4304
 6289SOL    HW230327   1.533   2.578  14.769 -1.8634 -1.1296 -0.8549
 6290SOL     OW30328   0.735   3.902   7.747 -0.2022 -0.1146  0.3909
 6290SOL    HW130329   0.689   3.907   7.831 -0.5779  0.7191  0.1395
 6290SOL    HW230330   0.789   3.823   7.750  0.4875  0.3284 -0.3045
 6291SOL     OW30331   4.057   3.499   6.077  0.5764 -0.5448 -0.1879
 6291SOL    HW130332   4.146   3.527   6.059  0.6884 -0.4403  0.5417
 6291SOL    HW230333   4.044   3.421   6.024  1.1969 -0.0931 -0.9977
 6292SOL     OW30334   3.974   2.050   7.178  0.3557  0.1662  0.5437
 6292SOL    HW130335   4.031   2.070   7.252 -0.1920  1.3487  0.6398
 6292SOL    HW230336   4.028   2.082   7.106  1.0771 -0.7232  0.6839
 6293SOL     OW30337   3.030   2.415   4.179 -0.3701  0.2378 -0.0100
 6293SOL    HW130338   3.008   2.505   4.204 -3.1340 -0.5094  0.2595
 6293SOL    HW230339   3.097   2.400   4.246 -0.0229  0.0003 -0.4139
 6294SOL     OW30340   0.675   1.478  11.933  0.1238 -0.1215  0.1866
 6294SOL    HW130341   0.710   1.567  11.945  0.3680 -0.3321  1.0608
 6294SOL    HW230342   0.597   1.502  11.883  1.2595  0.9849 -1.0519
 6295SOL     OW30343   0.810   4.536   4.728  0.3958  0.0772  0.0506
 6295SOL    HW130344   0.831   4.444   4.741 -0.2115  0.0610  0.8981
 6295SOL    HW230345   0.880   4.576   4.677 -0.3889  0.9792 -0.3277
 6296SOL     OW30346   1.839   3.253   1.547  0.3006 -0.3328  0.4700
 6296SOL    HW130347   1.928   3.224   1.566  0.4310 -1.1870 -1.4042
 6296SOL    HW230348   1.853   3.346   1.526  0.7513 -0.3090  0.8638
 6297SOL     OW30349   4.689   4.328   5.944 -0.6153  0.2449 -0.2141
 6297SOL    HW130350   4.670   4.253   5.887 -1.4015  0.0609  0.2844
 6297SOL    HW230351   0.043   4.361   5.900 -0.1605  0.3857  0.6782
 6298SOL     OW30352   3.833   3.019   5.180 -0.5782 -0.8508 -0.0168
 6298SOL    HW130353   3.749   3.063   5.194  0.0090  0.0884  0.5534
 6298SOL    HW230354   3.795   2.937   5.148  0.6992 -0.1945 -3.1226
 6299SOL     OW30355   4.581   3.729   7.347  0.4302  0.0456 -0.0311
 6299SOL    HW130356   4.640   3.718   7.421  0.1768  0.4278  0.2289
 6299SOL    HW230357   4.616   3.802   7.297  0.1736 -1.0629 -1.8333
 6300SOL     OW30358   2.773   1.130  13.303  0.0227  0.3808  0.0711
 6300SOL    HW130359   2.813   1.044  13.286 -1.7425 -0.7354  1.5227
 6300SOL    HW230360   2.688   1.103  13.337  0.8452 -0.1041  1.7600
 6301SOL     OW30361   2.535   3.760   2.298  0.0129  0.1792 -0.1079
 6301SOL    HW130362   2.446   3.794   2.287  0.1362  0.0781 -1.3425
 6301SOL    HW230363   2.575   3.770   2.212 -0.7844  0.2498 -0.4676
 6302SOL     OW30364   2.015   4.375   6.014 -0.0506  0.0645 -0.0569
 6302SOL    HW130365   2.080   4.349   6.080  0.8774 -0.0628 -1.0177
 6302SOL    HW230366   2.057   4.455   5.984 -2.3437  0.1628 -3.0618
 6303SOL     OW30367   0.150   1.239  13.520 -0.4878  0.0235  0.2368
 6303SOL    HW130368   0.200   1.166  13.558 -0.0985  1.3279  2.2760
 6303SOL    HW230369   0.149   1.307  13.588  1.4563  1.0554 -0.7876
 6304SOL     OW30370   2.697   4.466   8.221  0.1601 -0.2957 -0.2976
 6304SOL    HW130371   2.688   4.537   8.285  1.1800 -0.9808  0.5995
 6304SOL    HW230372   2.778   4.441   8.266  0.5671  2.1883  0.3765
 6305SOL     OW30373   0.990   4.676   7.942  0.2542 -0.5437  0.1373
 6305SOL    HW130374   0.901   4.682   7.978  0.7840  1.5437  1.0453
 6305SOL    HW230375   1.031   0.030   7.980 -1.9681 -1.0367  3.6077
 6306SOL     OW30376   4.407   0.492   6.644  1.0222 -0.9646 -0.2265
 6306SOL    HW130377   4.333   0.525   6.593 -0.6131 -1.6009  1.7450
 6306SOL    HW230378   4.445   0.576   6.672  0.3658 -0.3334 -1.1897
 6307SOL     OW30379   1.529   2.561   9.333 -0.5945 -0.1186  0.1926
 6307SOL    HW130380   1.583   2.489   9.366  1.0618  0.3975 -1.4153
 6307SOL    HW230381   1.504   2.519   9.250  1.3902 -1.1338  0.1105
 6308SOL     OW30382   0.999   0.518   4.960  0.0213  0.0922  0.3628
 6308SOL    HW130383   1.090   0.517   4.931  0.6754  0.4024  2.4342
 6308SOL    HW230384   1.003   0.499   5.053  3.4486  2.4214  0.6823
 6309SOL     OW30385   0.587   4.564   6.026 -0.1890  0.6793 -0.0701
 6309SOL    HW130386   0.615   4.595   5.940  3.3152  1.0013  1.2090
 6309SOL    HW230387   0.552   4.482   5.989 -1.6199  0.3033  2.1354
 6310SOL     OW30388   0.164   0.603   5.191 -0.1061  0.2086  0.0707
 6310SOL    HW130389   0.223   0.662   5.238  0.0393 -0.2757  0.4933
 6310SOL    HW230390   0.223   0.562   5.129 -2.7919 -3.3474 -0.1474
 6311SOL     OW30391   3.944   1.201   9.425  1.0684  0.2004 -0.1678
 6311SOL    HW130392   4.010   1.239   9.367  1.0237 -0.8211 -0.8859
 6311SOL    HW230393   3.964   1.108   9.409  0.2304 -0.1198  0.6711
 6312SOL     OW30394   0.685   2.847   9.185 -0.3485  0.4112  0.4830
 6312SOL    HW130395   0.618   2.787   9.217 -0.1785  0.4322  0.8753
 6312SOL    HW230396   0.753   2.839   9.252  0.8817  3.2106 -0.4198
 6313SOL     OW30397   4.095   3.474   9.914 -0.3104  0.3674  0.5521
 6313SOL    HW130398   4.025   3.414   9.887 -0.1956 -0.1312  1.3506
 6313SOL    HW230399   4.168   3.413   9.915 -0.5538  0.1114  2.4184
 6314SOL     OW30400   1.532   1.826   7.889  0.2674 -0.0191 -0.1914
 6314SOL    HW130401   1.503   1.916   7.882  0.5530  0.4586  4.8352
 6314SOL    HW230402   1.519   1.825   7.984  1.7508  2.1290  0.0252
 6315SOL     OW30403   4.467   0.102   5.501 -0.1224 -0.1328 -0.3846
 6315SOL    HW130404   4.427   0.161   5.437  1.4639 -0.5996 -1.8066
 6315SOL    HW230405   4.550   0.149   5.511  1.4533 -2.7036 -1.4175
 6316SOL     OW30406   2.017   4.233   8.273 -0.1681 -0.4156 -0.1041
 6316SOL    HW130407   2.047   4.153   8.230  0.3798 -0.4403  0.3311
 6316SOL    HW230408   2.093   4.265   8.321 -1.4844  1.4705  0.7094
 6317SOL     OW30409   4.177   4.431   8.606 -0.2823  0.4876 -0.0082
 6317SOL    HW130410   4.149   4.496   8.541 -1.5501  0.6247  0.6814
 6317SOL    HW230411   4.123   4.446   8.684 -0.9841  0.2541 -0.4472
 6318SOL     OW30412   1.222   0.767   0.976 -0.3375  0.1963  0.6027
 6318SOL    HW130413   1.199   0.748   1.067 -0.8952  1.4729  0.7291
 6318SOL    HW230414   1.139   0.780   0.930  0.4238  0.1755 -0.7834
 6319SOL     OW30415   3.850   0.911   2.995 -0.6584  0.8635  0.1405
 6319SOL    HW130416   3.931   0.867   2.970 -1.6036  0.0936 -1.5751
 6319SOL    HW230417   3.782   0.858   2.953 -0.5486 -2.3264  3.9748
 6320SOL     OW30418   3.784   0.232   5.629 -0.0254  0.6501  0.2626
 6320SOL    HW130419   3.778   0.277   5.713  0.2725  0.0407  0.6031
 6320SOL    HW230420   3.713   0.267   5.575  0.4791  0.7793 -0.3184
 6321SOL     OW30421   2.990   0.583   1.166  0.3299 -0.4931 -0.0502
 6321SOL    HW130422   2.941   0.589   1.083 -0.4466 -0.8260  0.3850
 6321SOL    HW230423   3.077   0.619   1.146  0.5016 -0.6101  0.4872
 6322SOL     OW30424   3.675   2.479   2.271 -0.1106 -0.4978 -0.1727
 6322SOL    HW130425   3.722   2.407   2.313 -1.9630 -3.5721 -3.4202
 6322SOL    HW230426   3.608   2.439   2.216 -2.7426  2.1267  1.1138
 6323SOL     OW30427   2.758   1.596   6.657  0.5466  0.1763  0.3321
 6323SOL    HW130428   2.701   1.519   6.649  0.6025  0.4196 -2.6148
 6323SOL    HW230429   2.800   1.585   6.742  2.3287  1.2998 -0.4222
 6324SOL     OW30430   2.471   4.347   9.688 -0.0321  0.7359  0.6404
 6324SOL    HW130431   2.450   4.398   9.766 -1.9436  0.1820  0.4865
 6324SOL    HW230432   2.432   4.261   9.707 -3.6866  2.0833 -0.8332
 6325SOL     OW30433   2.057   3.201   2.398  0.4705  0.3374  0.1681
 6325SOL    HW130434   2.126   3.134   2.398 -1.9099 -2.0986  0.6163
 6325SOL    HW230435   2.077   3.231   2.487 -2.4637 -3.9133  2.2729
 6326SOL     OW30436   3.221   3.081   4.712 -0.1086 -0.1611 -0.1108
 6326SOL    HW130437   3.269   3.007   4.749 -0.2855 -0.4857 -0.5295
 6326SOL    HW230438   3.166   3.111   4.785 -2.1987 -0.1820 -1.6518
 6327SOL     OW30439   1.327   0.232   5.358 -0.5584  0.0870  0.7880
 6327SOL    HW130440   1.295   0.158   5.306  1.5422 -0.1391 -0.1709
 6327SOL    HW230441   1.245   0.282   5.361  0.8518  2.4902 -1.1156
 6328SOL     OW30442   1.006   3.024   4.418 -0.0912  0.2995 -0.4790
 6328SOL    HW130443   1.085   3.052   4.372  0.6001 -2.4711 -0.9430
 6328SOL    HW230444   0.996   3.103   4.472  1.1174 -1.4201  2.2768
 6329SOL     OW30445   3.169   0.602   8.385  0.1656  0.2045 -0.4520
 6329SOL    HW130446   3.264   0.590   8.386  0.3036  1.5072  1.8125
 6329SOL    HW230447   3.149   0.681   8.436 -1.5692 -1.4269  1.4231
 6330SOL     OW30448   0.871   1.569   7.580 -0.0879  0.0153  0.0186
 6330SOL    HW130449   0.896   1.661   7.580  2.8685 -0.7577  0.4983
 6330SOL    HW230450   0.826   1.557   7.663 -0.1988 -2.9898 -0.4555
 6331SOL     OW30451   3.824   0.232  16.596 -0.4775  0.1465  0.0433
 6331SOL    HW130452   3.910   0.260  16.628  0.4698  0.1446 -2.5189
 6331SOL    HW230453   3.800   0.316  16.558  0.3885  0.6720  0.6333
 6332SOL     OW30454   2.525   1.581   3.865  0.0527 -0.3402  0.2429
 6332SOL    HW130455   2.513   1.499   3.816  2.5729 -0.5407 -0.0118
 6332SOL    HW230456   2.619   1.578   3.851 -0.2684  0.5568 -2.1711
 6333SOL     OW30457   2.003   3.607  10.794 -0.1261 -0.5087 -0.0901
 6333SOL    HW130458   1.921   3.615  10.843 -0.0340 -0.1817  0.0093
 6333SOL    HW230459   2.060   3.606  10.870  1.3301 -0.2685 -1.1870
 6334SOL     OW30460   4.722   0.257   8.098  0.5194 -0.6466  0.2163
 6334SOL    HW130461   0.025   0.344   8.070 -1.1628 -0.2690 -0.1544
 6334SOL    HW230462   4.722   0.204   8.018 -2.1728  0.9661 -0.8487
 6335SOL     OW30463   4.255   0.671   4.761  0.2019 -0.0357  0.2236
 6335SOL    HW130464   4.274   0.710   4.846  0.8448  0.8453 -0.3231
 6335SOL    HW230465   4.237   0.581   4.788  0.8525 -0.3924 -0.5631
 6336SOL     OW30466   3.727   0.964   9.369 -0.3099  0.3158 -0.4549
 6336SOL    HW130467   3.664   0.904   9.409 -0.9202  2.2204  1.4395
 6336SOL    HW230468   3.719   1.034   9.433  1.6376  0.0049  0.1515
 6337SOL     OW30469   3.654   0.814   4.664  0.2056 -0.5632  0.2910
 6337SOL    HW130470   3.570   0.768   4.662 -0.0389  0.0041 -2.4025
 6337SOL    HW230471   3.691   0.779   4.745  0.5755  0.2343  0.4679
 6338SOL     OW30472   3.052   1.971   8.263  0.0083  0.1266  0.1400
 6338SOL    HW130473   3.076   1.907   8.330 -0.9647  1.0679  1.3705
 6338SOL    HW230474   3.086   1.923   8.187  0.2719  1.3720 -0.5236
 6339SOL     OW30475   2.285   2.897  16.680  0.6016  0.6189 -0.0351
 6339SOL    HW130476   2.197   2.862  16.670  1.0362 -0.2225 -0.9259
 6339SOL    HW230477   2.338   2.832  16.726 -0.0903  0.9764  1.2758
 6340SOL     OW30478   2.673   4.710  14.442  0.4021  0.4662 -0.3444
 6340SOL    HW130479   2.582   4.706  14.413 -0.4573 -1.8738  2.7460
 6340SOL    HW230480   2.653   0.032  14.524 -0.2080 -0.8516  0.2344
 6341SOL     OW30481   2.630   4.472   4.747  0.3528 -0.1063  0.1637
 6341SOL    HW130482   2.562   4.501   4.686  2.5524  0.7469 -1.9038
 6341SOL    HW230483   2.708   4.513   4.710  2.0415  1.0813  4.9652
 6342SOL     OW30484   0.812   0.763   1.976  0.1016  0.1252  0.1986
 6342SOL    HW130485   0.743   0.707   1.942  0.7533  0.0941 -1.0520
 6342SOL    HW230486   0.855   0.705   2.039  2.2035 -0.9370 -2.2511
 6343SOL     OW30487   0.899   4.344   7.729 -0.0286  0.0262  0.0067
 6343SOL    HW130488   0.857   4.429   7.743 -0.6591 -0.5537  1.6094
 6343SOL    HW230489   0.818   4.294   7.718  0.6977 -1.4264  1.2154
 6344SOL     OW30490   2.232   4.435  15.185  0.4688  0.1578 -0.2877
 6344SOL    HW130491   2.182   4.399  15.111  1.5395 -1.5573 -0.1754
 6344SOL    HW230492   2.251   4.350  15.225  1.5534  0.2767 -0.5490
 6345SOL     OW30493   3.108   1.076   7.533 -0.2893  0.4338 -0.0839
 6345SOL    HW130494   3.060   0.993   7.534 -0.5894  0.6053 -0.2221
 6345SOL    HW230495   3.195   1.044   7.559 -0.5313 -1.0692 -1.1018
 6346SOL     OW30496   1.942   1.995   4.816 -0.2620  0.4081 -0.9418
 6346SOL    HW130497   1.940   2.062   4.885  2.1992  0.1438 -0.6170
 6346SOL    HW230498   1.994   2.046   4.754  1.2290  2.7024  2.1822
 6347SOL     OW30499   2.506   4.039   2.424  0.4085 -0.3425 -0.1544
 6347SOL    HW130500   2.539   3.979   2.491 -1.5765 -1.0525  0.1743
 6347SOL    HW230501   2.500   3.975   2.352  0.0612  0.3188 -0.7186
 6348SOL     OW30502   1.415   2.280   5.604 -0.1222  0.1174 -0.2587
 6348SOL    HW130503   1.466   2.356   5.631 -1.6025  0.6220  1.0567
 6348SOL    HW230504   1.464   2.262   5.523  1.8284  0.6639  0.8212
 6349SOL     OW30505   3.309   0.081   8.225  0.2792 -0.5507  0.7206
 6349SOL    HW130506   3.269   0.138   8.291  0.3214 -0.5347  0.7321
 6349SOL    HW230507   3.293   4.722   8.273  0.4573 -0.0409  1.6524
 6350SOL     OW30508   2.065   1.693   6.960  0.1407  0.2195  0.2875
 6350SOL    HW130509   2.033   1.780   6.938 -1.3170  0.1381  2.0817
 6350SOL    HW230510   2.017   1.633   6.902 -0.3417 -0.6701  1.6012
 6351SOL     OW30511   4.381   1.780   3.601 -0.0145 -0.1726  0.0393
 6351SOL    HW130512   4.461   1.832   3.590  1.0937 -1.7692  0.5944
 6351SOL    HW230513   4.402   1.703   3.549 -0.0294 -0.0439 -0.1563
 6352SOL     OW30514   3.996   0.850   0.185 -0.2398 -0.5156  0.6862
 6352SOL    HW130515   3.976   0.931   0.232 -1.8486 -1.0523  0.9242
 6352SOL    HW230516   4.031   0.797   0.255  0.2379  2.8861  3.0334
 6353SOL     OW30517   3.297   0.548   1.146 -0.5294 -0.1771 -0.2149
 6353SOL    HW130518   3.246   0.502   1.213 -0.1340  0.2496  0.3747
 6353SOL    HW230519   3.282   0.488   1.072  0.2306  0.9652 -1.2911
 6354SOL     OW30520   0.159   2.919   7.654 -0.0389  0.0250  0.2449
 6354SOL    HW130521   0.232   2.977   7.634 -0.3597  0.2247 -0.3511
 6354SOL    HW230522   0.202   2.834   7.645  0.2624  0.3590 -1.5812
 6355SOL     OW30523   0.563   4.559   0.449  0.2661 -0.0009 -0.4654
 6355SOL    HW130524   0.476   4.581   0.481 -0.3581 -0.4179 -1.8848
 6355SOL    HW230525   0.555   4.469   0.416  2.4658 -0.7658  1.0921
 6356SOL     OW30526   2.191   4.345   9.840 -0.2591 -0.1402 -0.0749
 6356SOL    HW130527   2.224   4.266   9.797 -1.2847 -0.7736  0.2922
 6356SOL    HW230528   2.269   4.388   9.874  0.7533 -2.4522  0.5627
 6357SOL     OW30529   3.655   4.041   0.855 -0.3073  0.0348  0.0796
 6357SOL    HW130530   3.601   3.976   0.899  0.8462 -0.7546  0.3434
 6357SOL    HW230531   3.741   4.024   0.895 -0.4200 -0.4590  0.1108
 6358SOL     OW30532   0.493   1.526  11.477  0.1609 -0.3947  0.1090
 6358SOL    HW130533   0.474   1.521  11.571 -4.3615  4.6784 -0.5101
 6358SOL    HW230534   0.527   1.614  11.462 -1.8183  0.4846  0.8886
 6359SOL     OW30535   1.280   2.608   4.347  0.1463 -0.0402  0.7708
 6359SOL    HW130536   1.326   2.685   4.381 -0.1494 -0.0570  1.2003
 6359SOL    HW230537   1.190   2.640   4.349  0.2246  0.2183  0.2059
 6360SOL     OW30538   2.873   2.690   5.409  0.2234  0.5068  0.0152
 6360SOL    HW130539   2.843   2.669   5.320 -2.0964  2.0790  0.4229
 6360SOL    HW230540   2.960   2.721   5.387  1.2150 -0.9842  1.8176
 6361SOL     OW30541   1.989   2.505   8.000  0.3543 -0.6222 -0.0924
 6361SOL    HW130542   2.039   2.454   8.064  0.1883 -0.8401 -0.1357
 6361SOL    HW230543   2.061   2.524   7.939  1.0501 -0.9327  0.6328
 6362SOL     OW30544   2.359   3.940   4.970  0.2694 -0.4282  0.0435
 6362SOL    HW130545   2.272   3.926   5.006  1.0237  0.4031  2.1558
 6362SOL    HW230546   2.389   3.853   4.944  1.6946 -0.0001  0.2479
 6363SOL     OW30547   3.651   1.337   5.419 -0.0873  0.1230  0.2700
 6363SOL    HW130548   3.734   1.318   5.462 -1.2141  0.2726  2.4898
 6363SOL    HW230549   3.651   1.432   5.420  1.6755  0.1665 -3.3612
 6364SOL     OW30550   0.161   0.992   2.355  0.0259 -0.1209  0.2902
 6364SOL    HW130551   0.162   0.901   2.384 -1.4386  0.0111  0.7482
 6364SOL    HW230552   0.126   0.979   2.267 -0.7966  0.3872  0.5446
 6365SOL     OW30553   0.351   1.882   3.863 -0.1573  0.2438  0.3837
 6365SOL    HW130554   0.394   1.962   3.892 -0.3108  1.7356 -3.4101
 6365SOL    HW230555   0.412   1.857   3.793  0.1330 -2.9979  1.7843
 6366SOL     OW30556   1.186   1.679  11.812  0.1974  0.4434  0.1944
 6366SOL    HW130557   1.243   1.650  11.741  1.0038 -0.5488  1.2452
 6366SOL    HW230558   1.163   1.767  11.782 -0.1327 -0.9087 -3.4309
 6367SOL     OW30559   2.345   0.267   6.130  0.3019  0.8572 -0.2206
 6367SOL    HW130560   2.280   0.202   6.155  1.2165  0.3666  0.8855
 6367SOL    HW230561   2.386   0.209   6.066  2.0144  0.5739  1.1144
 6368SOL     OW30562   0.270   1.815   9.007  0.4104 -0.3074 -0.2233
 6368SOL    HW130563   0.335   1.851   8.946 -1.3713  2.6784 -0.3504
 6368SOL    HW230564   0.249   1.899   9.047  1.4032 -0.0957 -0.1513
 6369SOL     OW30565   0.464   1.619   7.936 -0.1224  0.2057 -0.0157
 6369SOL    HW130566   0.369   1.607   7.935  0.1176 -1.8014  0.6787
 6369SOL    HW230567   0.495   1.542   7.983 -0.9150  0.8558  1.5810
 6370SOL     OW30568   0.892   3.235  16.827  0.7072 -0.4557  0.1778
 6370SOL    HW130569   0.890   3.301  16.758 -1.0620  0.0639  0.7314
 6370SOL    HW230570   0.852   3.163  16.779  0.3132 -1.7686  2.5114
 6371SOL     OW30571   2.474   1.564   7.638  0.6292 -0.1489  0.2753
 6371SOL    HW130572   2.420   1.529   7.709 -2.7448 -2.2131 -3.2909
 6371SOL    HW230573   2.551   1.512   7.659 -0.0479 -1.3649 -0.2374
 6372SOL     OW30574   0.820   0.077   8.119 -0.1779 -0.2635  0.4257
 6372SOL    HW130575   0.877   0.078   8.196  1.6084  0.6552 -0.9115
 6372SOL    HW230576   0.762   0.006   8.146  0.4942 -0.5349  1.1649
 6373SOL     OW30577   0.229   1.787   6.422  0.2818 -0.4702 -0.1136
 6373SOL    HW130578   0.304   1.746   6.466 -0.6533 -0.7976  1.1807
 6373SOL    HW230579   0.188   1.714   6.375 -0.3829  0.0898 -0.4009
 6374SOL     OW30580   1.756   3.452  16.639  0.1542 -0.4024 -0.4284
 6374SOL    HW130581   1.799   3.528  16.678 -0.7449  1.2886 -2.6896
 6374SOL    HW230582   1.805   3.386  16.687 -0.6616 -0.8497 -0.2020
 6375SOL     OW30583   4.143   3.981   7.068  0.3778  0.2113 -0.5347
 6375SOL    HW130584   4.170   4.051   7.009  2.5893 -1.1767 -1.1365
 6375SOL    HW230585   4.201   4.003   7.141  1.4271 -3.0790 -0.3719
 6376SOL     OW30586   4.442   3.234   8.685 -0.4209 -0.0690  0.2343
 6376SOL    HW130587   4.418   3.163   8.744  0.1574  0.5341  1.2117
 6376SOL    HW230588   4.406   3.307   8.736  1.6263 -0.2934  2.0363
 6377SOL     OW30589   0.495   0.073  17.221  0.1037 -0.2391 -0.5098
 6377SOL    HW130590   0.531   0.082  17.309 -1.6246 -1.3997  0.3218
 6377SOL    HW230591   0.489   4.700  17.226  0.8297 -0.2238  0.7411
 6378SOL     OW30592   2.792   2.655   8.673 -0.1400  0.3161  0.1538
 6378SOL    HW130593   2.791   2.717   8.746  0.6986  1.5870 -0.9233
 6378SOL    HW230594   2.873   2.609   8.697 -0.1116 -0.5093 -1.4905
 6379SOL     OW30595   0.044   1.345   8.392  0.5190  0.5735 -0.3500
 6379SOL    HW130596   0.030   1.251   8.388 -0.3041  0.6137  1.7668
 6379SOL    HW230597   0.130   1.344   8.433  0.9057 -2.4542 -1.2280
 6380SOL     OW30598   0.074   1.353   7.708 -0.0343 -0.1363  0.1927
 6380SOL    HW130599   4.708   1.343   7.741 -0.0641 -3.2522 -0.8281
 6380SOL    HW230600   0.072   1.364   7.613 -0.4461 -0.0219  0.2184
 6381SOL     OW30601   2.547   4.466   9.249 -0.7315  0.0392 -0.2192
 6381SOL    HW130602   2.542   4.546   9.198  2.0960 -1.0641 -2.2527
 6381SOL    HW230603   2.542   4.498   9.339  0.6869 -2.8177  0.8914
 6382SOL     OW30604   0.843   4.431   1.792  0.1134  0.5118  0.0161
 6382SOL    HW130605   0.880   4.498   1.733 -2.1058 -0.4761 -2.4641
 6382SOL    HW230606   0.784   4.378   1.739 -0.7916  0.7843  0.7639
 6383SOL     OW30607   1.786   1.281  11.792  0.0238 -0.3013  0.1283
 6383SOL    HW130608   1.803   1.328  11.710 -1.7950  1.2505  0.6619
 6383SOL    HW230609   1.698   1.305  11.820 -0.6151 -1.1460 -1.1243
 6384SOL     OW30610   3.194   4.282   1.849  0.2805  0.0951 -0.4233
 6384SOL    HW130611   3.191   4.374   1.821 -0.0795 -0.1450 -1.1688
 6384SOL    HW230612   3.131   4.302   1.919 -0.4722 -0.5388 -0.9232
 6385SOL     OW30613   4.333   1.846   7.630  0.2668  0.0114  0.4861
 6385SOL    HW130614   4.398   1.905   7.593  0.6675  1.1961  3.0722
 6385SOL    HW230615   4.256   1.903   7.633 -1.4498 -2.2301 -0.1399
 6386SOL     OW30616   2.426   2.389  11.132 -0.1482 -0.1390  0.4261
 6386SOL    HW130617   2.414   2.426  11.220  2.5987 -0.7819  1.0809
 6386SOL    HW230618   2.335   2.396  11.105  0.2676  0.2459 -0.8488
 6387SOL     OW30619   2.481   1.336   3.766 -0.2755  0.2172  0.1256
 6387SOL    HW130620   2.558   1.297   3.806 -0.2961 -0.6467 -0.6837
 6387SOL    HW230621   2.495   1.304   3.677 -0.3753  1.2883 -0.2807
 6388SOL     OW30622   1.228   2.040   9.298 -0.9123 -0.0731 -0.0912
 6388SOL    HW130623   1.141   2.032   9.337 -0.6148 -4.4057 -0.3374
 6388SOL    HW230624   1.279   1.972   9.343 -0.8821  0.9834  1.4884
 6389SOL     OW30625   2.583   4.163   7.969  0.2241  0.1423  0.6703
 6389SOL    HW130626   2.543   4.164   8.056 -2.0699 -0.1851 -0.3974
 6389SOL    HW230627   2.662   4.114   7.993 -0.1676 -0.6110  0.3969
 6390SOL     OW30628   2.124   0.121  17.351  0.0587  0.7905 -0.4228
 6390SOL    HW130629   2.139   0.197  17.407  2.0926  0.3902 -0.4115
 6390SOL    HW230630   2.122   0.055  17.420 -1.8736  0.6586 -0.5980
 6391SOL     OW30631   2.053   4.609  17.186 -0.2462 -0.0690  0.3969
 6391SOL    HW130632   1.978   4.644  17.139 -1.3957 -0.8817  1.6047
 6391SOL    HW230633   2.079   4.684  17.239  1.1490  0.1985 -0.6894
 6392SOL     OW30634   0.287   3.653   0.613  0.6374  0.0904 -0.2126
 6392SOL    HW130635   0.195   3.665   0.638  0.1680  1.2670 -2.5258
 6392SOL    HW230636   0.292   3.673   0.519 -1.5809  1.7984  0.0393
 6393SOL     OW30637   2.381   4.553   6.593 -0.4108 -0.6452 -0.2240
 6393SOL    HW130638   2.412   4.637   6.625 -0.9836 -0.5216 -0.0056
 6393SOL    HW230639   2.445   4.493   6.631  0.7856 -0.2577 -1.6043
 6394SOL     OW30640   2.131   1.060   4.213 -0.0961 -0.8022  0.0850
 6394SOL    HW130641   2.110   1.131   4.273  0.9856 -0.2179 -0.2305
 6394SOL    HW230642   2.198   1.108   4.165 -1.3440  0.3168 -0.5169
 6395SOL     OW30643   0.373   1.691   2.674 -0.6770 -0.2126  0.0648
 6395SOL    HW130644   0.431   1.616   2.690 -1.2742 -0.7118 -0.1280
 6395SOL    HW230645   0.405   1.746   2.746 -0.9178 -0.2654  0.2128
 6396SOL     OW30646   1.820   3.870   1.151 -0.0891  0.2652 -0.0164
 6396SOL    HW130647   1.840   3.792   1.100 -2.0964  0.0663 -0.4947
 6396SOL    HW230648   1.773   3.925   1.089  0.5840 -0.5359 -1.2407
 6397SOL     OW30649   1.715   2.284   3.875 -0.1213 -0.3272 -0.0264
 6397SOL    HW130650   1.624   2.306   3.853 -1.0463 -1.8544  2.2613
 6397SOL    HW230651   1.764   2.364   3.859 -2.3290  0.9246 -0.5979
 6398SOL     OW30652   0.909   2.116   4.939 -0.0596 -0.0557  0.4140
 6398SOL    HW130653   0.844   2.122   4.870  1.3093  1.1907 -0.7469
 6398SOL    HW230654   0.901   2.202   4.980 -0.1396 -0.6270  1.6189
 6399SOL     OW30655   1.526   0.790   7.475  0.5300 -0.0943 -0.0498
 6399SOL    HW130656   1.547   0.708   7.429 -3.3100 -0.3744 -1.3604
 6399SOL    HW230657   1.461   0.829   7.417  2.7407  1.4779 -1.4596
 6400SOL     OW30658   2.161   1.242   6.473  0.3720  0.2042  0.6683
 6400SOL    HW130659   2.088   1.243   6.536  0.0606  1.4970  0.2904
 6400SOL    HW230660   2.155   1.155   6.433 -1.2104  1.4292 -1.8071
 6401SOL     OW30661   1.681   1.010   3.610 -0.2125  0.5016  0.3367
 6401SOL    HW130662   1.741   0.983   3.540 -0.5685  3.8210 -1.2577
 6401SOL    HW230663   1.749   1.049   3.665  1.4104  1.3877 -2.3128
 6402SOL     OW30664   1.037   1.895   5.965 -0.2166  0.3752  0.5296
 6402SOL    HW130665   1.062   1.841   5.890 -1.6779 -0.2712  0.5002
 6402SOL    HW230666   1.010   1.975   5.920  1.7199 -0.5573 -2.2815
 6403SOL     OW30667   3.495   0.245  12.704 -0.4023 -0.4407  0.3188
 6403SOL    HW130668   3.426   0.231  12.769 -0.1677 -2.0842  0.2059
 6403SOL    HW230669   3.488   0.170  12.645  0.8391 -0.9422  0.8132
 6404SOL     OW30670   2.937   1.428   7.551  0.3736  0.5930 -1.0002
 6404SOL    HW130671   2.870   1.436   7.483 -1.6255 -1.6219  0.6969
 6404SOL    HW230672   3.015   1.411   7.498  0.9150 -3.1661  0.9830
 6405SOL     OW30673   1.507   1.352  13.633 -0.0532  0.3145  0.6453
 6405SOL    HW130674   1.429   1.374  13.684  1.7926  1.3552  3.0169
 6405SOL    HW230675   1.470   1.297  13.564  1.0669 -1.5679  1.5639
 6406SOL     OW30676   2.806   2.006   6.887 -0.7822  0.0264  0.1091
 6406SOL    HW130677   2.839   1.922   6.918 -0.3428 -0.4926 -1.7820
 6406SOL    HW230678   2.883   2.063   6.884 -3.2808  3.3333 -1.1373
 6407SOL     OW30679   1.973   2.762   5.655 -0.3987  0.4977  0.0150
 6407SOL    HW130680   1.921   2.789   5.579  1.0290  1.9812 -0.4275
 6407SOL    HW230681   1.908   2.760   5.726  1.5305 -1.1397  1.7276
 6408SOL     OW30682   1.932   3.120  11.710  0.1966  0.0298  0.0752
 6408SOL    HW130683   1.951   3.182  11.639 -0.6780  0.2271  0.0171
 6408SOL    HW230684   1.979   3.160  11.783 -1.8424  1.1432  0.7619
 6409SOL     OW30685   1.294   2.119   9.576 -0.1356 -0.4163  0.4051
 6409SOL    HW130686   1.203   2.144   9.589  0.0412  0.7650 -0.6965
 6409SOL    HW230687   1.342   2.193   9.614  0.7206 -0.3873 -0.7325
 6410SOL     OW30688   2.728   3.734   7.529  0.2713 -0.4748 -0.4473
 6410SOL    HW130689   2.672   3.736   7.606 -0.1156  2.4292 -0.7928
 6410SOL    HW230690   2.786   3.809   7.541 -0.7316 -0.0272  1.4902
 6411SOL     OW30691   4.187   1.258   3.352 -0.3229  0.0260 -0.0718
 6411SOL    HW130692   4.243   1.295   3.284  2.0355 -5.1064 -0.8866
 6411SOL    HW230693   4.249   1.218   3.413 -2.0555 -2.3348  0.1304
 6412SOL     OW30694   2.581   0.372   8.903  0.2191  0.2034  0.7215
 6412SOL    HW130695   2.653   0.348   8.960 -1.1205  0.1089  2.3526
 6412SOL    HW230696   2.553   0.284   8.879  2.9503 -0.2984 -0.6700
 6413SOL     OW30697   4.005   0.368  14.654  0.2395  0.1205 -0.4217
 6413SOL    HW130698   3.920   0.374  14.699  0.1936 -1.3301 -0.2924
 6413SOL    HW230699   3.997   0.285  14.607 -4.0350 -0.4561  1.2668
 6414SOL     OW30700   3.914   1.536  11.554  0.3750 -0.0294 -0.5116
 6414SOL    HW130701   3.992   1.512  11.504  1.0066 -0.1551  0.5370
 6414SOL    HW230702   3.872   1.450  11.553 -0.8465  0.5585  0.3692
 6415SOL     OW30703   3.645   2.482   6.718  0.0624  0.1874  0.2688
 6415SOL    HW130704   3.684   2.536   6.650  0.5607 -0.9492 -0.3417
 6415SOL    HW230705   3.717   2.464   6.778 -1.0594 -0.2991  1.4766
 6416SOL     OW30706   1.128   3.483  12.605 -0.4428  0.7449 -0.2374
 6416SOL    HW130707   1.052   3.542  12.606 -2.0142 -1.3136  0.4916
 6416SOL    HW230708   1.110   3.452  12.694 -2.2019  1.5571 -0.2908
 6417SOL     OW30709   0.502   0.452  11.270  0.2283 -0.4980  0.5749
 6417SOL    HW130710   0.527   0.535  11.311 -0.6407  0.3042 -0.5080
 6417SOL    HW230711   0.471   0.399  11.343  0.6240 -1.1619  0.2564
 6418SOL     OW30712   3.763   4.644  15.046 -0.0205 -0.0793  0.0740
 6418SOL    HW130713   3.699   4.691  14.992 -1.0818 -1.6954 -0.0728
 6418SOL    HW230714   3.802   4.713  15.100  1.7773  0.6907 -2.2128
 6419SOL     OW30715   0.307   4.500   3.637  0.0607 -0.2663  0.1670
 6419SOL    HW130716   0.389   4.522   3.592  0.0998 -1.5896 -0.4093
 6419SOL    HW230717   0.295   4.412   3.601 -0.3220  0.1789 -0.7683
 6420SOL     OW30718   0.121   1.141   1.923 -0.3686 -0.3194 -0.4790
 6420SOL    HW130719   0.066   1.083   1.976  0.2481 -0.1456  0.3538
 6420SOL    HW230720   0.077   1.225   1.913  0.9840  0.7664  2.6175
 6421SOL     OW30721   4.017   3.070   8.467  0.1578 -0.5886 -0.0500
 6421SOL    HW130722   4.088   3.007   8.477  0.2235 -0.2299  1.7537
 6421SOL    HW230723   3.943   3.009   8.463  0.6975 -1.3404  1.3342
 6422SOL     OW30724   1.718   1.131  16.416 -0.2511  0.6842 -0.3037
 6422SOL    HW130725   1.775   1.056  16.432  0.6901  1.6187  0.8280
 6422SOL    HW230726   1.733   1.167  16.504 -1.2211 -1.6714  0.8182
 6423SOL     OW30727   4.197   1.818   0.649  0.1431 -0.1086 -0.4673
 6423SOL    HW130728   4.167   1.790   0.562 -1.8787  2.3641 -0.5662
 6423SOL    HW230729   4.116   1.855   0.683 -1.7796 -2.6057 -2.3204
 6424SOL     OW30730   0.338   3.567   5.129 -0.5395  0.3743  0.1412
 6424SOL    HW130731   0.338   3.565   5.034 -1.6861 -3.0034  0.2036
 6424SOL    HW230732   0.244   3.569   5.144 -0.6602 -0.9333 -0.4577
 6425SOL     OW30733   4.043   0.136   5.724  0.1972  0.7901 -0.6648
 6425SOL    HW130734   4.105   0.198   5.762 -1.8263  2.2206  0.2918
 6425SOL    HW230735   3.981   0.185   5.670  0.1828  2.4784  0.8929
 6426SOL     OW30736   3.793   3.897   1.610 -0.3482  0.0205 -0.3929
 6426SOL    HW130737   3.784   3.804   1.592  2.6116 -0.5914  1.1924
 6426SOL    HW230738   3.841   3.889   1.693  0.5650 -0.4177 -0.9674
 6427SOL     OW30739   1.620   2.679   0.166  0.5137  0.2175  0.0456
 6427SOL    HW130740   1.638   2.773   0.162 -0.2721  0.3585 -0.2292
 6427SOL    HW230741   1.705   2.639   0.180  1.2185  1.0708 -1.7563
 6428SOL     OW30742   3.690   0.639   8.526  0.0785  0.0510 -0.6964
 6428SOL    HW130743   3.636   0.565   8.553  0.6974 -0.8045 -1.7992
 6428SOL    HW230744   3.767   0.645   8.583 -0.1865 -2.2891 -0.1073
 6429SOL     OW30745   2.442   3.020   4.486  0.1418 -0.4720  0.2680
 6429SOL    HW130746   2.458   2.944   4.431  0.3627 -0.0568 -0.2469
 6429SOL    HW230747   2.347   3.011   4.498 -0.0980  3.2175  1.3502
 6430SOL     OW30748   4.699   1.894   9.060  0.2637  0.3206  0.4165
 6430SOL    HW130749   0.008   1.805   9.050  0.2424  0.5260 -1.3678
 6430SOL    HW230750   4.665   1.899   9.150 -0.0442  1.1735  0.2523
 6431SOL     OW30751   1.873   0.567   7.012  0.1174  0.0451  0.0275
 6431SOL    HW130752   1.819   0.490   7.000  0.4189 -0.3556  1.1631
 6431SOL    HW230753   1.901   0.596   6.925 -0.8423 -0.0683 -0.3159
 6432SOL     OW30754   2.319   0.281   2.982 -0.1231  0.4459 -0.3587
 6432SOL    HW130755   2.353   0.262   3.069 -1.2718 -0.5254 -0.1126
 6432SOL    HW230756   2.242   0.225   2.969 -1.2438  2.0033 -0.4417
 6433SOL     OW30757   3.867   2.191   8.381  0.4288  0.1281  0.0833
 6433SOL    HW130758   3.953   2.219   8.350 -0.6765  0.9959 -2.2331
 6433SOL    HW230759   3.807   2.236   8.321  0.7811  2.0498  1.1601
 6434SOL     OW30760   0.610   0.184   2.209 -0.0625  0.1153  1.0121
 6434SOL    HW130761   0.605   0.279   2.203  1.1965  0.3247  3.0907
 6434SOL    HW230762   0.694   0.168   2.166 -0.3335 -1.0596  0.9037
 6435SOL     OW30763   3.518   4.203   6.094 -0.3417 -0.1195 -0.2136
 6435SOL    HW130764   3.603   4.246   6.096 -0.9254  1.0964 -1.6134
 6435SOL    HW230765   3.544   4.113   6.075  0.8877  0.5248 -1.5686
 6436SOL     OW30766   4.000   4.683   7.640  0.5157  0.0443 -0.3050
 6436SOL    HW130767   3.959   0.010   7.710 -1.1739  1.6533 -2.4437
 6436SOL    HW230768   4.001   0.015   7.562  0.7149 -0.5282 -0.7125
 6437SOL     OW30769   4.619   0.063   6.883  0.2094 -0.1669 -0.3497
 6437SOL    HW130770   4.615   0.153   6.852  1.2807  0.1176  0.3247
 6437SOL    HW230771   4.552   0.021   6.829 -0.1749 -0.6228  0.4882
 6438SOL     OW30772   0.003   4.287  16.560 -0.1035 -0.0128  0.0310
 6438SOL    HW130773   4.662   4.356  16.543 -1.4542 -1.5030 -0.9379
 6438SOL    HW230774   0.081   4.331  16.526 -0.1504  0.4943  0.5846
 6439SOL     OW30775   2.656   1.155   2.873 -0.4788 -0.2634  0.2980
 6439SOL    HW130776   2.722   1.210   2.914  0.8730 -0.8648 -1.0888
 6439SOL    HW230777   2.673   1.069   2.911  2.5544 -0.0556 -0.6024
 6440SOL     OW30778   2.658   1.342   4.953 -0.5604 -0.5186  0.5671
 6440SOL    HW130779   2.671   1.414   4.892  1.0335 -0.6675  0.7294
 6440SOL    HW230780   2.700   1.268   4.908  1.6001  0.7807  0.4592
 6441SOL     OW30781   0.892   3.714   2.263 -0.3449  0.5865 -0.4908
 6441SOL    HW130782   0.846   3.665   2.195  0.9952 -3.6910  1.6805
 6441SOL    HW230783   0.945   3.774   2.212  0.0049  0.6987  0.0022
 6442SOL     OW30784   0.569   0.271   5.781 -0.0124  0.5022  0.2473
 6442SOL    HW130785   0.654   0.313   5.797  1.0859 -0.9156 -1.7313
 6442SOL    HW230786   0.581   0.230   5.695  1.7681 -0.8359  1.1420
 6443SOL     OW30787   0.163   1.089   4.279  0.0567  0.3026 -0.0910
 6443SOL    HW130788   0.120   1.025   4.223  1.6284  0.8339 -1.9044
 6443SOL    HW230789   0.228   1.033   4.322 -0.8421  1.1316  2.3792
 6444SOL     OW30790   1.036   3.173   6.735 -0.4195 -0.8880 -0.3474
 6444SOL    HW130791   1.067   3.262   6.751 -1.8408 -0.4653  0.0530
 6444SOL    HW230792   0.948   3.196   6.703  1.1223  2.6495 -2.0116
 6445SOL     OW30793   2.123   0.665   6.910 -0.5687 -0.4651 -0.1563
 6445SOL    HW130794   2.206   0.618   6.916 -0.4888 -0.4012 -0.6884
 6445SOL    HW230795   2.096   0.670   7.002 -0.0086 -0.0885 -0.0189
 6446SOL     OW30796   4.391   2.182   7.633 -0.0984  0.0306 -1.0061
 6446SOL    HW130797   4.324   2.227   7.582  1.0894  0.4771 -2.1422
 6446SOL    HW230798   4.350   2.207   7.716 -2.7240 -1.2893 -1.9049
 6447SOL     OW30799   3.523   2.726   7.880 -0.3775 -0.1106  0.3391
 6447SOL    HW130800   3.606   2.742   7.925 -0.8633  0.8649  0.8804
 6447SOL    HW230801   3.549   2.671   7.806 -1.7132 -0.6087  0.2470
 6448SOL     OW30802   3.280   0.710  11.472 -0.7436 -0.0652 -0.0089
 6448SOL    HW130803   3.189   0.739  11.476 -0.2481  1.5793 -0.6466
 6448SOL    HW230804   3.278   0.659  11.390 -0.2706 -0.9123  0.5086
 6449SOL     OW30805   2.104   1.878   5.148 -0.7680  0.3303  0.0664
 6449SOL    HW130806   2.164   1.867   5.074 -1.0333  0.0161 -0.1000
 6449SOL    HW230807   2.161   1.899   5.221 -0.6431  1.2275 -0.2915
 6450SOL     OW30808   3.427   0.273  16.699 -0.0704  0.1426 -0.6847
 6450SOL    HW130809   3.498   0.220  16.737  0.5538  0.1394 -1.8601
 6450SOL    HW230810   3.469   0.354  16.726  0.7766 -0.4435 -0.2307
 6451SOL     OW30811   3.881   1.669   7.658 -0.0045  0.3982  0.1788
 6451SOL    HW130812   3.951   1.652   7.596  0.7105  0.4216  0.9916
 6451SOL    HW230813   3.880   1.764   7.649 -1.7110  0.4970  1.4220
 6452SOL     OW30814   0.051   2.205   8.980 -0.5022 -0.4283  0.0297
 6452SOL    HW130815   0.032   2.113   8.997  0.2495 -0.4776  0.6514
 6452SOL    HW230816   0.124   2.204   8.918 -0.3756  1.5198  0.1594
 6453SOL     OW30817   0.142   2.050   2.710 -0.6963 -0.0082 -0.1540
 6453SOL    HW130818   0.063   2.052   2.655  0.0548  3.0985 -1.1503
 6453SOL    HW230819   0.193   1.995   2.651 -0.6673  0.6235 -0.7203
 6454SOL     OW30820   2.445   4.573   4.304 -0.4943  0.3216 -1.0758
 6454SOL    HW130821   2.531   4.532   4.308 -1.0079 -1.0975 -4.3557
 6454SOL    HW230822   2.430   4.593   4.211  0.2964  1.8133 -0.8712
 6455SOL     OW30823   3.600   2.809   4.239  0.4630 -0.2771 -0.2031
 6455SOL    HW130824   3.614   2.741   4.173 -1.8141 -1.6442  0.7063
 6455SOL    HW230825   3.688   2.847   4.245  0.5537 -0.1403 -2.1860
 6456SOL     OW30826   3.455   0.616  11.649  0.1620  0.1485  0.2730
 6456SOL    HW130827   3.391   0.644  11.584 -0.0711 -0.4797  0.2259
 6456SOL    HW230828   3.493   0.702  11.663  1.1933 -0.3404  0.4852
 6457SOL     OW30829   2.364   1.741   9.408 -0.1388  0.2794  1.0868
 6457SOL    HW130830   2.333   1.657   9.442 -2.1599  0.3876 -0.5181
 6457SOL    HW230831   2.426   1.778   9.471  1.3795 -1.8431  0.8182
 6458SOL     OW30832   0.501   2.865   6.707 -0.1358  0.0085  0.2146
 6458SOL    HW130833   0.502   2.936   6.644 -1.0496 -0.1450  0.0269
 6458SOL    HW230834   0.542   2.794   6.657 -0.8505  0.5847 -1.1811
 6459SOL     OW30835   2.160   3.718  14.216  0.0539 -0.3474 -0.2683
 6459SOL    HW130836   2.150   3.623  14.212 -2.1005 -0.0869 -1.0808
 6459SOL    HW230837   2.193   3.734  14.128 -0.9676 -0.3194 -0.6428
 6460SOL     OW30838   4.528   1.758  10.806  0.2858 -0.2473  0.1050
 6460SOL    HW130839   4.466   1.703  10.854  0.3761 -1.4326 -1.1140
 6460SOL    HW230840   4.525   1.717  10.719 -1.4802  3.3181 -1.4908
 6461SOL     OW30841   0.349   2.821   7.003  0.1801  0.0258 -0.0413
 6461SOL    HW130842   0.278   2.881   6.980  0.8362  1.4153  1.5441
 6461SOL    HW230843   0.423   2.880   6.989 -2.5908  2.6418 -3.7297
 6462SOL     OW30844   1.550   1.340   2.812 -0.0679  0.1212 -0.5433
 6462SOL    HW130845   1.570   1.415   2.756 -3.3839 -0.1716 -2.1358
 6462SOL    HW230846   1.612   1.278   2.772 -0.6685 -1.4536  0.9795
 6463SOL     OW30847   4.556   3.877   5.336  0.2849  0.0240 -0.3951
 6463SOL    HW130848   4.461   3.875   5.328  0.2977  0.7566 -0.7638
 6463SOL    HW230849   4.581   3.882   5.243 -0.4777 -1.6282 -0.6812
 6464SOL     OW30850   1.826   0.349   6.673  0.5751 -0.6530  0.2301
 6464SOL    HW130851   1.847   0.284   6.740  2.0524  0.7702  1.1429
 6464SOL    HW230852   1.775   0.298   6.610  1.2100 -1.0136  0.0122
 6465SOL     OW30853   4.453   2.841  11.953 -0.3141  0.1692  0.2921
 6465SOL    HW130854   4.455   2.835  12.049 -2.1460 -0.3430  0.3020
 6465SOL    HW230855   4.461   2.936  11.941  2.0776  0.1232  1.4671
 6466SOL     OW30856   1.641   0.217   8.070  0.0075  0.5443 -0.2966
 6466SOL    HW130857   1.595   0.229   8.154  1.2148 -0.4636  0.5021
 6466SOL    HW230858   1.724   0.261   8.088  0.5548 -1.1096  1.2379
 6467SOL     OW30859   1.093   0.180   1.015  0.3759  0.4659 -0.1535
 6467SOL    HW130860   1.127   0.094   1.037 -1.0931 -0.2286 -0.6171
 6467SOL    HW230861   1.076   0.169   0.922 -0.9933  1.9202 -0.0884
 6468SOL     OW30862   3.935   1.299   6.220 -0.1778 -0.0599  0.3715
 6468SOL    HW130863   4.008   1.331   6.167  0.1742 -3.7375 -1.4052
 6468SOL    HW230864   3.903   1.377   6.265  0.1497  0.0977  0.3335
 6469SOL     OW30865   2.614   2.720   4.096  0.1915 -0.4794  0.1054
 6469SOL    HW130866   2.668   2.662   4.042 -1.8818 -2.5991  0.3241
 6469SOL    HW230867   2.646   2.809   4.085  0.4495 -0.7641 -1.4405
 6470SOL     OW30868   1.309   2.762   3.869 -0.2545 -0.6300  0.2744
 6470SOL    HW130869   1.240   2.820   3.900 -2.1284 -1.6255 -2.0980
 6470SOL    HW230870   1.264   2.678   3.861 -0.9449 -0.1891 -0.4276
 6471SOL     OW30871   2.315   3.611   0.646  0.2465 -0.0404  0.1043
 6471SOL    HW130872   2.371   3.662   0.587 -0.3835 -1.9950 -2.2104
 6471SOL    HW230873   2.390   3.571   0.689  1.1678  2.3946  0.7420
 6472SOL     OW30874   4.128   0.885   4.644 -0.2671 -0.0636 -0.1585
 6472SOL    HW130875   4.083   0.881   4.729 -1.2017  1.3344 -0.5949
 6472SOL    HW230876   4.172   0.800   4.653 -0.3057 -0.1725 -0.9840
 6473SOL     OW30877   1.035   0.295   6.811 -0.0426 -0.3822  0.2755
 6473SOL    HW130878   0.940   0.289   6.825 -0.2729 -1.5158 -1.7902
 6473SOL    HW230879   1.059   0.350   6.885  0.5864  0.5725 -0.6303
 6474SOL     OW30880   1.108   1.722   5.454  0.2023 -0.0293  0.0088
 6474SOL    HW130881   1.069   1.754   5.372  0.4986 -3.1832 -1.3401
 6474SOL    HW230882   1.189   1.679   5.428  0.3296  0.2166 -0.0062
 6475SOL     OW30883   3.597   0.395   1.095  0.5624 -0.5432 -0.0976
 6475SOL    HW130884   3.561   0.385   1.007  0.0225  1.3330 -0.0754
 6475SOL    HW230885   3.673   0.340   1.074 -0.4433 -1.6299 -0.9316
 6476SOL     OW30886   4.640   2.997   4.455 -0.1189 -0.2454  0.5304
 6476SOL    HW130887   4.662   3.088   4.473 -1.0029 -0.0952  0.8193
 6476SOL    HW230888   4.589   3.001   4.374  1.6029  1.6683 -0.4652
 6477SOL     OW30889   3.516   0.659   2.379 -0.3706 -0.4574  0.5259
 6477SOL    HW130890   3.428   0.687   2.404 -0.4854  0.2861 -0.7184
 6477SOL    HW230891   3.542   0.728   2.317 -0.6935 -0.1282  0.7579
 6478SOL     OW30892   3.367   2.004  16.652  0.5510  0.4064 -0.8896
 6478SOL    HW130893   3.353   1.994  16.746 -1.6102  1.0800 -1.1359
 6478SOL    HW230894   3.460   1.985  16.642  0.8448  0.7400  1.2438
 6479SOL     OW30895   2.542   3.504   0.758  0.0253  0.3001 -0.0945
 6479SOL    HW130896   2.605   3.519   0.687  0.7378  2.0425  0.9139
 6479SOL    HW230897   2.545   3.409   0.753 -1.5788  0.2170  0.3942
 6480SOL     OW30898   1.342   0.163   2.986  0.0565 -1.0177 -0.2034
 6480SOL    HW130899   1.252   0.181   3.014  0.9232  1.9968  0.5722
 6480SOL    HW230900   1.329   0.151   2.892 -0.6207 -0.6419 -0.1572
 6481SOL     OW30901   1.877   0.538   0.501 -0.1902  0.1137 -0.1040
 6481SOL    HW130902   1.908   0.557   0.590 -0.8868  1.1668 -0.0745
 6481SOL    HW230903   1.952   0.494   0.461  0.7824  1.9181 -0.2771
 6482SOL     OW30904   3.507   4.671   2.754  0.2858 -0.1402 -0.4826
 6482SOL    HW130905   3.412   4.666   2.764  0.2321  2.1525  0.2502
 6482SOL    HW230906   3.523   0.040   2.735  4.5804 -0.4284  1.7667
 6483SOL     OW30907   0.330   2.938   7.969 -0.6293  0.0022  0.1799
 6483SOL    HW130908   0.405   2.995   7.948 -1.2339  2.0052  3.5058
 6483SOL    HW230909   0.378   2.855   7.973  0.1029  0.2490 -3.2875
 6484SOL     OW30910   4.400   3.421  11.317 -0.0082 -0.3399  0.1738
 6484SOL    HW130911   4.429   3.444  11.405 -0.7143 -2.9944  1.1036
 6484SOL    HW230912   4.431   3.502  11.278  1.4406 -0.8426  0.3038
 6485SOL     OW30913   4.011   0.746  10.606  0.3576 -0.0377 -0.0998
 6485SOL    HW130914   4.100   0.781  10.600  0.5541 -0.3948  0.7195
 6485SOL    HW230915   3.985   0.797  10.683 -1.5629  1.1177 -1.5297
 6486SOL     OW30916   4.245   1.009   1.694 -0.6907  0.4174  0.2699
 6486SOL    HW130917   4.330   1.051   1.704 -0.9630  0.7816  1.0065
 6486SOL    HW230918   4.268   0.918   1.673 -0.3159  0.6876 -0.5016
 6487SOL     OW30919   2.107   2.485  10.026 -0.3895  0.3408  0.4461
 6487SOL    HW130920   2.140   2.562   9.980 -2.2700 -0.4203 -2.1483
 6487SOL    HW230921   2.177   2.419  10.015 -1.0306 -0.5658  1.7994
 6488SOL     OW30922   0.794   4.211   6.015 -0.0442  0.2470 -0.3907
 6488SOL    HW130923   0.741   4.174   5.944 -0.8712 -0.2415  0.4744
 6488SOL    HW230924   0.735   4.276   6.054 -0.7579  0.3756 -1.6870
 6489SOL     OW30925   2.756   4.661   7.628  0.8816 -0.2922  0.4193
 6489SOL    HW130926   2.840   4.699   7.652  0.8893  2.1487 -3.5630
 6489SOL    HW230927   2.735   4.616   7.710 -1.3261  1.7482  0.9550
 6490SOL     OW30928   2.711   0.209   3.223 -0.8118  0.4024  0.2361
 6490SOL    HW130929   2.770   0.191   3.296 -2.5559 -1.9927  1.0655
 6490SOL    HW230930   2.761   0.157   3.160 -3.0730 -0.5412 -0.7771
 6491SOL     OW30931   0.436   1.339   1.725  0.1084 -0.0780  0.2036
 6491SOL    HW130932   0.490   1.259   1.726 -0.3531 -0.3973 -0.6424
 6491SOL    HW230933   0.455   1.365   1.635  0.0778 -2.0132 -0.3669
 6492SOL     OW30934   4.171   2.748   6.607 -0.1287  0.0130 -0.1200
 6492SOL    HW130935   4.165   2.826   6.551 -1.7492 -1.2358 -1.6922
 6492SOL    HW230936   4.159   2.779   6.697 -0.0243  1.5547 -0.6303
 6493SOL     OW30937   2.550   3.421   1.625 -0.0420 -0.3153 -0.4380
 6493SOL    HW130938   2.469   3.393   1.669  0.7963  0.5790  1.6600
 6493SOL    HW230939   2.613   3.365   1.668 -1.6055 -1.6849  0.0625
 6494SOL     OW30940   1.676   1.208  14.618 -0.1899 -0.0622  0.2973
 6494SOL    HW130941   1.693   1.153  14.694  0.2884 -0.7809 -0.3243
 6494SOL    HW230942   1.751   1.182  14.564 -0.1271  0.3939  0.1626
 6495SOL     OW30943   3.424   4.445  17.623 -0.0196 -0.1336 -0.0979
 6495SOL    HW130944   3.472   4.526  17.604 -0.8913  0.4558  0.2318
 6495SOL    HW230945   3.479   4.382  17.576 -0.7248 -0.0351 -1.0579
 6496SOL     OW30946   4.659   1.730   4.462 -0.1251 -0.6837 -0.2903
 6496SOL    HW130947   4.584   1.707   4.406  0.2171 -0.4927 -0.8341
 6496SOL    HW230948   4.623   1.800   4.516 -0.9420 -1.2847 -0.0613
 6497SOL     OW30949   0.908   1.131   3.161  0.2644  0.1004  0.4608
 6497SOL    HW130950   0.971   1.135   3.089  2.8118  1.2102  2.7504
 6497SOL    HW230951   0.954   1.075   3.224  0.0050 -0.5152  0.1005
 6498SOL     OW30952   4.378   4.362   7.236  0.6507 -0.2971 -0.1261
 6498SOL    HW130953   4.434   4.290   7.209  1.4290  1.3753 -2.8939
 6498SOL    HW230954   4.346   4.330   7.321 -2.7183  1.1776 -0.8537
 6499SOL     OW30955   1.214   3.929   3.021  0.2157  0.4147  0.4356
 6499SOL    HW130956   1.254   4.005   3.062 -0.9643  1.1414  0.2425
 6499SOL    HW230957   1.230   3.954   2.930 -2.1210  0.9046  0.1606
 6500SOL     OW30958   0.080   4.179   6.730  0.1495 -0.4000 -0.3185
 6500SOL    HW130959   0.145   4.125   6.685  0.7642  0.3284 -0.3167
 6500SOL    HW230960   0.008   4.183   6.666  0.1268 -1.2124 -0.3377
 6501SOL     OW30961   2.491   3.682   2.889 -0.2762 -0.5342 -0.6677
 6501SOL    HW130962   2.457   3.759   2.843  0.2477  0.3674  0.4429
 6501SOL    HW230963   2.579   3.719   2.903  0.2633 -2.5437  1.2445
 6502SOL     OW30964   1.624   0.005   1.582  0.3721 -0.1704  0.2411
 6502SOL    HW130965   1.651   0.073   1.644  1.7114 -0.4253 -0.0633
 6502SOL    HW230966   1.560   4.670   1.623  0.8204 -0.7615  0.0971
 6503SOL     OW30967   3.867   4.487   8.442 -0.0484  0.0969  0.0406
 6503SOL    HW130968   3.927   4.561   8.446 -0.3849  0.3599  0.2619
 6503SOL    HW230969   3.803   4.520   8.379 -1.6037  1.1432  2.1566
 6504SOL     OW30970   1.581   2.061   4.259 -0.4196  0.1936  0.0763
 6504SOL    HW130971   1.589   2.152   4.286  0.3435  0.0108  0.4456
 6504SOL    HW230972   1.661   2.055   4.207  0.6099  2.6683  1.3470
 6505SOL     OW30973   4.029   0.168   7.442 -0.4602 -0.5327  0.4867
 6505SOL    HW130974   4.013   0.243   7.500 -1.5980  0.5006 -1.1595
 6505SOL    HW230975   3.967   0.187   7.371  0.1968  0.8710  0.2850
 6506SOL     OW30976   1.839   2.461  15.868 -0.6083 -0.2005  0.0987
 6506SOL    HW130977   1.886   2.378  15.870 -2.7091 -1.4003 -1.1056
 6506SOL    HW230978   1.842   2.493  15.778 -1.4409 -1.7360 -0.4726
 6507SOL     OW30979   0.051   3.307   8.728 -0.2852 -0.0884 -0.3088
 6507SOL    HW130980   0.129   3.304   8.674  0.2814  0.2173  0.4987
 6507SOL    HW230981   0.047   3.212   8.734 -0.8410 -0.1577 -1.6601
 6508SOL     OW30982   1.559   3.269   2.144  0.3420  0.6884  0.1136
 6508SOL    HW130983   1.652   3.291   2.130  0.8811 -0.3168  2.1275
 6508SOL    HW230984   1.549   3.278   2.239  0.0005  2.5455 -0.0862
 6509SOL     OW30985   2.689   3.418  13.298  0.0678  0.1340  0.4736
 6509SOL    HW130986   2.776   3.391  13.271 -0.4295 -1.9280  0.8910
 6509SOL    HW230987   2.659   3.473  13.226  1.7061  0.2643 -0.0879
 6510SOL     OW30988   2.725   1.698  10.860  0.3605 -0.3382 -0.1822
 6510SOL    HW130989   2.811   1.712  10.821 -0.0401  1.6151 -0.3793
 6510SOL    HW230990   2.723   1.776  10.916 -3.0302 -1.5122  1.3782
 6511SOL     OW30991   2.631   2.732  15.993 -0.2814 -0.7041  0.0580
 6511SOL    HW130992   2.591   2.672  15.930 -2.2720 -1.2525  1.8287
 6511SOL    HW230993   2.628   2.675  16.070  0.4718 -0.4329  0.2876
 6512SOL     OW30994   1.772   1.371   7.737 -0.1571  0.3179 -0.1344
 6512SOL    HW130995   1.815   1.316   7.671 -2.1435 -0.9638 -0.3829
 6512SOL    HW230996   1.841   1.393   7.799  0.3404 -1.0685 -0.1826
 6513SOL     OW30997   3.165   0.459   5.253 -0.0884 -0.1226  0.2087
 6513SOL    HW130998   3.115   0.455   5.171 -0.5490 -0.9273  0.5348
 6513SOL    HW230999   3.091   0.440   5.310  0.2996 -1.8667  0.1431
 6514SOL     OW31000   0.202   0.352   1.987 -0.0805 -0.0731  0.0759
 6514SOL    HW131001   0.268   0.407   1.944 -1.1804  0.6214 -0.7374
 6514SOL    HW231002   0.240   0.333   2.072 -0.4979 -1.3710 -0.0201
 6515SOL     OW31003   1.382   1.424   5.660 -0.4200 -0.5211 -0.0157
 6515SOL    HW131004   1.388   1.519   5.667 -0.3028 -0.4091 -1.6164
 6515SOL    HW231005   1.348   1.423   5.571  2.6351  1.9250 -1.2097
 6516SOL     OW31006   3.842   0.609  13.792  0.1625  0.1456  0.0632
 6516SOL    HW131007   3.885   0.534  13.834 -1.1966 -0.0983  1.0338
 6516SOL    HW231008   3.836   0.668  13.867  0.5921 -0.4563  0.5754
 6517SOL     OW31009   4.449   1.760   2.227  0.0094  0.1001  0.6104
 6517SOL    HW131010   4.424   1.668   2.225  3.4959 -0.8445  1.3165
 6517SOL    HW231011   4.402   1.791   2.150  0.0391 -0.3549  0.4138
 6518SOL     OW31012   2.834   0.854   3.495 -0.2843 -0.5655 -0.7930
 6518SOL    HW131013   2.865   0.939   3.465  2.2281 -1.3233 -0.3661
 6518SOL    HW231014   2.840   0.861   3.591  1.1091  0.2217 -0.9276
 6519SOL     OW31015   1.651   0.343   1.605  0.1574 -0.7176 -0.2043
 6519SOL    HW131016   1.592   0.285   1.653  0.3102  0.1914  1.0860
 6519SOL    HW231017   1.588   0.398   1.558 -0.8217 -0.7185  1.1032
 6520SOL     OW31018   1.677   0.488   8.454  0.0674 -0.0593  0.5151
 6520SOL    HW131019   1.736   0.548   8.501 -0.9940  1.6447 -0.3242
 6520SOL    HW231020   1.633   0.439   8.524 -1.0870  0.6916  0.3258
 6521SOL     OW31021   0.495   3.878   9.442 -0.0935 -0.2889 -0.4332
 6521SOL    HW131022   0.425   3.817   9.417  0.9826 -1.2893 -0.9937
 6521SOL    HW231023   0.577   3.833   9.426 -0.2652 -1.4724  1.9811
 6522SOL     OW31024   2.403   1.262   8.146 -0.2648 -0.1794  0.3159
 6522SOL    HW131025   2.417   1.347   8.105  0.8202 -1.3620 -1.7800
 6522SOL    HW231026   2.334   1.216   8.099 -0.0285  0.8305 -1.0166
 6523SOL     OW31027   0.384   4.670   0.637 -0.4844 -0.7687 -0.0262
 6523SOL    HW131028   0.335   0.023   0.606  0.8145  0.9636  2.1685
 6523SOL    HW231029   0.384   4.691   0.730  1.1495 -1.8233  0.1998
 6524SOL     OW31030   2.754   4.133   9.645  0.1450  0.7055  0.4831
 6524SOL    HW131031   2.743   4.073   9.571 -1.6583  1.0769  0.4643
 6524SOL    HW231032   2.664   4.150   9.670 -0.2941  0.9215 -1.2773
 6525SOL     OW31033   2.734   3.325   6.785 -0.1093  0.4947 -0.2096
 6525SOL    HW131034   2.794   3.277   6.727  0.4984 -0.6799  1.3922
 6525SOL    HW231035   2.695   3.242   6.815 -0.2811 -0.0558 -1.9074
 6526SOL     OW31036   2.553   0.102  13.575  0.0842 -0.6739 -0.7203
 6526SOL    HW131037   2.571   0.028  13.633  1.4629  0.6027  0.4704
 6526SOL    HW231038   2.458   0.111  13.589  0.1367  0.1107 -0.8782
 6527SOL     OW31039   1.808   0.137   4.730  0.3376  0.0216 -0.1921
 6527SOL    HW131040   1.891   0.146   4.777  1.0659 -0.5228 -1.3810
 6527SOL    HW231041   1.840   0.122   4.641 -0.2946  3.3659 -0.9781
 6528SOL     OW31042   3.770   4.117  13.368 -0.2721  0.0421 -0.2108
 6528SOL    HW131043   3.771   4.115  13.272 -0.7762 -0.2562 -0.2061
 6528SOL    HW231044   3.700   4.179  13.385 -0.0239  0.3794 -0.4108
 6529SOL     OW31045   2.200   3.167   6.609 -0.2705 -0.3628  0.0830
 6529SOL    HW131046   2.179   3.230   6.540 -0.3524  0.1773  0.6017
 6529SOL    HW231047   2.189   3.222   6.687  0.0881 -1.9022  1.2375
 6530SOL     OW31048   3.549   2.454  13.211 -0.5454 -0.6838 -0.3971
 6530SOL    HW131049   3.516   2.537  13.177 -0.4854  0.0179  1.3016
 6530SOL    HW231050   3.534   2.404  13.130 -1.9548 -0.4797 -0.2579
 6531SOL     OW31051   0.816   2.306   4.139  0.2358 -0.6902 -0.0633
 6531SOL    HW131052   0.779   2.346   4.217  1.2463  0.7372 -0.3227
 6531SOL    HW231053   0.803   2.213   4.154 -0.2200 -0.7203 -0.6175
 6532SOL     OW31054   1.114   3.899   1.414 -0.0987  0.2579 -0.5288
 6532SOL    HW131055   1.117   3.807   1.440 -0.9015  0.8815  1.7662
 6532SOL    HW231056   1.123   3.891   1.319  0.2109 -1.1830 -0.3771
 6533SOL     OW31057   4.444   1.580   8.450  0.1048  0.2678 -0.2688
 6533SOL    HW131058   4.514   1.641   8.475 -1.2422  1.6721  0.0975
 6533SOL    HW231059   4.435   1.530   8.531  2.1786  1.8323  0.9318
 6534SOL     OW31060   1.226   4.539  14.582  0.2825 -0.1531  0.0897
 6534SOL    HW131061   1.222   4.509  14.491  2.0519 -0.5429  0.1528
 6534SOL    HW231062   1.273   4.623  14.586 -0.7868  0.4805 -0.5449
 6535SOL     OW31063   2.677   3.197   7.038 -0.0269 -0.4241  0.4490
 6535SOL    HW131064   2.592   3.210   7.080 -0.5144 -0.6814 -0.4588
 6535SOL    HW231065   2.718   3.283   7.041 -1.7352  0.3893  0.6474
 6536SOL     OW31066   3.884   2.957   3.720 -0.6869  0.3179  0.0536
 6536SOL    HW131067   3.977   2.932   3.717 -0.4591  1.1536  0.1042
 6536SOL    HW231068   3.879   2.999   3.806  1.1339 -0.6957  0.6602
 6537SOL     OW31069   4.188   2.889  17.352  0.4148  0.3350  0.3732
 6537SOL    HW131070   4.135   2.932  17.418 -1.8290 -0.1952 -1.1001
 6537SOL    HW231071   4.180   2.950  17.279  0.6305 -0.3986 -0.2641
 6538SOL     OW31072   4.622   2.339   8.226 -0.7786 -0.2664 -0.1905
 6538SOL    HW131073   4.708   2.299   8.233  0.4631  2.0422 -2.2534
 6538SOL    HW231074   4.603   2.341   8.132  0.9618  1.8980 -0.5058
 6539SOL     OW31075   1.739   2.375   8.453 -0.5248 -0.5265  0.1708
 6539SOL    HW131076   1.722   2.467   8.472  0.9647 -0.5495  1.6836
 6539SOL    HW231077   1.670   2.345   8.395  0.3270  1.2870 -1.7585
 6540SOL     OW31078   2.426   1.247   6.520  0.1915 -0.0739 -0.8457
 6540SOL    HW131079   2.330   1.256   6.515  0.1740  1.1989  1.7716
 6540SOL    HW231080   2.440   1.157   6.547 -2.3080 -0.0296  0.5974
 6541SOL     OW31081   1.228   0.325   2.193 -0.1630  0.4593 -0.6247
 6541SOL    HW131082   1.162   0.257   2.207 -1.3087  1.9239  1.0445
 6541SOL    HW231083   1.307   0.290   2.235 -1.8921  0.4403  2.6143
 6542SOL     OW31084   1.918   2.745   4.680  0.5908 -0.3518 -0.0041
 6542SOL    HW131085   2.000   2.789   4.702 -0.4430 -0.1745  3.4083
 6542SOL    HW231086   1.947   2.671   4.626  0.6021 -0.5742  0.3059
 6543SOL     OW31087   1.539   3.120   2.434  0.1804 -0.3356  0.0920
 6543SOL    HW131088   1.549   3.182   2.506 -1.1472  0.9191 -0.7986
 6543SOL    HW231089   1.455   3.154   2.402 -2.2671 -3.4366  3.1279
 6544SOL     OW31090   2.833   0.236   9.990  0.1911 -0.1218  0.0503
 6544SOL    HW131091   2.787   0.159   9.958  3.3200 -1.9507 -0.0179
 6544SOL    HW231092   2.905   0.194  10.037  0.9428 -0.3138 -1.2908
 6545SOL     OW31093   2.890   3.606   2.284 -0.5318 -0.1073  0.2870
 6545SOL    HW131094   2.957   3.569   2.341 -0.6890  0.1370  0.6268
 6545SOL    HW231095   2.868   3.678   2.343  1.1324  0.2206  0.5167
 6546SOL     OW31096   1.410   4.581   7.957  0.1244 -0.4667 -0.0570
 6546SOL    HW131097   1.368   4.642   7.897 -0.2685  1.4316  2.1494
 6546SOL    HW231098   1.336   4.534   7.997 -1.9741  2.4410 -0.5411
 6547SOL     OW31099   4.098   3.760   5.816  0.2541 -0.3041 -0.7241
 6547SOL    HW131100   4.065   3.746   5.904 -0.7785  0.8650 -0.9350
 6547SOL    HW231101   4.056   3.685   5.773  0.3748 -1.4035  1.0659
 6548SOL     OW31102   3.228   0.511   2.287 -0.0214 -0.3450  0.1178
 6548SOL    HW131103   3.154   0.460   2.253  0.2807  0.8208 -2.2547
 6548SOL    HW231104   3.289   0.540   2.220  2.0964 -0.4160  2.0043
 6549SOL     OW31105   1.680   3.845   8.785  0.2744 -0.1728 -0.6538
 6549SOL    HW131106   1.606   3.868   8.841  0.6845 -0.1096 -0.1427
 6549SOL    HW231107   1.707   3.769   8.835  2.2061  0.3787 -0.8828
 6550SOL     OW31108   0.445   0.507  11.649 -0.2186 -0.1510 -0.0586
 6550SOL    HW131109   0.401   0.498  11.564 -0.3370 -1.8747  0.1904
 6550SOL    HW231110   0.399   0.576  11.697  1.9893  1.2627  0.0555
 6551SOL     OW31111   0.308   0.925   8.937 -0.1923  0.3463  0.5423
 6551SOL    HW131112   0.287   1.005   8.985 -0.4620 -0.9251  2.5215
 6551SOL    HW231113   0.326   0.960   8.849  1.4470 -3.5885 -0.7120
 6552SOL     OW31114   3.708   0.556  15.717 -0.7807  0.0338  0.1230
 6552SOL    HW131115   3.769   0.627  15.698  1.4170 -1.8312  0.1689
 6552SOL    HW231116   3.691   0.528  15.627 -0.9690  0.8112 -0.0867
 6553SOL     OW31117   3.286   1.090  13.130  0.6148 -0.8809  0.2418
 6553SOL    HW131118   3.347   1.159  13.155  1.1035 -2.1519  2.5620
 6553SOL    HW231119   3.204   1.126  13.162  1.0540  0.2915  0.0473
 6554SOL     OW31120   3.686   3.126  12.715 -0.3476  0.1008  0.3418
 6554SOL    HW131121   3.771   3.101  12.678 -0.7891  1.8680 -1.9079
 6554SOL    HW231122   3.668   3.206  12.666  2.1168 -1.6067 -3.3519
 6555SOL     OW31123   1.996   0.564   4.727 -0.3491  0.3314  0.7104
 6555SOL    HW131124   1.902   0.562   4.715  0.0547  0.7553 -2.4466
 6555SOL    HW231125   2.019   0.655   4.708  1.9234 -0.2096  0.8177
 6556SOL     OW31126   3.022   3.545  13.868 -0.1464 -0.0955  0.1873
 6556SOL    HW131127   3.032   3.563  13.775 -1.0572  1.0491  0.3164
 6556SOL    HW231128   2.933   3.509  13.873 -0.1067 -0.2929 -0.5361
 6557SOL     OW31129   1.060   4.443   1.958  0.4325  0.3952 -0.2366
 6557SOL    HW131130   1.052   4.418   2.049  0.5660 -2.4733 -1.0313
 6557SOL    HW231131   0.980   4.408   1.918  0.4259 -1.2513  1.2509
 6558SOL     OW31132   2.023   0.995   9.038  0.2540  0.1521  0.0125
 6558SOL    HW131133   2.008   0.921   9.097 -0.6641  0.5624  0.2835
 6558SOL    HW231134   2.100   1.030   9.082 -0.3309 -0.9369  1.9191
 6559SOL     OW31135   2.210   4.302   1.688 -0.0596 -0.5098 -0.1463
 6559SOL    HW131136   2.167   4.226   1.728  0.3039 -1.9065 -2.4030
 6559SOL    HW231137   2.261   4.332   1.763  0.0508  0.6797 -0.6970
 6560SOL     OW31138   1.935   3.613   8.878  0.4824 -0.2232  0.5560
 6560SOL    HW131139   1.908   3.530   8.916 -0.0342  0.0201  0.7200
 6560SOL    HW231140   1.987   3.593   8.800  0.1609 -1.6506  0.7052
 6561SOL     OW31141   0.606   0.807   0.019  0.3251 -0.1122  0.4710
 6561SOL    HW131142   0.631   0.731   0.071  1.1318 -0.1630  0.0121
 6561SOL    HW231143   0.675   0.867   0.048  0.1776 -0.6327  1.8915
 6562SOL     OW31144   1.402   2.296   9.358  0.5862 -0.5118 -0.2487
 6562SOL    HW131145   1.466   2.321   9.424 -0.7564  1.2186  0.3931
 6562SOL    HW231146   1.339   2.255   9.416 -0.2885 -0.1779 -0.9512
 6563SOL     OW31147   3.024   1.664   0.989 -0.1796  0.6699  0.2385
 6563SOL    HW131148   2.954   1.699   1.043 -1.7201  0.8882 -1.8893
 6563SOL    HW231149   2.973   1.615   0.925  0.4812 -0.1717  0.3668
 6564SOL     OW31150   3.629   3.938   6.309 -0.0290 -0.2941 -0.1008
 6564SOL    HW131151   3.553   3.989   6.281 -0.7708 -0.8919  0.8302
 6564SOL    HW231152   3.603   3.846   6.305 -0.2872 -0.2470  0.4702
 6565SOL     OW31153   4.227   0.150   8.202  0.2747 -0.1142 -0.4173
 6565SOL    HW131154   4.239   0.241   8.173  0.7326 -0.1753 -0.4194
 6565SOL    HW231155   4.287   0.145   8.277 -1.3987  1.2799  1.0071
 6566SOL     OW31156   4.216   3.493  16.627  0.4089 -0.4028  0.2779
 6566SOL    HW131157   4.219   3.517  16.719  1.4438  1.2483 -0.1955
 6566SOL    HW231158   4.150   3.550  16.588  2.2626  0.3836 -1.7382
 6567SOL     OW31159   0.748   3.955   6.768 -0.5453  0.6072 -0.0413
 6567SOL    HW131160   0.823   4.004   6.736 -1.9141  1.0066 -2.5994
 6567SOL    HW231161   0.788   3.869   6.785 -0.2920  0.9210  0.9628
 6568SOL     OW31162   2.616   2.992  14.867 -0.3861  0.0867  0.1969
 6568SOL    HW131163   2.527   2.962  14.884 -0.7559  0.2344 -1.5684
 6568SOL    HW231164   2.614   3.007  14.773  1.9456 -3.3885 -0.4224
 6569SOL     OW31165   0.998   4.641  13.212  0.3199  0.4268  0.5305
 6569SOL    HW131166   1.053   4.712  13.248 -0.6850  2.5183 -2.0710
 6569SOL    HW231167   0.930   4.694  13.171 -0.5632 -0.2127  1.1776
 6570SOL     OW31168   3.016   0.558   1.744 -0.1655 -0.0822  0.5977
 6570SOL    HW131169   2.922   0.537   1.739  0.0374 -1.0613  0.8916
 6570SOL    HW231170   3.030   0.580   1.652  0.5757 -0.6935  0.5683
 6571SOL     OW31171   3.913   3.135   9.273  0.6055 -0.2683 -0.3184
 6571SOL    HW131172   4.003   3.165   9.270  0.3362  0.4816 -0.7734
 6571SOL    HW231173   3.922   3.058   9.330  2.3978  0.6613  0.6455
 6572SOL     OW31174   0.798   1.533   8.865  0.1589  0.5318 -0.8479
 6572SOL    HW131175   0.784   1.443   8.892  2.1740 -0.5850 -3.5441
 6572SOL    HW231176   0.736   1.587   8.914  0.4031 -1.2336  1.3678
 6573SOL     OW31177   1.938   4.438   4.829  0.1472 -0.0788 -0.0972
 6573SOL    HW131178   1.859   4.453   4.777  1.4950 -0.3885 -2.1847
 6573SOL    HW231179   1.895   4.433   4.915 -1.0234 -3.0092 -0.8743
 6574SOL     OW31180   2.305   3.638   7.591 -0.3246  0.6541  0.6576
 6574SOL    HW131181   2.301   3.591   7.508  0.2773 -1.4796  1.8467
 6574SOL    HW231182   2.333   3.567   7.648  0.1980  0.8517  0.6554
 6575SOL     OW31183   2.662   4.130   4.615 -0.2890 -0.2644  0.4469
 6575SOL    HW131184   2.607   4.182   4.557  0.7722  0.1822 -0.1567
 6575SOL    HW231185   2.606   4.134   4.693 -1.1192 -0.9983 -0.1127
 6576SOL     OW31186   2.531   3.039   4.958 -0.2657  0.4800 -0.4688
 6576SOL    HW131187   2.460   3.041   5.023 -0.0082 -0.5228 -0.1550
 6576SOL    HW231188   2.544   3.133   4.946 -1.4356  1.0595  2.7285
 6577SOL     OW31189   0.717   1.759   7.002 -0.2149  0.7864 -0.2759
 6577SOL    HW131190   0.801   1.719   6.980 -0.7256 -1.3076  1.5711
 6577SOL    HW231191   0.689   1.711   7.080  1.0195 -0.2628 -0.4756
 6578SOL     OW31192   3.702   1.941  15.329 -0.8599  0.4677  0.0063
 6578SOL    HW131193   3.735   1.852  15.317  0.4623  0.9432  0.1521
 6578SOL    HW231194   3.710   1.977  15.240  0.7369  1.3172  0.4905
 6579SOL     OW31195   3.000   2.174   0.751  0.0564  0.0172  0.2961
 6579SOL    HW131196   3.077   2.132   0.712 -1.0124 -1.9270  0.2818
 6579SOL    HW231197   3.009   2.182   0.846 -0.5536 -1.4539  0.4870
 6580SOL     OW31198   4.016   3.475  12.797 -0.3054 -0.2466  0.1322
 6580SOL    HW131199   3.946   3.409  12.806 -0.9455  0.2755 -0.9733
 6580SOL    HW231200   4.050   3.443  12.714 -0.3059  0.6448 -0.2125
 6581SOL     OW31201   1.640   1.437   9.739  0.6266 -0.5603 -0.0232
 6581SOL    HW131202   1.702   1.367   9.757  1.6511  0.3660  0.0722
 6581SOL    HW231203   1.683   1.485   9.669 -0.0547  1.1659  0.7352
 6582SOL     OW31204   4.280   4.037   9.086 -0.0923 -0.5571  1.2543
 6582SOL    HW131205   4.314   3.998   9.166 -0.2577 -0.6170  1.2956
 6582SOL    HW231206   4.270   3.962   9.027  0.5060 -0.9403  1.6409
 6583SOL     OW31207   3.396   1.195   4.217 -0.0075  0.1843  0.2164
 6583SOL    HW131208   3.307   1.199   4.182 -0.2712 -0.1382  0.8468
 6583SOL    HW231209   3.431   1.269   4.167  0.6779  0.0756  0.5363
 6584SOL     OW31210   0.608   2.870   2.635 -0.3427  0.2206 -0.0539
 6584SOL    HW131211   0.656   2.923   2.571 -0.4450  1.1206  0.6111
 6584SOL    HW231212   0.543   2.829   2.578  0.1469  0.1439 -0.5581
 6585SOL     OW31213   1.318   1.204   9.375  0.3932  0.5088  0.2356
 6585SOL    HW131214   1.328   1.288   9.332  0.0994 -0.0378 -0.9135
 6585SOL    HW231215   1.409   1.177   9.385 -0.3126 -2.1446 -0.4428
 6586SOL     OW31216   4.595   0.817   7.860  0.2714 -0.4351  0.2493
 6586SOL    HW131217   4.567   0.905   7.884 -0.0795 -0.6248  0.5411
 6586SOL    HW231218   4.598   0.825   7.765 -0.7422  1.4293  0.3859
 6587SOL     OW31219   1.240   3.355   7.280 -0.3967  0.0770  0.3933
 6587SOL    HW131220   1.221   3.261   7.281 -1.3154  0.2657  0.0633
 6587SOL    HW231221   1.248   3.391   7.192  0.4518  0.9678  0.8274
 6588SOL     OW31222   4.275   4.183   1.375  0.5051 -0.2459 -0.0178
 6588SOL    HW131223   4.293   4.104   1.426 -0.7122 -0.8059 -0.4493
 6588SOL    HW231224   4.202   4.148   1.323  0.6106 -1.4834  0.6554
 6589SOL     OW31225   2.962   4.592   9.090 -0.5576  0.1163 -0.3226
 6589SOL    HW131226   2.888   4.646   9.061 -1.0940  0.4315  1.5639
 6589SOL    HW231227   2.942   4.502   9.066  1.5323 -0.3291 -0.3641
 6590SOL     OW31228   2.938   2.789  15.602  0.3975  0.2667  1.0191
 6590SOL    HW131229   2.870   2.806  15.668  0.9452  2.0811  1.1231
 6590SOL    HW231230   2.981   2.709  15.630 -0.2710 -0.7778 -0.9016
 6591SOL     OW31231   3.166   2.084  10.746  0.4681  0.5502  0.2848
 6591SOL    HW131232   3.123   2.124  10.821  0.7110 -0.6596  1.0559
 6591SOL    HW231233   3.090   2.038  10.709  0.1768  1.6360 -0.4688
 6592SOL     OW31234   1.029   1.094  14.374  0.6466 -0.2847 -0.8763
 6592SOL    HW131235   1.039   1.186  14.401  1.0037 -0.1606 -1.4046
 6592SOL    HW231236   1.076   1.102  14.291  0.6379 -3.3018 -1.1578
 6593SOL     OW31237   0.376   4.016   9.630  0.1688  0.3527  0.3790
 6593SOL    HW131238   0.423   3.961   9.567 -0.8512 -0.5091  0.3712
 6593SOL    HW231239   0.347   4.086   9.572  0.8456 -0.3562 -0.8076
 6594SOL     OW31240   2.433   1.787  11.833 -0.3591 -0.7222 -0.2046
 6594SOL    HW131241   2.363   1.843  11.798 -0.1879 -1.1025 -1.1589
 6594SOL    HW231242   2.512   1.820  11.790  0.8452  0.0261  2.5696
 6595SOL     OW31243   1.658   3.265  14.609  0.0228  0.8397 -0.0559
 6595SOL    HW131244   1.721   3.265  14.682 -1.7009  1.3487  1.4326
 6595SOL    HW231245   1.628   3.356  14.608  0.1725  0.8993  0.9753
 6596SOL     OW31246   3.936   1.543   3.274  0.7225 -0.3412  0.5079
 6596SOL    HW131247   3.888   1.467   3.241 -0.1639 -0.3468  1.8166
 6596SOL    HW231248   3.944   1.520   3.366  2.6084 -0.6256  0.2726
 6597SOL     OW31249   1.783   4.424   6.912  0.0978 -0.6422 -0.2702
 6597SOL    HW131250   1.689   4.438   6.925  0.2663  0.0437  0.1943
 6597SOL    HW231251   1.792   4.410   7.007 -0.8899 -0.6925 -0.1855
 6598SOL     OW31252   3.800   2.206   7.383 -0.0795 -0.0295 -1.2853
 6598SOL    HW131253   3.763   2.163   7.305 -1.5678  0.1740 -0.6747
 6598SOL    HW231254   3.894   2.199   7.362  0.2451  2.1988 -0.4943
 6599SOL     OW31255   0.938   1.774   8.164 -0.1023 -0.4242  0.2170
 6599SOL    HW131256   0.996   1.701   8.142 -0.5466 -0.7226  0.0250
 6599SOL    HW231257   0.989   1.828   8.225 -2.9432  1.2719  1.0711
 6600SOL     OW31258   2.540   4.648   9.059 -0.1755  0.0085  0.3052
 6600SOL    HW131259   2.595   4.710   9.012 -1.0028  0.9585  0.5942
 6600SOL    HW231260   2.463   4.701   9.080  0.9093  1.4654  0.6329
 6601SOL     OW31261   4.285   1.367  15.761 -0.1425 -0.4122  0.0704
 6601SOL    HW131262   4.242   1.286  15.733 -1.7577  0.5722 -0.3174
 6601SOL    HW231263   4.269   1.363  15.856 -1.4232  0.1253 -0.1126
 6602SOL     OW31264   2.530   1.787  14.807  0.1832  0.2698 -0.4310
 6602SOL    HW131265   2.520   1.829  14.722 -1.6041 -1.5644 -1.1305
 6602SOL    HW231266   2.610   1.737  14.791 -0.1343 -0.1275 -0.7817
 6603SOL     OW31267   2.398   4.585   5.978 -0.2807  0.4507 -0.0298
 6603SOL    HW131268   2.473   4.525   5.979 -1.2000 -0.7242 -1.3190
 6603SOL    HW231269   2.422   4.662   5.926 -1.4202 -0.0522 -1.2707
 6604SOL     OW31270   0.914   1.313  12.376  0.3635  0.5087  0.1869
 6604SOL    HW131271   0.923   1.218  12.368 -0.4739  0.2405  2.2790
 6604SOL    HW231272   0.997   1.335  12.334  0.7402 -3.0385 -0.8990
 6605SOL     OW31273   3.350   4.475   5.131 -0.0857  0.0524  0.1121
 6605SOL    HW131274   3.426   4.418   5.118 -0.0316 -0.3500  2.3163
 6605SOL    HW231275   3.377   4.546   5.188  0.1328 -0.1704  0.2867
 6606SOL     OW31276   0.458   1.265  13.801  0.3423 -0.2531 -0.6203
 6606SOL    HW131277   0.372   1.307  13.808 -0.0344 -1.1467  0.0682
 6606SOL    HW231278   0.444   1.186  13.853  3.4654 -0.7218 -0.4930
 6607SOL     OW31279   3.717   2.905   6.344 -0.5024 -0.0375 -0.0185
 6607SOL    HW131280   3.772   2.978   6.372 -1.1602  1.3273 -2.2904
 6607SOL    HW231281   3.681   2.873   6.427 -3.1219 -0.5558 -1.3813
 6608SOL     OW31282   1.785   0.007   4.053  0.2790  0.1246  0.8736
 6608SOL    HW131283   1.867   0.050   4.073  0.6518 -0.5061  0.7000
 6608SOL    HW231284   1.801   4.692   3.967  0.9544 -1.3126  1.6378
 6609SOL     OW31285   2.311   1.674   8.534  0.1822  0.6654 -0.2830
 6609SOL    HW131286   2.348   1.759   8.558  0.7517  1.0197 -2.3674
 6609SOL    HW231287   2.388   1.633   8.495  0.2277 -0.4665  1.0044
 6610SOL     OW31288   1.986   2.075   9.376 -0.1089  0.7104  0.2247
 6610SOL    HW131289   1.976   2.171   9.378  0.5243  0.7667  1.1357
 6610SOL    HW231290   1.939   2.054   9.456  0.7891 -0.4879  0.4363
 6611SOL     OW31291   4.653   4.559  15.733  1.0177 -0.5414 -0.0007
 6611SOL    HW131292   4.590   4.523  15.671  1.0921  1.5256 -1.2897
 6611SOL    HW231293   0.001   4.571  15.669 -0.4051  1.6423 -1.1913
 6612SOL     OW31294   4.702   0.200   6.056  0.3614  0.0436 -0.4305
 6612SOL    HW131295   4.617   0.244   6.058 -0.7893 -2.0495 -3.1055
 6612SOL    HW231296   4.704   0.158   5.970 -4.0574 -1.2365  0.0615
 6613SOL     OW31297   4.665   0.044   9.612  0.0956 -0.5827 -0.2700
 6613SOL    HW131298   4.597   0.012   9.671  0.6011 -0.8990  0.1442
 6613SOL    HW231299   4.632   0.130   9.587 -2.1670 -1.6842 -1.0427
 6614SOL     OW31300   4.029   2.922  12.109 -0.4057 -0.0083  0.4630
 6614SOL    HW131301   3.952   2.885  12.151 -1.7459  0.7346 -1.3278
 6614SOL    HW231302   4.098   2.909  12.174  0.5926  1.1378 -0.3553
 6615SOL     OW31303   1.353   1.548  14.271  0.2316  0.2952  0.1886
 6615SOL    HW131304   1.280   1.516  14.324 -1.6843  1.3422 -1.8016
 6615SOL    HW231305   1.428   1.507  14.314 -0.3927  0.7914  1.7596
 6616SOL     OW31306   3.385   0.851   3.472  0.3473  0.0370  0.3218
 6616SOL    HW131307   3.442   0.814   3.405  1.1325 -0.1349  1.0833
 6616SOL    HW231308   3.390   0.788   3.545  0.0114 -0.1128  0.2149
 6617SOL     OW31309   2.816   3.488   4.495 -0.2303  0.5096 -0.3864
 6617SOL    HW131310   2.728   3.508   4.525  0.2945  0.0840  1.4171
 6617SOL    HW231311   2.790   3.401   4.465 -1.1086  0.5697  0.2264
 6618SOL     OW31312   3.558   0.135   3.110 -0.2739  0.4439  0.0231
 6618SOL    HW131313   3.637   0.153   3.058 -0.4420  1.2081  0.0207
 6618SOL    HW231314   3.535   0.222   3.142 -0.4916 -0.0105  1.0797
 6619SOL     OW31315   0.937   3.369   0.705 -0.0310  0.1523  0.5979
 6619SOL    HW131316   0.984   3.443   0.668 -1.4523  1.2959  1.0759
 6619SOL    HW231317   0.874   3.346   0.637  0.0222 -0.5839  0.7944
 6620SOL     OW31318   1.831   2.406  14.787  0.1902 -0.1697  0.2067
 6620SOL    HW131319   1.847   2.409  14.693 -0.7000  2.3222  0.1273
 6620SOL    HW231320   1.910   2.452  14.816  0.6449  1.2872 -3.2783
 6621SOL     OW31321   3.812   2.484   7.387  0.5778  0.6051  0.0450
 6621SOL    HW131322   3.803   2.495   7.293  1.2580 -0.1008 -0.0981
 6621SOL    HW231323   3.805   2.389   7.397  0.3211  0.5813 -0.3589
 6622SOL     OW31324   1.210   2.764  11.334  0.5526  0.8991  0.0610
 6622SOL    HW131325   1.132   2.715  11.361  2.1535 -0.7820  1.6939
 6622SOL    HW231326   1.195   2.844  11.385  1.3171 -1.5704  4.2207
 6623SOL     OW31327   1.241   0.177   0.669 -0.6931 -0.2613 -0.6954
 6623SOL    HW131328   1.194   0.207   0.591 -1.0470  1.2044  0.0713
 6623SOL    HW231329   1.244   0.255   0.724  1.0903 -0.2631 -0.7901
 6624SOL     OW31330   4.193   4.349   9.416 -0.0157  0.3441  0.4823
 6624SOL    HW131331   4.239   4.308   9.490  1.6023  1.8786  0.3258
 6624SOL    HW231332   4.186   4.440   9.447  1.1884  0.8268 -0.6811
 6625SOL     OW31333   0.693   3.878   3.412  0.0673 -0.1600  0.3225
 6625SOL    HW131334   0.711   3.793   3.371 -1.7267 -0.7565  0.8066
 6625SOL    HW231335   0.647   3.934   3.350  1.4069 -0.7691 -1.2328
 6626SOL     OW31336   0.718   0.996  14.333  0.3855  0.1049 -0.3546
 6626SOL    HW131337   0.718   0.914  14.284  2.7605  1.1087 -2.0716
 6626SOL    HW231338   0.804   1.034  14.315  0.6820 -0.5972 -0.3953
 6627SOL     OW31339   1.001   0.999  10.514  0.2897  0.9071 -0.1251
 6627SOL    HW131340   0.912   1.023  10.541  0.3641  1.1236 -0.0705
 6627SOL    HW231341   0.982   0.924  10.458 -1.4044 -0.0427  1.7474
 6628SOL     OW31342   0.404   1.952   1.896  0.4691 -0.2650 -0.0887
 6628SOL    HW131343   0.345   2.019   1.932 -0.6522 -0.9513 -0.6402
 6628SOL    HW231344   0.385   1.883   1.960  1.9954 -0.8335 -0.2505
 6629SOL     OW31345   1.617   0.595   9.577  0.1253 -0.2498  0.1048
 6629SOL    HW131346   1.541   0.636   9.618 -0.8874 -1.3031 -0.7244
 6629SOL    HW231347   1.695   0.648   9.595  0.0238  0.1712 -0.7159
 6630SOL     OW31348   4.204   3.537   5.360  0.4629  0.8157  0.0532
 6630SOL    HW131349   4.224   3.475   5.431  0.5591 -0.8663 -1.4248
 6630SOL    HW231350   4.166   3.611   5.407 -0.4469  0.1997  0.2809
 6631SOL     OW31351   0.607   1.744   1.442 -0.1499  0.0337  0.0842
 6631SOL    HW131352   0.564   1.766   1.525  0.5871  1.1053  0.1768
 6631SOL    HW231353   0.548   1.672   1.422 -0.3801  0.5012 -0.9031
 6632SOL     OW31354   2.996   2.637   5.146  0.1132 -0.2842  0.3332
 6632SOL    HW131355   2.978   2.690   5.068 -0.3312  1.0560  1.3383
 6632SOL    HW231356   3.088   2.624   5.166 -0.0517 -2.3806 -0.3304
 6633SOL     OW31357   0.040   2.603  16.638  0.0124  0.6263  0.5663
 6633SOL    HW131358   4.712   2.556  16.703 -0.2992  0.7304  0.4004
 6633SOL    HW231359   0.113   2.639  16.687 -0.1653 -1.2048  2.1580
 6634SOL     OW31360   3.638   4.473   8.813  0.2131 -0.3197  0.1290
 6634SOL    HW131361   3.553   4.477   8.769  0.7310  0.5702 -0.7826
 6634SOL    HW231362   3.611   4.468   8.905 -2.9286  1.9348 -0.6910
 6635SOL     OW31363   0.628   3.764   1.797  0.3390 -0.0967  0.4007
 6635SOL    HW131364   0.696   3.749   1.863  0.3664  0.1955  0.4383
 6635SOL    HW231365   0.563   3.806   1.853 -0.6214 -0.0884 -0.7251
 6636SOL     OW31366   4.331   4.198   8.248 -0.4602 -0.6876  0.8135
 6636SOL    HW131367   4.309   4.291   8.238 -0.5963 -0.6024  1.9128
 6636SOL    HW231368   4.302   4.178   8.337 -1.1161  0.3885  0.8391
 6637SOL     OW31369   3.157   0.833   1.490 -0.5837 -0.1779  0.7681
 6637SOL    HW131370   3.143   0.880   1.573 -1.0327  1.4855 -0.2517
 6637SOL    HW231371   3.081   0.775   1.493 -0.0236 -0.7726  3.6660
 6638SOL     OW31372   1.804   0.465   3.579  0.2068 -0.6291  0.1828
 6638SOL    HW131373   1.763   0.469   3.492  2.4629 -0.3994 -0.8898
 6638SOL    HW231374   1.885   0.514   3.564  0.8634 -1.8788 -0.2839
 6639SOL     OW31375   3.794   2.991   5.633  0.0620 -0.1455  0.0148
 6639SOL    HW131376   3.739   2.937   5.575  1.0154  0.0278 -1.0517
 6639SOL    HW231377   3.881   2.974   5.597 -0.2127 -1.1157 -0.2022
 6640SOL     OW31378   3.798   2.373   2.955 -0.0823 -0.0528 -0.2980
 6640SOL    HW131379   3.812   2.457   2.912  2.4307  0.5962  1.8039
 6640SOL    HW231380   3.742   2.323   2.896  2.8194 -2.8131 -0.7053
 6641SOL     OW31381   0.435   1.011  14.259  0.0737  0.2927 -0.1578
 6641SOL    HW131382   0.432   0.937  14.319 -0.3378 -1.9662 -2.9590
 6641SOL    HW231383   0.430   1.085  14.320  1.0539  1.6086 -1.6493
 6642SOL     OW31384   3.950   1.651   4.202  0.1646  0.2501  0.1553
 6642SOL    HW131385   4.041   1.673   4.220 -0.6444  1.5693  2.6434
 6642SOL    HW231386   3.938   1.704   4.123  1.4097  0.3072  0.0025
 6643SOL     OW31387   1.942   1.470  12.813 -0.0975  0.4799  0.5845
 6643SOL    HW131388   1.999   1.537  12.777 -1.6494  1.6112  0.2101
 6643SOL    HW231389   1.860   1.482  12.765 -1.5455 -0.6962  2.7780
 6644SOL     OW31390   0.184   3.308   7.365  0.1291  0.1462  0.9144
 6644SOL    HW131391   0.188   3.391   7.318  0.9717  0.4832  1.5747
 6644SOL    HW231392   0.194   3.336   7.456 -0.5521  0.7684  0.8010
 6645SOL     OW31393   2.637   2.155   9.604 -0.0944 -0.1697  0.0173
 6645SOL    HW131394   2.589   2.074   9.588 -1.1642  0.5178 -0.2924
 6645SOL    HW231395   2.688   2.167   9.524 -1.9573 -0.6738 -1.2664
 6646SOL     OW31396   1.691   0.505   2.067  0.1812 -0.2800 -0.1105
 6646SOL    HW131397   1.687   0.419   2.024  2.9759 -0.8801  0.8276
 6646SOL    HW231398   1.695   0.563   1.991 -0.0744  1.5140  1.2616
 6647SOL     OW31399   2.464   3.362   6.378  0.2530  0.0453  0.3514
 6647SOL    HW131400   2.381   3.317   6.360 -0.0066  0.9308 -0.6600
 6647SOL    HW231401   2.472   3.368   6.473  2.3092  0.4637  0.1523
 6648SOL     OW31402   2.750   4.202   1.455 -0.3982  0.3538  0.5639
 6648SOL    HW131403   2.818   4.204   1.389  1.4204  0.0516  2.4120
 6648SOL    HW231404   2.785   4.143   1.522 -1.8906  0.1521  1.1704
 6649SOL     OW31405   3.226   4.257   9.078 -0.2610  0.2088 -0.0867
 6649SOL    HW131406   3.168   4.218   9.013  1.1631 -2.0192 -0.0071
 6649SOL    HW231407   3.177   4.241   9.159 -0.4096  1.9029  0.1504
 6650SOL     OW31408   4.086   3.307   8.624 -0.4410 -0.5643 -0.4394
 6650SOL    HW131409   4.064   3.235   8.565 -0.7713  0.6926 -1.8482
 6650SOL    HW231410   4.066   3.382   8.569  0.8525 -1.9275 -2.7724
 6651SOL     OW31411   2.116   1.861   9.278  0.5772 -0.3425 -0.1429
 6651SOL    HW131412   2.069   1.932   9.322  0.7448  0.6131 -1.5228
 6651SOL    HW231413   2.192   1.851   9.335  0.0028 -1.2814  0.4657
 6652SOL     OW31414   0.175   4.486   2.259  0.0295  0.1484  0.3812
 6652SOL    HW131415   0.230   4.431   2.203  0.4393  0.3641  0.5731
 6652SOL    HW231416   0.203   4.576   2.238  0.4159  0.5950  2.7885
 6653SOL     OW31417   4.654   0.263   7.468  0.1259  0.0183 -0.0193
 6653SOL    HW131418   4.587   0.195   7.470  0.6608 -0.5372 -0.6336
 6653SOL    HW231419   4.606   0.342   7.492 -1.7470 -0.7102 -1.3607
 6654SOL     OW31420   0.286   3.826   3.407  0.1154 -0.5308  0.4600
 6654SOL    HW131421   0.201   3.817   3.363  0.0528  2.3919  0.0053
 6654SOL    HW231422   0.305   3.733   3.419 -0.6945 -0.6272  0.9932
 6655SOL     OW31423   4.030   4.322   4.813 -0.2736 -0.1458 -0.3053
 6655SOL    HW131424   4.039   4.242   4.865 -0.4142  0.5008  0.7010
 6655SOL    HW231425   3.936   4.339   4.800 -0.5541 -2.0074 -0.7285
 6656SOL     OW31426   3.403   3.729   9.838  0.3939 -0.4472 -0.0479
 6656SOL    HW131427   3.326   3.761   9.884 -0.7266  0.7806 -2.8292
 6656SOL    HW231428   3.463   3.804   9.838 -0.3670  0.1532  0.2113
 6657SOL     OW31429   0.176   2.260   3.469  0.0882  0.1490  0.4728
 6657SOL    HW131430   0.267   2.287   3.468  0.2498 -0.3507  1.2543
 6657SOL    HW231431   0.132   2.345   3.469 -0.9665 -0.3956 -2.7859
 6658SOL     OW31432   3.412   1.639   7.518  0.5533  0.2027  0.5207
 6658SOL    HW131433   3.502   1.651   7.549 -0.3717  2.1668  2.4930
 6658SOL    HW231434   3.366   1.714   7.556  0.0267  1.1322 -1.9112
 6659SOL     OW31435   4.395   3.893  11.942 -0.3272 -0.0015 -0.0583
 6659SOL    HW131436   4.437   3.955  12.002  1.2583 -1.5711  0.4425
 6659SOL    HW231437   4.411   3.932  11.856  0.1372  0.2794  0.1522
 6660SOL     OW31438   4.417   3.553   3.723 -0.5594  0.5234  0.2407
 6660SOL    HW131439   4.485   3.492   3.693  0.6341  0.5986  2.7651
 6660SOL    HW231440   4.471   3.630   3.740 -1.0671  0.7403  0.9050
 6661SOL     OW31441   1.610   1.206   9.334  0.4293  0.3942  0.3956
 6661SOL    HW131442   1.702   1.225   9.318  0.2546  1.8976  1.1691
 6661SOL    HW231443   1.622   1.155   9.414  0.3578 -0.4059 -0.1047
 6662SOL     OW31444   3.541   1.399   4.083 -0.1557 -0.5964 -0.4414
 6662SOL    HW131445   3.626   1.437   4.103  0.9648 -3.7262  0.8201
 6662SOL    HW231446   3.533   1.431   3.993 -0.4965 -1.8078 -0.8441
 6663SOL     OW31447   3.714   3.113   8.052 -0.0531 -0.1915 -0.2577
 6663SOL    HW131448   3.741   3.198   8.086 -0.3972 -0.5981  1.0274
 6663SOL    HW231449   3.665   3.075   8.125 -0.7747  1.1784 -0.0325
 6664SOL     OW31450   2.493   2.648   8.670  0.1866 -0.1880 -0.5020
 6664SOL    HW131451   2.505   2.553   8.665  0.4664 -0.1088 -1.3870
 6664SOL    HW231452   2.586   2.665   8.687  0.5153 -1.3390 -1.1537
 6665SOL     OW31453   2.928   4.467   9.768  0.2989  0.4260  0.4832
 6665SOL    HW131454   2.980   4.437   9.694 -0.6062 -1.0310  0.4209
 6665SOL    HW231455   2.844   4.420   9.766  0.0018  0.9623  0.5382
 6666SOL     OW31456   3.999   1.714   1.598  0.0517 -0.1460  0.4110
 6666SOL    HW131457   4.076   1.770   1.585 -0.4181  0.4913  0.3250
 6666SOL    HW231458   3.928   1.779   1.599  0.1850  0.0086 -0.1139
 6667SOL     OW31459   4.633   1.274   1.558 -0.0225 -0.2943  0.1538
 6667SOL    HW131460   4.636   1.370   1.568  2.2866 -0.3221 -0.3041
 6667SOL    HW231461   0.005   1.262   1.555 -0.0363 -0.5608  0.7481
 6668SOL     OW31462   1.991   3.125  16.444 -0.3184 -0.0619 -0.3380
 6668SOL    HW131463   2.002   3.035  16.476  1.7670 -0.4735 -2.1912
 6668SOL    HW231464   2.079   3.157  16.461 -0.5414 -0.3505  1.3792
 6669SOL     OW31465   3.288   2.449  16.019 -0.1281 -0.1613  0.2031
 6669SOL    HW131466   3.258   2.404  16.099  0.0092  0.7590  0.7731
 6669SOL    HW231467   3.259   2.376  15.963  0.2694 -1.5169  1.7502
 6670SOL     OW31468   1.829   0.255   5.481  0.4861  0.2184  0.2517
 6670SOL    HW131469   1.869   0.304   5.553 -0.2735 -0.3289  1.0322
 6670SOL    HW231470   1.878   0.173   5.488 -0.4776 -0.3237  0.5358
 6671SOL     OW31471   0.886   3.208   8.838 -0.0975  0.5528  0.5078
 6671SOL    HW131472   0.813   3.195   8.778  0.5447  0.4533 -0.2621
 6671SOL    HW231473   0.837   3.173   8.913  1.1862 -2.0685  0.1125
 6672SOL     OW31474   1.460   1.331   8.599  0.2319 -0.3997  0.2067
 6672SOL    HW131475   1.371   1.328   8.561  0.8104 -0.3682 -1.1636
 6672SOL    HW231476   1.435   1.322   8.691  2.1662 -2.1101  0.5595
 6673SOL     OW31477   4.302   1.757   8.960  0.2760  0.4784 -0.5872
 6673SOL    HW131478   4.288   1.721   8.873  3.3222 -0.9450 -0.4583
 6673SOL    HW231479   4.359   1.689   8.994 -1.4901 -1.0780 -0.7605
 6674SOL     OW31480   0.741   3.854   3.958  0.5256  0.2545  0.3413
 6674SOL    HW131481   0.655   3.829   3.992  0.2057  2.8743  1.4780
 6674SOL    HW231482   0.729   3.836   3.865 -1.4618 -0.7135  0.7904
 6675SOL     OW31483   1.636   0.202   9.741 -0.0370  0.1402 -0.2790
 6675SOL    HW131484   1.731   0.211   9.750  0.1171 -1.0869 -0.6323
 6675SOL    HW231485   1.623   0.292   9.769  1.3940 -0.2039  1.5064
 6676SOL     OW31486   4.054   1.771  11.092 -0.4938  0.0025 -0.2131
 6676SOL    HW131487   3.983   1.707  11.100 -3.1769  2.6403 -2.9894
 6676SOL    HW231488   4.111   1.742  11.162  0.1815  1.1024 -0.3044
 6677SOL     OW31489   0.280   3.501   4.602 -0.3110  0.5200  0.1534
 6677SOL    HW131490   0.339   3.508   4.526 -0.5096 -1.2691 -0.1455
 6677SOL    HW231491   0.199   3.481   4.555 -0.4955 -2.4541  1.7568
 6678SOL     OW31492   3.970   1.851  16.496  0.0277  0.2958  0.0937
 6678SOL    HW131493   4.041   1.835  16.559 -0.3159  0.0752  0.4220
 6678SOL    HW231494   3.980   1.779  16.434 -1.1396  0.2848 -0.0768
 6679SOL     OW31495   0.657   1.140  13.728 -0.0232  0.4792 -0.3453
 6679SOL    HW131496   0.665   1.073  13.796  0.5429  1.2389  0.3262
 6679SOL    HW231497   0.594   1.204  13.760  1.0447  0.6141  1.4867
 6680SOL     OW31498   2.932   0.065   1.963  0.1465  0.1843 -0.4900
 6680SOL    HW131499   2.901   0.050   1.873  1.3409  0.0269 -0.8705
 6680SOL    HW231500   2.881   0.013   2.025  0.5402 -0.4253 -0.6757
 6681SOL     OW31501   4.330   2.796   1.447 -0.4303 -0.2604 -0.0986
 6681SOL    HW131502   4.241   2.767   1.425 -0.3389  1.5704 -2.8352
 6681SOL    HW231503   4.354   2.826   1.360 -0.0407  1.8080  0.7046
 6682SOL     OW31504   1.139   3.936   3.416 -0.8071 -0.9754  0.0926
 6682SOL    HW131505   1.109   3.900   3.333 -0.4714 -0.8895 -0.0652
 6682SOL    HW231506   1.073   4.004   3.431  0.1930 -0.1132  0.5423
 6683SOL     OW31507   3.190   2.487  13.240 -0.1749 -0.3585  0.3041
 6683SOL    HW131508   3.284   2.483  13.223 -0.4919 -0.5860 -1.3564
 6683SOL    HW231509   3.151   2.488  13.152 -0.7617 -0.6410  0.5580
 6684SOL     OW31510   1.488   0.818   7.741  0.4403  0.3724  0.3138
 6684SOL    HW131511   1.439   0.900   7.752  0.6790  0.6965 -1.0463
 6684SOL    HW231512   1.498   0.811   7.646  0.9191 -1.1876  0.4809
 6685SOL     OW31513   0.185   2.773  12.994  0.2448  0.3550  0.1092
 6685SOL    HW131514   0.181   2.851  12.939  0.7682 -0.7804 -1.5613
 6685SOL    HW231515   0.091   2.754  13.001  0.0941  0.7537 -0.8658
 6686SOL     OW31516   3.185   3.875   3.247  0.1836  0.1260 -0.1055
 6686SOL    HW131517   3.208   3.786   3.219 -0.8190  0.2335 -1.2385
 6686SOL    HW231518   3.188   3.861   3.342 -0.4322  2.5585  0.2608
 6687SOL     OW31519   3.521   1.729   2.237  0.1546 -0.0737  0.6267
 6687SOL    HW131520   3.508   1.690   2.324 -1.8239 -0.9086 -0.0435
 6687SOL    HW231521   3.473   1.672   2.177 -2.9033  0.6423  2.3864
 6688SOL     OW31522   4.208   1.581   6.912 -0.3550 -0.0687  0.1190
 6688SOL    HW131523   4.157   1.515   6.866 -2.0647  0.7770  0.8084
 6688SOL    HW231524   4.135   1.635   6.941 -0.9028 -0.3548 -0.7515
 6689SOL     OW31525   4.285   1.736   2.713 -0.2270  0.1238 -0.0633
 6689SOL    HW131526   4.231   1.747   2.635 -0.8250  0.6637  0.4099
 6689SOL    HW231527   4.370   1.766   2.681  0.9555 -1.9408  1.2095
 6690SOL     OW31528   1.725   4.675   5.433  0.7013  0.4607 -0.2356
 6690SOL    HW131529   1.745   4.714   5.518  0.6469  1.7990 -0.8293
 6690SOL    HW231530   1.634   4.704   5.430  0.6889  0.2755 -1.4517
 6691SOL     OW31531   0.321   2.506   8.714 -0.3703 -0.2198  0.0413
 6691SOL    HW131532   0.401   2.467   8.680 -0.1336 -1.4553  2.0602
 6691SOL    HW231533   0.254   2.438   8.703  2.3134 -2.6154 -1.4681
 6692SOL     OW31534   0.254   3.725   4.375  0.6093 -0.4662 -0.4341
 6692SOL    HW131535   0.348   3.724   4.396  0.3077  1.7422  1.0058
 6692SOL    HW231536   0.254   3.791   4.306 -0.6250  1.1602  1.1267
 6693SOL     OW31537   3.546   3.579   1.145 -0.3556  0.4406 -0.5854
 6693SOL    HW131538   3.488   3.628   1.086 -3.0000  0.0613  1.7111
 6693SOL    HW231539   3.497   3.596   1.225  3.1379  2.0754  1.1942
 6694SOL     OW31540   1.385   3.229   4.870  0.3361  0.2440 -0.2128
 6694SOL    HW131541   1.420   3.220   4.781 -0.6703 -0.0336 -0.5791
 6694SOL    HW231542   1.455   3.285   4.903  2.0533 -0.0304 -3.3453
 6695SOL     OW31543   3.932   0.648   8.161 -0.1797 -0.0687 -0.0736
 6695SOL    HW131544   3.980   0.631   8.242  1.0444 -0.8106 -0.9471
 6695SOL    HW231545   4.000   0.622   8.098 -1.9850 -0.5215 -1.8526
 6696SOL     OW31546   2.096   4.056   7.465 -0.0328  0.2141  0.2505
 6696SOL    HW131547   2.150   3.991   7.510  0.8563  1.0247  0.3574
 6696SOL    HW231548   2.133   4.140   7.493  1.2005  0.5704 -2.4325
 6697SOL     OW31549   2.533   3.848   5.725  0.0892  0.4299 -0.4238
 6697SOL    HW131550   2.593   3.777   5.749 -1.2266 -0.5289  0.0047
 6697SOL    HW231551   2.560   3.913   5.790 -0.3683 -1.0215  1.2145
 6698SOL     OW31552   2.165   0.924  10.978  0.4321  0.0887  0.3041
 6698SOL    HW131553   2.167   0.841  11.026 -0.1590  0.5452  1.1040
 6698SOL    HW231554   2.222   0.891  10.908  0.9888 -0.0625  0.8289
 6699SOL     OW31555   4.478   0.329   8.920  0.3030 -0.3163  0.1173
 6699SOL    HW131556   4.469   0.421   8.896 -1.9914 -0.6598 -0.3112
 6699SOL    HW231557   4.535   0.293   8.852 -1.8669 -2.8919 -0.3506
 6700SOL     OW31558   4.460   0.560   7.025  0.1490 -0.1317  0.0675
 6700SOL    HW131559   4.455   0.580   7.119 -2.3230  0.9828 -0.3128
 6700SOL    HW231560   4.481   0.647   6.992  2.7735 -1.1160 -0.8935
 6701SOL     OW31561   2.781   1.296   3.057 -0.3296  0.1734 -0.3736
 6701SOL    HW131562   2.788   1.390   3.040  0.3639  0.5002  1.7176
 6701SOL    HW231563   2.697   1.298   3.103  0.0501  0.8188  0.2966
 6702SOL     OW31564   2.631   3.810   0.216  0.0822  0.2087  0.4614
 6702SOL    HW131565   2.612   3.901   0.195 -0.4804  0.2835  1.3363
 6702SOL    HW231566   2.589   3.794   0.300  0.6939 -2.0844  0.3450
 6703SOL     OW31567   4.361   3.040   3.812  0.0517  0.0135 -0.4289
 6703SOL    HW131568   4.450   3.034   3.847  0.3171 -1.0329 -1.2918
 6703SOL    HW231569   4.331   3.131   3.822  0.9074  0.2760 -0.2191
 6704SOL     OW31570   2.501   0.606   8.284 -0.0878  0.0082 -0.2929
 6704SOL    HW131571   2.589   0.593   8.317  0.3319  0.5630 -1.1883
 6704SOL    HW231572   2.505   0.588   8.190  1.1372 -1.5641  0.0598
 6705SOL     OW31573   0.034   2.854   2.969 -0.3492  0.2967  0.7301
 6705SOL    HW131574   4.682   2.800   2.943  0.3361 -0.7493  0.9480
 6705SOL    HW231575   0.062   2.818   3.053  1.9920  0.9300  0.2212
 6706SOL     OW31576   1.877   0.892   5.322 -0.3277 -0.0905 -0.3829
 6706SOL    HW131577   1.929   0.812   5.333 -1.6391 -0.6792  1.5368
 6706SOL    HW231578   1.911   0.941   5.397 -0.1749 -1.3537  0.3757
 6707SOL     OW31579   0.835   2.341   8.667 -0.5457  0.1173  0.6188
 6707SOL    HW131580   0.910   2.293   8.632  2.2076  1.3865  4.7915
 6707SOL    HW231581   0.810   2.278   8.735  2.0305  0.6288  2.0313
 6708SOL     OW31582   3.658   4.722   9.421  0.1196 -0.6780  0.4993
 6708SOL    HW131583   3.708   4.676   9.489 -1.5680 -3.0669  0.0888
 6708SOL    HW231584   3.712   4.705   9.344  1.2906  2.3741  0.6386
 6709SOL     OW31585   1.612   0.692   5.023  0.0459  0.1804 -0.3925
 6709SOL    HW131586   1.645   0.779   4.999  0.3405 -0.2395 -1.4852
 6709SOL    HW231587   1.686   0.633   5.040  0.5577  0.8561 -0.2738
 6710SOL     OW31588   0.761   3.164   7.482  0.1077  0.4822  0.1410
 6710SOL    HW131589   0.719   3.249   7.498  1.0600  0.9455  0.1419
 6710SOL    HW231590   0.827   3.176   7.415 -2.0029  1.9413 -1.6637
 6711SOL     OW31591   1.593   2.876   9.542  0.0388 -0.4117 -0.3103
 6711SOL    HW131592   1.527   2.808   9.528  1.0227 -1.0278 -2.0152
 6711SOL    HW231593   1.597   2.910   9.452  0.9845  1.2788  0.3774
 6712SOL     OW31594   1.120   3.218   3.580 -0.2427  0.2637 -0.0227
 6712SOL    HW131595   1.114   3.123   3.591  1.6935  0.1935  0.4872
 6712SOL    HW231596   1.031   3.242   3.604 -0.5199 -0.4583 -0.3225
 6713SOL     OW31597   2.913   4.351  17.335  0.2484 -0.1082 -0.3283
 6713SOL    HW131598   2.896   4.380  17.425 -1.8828 -1.5659 -0.2490
 6713SOL    HW231599   2.950   4.263  17.338  2.1911  0.7230  0.0698
 6714SOL     OW31600   4.651   2.820   9.293 -0.2302 -0.2022 -0.8627
 6714SOL    HW131601   4.658   2.726   9.303  0.0861 -0.3195 -2.1481
 6714SOL    HW231602   4.661   2.856   9.381  1.6571  1.4966 -1.7532
 6715SOL     OW31603   0.165   3.797   5.760  0.0046 -0.3342  0.2444
 6715SOL    HW131604   0.195   3.734   5.694  2.7312  1.8431 -0.5679
 6715SOL    HW231605   0.073   3.772   5.765  0.0832 -0.8148 -0.6234
 6716SOL     OW31606   0.609   0.149   0.852  0.1796  0.2541 -0.2910
 6716SOL    HW131607   0.544   0.201   0.804 -1.2437 -0.1320  1.2550
 6716SOL    HW231608   0.569   0.064   0.869 -1.1761  1.0571  0.5355
 6717SOL     OW31609   0.919   0.781   5.311 -0.1143  0.8838 -0.5579
 6717SOL    HW131610   0.979   0.762   5.239  1.7483  3.9746  0.2257
 6717SOL    HW231611   0.979   0.781   5.385 -1.9185  2.9809  0.8926
 6718SOL     OW31612   1.219   3.714   5.888  0.0806 -0.5900 -0.5476
 6718SOL    HW131613   1.230   3.665   5.969 -0.6562 -0.1015 -0.1545
 6718SOL    HW231614   1.221   3.801   5.927  0.9902 -1.9765  2.4622
 6719SOL     OW31615   1.167   3.484   7.727 -0.2667  0.1127 -0.0571
 6719SOL    HW131616   1.242   3.523   7.772 -0.3921  1.1501 -0.7403
 6719SOL    HW231617   1.202   3.449   7.645 -0.3224  0.6215 -0.3024
 6720SOL     OW31618   0.760   1.722  11.966  0.2417  0.2682  0.0985
 6720SOL    HW131619   0.697   1.779  12.010 -1.3596 -0.9649 -0.5375
 6720SOL    HW231620   0.841   1.730  12.015 -0.0148 -1.2476  0.7719
 6721SOL     OW31621   2.714   4.041   0.428 -0.0070  0.1154 -0.1077
 6721SOL    HW131622   2.774   3.975   0.463 -2.3445 -1.0500  1.7103
 6721SOL    HW231623   2.768   4.117   0.449  0.3171  0.5489 -2.5321
 6722SOL     OW31624   0.599   1.516   2.797  0.3677 -0.4950 -0.3100
 6722SOL    HW131625   0.667   1.455   2.769 -0.2860 -0.6745 -1.5286
 6722SOL    HW231626   0.526   1.454   2.804  0.5341 -1.0083 -2.9526
 6723SOL     OW31627   1.037   4.135   8.065  0.1429 -0.0695 -0.1844
 6723SOL    HW131628   0.946   4.162   8.075  0.5286  0.9423  0.5386
 6723SOL    HW231629   1.047   4.091   8.150 -0.6166 -0.5488 -0.3428
 6724SOL     OW31630   0.655   2.425   1.393  0.3453 -0.1740 -0.1157
 6724SOL    HW131631   0.687   2.336   1.377  0.5423 -0.1783  0.3080
 6724SOL    HW231632   0.565   2.414   1.365  0.0913  1.4545  0.0521
 6725SOL     OW31633   4.109   3.036   2.626 -0.0924  0.1187  0.1205
 6725SOL    HW131634   4.030   3.036   2.680  0.9441 -0.1868  1.6259
 6725SOL    HW231635   4.086   3.028   2.533 -1.1336  0.0225  0.3914
 6726SOL     OW31636   4.343   3.223   2.156 -0.5416 -0.3217  0.4409
 6726SOL    HW131637   4.295   3.204   2.075  0.2619  0.9515 -0.3298
 6726SOL    HW231638   4.426   3.178   2.143 -0.7639 -0.3524 -0.8630
 6727SOL     OW31639   1.080   2.311   8.195 -0.3161 -0.2535 -0.3032
 6727SOL    HW131640   1.171   2.281   8.206  0.1280  1.2227 -0.0072
 6727SOL    HW231641   1.071   2.379   8.262  0.4630  0.9762 -1.4355
 6728SOL     OW31642   2.741   4.635  10.556 -0.1598 -0.8625 -0.2607
 6728SOL    HW131643   2.768   4.655  10.467  1.4091 -2.0790 -0.0449
 6728SOL    HW231644   2.728   0.002  10.586  0.1283 -0.2026 -2.1394
 6729SOL     OW31645   1.071   3.853  11.860 -0.5714 -0.3119 -0.0120
 6729SOL    HW131646   0.998   3.899  11.819  0.3905  0.5946 -0.7082
 6729SOL    HW231647   1.064   3.767  11.818 -0.5911 -0.0611 -0.5129
 6730SOL     OW31648   4.170   1.378  12.076  0.4143  0.1775  0.1617
 6730SOL    HW131649   4.125   1.306  12.120 -1.4008  0.9456 -0.4091
 6730SOL    HW231650   4.113   1.373  11.999 -1.9544  0.8315  1.8776
 6731SOL     OW31651   2.057   4.339   5.653  0.2299  0.3075 -0.2753
 6731SOL    HW131652   1.987   4.350   5.719  1.1362 -1.1580  0.9295
 6731SOL    HW231653   2.100   4.258   5.678 -1.3336 -0.7328 -0.9709
 6732SOL     OW31654   0.678   3.560   7.709  1.2672 -0.0480  0.6705
 6732SOL    HW131655   0.757   3.609   7.733  2.0318 -1.5152  1.1288
 6732SOL    HW231656   0.687   3.552   7.614 -0.5866  0.7680  0.4263
 6733SOL     OW31657   3.558   2.361   4.195  0.3250 -0.2754  0.5149
 6733SOL    HW131658   3.474   2.338   4.155  0.9148 -1.9273  0.2323
 6733SOL    HW231659   3.618   2.345   4.121  0.4517 -1.3385  0.8457
 6734SOL     OW31660   3.649   3.466   5.791  0.1061  0.2988 -0.3713
 6734SOL    HW131661   3.687   3.533   5.734 -0.8304 -0.2278 -1.6167
 6734SOL    HW231662   3.658   3.388   5.736  2.3282  0.4625 -0.2465
 6735SOL     OW31663   3.110   0.597   5.649  0.1170 -0.2288 -0.3808
 6735SOL    HW131664   3.042   0.570   5.710 -1.7361  0.9728 -1.9210
 6735SOL    HW231665   3.087   0.687   5.627 -1.7989 -0.4738  0.6588
 6736SOL     OW31666   2.123   2.681   8.250 -0.1264  0.1565  0.3872
 6736SOL    HW131667   2.111   2.588   8.266  0.2722  0.1625  0.7402
 6736SOL    HW231668   2.085   2.713   8.331 -2.1361  1.8386 -1.2119
 6737SOL     OW31669   3.219   0.143   7.734 -0.3861  0.2899 -0.0386
 6737SOL    HW131670   3.253   0.082   7.668  0.0704  0.5883 -0.0791
 6737SOL    HW231671   3.303   0.182   7.758 -0.0901  1.1458 -2.4245
 6738SOL     OW31672   2.244   0.796   4.455 -0.1152  0.7080  0.2402
 6738SOL    HW131673   2.167   0.843   4.487 -0.0715  0.5083  0.6303
 6738SOL    HW231674   2.265   0.861   4.387 -0.2378  0.3412 -0.1485
 6739SOL     OW31675   0.093   4.455   4.611  0.0924  0.0883  0.1789
 6739SOL    HW131676   0.053   4.512   4.678  1.7144  1.5584 -0.0919
 6739SOL    HW231677   0.170   4.436   4.664  1.0625  0.3029 -1.1571
 6740SOL     OW31678   0.290   3.380   2.896  0.3824 -0.2572  0.7847
 6740SOL    HW131679   0.202   3.345   2.906  0.1777 -0.4326 -1.5389
 6740SOL    HW231680   0.288   3.376   2.800 -0.7040  2.6417  0.6919
 6741SOL     OW31681   0.125   1.859   4.304  0.0530 -0.2166  0.3290
 6741SOL    HW131682   0.043   1.817   4.330 -0.0332  1.4414  2.6631
 6741SOL    HW231683   0.126   1.841   4.210  3.4464  0.9730  0.1569
 6742SOL     OW31684   2.125   2.119   4.181 -0.0323 -0.5260  0.0036
 6742SOL    HW131685   2.184   2.184   4.143 -0.6159  1.2361  2.1017
 6742SOL    HW231686   2.195   2.058   4.206  0.0866 -0.2119  0.4548
 6743SOL     OW31687   4.120   4.219   7.701  0.5832  0.3535  0.3905
 6743SOL    HW131688   4.176   4.142   7.696 -1.3212 -1.0983  0.9623
 6743SOL    HW231689   4.034   4.178   7.716  0.8429 -0.7328 -1.0977
 6744SOL     OW31690   0.776   0.709  15.218  0.3033  0.2997  0.4924
 6744SOL    HW131691   0.842   0.644  15.240  1.2004  0.3493 -2.0962
 6744SOL    HW231692   0.714   0.641  15.191 -0.5051  1.1525  0.1762
 6745SOL     OW31693   1.456   0.503   8.199 -0.2479 -0.3441 -0.8670
 6745SOL    HW131694   1.400   0.580   8.189 -1.2072 -1.0259 -0.6289
 6745SOL    HW231695   1.543   0.535   8.224 -1.9883  2.2163  1.9662
 6746SOL     OW31696   2.703   0.871   3.261  0.1712 -0.3786  0.1438
 6746SOL    HW131697   2.747   0.940   3.210  1.0074 -0.6948  0.4428
 6746SOL    HW231698   2.761   0.869   3.337  0.3248 -0.2687  0.0313
 6747SOL     OW31699   4.397   4.297   2.978 -0.3588  0.2522  0.4072
 6747SOL    HW131700   4.446   4.361   3.030  1.1164 -0.1432 -0.4923
 6747SOL    HW231701   4.306   4.324   2.985 -0.4271  0.1462 -0.0807
 6748SOL     OW31702   1.722   1.291   8.568  0.4693  0.7176  0.3968
 6748SOL    HW131703   1.634   1.326   8.580  0.5942  0.9427  0.6295
 6748SOL    HW231704   1.742   1.250   8.651  0.5513  1.2241  0.6254
 6749SOL     OW31705   0.574   3.498   9.305  0.4925 -0.2160  0.7989
 6749SOL    HW131706   0.661   3.490   9.266  0.7662 -0.1862  1.4058
 6749SOL    HW231707   0.543   3.408   9.307 -0.9462  0.2661  0.3406
 6750SOL     OW31708   1.841   0.039   5.669  0.1540 -0.2833  0.1103
 6750SOL    HW131709   1.791   0.090   5.732 -0.7392 -0.0972 -0.7490
 6750SOL    HW231710   1.888   4.703   5.727 -0.1352 -0.7894 -0.1753
 6751SOL     OW31711   3.131   4.063   7.893  0.4605  0.2507 -0.5234
 6751SOL    HW131712   3.079   4.025   7.965 -0.3551 -0.0608 -1.2794
 6751SOL    HW231713   3.217   4.038   7.928 -0.3900  0.4022  1.7171
 6752SOL     OW31714   0.195   4.157  14.693 -0.1239 -0.2537  0.2922
 6752SOL    HW131715   0.229   4.117  14.613 -0.8091 -1.0817  0.4144
 6752SOL    HW231716   0.212   4.086  14.755  1.3467 -0.0134  0.1758
 6753SOL     OW31717   3.143   1.421  10.066 -0.0556  0.8608 -0.1421
 6753SOL    HW131718   3.211   1.392  10.005  0.3008 -0.2935  0.8103
 6753SOL    HW231719   3.160   1.515  10.072 -1.3319  0.8478  3.7552
 6754SOL     OW31720   4.068   1.739   8.407  0.5817 -0.1305  0.4254
 6754SOL    HW131721   4.106   1.660   8.368 -2.6650 -1.7503  0.5101
 6754SOL    HW231722   4.132   1.805   8.381 -1.5773  1.4877 -0.7496
 6755SOL     OW31723   2.581   4.126   9.887 -0.1714  0.1289  0.0087
 6755SOL    HW131724   2.502   4.129   9.834 -0.7639 -0.9953  0.8112
 6755SOL    HW231725   2.591   4.032   9.901  1.7259  0.1371 -1.3782
 6756SOL     OW31726   1.557   1.793   7.344  0.5524 -0.2726 -0.0158
 6756SOL    HW131727   1.552   1.699   7.324  0.1393  0.2420 -2.3364
 6756SOL    HW231728   1.635   1.793   7.401 -0.1619 -0.3994  0.9600
 6757SOL     OW31729   2.273   0.794   6.385  0.1497  0.1610 -0.4185
 6757SOL    HW131730   2.243   0.871   6.337  1.4085 -0.7844 -2.7122
 6757SOL    HW231731   2.304   0.735   6.316 -0.6524  0.0127 -0.6474
 6758SOL     OW31732   4.046   4.565   6.769  0.3403  0.7647 -0.7564
 6758SOL    HW131733   4.090   4.647   6.791  2.0698 -0.0069 -1.3509
 6758SOL    HW231734   4.056   4.575   6.674  1.6292 -0.5732 -0.7598
 6759SOL     OW31735   3.203   3.648   6.262 -0.1632  0.7488  0.2435
 6759SOL    HW131736   3.278   3.707   6.262  0.5668 -0.1570  1.2754
 6759SOL    HW231737   3.171   3.644   6.173 -0.3614 -0.6260  0.3757
 6760SOL     OW31738   0.792   0.005   8.497 -0.5740  0.2549  0.2935
 6760SOL    HW131739   0.859   0.054   8.449 -0.1311 -0.1276  0.5232
 6760SOL    HW231740   0.837   4.644   8.488 -1.9086 -0.4508  0.2134
 6761SOL     OW31741   0.395   3.272  13.873  0.0189  0.4595 -0.3899
 6761SOL    HW131742   0.469   3.333  13.880  1.1858 -1.2643  2.3807
 6761SOL    HW231743   0.317   3.326  13.889  0.3039  0.9007 -0.4780
 6762SOL     OW31744   3.664   0.931   0.421  0.1160 -0.1802  0.4598
 6762SOL    HW131745   3.596   0.919   0.355  0.8089  0.7771 -0.4228
 6762SOL    HW231746   3.655   0.861   0.485  0.2904  0.2620  0.9749
 6763SOL     OW31747   3.954   3.387  16.896 -0.5617 -0.2708  0.5752
 6763SOL    HW131748   4.019   3.454  16.918  0.7683 -1.0787 -0.9119
 6763SOL    HW231749   4.012   3.317  16.867 -0.1366  0.6720 -0.8369
 6764SOL     OW31750   0.875   3.710   5.806 -0.3113  0.2816 -0.7082
 6764SOL    HW131751   0.952   3.766   5.796 -0.5752  1.4112  3.6365
 6764SOL    HW231752   0.918   3.634   5.846 -1.0146  0.6029  0.6613
 6765SOL     OW31753   2.556   0.633   2.228  0.0256 -0.1778  0.0559
 6765SOL    HW131754   2.469   0.654   2.195 -0.9530 -3.2887  0.6209
 6765SOL    HW231755   2.598   0.718   2.217  2.3413 -1.1332  1.3635
 6766SOL     OW31756   2.670   0.412  14.736 -0.5635 -0.6390  0.4389
 6766SOL    HW131757   2.612   0.399  14.811  0.0337 -0.6144  0.9064
 6766SOL    HW231758   2.677   0.325  14.697  2.3138  0.1219 -0.7486
 6767SOL     OW31759   0.273   1.395   1.954 -0.3911  0.0581 -0.3844
 6767SOL    HW131760   0.304   1.338   1.885 -0.5916 -0.0423 -0.3932
 6767SOL    HW231761   0.219   1.458   1.905 -3.0548 -0.0623  2.3473
 6768SOL     OW31762   4.688   4.499   6.530 -0.0467 -0.5795 -0.0945
 6768SOL    HW131763   0.035   4.448   6.490  0.5807 -0.4259  0.8162
 6768SOL    HW231764   4.609   4.501   6.476 -1.7403 -1.7694  2.3187
 6769SOL     OW31765   3.814   1.465   3.802  0.2021 -0.3913  0.3974
 6769SOL    HW131766   3.825   1.505   3.716  1.0101  1.3098  1.2722
 6769SOL    HW231767   3.905   1.452   3.828  1.0466  2.5642 -1.1129
 6770SOL     OW31768   0.571   3.321   2.420  0.8865 -0.1130  0.4534
 6770SOL    HW131769   0.560   3.331   2.325 -0.3310  0.0401  0.6096
 6770SOL    HW231770   0.499   3.373   2.456 -0.1275  0.3507 -2.2461
 6771SOL     OW31771   3.604   3.388   9.217 -0.7257 -0.0332  0.0246
 6771SOL    HW131772   3.559   3.405   9.135  1.0049  0.3462 -0.8596
 6771SOL    HW231773   3.660   3.465   9.213 -1.2651  0.4595  1.8121
 6772SOL     OW31774   2.520   3.104   1.602 -0.2510 -0.1019  0.5778
 6772SOL    HW131775   2.433   3.124   1.637  0.4743  0.2210  2.1872
 6772SOL    HW231776   2.495   3.031   1.545 -0.6690  0.1106  0.4883
 6773SOL     OW31777   2.853   4.221   6.899 -0.2797  0.6081 -0.2202
 6773SOL    HW131778   2.827   4.303   6.939 -2.0809 -0.3565  0.5560
 6773SOL    HW231779   2.943   4.206   6.931 -0.3005  1.1627  0.1060
 6774SOL     OW31780   2.781   1.557  16.363 -0.0616  0.0960  0.0775
 6774SOL    HW131781   2.686   1.569  16.371 -0.5048 -1.3163 -3.0230
 6774SOL    HW231782   2.788   1.601  16.278 -0.6297  1.4606  0.7306
 6775SOL     OW31783   1.150   0.150  13.321 -0.0516 -0.4812 -0.1237
 6775SOL    HW131784   1.078   0.157  13.384  1.0611 -3.8735  1.4972
 6775SOL    HW231785   1.127   0.217  13.256 -0.0669  0.1829  0.5631
 6776SOL     OW31786   0.081   0.831   7.145  1.1808 -0.9275  0.0455
 6776SOL    HW131787   0.072   0.737   7.130 -0.8664 -0.6072 -0.7057
 6776SOL    HW231788   0.114   0.858   7.059 -2.5175  0.2859 -0.9878
 6777SOL     OW31789   4.450   4.360   2.256  0.4314  0.1351 -0.0620
 6777SOL    HW131790   4.416   4.343   2.168  1.6584 -0.8184 -0.3534
 6777SOL    HW231791   4.373   4.335   2.307  0.7311  0.5454  0.5789
 6778SOL     OW31792   1.310   3.473   2.611  0.7700 -0.0240  0.0894
 6778SOL    HW131793   1.297   3.502   2.521  1.2300  0.5331  0.2005
 6778SOL    HW231794   1.244   3.517   2.664 -0.1835 -1.4114  0.0464
 6779SOL     OW31795   0.899   3.131   2.303 -0.0337  0.3238 -0.1690
 6779SOL    HW131796   0.967   3.088   2.250  0.4186 -1.0590  1.5315
 6779SOL    HW231797   0.945   3.197   2.355  2.8542 -3.9742  2.7343
 6780SOL     OW31798   3.862   2.783   7.940 -0.0645  0.2173 -0.0198
 6780SOL    HW131799   3.953   2.796   7.968  0.3357 -0.3018 -1.0750
 6780SOL    HW231800   3.874   2.814   7.850  0.2301 -0.1179 -0.0955
 6781SOL     OW31801   3.182   2.949   7.299 -0.1634 -0.4411  0.6179
 6781SOL    HW131802   3.197   3.024   7.357 -0.8893  0.5549 -0.4736
 6781SOL    HW231803   3.107   2.971   7.242  0.9375 -0.5225 -0.8620
 6782SOL     OW31804   1.021   4.421   2.222  0.0882  0.1075 -0.2654
 6782SOL    HW131805   0.981   4.507   2.214  1.5776  0.8448  0.1398
 6782SOL    HW231806   0.981   4.396   2.306 -2.0040  2.0801 -0.6893
 6783SOL     OW31807   3.668   2.445  10.729  0.0893  0.7615 -0.0598
 6783SOL    HW131808   3.597   2.447  10.665  3.3419  0.1229 -3.7073
 6783SOL    HW231809   3.668   2.354  10.758  0.8218  0.4171 -1.1409
 6784SOL     OW31810   2.098   2.761  10.964  0.7319 -0.5685 -0.6780
 6784SOL    HW131811   2.153   2.748  10.887 -1.2919 -0.2043 -2.1702
 6784SOL    HW231812   2.050   2.842  10.949  0.0892 -0.4998  1.7145
 6785SOL     OW31813   4.165   1.472   8.371 -0.3553  0.1292  0.2161
 6785SOL    HW131814   4.253   1.485   8.406 -0.3993 -0.7199  0.6418
 6785SOL    HW231815   4.162   1.377   8.363 -1.5967  0.1563  0.2761
 6786SOL     OW31816   1.513   4.376   1.186  0.5090  0.2967  0.0875
 6786SOL    HW131817   1.567   4.326   1.125  0.7801  1.1014 -0.3410
 6786SOL    HW231818   1.448   4.407   1.123  0.9329  1.6217  0.3109
 6787SOL     OW31819   0.246   1.564   8.953 -0.1192 -0.1197  0.1240
 6787SOL    HW131820   0.300   1.532   9.025 -1.7230 -0.1197  1.3081
 6787SOL    HW231821   0.239   1.659   8.962 -0.9873 -0.2859  1.0882
 6788SOL     OW31822   2.592   0.431  11.687 -1.0137  0.2029 -0.3387
 6788SOL    HW131823   2.567   0.381  11.765  0.9811  1.0463  0.8345
 6788SOL    HW231824   2.671   0.382  11.662 -1.7841 -0.9063 -0.5972
 6789SOL     OW31825   0.772   3.232  17.552 -0.7313 -0.1653  0.6537
 6789SOL    HW131826   0.804   3.223  17.641 -0.2632 -2.0395  0.3014
 6789SOL    HW231827   0.853   3.223  17.501 -1.9149  2.3287 -1.6494
 6790SOL     OW31828   4.669   0.504   5.359  0.2589  0.0149  0.2451
 6790SOL    HW131829   0.027   0.516   5.309  1.0337 -2.0728  1.0014
 6790SOL    HW231830   4.699   0.518   5.449  0.2860 -2.0055  0.5508
 6791SOL     OW31831   0.608   1.128   1.493  0.6891 -0.1630  0.4337
 6791SOL    HW131832   0.530   1.181   1.478  2.1238  1.1984 -2.1485
 6791SOL    HW231833   0.671   1.200   1.499  0.5015  0.1541 -1.6423
 6792SOL     OW31834   0.674   2.167  15.392  0.0485 -0.2701 -0.3132
 6792SOL    HW131835   0.728   2.201  15.463 -0.4635 -1.9288  0.8560
 6792SOL    HW231836   0.591   2.208  15.416  1.8677  2.2189  1.7773
 6793SOL     OW31837   2.676   1.313   6.636  0.3907 -0.4049  0.4946
 6793SOL    HW131838   2.700   1.263   6.714  2.5220  0.2428  0.2575
 6793SOL    HW231839   2.597   1.266   6.610 -0.8141  2.2082 -0.4798
 6794SOL     OW31840   4.363   1.392  17.680 -0.4769 -0.2901 -0.4138
 6794SOL    HW131841   4.331   1.311  17.641 -0.0075  0.1086 -1.6126
 6794SOL    HW231842   4.399   1.361   0.069  1.3191 -0.0584 -1.1095
 6795SOL     OW31843   3.070   3.190   9.960  0.5120  0.2754  0.0424
 6795SOL    HW131844   3.059   3.138  10.039 -0.8549  1.1144  0.4083
 6795SOL    HW231845   3.143   3.144   9.918  0.8865 -0.0447  1.0379
 6796SOL     OW31846   2.853   1.862   7.606 -0.1960  0.2899  0.0075
 6796SOL    HW131847   2.761   1.850   7.629  1.1495 -0.3852  4.9897
 6796SOL    HW231848   2.869   1.951   7.637 -2.1285  0.3350  0.9000
 6797SOL     OW31849   3.240   2.100   3.543 -0.4889 -0.1849 -0.2900
 6797SOL    HW131850   3.264   2.106   3.451 -0.3255  0.9814 -0.1677
 6797SOL    HW231851   3.151   2.064   3.544  0.2863 -2.0581 -0.3139
 6798SOL     OW31852   0.843   3.258   5.547 -0.1769 -0.0309 -0.3773
 6798SOL    HW131853   0.818   3.284   5.458 -0.6398  2.0304  0.3514
 6798SOL    HW231854   0.935   3.281   5.540 -0.9202  3.2173  0.5662
 6799SOL     OW31855   3.213   3.673   2.996 -0.3403  0.0654  0.0947
 6799SOL    HW131856   3.283   3.661   3.060 -0.8596  2.0478  1.0497
 6799SOL    HW231857   3.246   3.737   2.933 -2.0490 -0.1760 -1.0295
 6800SOL     OW31858   3.350   1.877  15.381  0.4373  0.1927 -0.1764
 6800SOL    HW131859   3.327   1.873  15.289  1.1398 -0.7509 -0.3068
 6800SOL    HW231860   3.431   1.928  15.383  1.0469 -0.7680 -0.7444
 6801SOL     OW31861   1.075   1.668   8.470  0.1682 -0.1283  0.1887
 6801SOL    HW131862   1.043   1.606   8.536 -1.9958  1.2692  0.4509
 6801SOL    HW231863   1.153   1.627   8.434  0.5627  0.7248  0.0787
 6802SOL     OW31864   1.893   0.144  13.625 -0.1661 -0.0285 -0.3605
 6802SOL    HW131865   1.887   0.061  13.673 -0.1001  0.4678  0.4877
 6802SOL    HW231866   1.815   0.140  13.570  0.8816  0.0510 -1.8566
 6803SOL     OW31867   0.588   3.614  11.645  0.1347 -0.0794 -0.1060
 6803SOL    HW131868   0.638   3.614  11.563  0.3488 -0.1726  0.0250
 6803SOL    HW231869   0.501   3.608  11.604  0.3931 -0.4035 -0.6095
 6804SOL     OW31870   0.168   3.603  16.738  0.3572 -0.4323  0.0601
 6804SOL    HW131871   0.153   3.695  16.757  1.8871  0.1556 -1.6428
 6804SOL    HW231872   0.113   3.590  16.662 -1.1336 -1.2878  1.2768
 6805SOL     OW31873   0.710   4.305   2.628  0.2438 -0.6707  0.2308
 6805SOL    HW131874   0.664   4.291   2.545 -2.3256 -1.2565  1.7452
 6805SOL    HW231875   0.637   4.277   2.684 -0.1202  1.3728  0.7830
 6806SOL     OW31876   4.589   1.032   2.001  0.4873  0.1143  0.1399
 6806SOL    HW131877   4.503   1.015   2.041  0.5108 -0.3400 -0.0042
 6806SOL    HW231878   4.554   1.075   1.923  0.6886  0.0949  0.0411
 6807SOL     OW31879   2.222   1.128   8.012  0.2163 -0.2232  0.3751
 6807SOL    HW131880   2.249   1.051   7.962 -0.5006 -0.0959 -0.1969
 6807SOL    HW231881   2.176   1.180   7.946 -1.2819 -0.0574  1.5374
 6808SOL     OW31882   2.843   3.912  11.127 -0.0027 -0.3155 -0.0148
 6808SOL    HW131883   2.827   3.857  11.050  1.9328 -0.3787 -0.3870
 6808SOL    HW231884   2.872   3.992  11.084  0.1293 -0.4049 -0.0934
 6809SOL     OW31885   2.195   0.621  15.034 -0.3798  0.1972  0.4554
 6809SOL    HW131886   2.172   0.602  14.942 -0.6300 -0.4418  0.6477
 6809SOL    HW231887   2.275   0.569  15.032 -1.2009 -1.0802  0.5428
 6810SOL     OW31888   2.044   3.887   1.305  0.2205  0.4913  0.1790
 6810SOL    HW131889   1.961   3.859   1.266  0.4619  0.1161 -0.0708
 6810SOL    HW231890   2.063   3.967   1.256  0.8908  0.1867 -0.0563
 6811SOL     OW31891   3.772   0.820   6.061 -0.1709  0.2195  0.4027
 6811SOL    HW131892   3.762   0.898   6.006 -1.5394 -0.1005  0.1869
 6811SOL    HW231893   3.804   0.866   6.138  1.4221  2.0888 -1.3679
 6812SOL     OW31894   0.405   2.817   9.298 -0.3007  0.0699  0.0711
 6812SOL    HW131895   0.410   2.891   9.359  0.6345 -0.1443  0.2407
 6812SOL    HW231896   0.374   2.850   9.214  3.3404  4.1518  0.3717
 6813SOL     OW31897   4.423   1.044   4.103  0.9860  0.5773  0.6412
 6813SOL    HW131898   4.459   1.093   4.176 -1.1557 -0.5710  2.4628
 6813SOL    HW231899   4.481   1.050   4.027 -1.4682 -1.0315 -1.3681
 6814SOL     OW31900   0.845   3.760   5.535  0.1628  0.2082 -0.5841
 6814SOL    HW131901   0.934   3.731   5.516  0.8509  1.5507  0.6457
 6814SOL    HW231902   0.839   3.726   5.625 -2.1515  2.2349  0.0150
 6815SOL     OW31903   2.184   0.099  16.686 -0.0295  0.3994 -0.1536
 6815SOL    HW131904   2.278   0.083  16.698  0.1587  1.4393 -0.1759
 6815SOL    HW231905   2.155   0.074  16.773  1.1506 -1.5445 -0.3090
 6816SOL     OW31906   3.759   4.309   0.328 -0.1659  0.4109 -0.4165
 6816SOL    HW131907   3.706   4.239   0.367  1.0327  1.1016  2.4365
 6816SOL    HW231908   3.697   4.366   0.282 -1.5040 -2.4012 -2.1215
 6817SOL     OW31909   3.250   4.530   5.945 -0.7055 -0.0827  0.2055
 6817SOL    HW131910   3.266   4.564   5.857 -1.1344  0.8100  0.4775
 6817SOL    HW231911   3.248   4.611   5.996 -0.8281  1.0932 -1.6679
 6818SOL     OW31912   0.114   0.077   0.579  0.2307 -0.0099 -0.3026
 6818SOL    HW131913   0.052   0.104   0.511  3.2963 -0.4650 -3.3284
 6818SOL    HW231914   0.086   4.715   0.611  4.2869 -0.9392  0.8530
 6819SOL     OW31915   1.146   2.068  10.357  0.1983 -0.3903  0.6652
 6819SOL    HW131916   1.223   2.114  10.390 -0.3910  1.1945 -0.1988
 6819SOL    HW231917   1.114   2.124  10.287 -2.5228 -1.9909  0.6015
 6820SOL     OW31918   3.895   2.739   7.465 -0.4671  0.6320  0.0094
 6820SOL    HW131919   3.819   2.797   7.473  0.2162  1.2308  2.1933
 6820SOL    HW231920   3.863   2.654   7.436  1.4920  0.0051 -0.3250
 6821SOL     OW31921   1.488   4.301  13.739 -0.5082 -0.5387  0.2349
 6821SOL    HW131922   1.422   4.337  13.799  0.7957 -0.7733  1.8197
 6821SOL    HW231923   1.452   4.326  13.654 -1.6758  2.6495  1.6595
 6822SOL     OW31924   2.509   2.119   3.792  0.9080  0.1838 -0.6708
 6822SOL    HW131925   2.420   2.145   3.816  1.2328  0.5072  0.2097
 6822SOL    HW231926   2.525   2.164   3.709 -1.0222  0.8884 -0.6675
 6823SOL     OW31927   0.470   2.239   4.733  0.0568 -0.2565 -0.0237
 6823SOL    HW131928   0.447   2.146   4.727  3.6330 -1.1415  0.0290
 6823SOL    HW231929   0.480   2.244   4.828  0.8731  0.7215 -0.1608
 6824SOL     OW31930   2.019   2.489   4.611  0.7784 -0.1882 -0.6489
 6824SOL    HW131931   1.999   2.432   4.685  0.4717 -1.0314 -1.3813
 6824SOL    HW231932   2.107   2.457   4.590 -0.2667 -2.4182 -1.6104
 6825SOL     OW31933   0.423   3.176  15.938 -0.4704 -0.4846  0.3013
 6825SOL    HW131934   0.483   3.196  15.866 -1.4575 -0.3025 -0.4629
 6825SOL    HW231935   0.442   3.240  16.006  0.4091 -0.3767 -0.0498
 6826SOL     OW31936   0.113   2.527   3.400 -0.1180 -0.0140  0.1151
 6826SOL    HW131937   0.191   2.582   3.399 -2.2277  3.0822  2.8329
 6826SOL    HW231938   0.108   2.499   3.309 -0.2608  1.3987 -0.3066
 6827SOL     OW31939   2.205   4.366   6.240  0.5105 -0.9511 -0.2276
 6827SOL    HW131940   2.258   4.441   6.266  1.9210 -0.8754 -3.2724
 6827SOL    HW231941   2.260   4.290   6.261  0.8285 -1.1826 -1.8783
 6828SOL     OW31942   3.168   0.692   6.855 -0.0537  0.8618  0.1039
 6828SOL    HW131943   3.177   0.710   6.762 -0.2252  0.3141 -0.0210
 6828SOL    HW231944   3.200   0.775   6.890 -0.0339  0.5536  0.8195
 6829SOL     OW31945   1.022   0.821  14.477 -0.1042 -0.0659  0.4858
 6829SOL    HW131946   1.040   0.749  14.416  0.1562  1.1031 -0.8122
 6829SOL    HW231947   1.017   0.900  14.423  0.8274 -1.2445 -1.3095
 6830SOL     OW31948   1.232   4.359  17.656  0.3479  0.0645 -0.2685
 6830SOL    HW131949   1.207   4.430  17.597 -2.0128 -0.8131 -0.3600
 6830SOL    HW231950   1.327   4.368  17.653  0.4332 -0.5419  0.6057
 6831SOL     OW31951   0.496   1.134  13.495 -0.2940  0.0192  0.3646
 6831SOL    HW131952   0.516   1.227  13.499 -2.0687  0.4391 -0.6315
 6831SOL    HW231953   0.564   1.105  13.556 -0.6918  1.4397  1.4685
 6832SOL     OW31954   1.752   1.586   2.872 -0.1214  0.1322 -0.0180
 6832SOL    HW131955   1.721   1.550   2.789 -1.7862  0.9146  0.2680
 6832SOL    HW231956   1.791   1.507   2.909  0.0529  0.2071 -0.0423
 6833SOL     OW31957   0.800   3.515   4.666 -0.6467 -0.5518  0.5814
 6833SOL    HW131958   0.848   3.563   4.599 -1.1014 -1.0163 -0.0677
 6833SOL    HW231959   0.776   3.587   4.725  1.8234  0.8596 -0.1139
 6834SOL     OW31960   2.192   1.025  16.081  0.3675  0.3553  0.0768
 6834SOL    HW131961   2.225   0.938  16.058 -0.2639  0.4925 -1.3452
 6834SOL    HW231962   2.239   1.076  16.014  1.7564  2.9945  3.1055
 6835SOL     OW31963   1.497   2.517   5.433  0.1867 -0.2180  0.1232
 6835SOL    HW131964   1.551   2.480   5.363  1.0811  2.2906 -0.4806
 6835SOL    HW231965   1.562   2.520   5.503 -0.8741  0.2164  1.0930
 6836SOL     OW31966   3.231   0.233   7.055  0.1913 -0.6145  0.4801
 6836SOL    HW131967   3.237   0.323   7.088 -0.0729 -1.4898  2.9101
 6836SOL    HW231968   3.319   0.201   7.075 -1.1061 -2.3062  3.5557
 6837SOL     OW31969   0.804   3.408   2.150 -0.2792  0.1294  0.3542
 6837SOL    HW131970   0.729   3.360   2.116 -2.3997  4.1375 -0.5904
 6837SOL    HW231971   0.779   3.412   2.242  0.2479 -1.8644  0.5832
 6838SOL     OW31972   1.805   2.798  13.898 -0.4341 -0.2565 -0.2856
 6838SOL    HW131973   1.857   2.877  13.884 -1.5318  0.4974 -0.0968
 6838SOL    HW231974   1.721   2.827  13.862 -1.0321 -1.0127  0.4974
 6839SOL     OW31975   2.769   1.179   7.266  0.2641 -0.3183 -0.1586
 6839SOL    HW131976   2.684   1.161   7.225 -0.7938 -1.5800  2.5405
 6839SOL    HW231977   2.740   1.189   7.357 -0.8381  0.0074 -0.5452
 6840SOL     OW31978   0.158   3.131   4.885 -0.3548 -0.0585  0.0433
 6840SOL    HW131979   0.209   3.195   4.836 -0.3107  0.8627  1.2811
 6840SOL    HW231980   0.131   3.070   4.817 -1.2018  0.7289 -0.3285
 6841SOL     OW31981   3.713   4.165   9.049  0.0610 -0.0677  0.2548
 6841SOL    HW131982   3.708   4.140   8.956  0.6200 -0.3642  0.3088
 6841SOL    HW231983   3.624   4.152   9.081 -0.0680 -0.9165 -0.4477
 6842SOL     OW31984   0.324   3.550  11.440 -0.5795  0.0249  0.0118
 6842SOL    HW131985   0.244   3.595  11.469 -1.8252 -1.3113 -1.3457
 6842SOL    HW231986   0.285   3.466  11.417 -0.7160 -0.0299  0.4491
 6843SOL     OW31987   4.586   2.492   3.506  0.6223 -0.0505 -0.1022
 6843SOL    HW131988   4.640   2.466   3.432 -0.0491 -1.4067 -0.1275
 6843SOL    HW231989   4.623   2.578   3.525  0.5936  0.1970 -1.1626
 6844SOL     OW31990   0.045   0.194   7.835 -0.7756  0.3302  0.2357
 6844SOL    HW131991   0.014   0.113   7.794  0.0063  0.2100 -0.1235
 6844SOL    HW231992   0.136   0.181   7.809 -1.1680  2.0933 -2.0070
 6845SOL     OW31993   2.936   4.156   0.861  0.0483  0.8879 -0.0633
 6845SOL    HW131994   2.842   4.138   0.852  0.5704 -2.1959  0.8377
 6845SOL    HW231995   2.932   4.250   0.841  1.2280  0.6708 -1.2825
 6846SOL     OW31996   4.439   0.683  16.960 -0.9698  0.3655  0.5401
 6846SOL    HW131997   4.410   0.682  17.052  0.9984 -1.9123  1.1372
 6846SOL    HW231998   4.517   0.738  16.970 -0.3279 -0.5946  0.8124
 6847SOL     OW31999   3.890   1.540   4.970 -0.0043  0.6261 -0.7175
 6847SOL    HW132000   3.944   1.618   4.981 -1.0258  1.6670 -2.9596
 6847SOL    HW232001   3.848   1.541   5.056  0.5705  0.1572 -0.4364
 6848SOL     OW32002   3.149   4.558   9.287  0.5787  0.5438  0.2857
 6848SOL    HW132003   3.079   4.537   9.224 -1.4157 -2.3234  3.4346
 6848SOL    HW232004   3.224   4.528   9.235  0.9951 -1.0097  1.7697
 6849SOL     OW32005   1.076   0.641   8.486  0.1304  0.3423  0.7757
 6849SOL    HW132006   1.010   0.642   8.416  1.0176  0.3848 -0.0699
 6849SOL    HW232007   1.146   0.580   8.463 -0.1985 -0.2273  1.2901
 6850SOL     OW32008   2.071   2.462  13.332 -0.3314 -0.2825 -0.0336
 6850SOL    HW132009   2.063   2.552  13.364  2.9805 -0.3123  0.9257
 6850SOL    HW232010   2.144   2.460  13.270  1.2868 -0.6328  1.8766
 6851SOL     OW32011   2.638   2.225   4.662 -0.0477 -0.1780  0.6590
 6851SOL    HW132012   2.559   2.242   4.609  0.5904  1.5114  0.2553
 6851SOL    HW232013   2.618   2.248   4.753 -0.7989 -0.1892  0.5008
 6852SOL     OW32014   0.830   2.649   4.559 -0.6134  0.0878 -0.2409
 6852SOL    HW132015   0.884   2.722   4.591 -0.4192 -0.2312  0.1777
 6852SOL    HW232016   0.742   2.671   4.589  0.0519 -0.7624  2.4238
 6853SOL     OW32017   1.967   4.066  13.678  0.3278  0.0029 -0.0114
 6853SOL    HW132018   1.884   4.113  13.679  1.2262  1.6038 -0.4460
 6853SOL    HW232019   1.993   4.076  13.586  1.8249  1.9278  0.6196
 6854SOL     OW32020   2.860   1.743   3.162  0.0862 -0.4669  0.2232
 6854SOL    HW132021   2.800   1.756   3.235 -0.9361  0.8377 -0.8491
 6854SOL    HW232022   2.809   1.676   3.115  0.3013 -0.1611 -0.4576
 6855SOL     OW32023   2.819   3.643  13.674 -0.0937 -0.0725 -0.2480
 6855SOL    HW132024   2.753   3.583  13.640 -1.2693  0.3795  1.1980
 6855SOL    HW232025   2.797   3.623  13.765  0.7572 -2.6364 -0.6132
 6856SOL     OW32026   3.363   4.344   7.510 -0.1796  0.0051  0.4103
 6856SOL    HW132027   3.293   4.281   7.525 -2.0308  1.6058 -1.4969
 6856SOL    HW232028   3.365   4.387   7.596 -0.0699  0.5077  0.1592
 6857SOL     OW32029   1.620   2.160   5.360 -0.4035 -0.6848 -0.0610
 6857SOL    HW132030   1.689   2.107   5.321  0.9748  1.0928 -0.0028
 6857SOL    HW232031   1.543   2.106   5.340  0.2901 -1.9089  0.6260
 6858SOL     OW32032   4.191   3.149   9.225  0.7409 -0.6363 -0.6335
 6858SOL    HW132033   4.253   3.188   9.164  2.6938 -0.9245  1.1647
 6858SOL    HW232034   4.243   3.085   9.274  1.6594  1.1230  0.6901
 6859SOL     OW32035   2.968   4.098   2.492  0.0625 -0.2476 -0.0881
 6859SOL    HW132036   3.040   4.151   2.459 -1.3097  1.3673 -0.4968
 6859SOL    HW232037   2.935   4.156   2.561  0.6418  0.8200 -0.7062
 6860SOL     OW32038   1.636   4.099   9.978  0.1397 -0.2021 -0.2386
 6860SOL    HW132039   1.666   4.028  10.035  0.0974  1.9638  2.5191
 6860SOL    HW232040   1.548   4.124  10.007 -0.4698 -2.7127  0.0926
 6861SOL     OW32041   2.391   4.170   9.443 -0.0621 -0.0161  0.0986
 6861SOL    HW132042   2.420   4.225   9.516  0.8000 -1.1219  0.5881
 6861SOL    HW232043   2.326   4.112   9.483 -0.3227  0.9973  1.1407
 6862SOL     OW32044   0.399   1.019  11.889 -0.0866 -0.0792  0.0161
 6862SOL    HW132045   0.493   1.011  11.902 -0.4842 -2.1881  1.4543
 6862SOL    HW232046   0.392   1.108  11.852 -1.7107 -1.2870 -2.5848
 6863SOL     OW32047   3.811   4.067   4.234 -0.3522 -0.2110 -0.4531
 6863SOL    HW132048   3.840   4.059   4.325 -2.4147  0.7025  0.2895
 6863SOL    HW232049   3.899   4.069   4.197 -0.6695 -0.6660 -1.2427
 6864SOL     OW32050   1.036   1.358   9.489  0.1272 -0.0904  0.4535
 6864SOL    HW132051   1.121   1.387   9.521  0.2856 -1.2138  1.0759
 6864SOL    HW232052   1.035   1.268   9.522  0.8598  0.1891  1.2312
 6865SOL     OW32053   3.907   4.337  17.596  0.0063  0.2232 -0.0830
 6865SOL    HW132054   3.913   4.278  17.671  1.6383  0.3263 -0.1406
 6865SOL    HW232055   3.857   4.406  17.641  0.8927  0.3252  0.7431
 6866SOL     OW32056   2.369   2.713  14.338  0.4255 -0.2353 -0.2639
 6866SOL    HW132057   2.368   2.809  14.336 -0.1819 -0.2562 -1.0158
 6866SOL    HW232058   2.391   2.689  14.248 -3.4116  1.4669 -1.6266
 6867SOL     OW32059   2.490   0.779   0.945  0.1769 -0.3571  0.3261
 6867SOL    HW132060   2.564   0.826   0.982 -0.7121  1.4617 -0.2081
 6867SOL    HW232061   2.500   0.698   0.995 -0.8161  0.1521  1.3408
 6868SOL     OW32062   4.697   2.820   5.276  0.3818 -0.5010 -0.0247
 6868SOL    HW132063   4.619   2.858   5.235  0.1528 -0.7583  0.1732
 6868SOL    HW232064   4.671   2.813   5.367  0.8853  3.8410  0.4553
 6869SOL     OW32065   3.739   2.098  17.043  0.1268 -0.6228  0.1318
 6869SOL    HW132066   3.753   2.021  17.097 -0.5550  0.3688  1.7427
 6869SOL    HW232067   3.658   2.130  17.082  0.3512 -1.5563  1.3362
 6870SOL     OW32068   2.878   2.091   8.602  0.6015  0.0139 -0.3463
 6870SOL    HW132069   2.925   2.079   8.684 -1.3670  0.3671  0.8558
 6870SOL    HW232070   2.913   2.177   8.580 -1.0442  0.3607 -1.6665
 6871SOL     OW32071   1.049   2.312   4.018 -0.1303 -0.2818  0.1934
 6871SOL    HW132072   1.108   2.309   4.094  2.9867  0.2295 -2.2044
 6871SOL    HW232073   0.960   2.317   4.053  0.2442 -0.5809  1.2086
 6872SOL     OW32074   1.206   0.255   4.986  0.1236 -0.5202  0.2355
 6872SOL    HW132075   1.181   0.287   5.073  2.3197 -1.6159  1.2748
 6872SOL    HW232076   1.153   0.176   4.979 -0.9756  0.4364 -1.8667
 6873SOL     OW32077   2.506   0.478   1.466  0.1271  0.6193 -0.9113
 6873SOL    HW132078   2.466   0.391   1.458 -0.2669  0.8878 -1.7712
 6873SOL    HW232079   2.426   0.522   1.494  0.3648  1.2487 -1.2258
 6874SOL     OW32080   2.842   1.781   6.138 -0.3015  0.2111 -0.3663
 6874SOL    HW132081   2.805   1.868   6.119 -1.6717 -0.0809  0.8580
 6874SOL    HW232082   2.830   1.778   6.233  0.9368 -2.3911 -0.3071
 6875SOL     OW32083   1.195   4.212   2.245 -0.8625 -0.2292 -0.3588
 6875SOL    HW132084   1.204   4.201   2.151 -0.2427  1.1290 -0.4629
 6875SOL    HW232085   1.175   4.306   2.249  1.9597  0.4124 -1.0099
 6876SOL     OW32086   3.820   1.257  14.464 -0.5640 -0.1389  0.1374
 6876SOL    HW132087   3.889   1.198  14.494  0.1824  0.3987 -0.4809
 6876SOL    HW232088   3.865   1.341  14.471 -0.0794 -0.5650  1.9877
 6877SOL     OW32089   2.329   4.306  16.027 -0.3137 -0.4074 -0.0461
 6877SOL    HW132090   2.290   4.290  16.113 -0.5573 -1.7357 -0.3934
 6877SOL    HW232091   2.348   4.217  15.996 -0.2683 -0.8125  1.1562
 6878SOL     OW32092   4.173   1.565   6.283 -0.0644  0.4286  0.2010
 6878SOL    HW132093   4.078   1.578   6.286  0.1740  2.3045 -0.6597
 6878SOL    HW232094   4.182   1.555   6.378  0.4468 -1.4098 -0.0426
 6879SOL     OW32095   4.711   0.528   3.034  0.5552 -0.2017 -0.5597
 6879SOL    HW132096   4.619   0.510   3.054  0.3526 -1.1567 -2.3331
 6879SOL    HW232097   4.710   0.623   3.027 -2.3339 -0.2362 -0.5294
 6880SOL     OW32098   3.152   2.230   8.285  0.2022 -0.4924 -0.9026
 6880SOL    HW132099   3.125   2.138   8.293 -1.5113  0.0306 -0.7062
 6880SOL    HW232100   3.073   2.271   8.320 -1.1444 -2.7928 -1.2155
 6881SOL     OW32101   1.827   1.678  11.665  0.3746  0.1712 -0.2614
 6881SOL    HW132102   1.842   1.656  11.573  1.0899  0.2574 -0.1706
 6881SOL    HW232103   1.903   1.634  11.703  0.2527 -0.8826 -1.2443
 6882SOL     OW32104   4.109   0.173   6.439  0.0526  0.7494  0.1249
 6882SOL    HW132105   4.099   0.089   6.484  1.0784  0.9442  0.7053
 6882SOL    HW232106   4.105   0.144   6.348 -0.9278  3.3212 -0.6263
 6883SOL     OW32107   3.438   2.920   5.975 -0.1082 -0.7984 -0.0721
 6883SOL    HW132108   3.389   2.838   5.980 -1.8296  0.3081  0.8613
 6883SOL    HW232109   3.509   2.881   5.924 -1.5201 -1.4412 -1.5547
 6884SOL     OW32110   1.231   3.308   5.771 -0.3005  0.5524 -0.3067
 6884SOL    HW132111   1.324   3.298   5.748 -0.0096 -0.5653  1.3549
 6884SOL    HW232112   1.191   3.311   5.684  0.1096 -1.4146 -0.5803
 6885SOL     OW32113   4.015   1.167   6.652 -0.1437 -0.1393 -0.1646
 6885SOL    HW132114   4.038   1.257   6.675 -0.9130  0.0908 -0.3057
 6885SOL    HW232115   4.065   1.116   6.716 -1.1506  1.1213  1.6415
 6886SOL     OW32116   1.890   4.196   2.021  0.0979 -0.0189  0.3095
 6886SOL    HW132117   1.822   4.259   1.997  1.5593  0.7671 -1.7877
 6886SOL    HW232118   1.845   4.141   2.085  1.8711 -1.9142 -0.0706
 6887SOL     OW32119   3.851   1.827   6.389 -0.5001 -0.6533  0.4134
 6887SOL    HW132120   3.919   1.891   6.413 -1.6232  1.0404 -0.8779
 6887SOL    HW232121   3.802   1.819   6.471 -0.9085 -0.6067  0.1712
 6888SOL     OW32122   3.668   4.461  15.489 -0.3499  0.7000 -0.0272
 6888SOL    HW132123   3.642   4.384  15.438  0.7655  0.3715 -0.1029
 6888SOL    HW232124   3.622   4.527  15.438 -1.1775 -1.5813 -2.2589
 6889SOL     OW32125   3.647   0.183   2.634 -0.0389  0.3502 -0.2603
 6889SOL    HW132126   3.713   0.249   2.654 -2.2590  2.2639  0.6977
 6889SOL    HW232127   3.692   0.130   2.568 -0.8809 -1.3188  0.5078
 6890SOL     OW32128   0.807   1.002   0.224 -0.2289  0.9038  0.2744
 6890SOL    HW132129   0.880   0.956   0.183  0.9758  2.1171  1.0700
 6890SOL    HW232130   0.749   0.940   0.268  0.0979 -0.2977 -1.0048
 6891SOL     OW32131   2.282   1.291   2.199  0.1613  0.8687  0.0886
 6891SOL    HW132132   2.203   1.313   2.151 -0.9684 -0.8939  1.1544
 6891SOL    HW232133   2.276   1.345   2.278 -0.4203 -0.3491  0.8774
 6892SOL     OW32134   1.315   3.164   0.720  0.1000  0.6976  0.5276
 6892SOL    HW132135   1.230   3.170   0.764  0.7475 -2.2265  2.1507
 6892SOL    HW232136   1.379   3.142   0.787 -0.4271  1.2799  1.2300
 6893SOL     OW32137   2.847   4.232   6.358  0.0396  0.3816 -0.5659
 6893SOL    HW132138   2.866   4.273   6.443 -1.3058  1.1899 -0.6441
 6893SOL    HW232139   2.934   4.233   6.318  0.5646  1.3347  0.6122
 6894SOL     OW32140   3.057   2.401   4.724  0.0726  0.4802  0.2210
 6894SOL    HW132141   3.119   2.360   4.664 -0.6527 -0.4484  0.1055
 6894SOL    HW232142   2.986   2.428   4.665  0.7517  0.3066 -0.6690
 6895SOL     OW32143   2.614   0.305   4.687 -0.2441 -0.0807 -0.1532
 6895SOL    HW132144   2.646   0.371   4.749 -0.8360 -0.6979  0.8147
 6895SOL    HW232145   2.525   0.292   4.719 -0.7780 -0.8711 -1.9950
 6896SOL     OW32146   4.541   2.856  10.850  0.0565  0.0826  0.4917
 6896SOL    HW132147   4.478   2.791  10.879  0.5750 -1.2418 -1.3707
 6896SOL    HW232148   4.596   2.807  10.788 -1.1597 -0.0639 -0.4703
 6897SOL     OW32149   3.583   4.195   1.278  0.2121  0.0299 -0.0697
 6897SOL    HW132150   3.611   4.114   1.235  1.7159  0.4688  0.0784
 6897SOL    HW232151   3.554   4.159   1.362  2.9574 -1.3601  0.2911
 6898SOL     OW32152   0.135   3.373   4.079  0.7669 -0.0237  0.2882
 6898SOL    HW132153   0.181   3.290   4.086 -0.2442 -0.8901 -3.4558
 6898SOL    HW232154   0.048   3.344   4.107  0.8324  0.8853  1.4478
 6899SOL     OW32155   0.261   4.044  11.312 -0.1269 -0.6081 -0.1247
 6899SOL    HW132156   0.177   4.008  11.284  0.5827  0.6421 -3.8821
 6899SOL    HW232157   0.298   4.078  11.230  3.7859  0.0673  1.9311
 6900SOL     OW32158   2.010   1.039   4.876 -0.0412 -0.3397 -0.0568
 6900SOL    HW132159   1.935   1.064   4.929  0.4866 -1.2594  1.1182
 6900SOL    HW232160   1.958   1.042   4.796  1.6527 -0.9817 -1.1974
 6901SOL     OW32161   3.565   2.998   2.773 -0.3170 -0.3404  0.4264
 6901SOL    HW132162   3.489   2.972   2.721  0.9139 -0.0166 -1.5337
 6901SOL    HW232163   3.625   3.033   2.707 -0.8745 -0.2471 -0.0372
 6902SOL     OW32164   4.146   2.117   3.452  0.2944 -0.5228 -0.2103
 6902SOL    HW132165   4.234   2.155   3.458 -0.9820  2.3233  0.2675
 6902SOL    HW232166   4.090   2.173   3.398  1.0128 -1.1201 -1.5853
 6903SOL     OW32167   0.126   0.342  11.179 -0.0422  0.4452  0.0801
 6903SOL    HW132168   0.122   0.248  11.165 -0.5602  0.3328  0.9860
 6903SOL    HW232169   0.064   0.381  11.116 -1.0106  0.0168  0.7736
 6904SOL     OW32170   4.357   1.066   8.640  0.1730  0.3231 -0.5867
 6904SOL    HW132171   4.402   1.029   8.716 -0.2324 -1.6811 -1.3237
 6904SOL    HW232172   4.375   1.009   8.566  0.4066  1.2780 -1.2688
 6905SOL     OW32173   2.937   4.423   4.170  0.1956 -0.0235  0.2323
 6905SOL    HW132174   2.992   4.499   4.150  0.5310 -0.9695 -2.4354
 6905SOL    HW232175   2.905   4.400   4.083  1.0818  0.4300 -0.2100
 6906SOL     OW32176   3.188   2.160   6.670  0.7376  0.4637 -0.2522
 6906SOL    HW132177   3.147   2.097   6.610  1.4876 -1.1515  0.9267
 6906SOL    HW232178   3.260   2.188   6.613  1.5224 -1.5421 -0.2504
 6907SOL     OW32179   3.503   2.242   7.336  0.4041 -0.3758  0.1774
 6907SOL    HW132180   3.470   2.331   7.343 -0.1716 -0.5793  0.0795
 6907SOL    HW232181   3.578   2.255   7.277  1.0472 -2.3686  0.5576
 6908SOL     OW32182   0.253   0.593   6.364 -0.5580  0.0499 -0.1606
 6908SOL    HW132183   0.176   0.536   6.363  0.1383 -0.9563  2.7353
 6908SOL    HW232184   0.326   0.532   6.351  0.7622  2.2566 -3.0989
 6909SOL     OW32185   0.748   2.129   5.482 -0.1130 -0.4628  0.0319
 6909SOL    HW132186   0.719   2.054   5.430 -1.4569 -0.7868  1.2586
 6909SOL    HW232187   0.664   2.174   5.470 -0.8828 -1.3569  2.0918
 6910SOL     OW32188   3.438   2.356   3.162 -0.0113  0.6540  0.1542
 6910SOL    HW132189   3.451   2.364   3.068 -0.9088  1.5326  0.1069
 6910SOL    HW232190   3.407   2.445   3.177 -1.4839  0.2028 -0.2903
 6911SOL     OW32191   0.999   0.239   4.269  0.1950  0.0458  0.2854
 6911SOL    HW132192   0.987   0.228   4.363 -0.2807 -0.0612  0.2117
 6911SOL    HW232193   0.913   0.208   4.239  0.6928  0.2688 -1.3648
 6912SOL     OW32194   3.093   3.373   9.027 -0.4892  0.0184 -0.6156
 6912SOL    HW132195   3.082   3.361   9.121 -2.3217  0.8259 -0.7419
 6912SOL    HW232196   3.171   3.428   9.020 -1.0904  0.9942  0.4866
 6913SOL     OW32197   2.482   2.191   5.231 -0.4611  0.2353 -0.1975
 6913SOL    HW132198   2.554   2.199   5.168 -0.0059 -0.2589  0.2587
 6913SOL    HW232199   2.524   2.138   5.299 -0.7160  0.7391  0.3572
 6914SOL     OW32200   0.630   3.846   7.502 -0.0118 -0.1164  0.9566
 6914SOL    HW132201   0.675   3.850   7.585  1.3448  0.7518  0.1661
 6914SOL    HW232202   0.689   3.784   7.458 -1.0689  0.2342 -0.9612
 6915SOL     OW32203   0.610   3.628   5.773  0.4455  0.6614  0.2265
 6915SOL    HW132204   0.682   3.686   5.799 -0.9721  2.4051  0.2358
 6915SOL    HW232205   0.662   3.548   5.779 -0.3116  0.1642  0.1399
 6916SOL     OW32206   0.284   0.065   4.030 -0.9546  0.4258  0.0181
 6916SOL    HW132207   0.322   0.115   3.958  0.4547  0.4282  0.7652
 6916SOL    HW232208   0.334   4.706   4.025 -2.0257 -0.2074 -0.3512
 6917SOL     OW32209   4.157   3.821  13.174 -0.0051 -0.4767 -0.3037
 6917SOL    HW132210   4.148   3.831  13.080  1.8980 -0.2360 -0.4582
 6917SOL    HW232211   4.111   3.903  13.194  2.1042  0.6507  0.0051
 6918SOL     OW32212   2.191   2.844   2.703 -0.1387 -0.1322 -0.0965
 6918SOL    HW132213   2.228   2.768   2.658 -0.4920  0.9526 -2.1992
 6918SOL    HW232214   2.148   2.892   2.633  0.6741 -0.4564 -0.8206
 6919SOL     OW32215   3.366   3.532   2.255  0.2390 -0.3456 -0.0579
 6919SOL    HW132216   3.384   3.618   2.292  0.8835 -0.8754  0.8800
 6919SOL    HW232217   3.293   3.507   2.312 -0.8506 -0.2451 -1.4314
 6920SOL     OW32218   3.220   3.324  13.175 -0.0039 -0.4698 -0.4149
 6920SOL    HW132219   3.173   3.254  13.129 -1.3606  0.7007 -0.8209
 6920SOL    HW232220   3.308   3.291  13.192 -0.2066 -0.3816  0.7908
 6921SOL     OW32221   4.480   1.550   0.310 -0.1005  0.1971  0.0452
 6921SOL    HW132222   4.470   1.464   0.351  0.3698  0.1722  0.1084
 6921SOL    HW232223   4.535   1.593   0.376  0.3799  0.8843 -0.8064
 6922SOL     OW32224   1.872   4.298  12.704 -0.1112  0.1935 -0.1610
 6922SOL    HW132225   1.871   4.295  12.609  0.6717  0.5000 -0.1789
 6922SOL    HW232226   1.837   4.212  12.727  0.0402 -0.0622 -0.9069
 6923SOL     OW32227   2.621   1.887   4.844  0.1674  0.4043 -0.0549
 6923SOL    HW132228   2.545   1.937   4.875 -0.8125 -1.7515  1.0086
 6923SOL    HW232229   2.686   1.872   4.912  1.5427  1.9959 -1.0159
 6924SOL     OW32230   0.643   1.433   8.102 -0.2147 -0.0761 -0.8609
 6924SOL    HW132231   0.730   1.426   8.140  0.2849  0.0761 -1.9856
 6924SOL    HW232232   0.629   1.339   8.100 -0.9990 -0.0016  1.2951
 6925SOL     OW32233   0.953   0.771   0.090 -0.0828  0.1565  0.6247
 6925SOL    HW132234   1.035   0.819   0.096 -0.2934  0.5759  0.1246
 6925SOL    HW232235   0.919   0.812   0.011 -0.6835 -0.9916  0.2812
 6926SOL     OW32236   1.701   3.150   6.316  0.1425  0.7355  0.3105
 6926SOL    HW132237   1.685   3.061   6.348 -1.4545  0.5322 -1.0251
 6926SOL    HW232238   1.720   3.192   6.399  0.1885  3.5538 -1.1345
 6927SOL     OW32239   0.912   0.741   5.912 -0.3490  0.3296 -0.4351
 6927SOL    HW132240   0.921   0.830   5.947  0.6944  0.5953 -1.3918
 6927SOL    HW232241   0.883   0.693   5.990  1.4360  0.7991  0.5096
 6928SOL     OW32242   3.528   4.481   6.318 -0.0601 -0.5080 -0.2480
 6928SOL    HW132243   3.547   4.396   6.357  0.8788 -0.7223 -1.1905
 6928SOL    HW232244   3.454   4.507   6.373  1.0021 -1.3991  1.5967
 6929SOL     OW32245   3.755   2.134   2.108  0.3248  0.0189  0.1068
 6929SOL    HW132246   3.719   2.088   2.183  1.3716 -0.6722  0.1733
 6929SOL    HW232247   3.832   2.080   2.094  2.2823  3.2341 -1.6201
 6930SOL     OW32248   3.593   2.815  14.836 -0.3876  0.0203 -0.2387
 6930SOL    HW132249   3.581   2.773  14.922  0.8111 -0.2058 -0.1930
 6930SOL    HW232250   3.558   2.903  14.848  1.2005  0.5131  0.7386
 6931SOL     OW32251   4.517   2.074   6.711  0.3797 -0.1729  0.6915
 6931SOL    HW132252   4.537   2.102   6.622 -0.2827 -1.0204  0.2710
 6931SOL    HW232253   4.557   2.141   6.766  1.7118 -2.0033  1.9714
 6932SOL     OW32254   2.714   1.073   6.197  0.4199 -0.4725 -0.2133
 6932SOL    HW132255   2.696   1.031   6.282 -0.5235 -0.4368 -0.3955
 6932SOL    HW232256   2.676   1.158   6.220 -0.7866 -0.9317 -0.5007
 6933SOL     OW32257   1.645   2.067   2.245 -0.4075  0.7806  0.1365
 6933SOL    HW132258   1.653   1.978   2.277  0.7555  0.8621  0.0653
 6933SOL    HW232259   1.639   2.052   2.151  0.3742 -2.0762  0.5617
 6934SOL     OW32260   2.729   3.553   0.565 -0.1422  0.4180  0.0636
 6934SOL    HW132261   2.803   3.577   0.510  0.0147  0.1364  0.1470
 6934SOL    HW232262   2.751   3.460   0.565  1.5048  0.7847  2.4659
 6935SOL     OW32263   3.125   2.042  12.444  0.2977 -0.3839  0.5858
 6935SOL    HW132264   3.043   2.008  12.409  0.2774 -1.0178  1.2621
 6935SOL    HW232265   3.186   1.968  12.439 -0.8510 -1.2445 -0.6335
 6936SOL     OW32266   2.660   1.439  12.969  0.2148  0.6556 -0.5564
 6936SOL    HW132267   2.712   1.406  13.042  1.5410  1.5342 -1.0857
 6936SOL    HW232268   2.620   1.364  12.926  1.7736  0.1031 -1.0586
 6937SOL     OW32269   3.690   0.297   1.760  0.0135  0.0533 -0.3363
 6937SOL    HW132270   3.712   0.282   1.852 -2.5489  0.8632  0.4089
 6937SOL    HW232271   3.625   0.366   1.774 -1.0998 -1.4096  1.7359
 6938SOL     OW32272   1.263   2.456   6.846 -0.3002 -0.0306 -0.2455
 6938SOL    HW132273   1.225   2.527   6.898  0.5409 -0.3228  0.7607
 6938SOL    HW232274   1.298   2.403   6.918  0.6537  0.8218 -0.0942
 6939SOL     OW32275   2.616   3.648   1.789  0.3221  0.4392 -0.0992
 6939SOL    HW132276   2.684   3.709   1.759  0.5680  0.2348  0.0431
 6939SOL    HW232277   2.621   3.575   1.726 -1.6276 -0.0578  0.3379
 6940SOL     OW32278   1.819   2.737   4.353 -0.6804 -0.0314  0.5520
 6940SOL    HW132279   1.847   2.649   4.327 -1.9249 -0.4760  0.6919
 6940SOL    HW232280   1.908   2.769   4.347 -0.9418  0.3143 -1.6714
 6941SOL     OW32281   2.085   1.602  15.325 -0.3314 -0.5434  0.3682
 6941SOL    HW132282   2.100   1.664  15.396 -0.4548 -0.5034  0.3587
 6941SOL    HW232283   2.006   1.556  15.354  0.3757 -1.5660  0.6518
 6942SOL     OW32284   1.229   2.864  12.134  0.1221  0.4140 -0.0571
 6942SOL    HW132285   1.166   2.852  12.062 -1.1641  1.5307  0.8640
 6942SOL    HW232286   1.274   2.780  12.140  0.5014  0.7686  1.7794
 6943SOL     OW32287   3.114   3.119   9.521 -0.1783  0.3381  0.1648
 6943SOL    HW132288   3.071   3.091   9.602 -0.8412 -0.3431 -0.4299
 6943SOL    HW232289   3.087   3.046   9.466 -0.6381 -0.9924  2.1713
 6944SOL     OW32290   1.918   0.450  12.258 -0.1919 -0.0049  0.1872
 6944SOL    HW132291   1.898   0.529  12.207  0.1636 -0.9136 -1.3650
 6944SOL    HW232292   1.975   0.477  12.330 -1.2071 -0.1485  1.0542
 6945SOL     OW32293   1.337   3.578   7.378 -0.1283  0.4439 -0.5058
 6945SOL    HW132294   1.301   3.495   7.349 -0.1848 -0.2033  1.4150
 6945SOL    HW232295   1.271   3.638   7.344 -0.8908 -2.1736 -3.5927
 6946SOL     OW32296   0.427   0.866  12.532  0.1535  0.0518 -0.5386
 6946SOL    HW132297   0.485   0.794  12.506 -1.8122 -1.8267  0.2903
 6946SOL    HW232298   0.438   0.856  12.626 -0.6679  3.2550 -0.1084
 6947SOL     OW32299   0.253   4.202  10.506 -0.2348 -0.4195 -0.2590
 6947SOL    HW132300   0.171   4.226  10.464 -0.9198 -0.0725  1.2857
 6947SOL    HW232301   0.225   4.129  10.562  1.4592  3.0366  5.0616
 6948SOL     OW32302   4.653   4.067   2.090 -0.0884 -0.0461  0.1080
 6948SOL    HW132303   4.651   3.992   2.150 -0.5582 -0.2035 -0.1118
 6948SOL    HW232304   4.651   4.141   2.152 -1.4274 -0.5391  0.6567
 6949SOL     OW32305   2.562   3.979  11.936  0.1720 -0.6406  0.0298
 6949SOL    HW132306   2.567   4.065  11.978  0.9235 -1.9960  2.7240
 6949SOL    HW232307   2.473   3.981  11.899 -0.4640  2.4207  1.7112
 6950SOL     OW32308   4.690   4.194   3.197 -0.7988 -0.0704  0.3380
 6950SOL    HW132309   0.001   4.139   3.268  2.1766  0.3752 -0.7623
 6950SOL    HW232310   4.718   4.148   3.118 -0.6403 -0.8937  0.8657
 6951SOL     OW32311   0.037   4.628   5.384 -0.5678 -0.0767  0.1591
 6951SOL    HW132312   0.073   4.700   5.331  0.0253 -0.3580  0.1773
 6951SOL    HW232313   0.102   4.559   5.368 -0.2467  0.4459 -0.7825
 6952SOL     OW32314   1.679   3.175   8.285  0.2844 -0.2890 -0.0189
 6952SOL    HW132315   1.640   3.223   8.212 -2.2377  0.0631  1.5869
 6952SOL    HW232316   1.764   3.218   8.300 -0.7332  1.2853  1.1220
 6953SOL     OW32317   1.167   3.230  11.606 -0.6649 -0.5364  0.0189
 6953SOL    HW132318   1.168   3.203  11.514 -0.4523 -4.3021  1.1702
 6953SOL    HW232319   1.178   3.325  11.592  0.7595 -0.7028 -0.0027
 6954SOL     OW32320   3.557   3.713   5.867  0.4149 -0.2055 -0.3998
 6954SOL    HW132321   3.492   3.725   5.798  0.5886  1.4745 -0.2779
 6954SOL    HW232322   3.604   3.636   5.835  1.1009  0.3912 -0.8266
 6955SOL     OW32323   3.445   3.874   7.006  0.3365 -0.6652 -0.0609
 6955SOL    HW132324   3.432   3.813   6.933 -0.9097 -0.1667 -0.2714
 6955SOL    HW232325   3.511   3.826   7.054  0.8283 -1.2519 -1.3212
 6956SOL     OW32326   1.335   1.182   1.680  0.0297 -0.2718 -0.1141
 6956SOL    HW132327   1.286   1.178   1.597  1.1645 -0.2670 -0.7830
 6956SOL    HW232328   1.359   1.090   1.691  1.0907 -0.3568 -3.0584
 6957SOL     OW32329   2.964   1.437   0.177  0.4551  0.1583 -0.2193
 6957SOL    HW132330   2.979   1.520   0.221  0.8335  0.9098 -1.7691
 6957SOL    HW232331   2.873   1.419   0.199 -0.0528 -0.2808 -2.5966
 6958SOL     OW32332   3.159   2.967   2.255  0.1154  0.1062 -0.0704
 6958SOL    HW132333   3.177   2.875   2.271 -1.7908 -0.2257  0.0536
 6958SOL    HW232334   3.088   2.968   2.192 -1.6972  0.7199  1.9984
 6959SOL     OW32335   1.173   0.944   9.333 -0.1185 -0.1692  0.7507
 6959SOL    HW132336   1.212   1.029   9.311 -0.0995 -0.0712  1.1646
 6959SOL    HW232337   1.169   0.945   9.428  0.3266 -0.7425  0.7794
 6960SOL     OW32338   1.515   2.460   2.845 -0.2519 -0.2574  0.3375
 6960SOL    HW132339   1.589   2.510   2.880 -0.3181  0.3175 -0.3302
 6960SOL    HW232340   1.530   2.373   2.881  0.1778  0.2405  1.3521
 6961SOL     OW32341   4.073   3.374   3.812  0.0916 -0.3175 -0.1928
 6961SOL    HW132342   4.040   3.389   3.723  2.1736  0.5709 -0.8097
 6961SOL    HW232343   4.011   3.302   3.823 -0.6569  0.2300 -0.7956
 6962SOL     OW32344   1.512   2.350  13.045  0.0788  0.0743  0.5282
 6962SOL    HW132345   1.601   2.316  13.038  0.0268  0.7030 -3.1975
 6962SOL    HW232346   1.473   2.284  13.103 -0.9204 -0.3737 -0.6304
 6963SOL     OW32347   0.726   2.236  10.534 -0.2481  0.5434 -0.1520
 6963SOL    HW132348   0.651   2.231  10.475  1.0655  1.8185 -1.9372
 6963SOL    HW232349   0.681   2.204  10.612 -0.1526 -0.3917 -0.4830
 6964SOL     OW32350   4.018   4.207  12.386  0.2727 -0.2862  0.2224
 6964SOL    HW132351   4.033   4.263  12.463  1.5695 -1.9241  1.1573
 6964SOL    HW232352   4.014   4.116  12.416 -0.4061 -0.0282  0.9348
 6965SOL     OW32353   4.423   2.473  17.069  0.0195  0.1566  0.1295
 6965SOL    HW132354   4.369   2.522  17.131 -1.4966 -1.8224  0.3638
 6965SOL    HW232355   4.390   2.503  16.984 -0.7571 -1.2183 -0.0514
 6966SOL     OW32356   1.968   2.117   5.787 -0.3112 -0.0181 -0.2725
 6966SOL    HW132357   1.903   2.046   5.778 -1.3276  0.9172 -0.3182
 6966SOL    HW232358   2.044   2.079   5.831 -0.2786 -1.1280 -1.2884
 6967SOL     OW32359   1.290   1.227   6.593  0.2135 -0.2570 -0.1457
 6967SOL    HW132360   1.291   1.322   6.586  0.4874 -0.3161 -0.8518
 6967SOL    HW232361   1.344   1.189   6.523  1.8788  1.2922  0.3104
 6968SOL     OW32362   0.914   0.021  16.098  0.6733 -0.0032 -0.2216
 6968SOL    HW132363   0.976   0.025  16.025  2.0872 -1.0145  0.9110
 6968SOL    HW232364   0.969   0.033  16.175 -0.7251 -0.0724  0.7785
 6969SOL     OW32365   3.255   0.544   2.731 -0.0417 -0.0068 -0.0532
 6969SOL    HW132366   3.173   0.507   2.698 -0.1060 -0.3294  0.4710
 6969SOL    HW232367   3.317   0.483   2.693 -1.5000 -0.5797 -1.5399
 6970SOL     OW32368   2.193   1.681   3.204 -0.5205 -0.0801  0.2114
 6970SOL    HW132369   2.121   1.696   3.266 -1.5324 -1.0670 -0.7170
 6970SOL    HW232370   2.143   1.640   3.133 -0.1987 -0.4201  0.1784
 6971SOL     OW32371   0.681   4.194   7.688  0.0027  0.0732 -0.2707
 6971SOL    HW132372   0.684   4.099   7.692  0.5683  0.1396  0.9874
 6971SOL    HW232373   0.607   4.213   7.631 -1.3240  1.3410  1.8755
 6972SOL     OW32374   2.658   3.433   3.746 -0.0070  0.0038  0.0913
 6972SOL    HW132375   2.620   3.346   3.753 -1.6694  0.7939  0.9018
 6972SOL    HW232376   2.675   3.452   3.654 -0.0996 -1.7500 -0.2940
 6973SOL     OW32377   0.124   1.733   9.760 -0.5728  0.0165 -0.1921
 6973SOL    HW132378   0.192   1.685   9.808 -1.4536 -1.1611 -0.1131
 6973SOL    HW232379   0.188   1.795   9.726 -0.3113 -0.1691 -0.0400
 6974SOL     OW32380   0.443   2.674   6.212  0.6597  0.1603  0.3014
 6974SOL    HW132381   0.377   2.631   6.267  0.5220 -0.9428 -0.7231
 6974SOL    HW232382   0.485   2.732   6.275  0.3865  0.2492  0.4037
 6975SOL     OW32383   2.164   4.338   1.267 -0.0400 -0.2575 -0.2024
 6975SOL    HW132384   2.114   4.378   1.196  1.1869  1.5377 -0.0567
 6975SOL    HW232385   2.129   4.382   1.345  0.4124 -1.8554  0.9127
 6976SOL     OW32386   2.070   2.301  16.264 -0.1815  0.5974  0.2048
 6976SOL    HW132387   1.977   2.318  16.279 -0.5249  0.2379 -1.5032
 6976SOL    HW232388   2.108   2.344  16.340  0.2161  0.9733 -0.2046
 6977SOL     OW32389   2.914   2.098   7.751 -0.5262  0.2550 -0.0147
 6977SOL    HW132390   2.943   2.050   7.828  0.4868  0.7018 -0.1083
 6977SOL    HW232391   2.858   2.168   7.785  1.9626  2.4909 -0.4124
 6978SOL     OW32392   1.306   0.148   6.160  0.0436  0.1122  0.3713
 6978SOL    HW132393   1.225   0.161   6.209 -0.2880  1.0277 -0.4161
 6978SOL    HW232394   1.285   0.180   6.072  1.2598 -0.8604 -0.2691
 6979SOL     OW32395   1.530   2.480   5.836 -0.2021 -0.3653 -0.2491
 6979SOL    HW132396   1.444   2.454   5.870 -0.8167 -0.6855 -2.0497
 6979SOL    HW232397   1.573   2.396   5.850 -1.8585 -1.0437  0.7713
 6980SOL     OW32398   1.173   0.626   0.584  0.4247  0.0229 -0.2598
 6980SOL    HW132399   1.083   0.658   0.585  0.2273 -0.5461  0.4589
 6980SOL    HW232400   1.194   0.621   0.491  3.3316 -0.5587  0.4176
 6981SOL     OW32401   3.638   4.591   5.331 -0.6970 -0.5623  0.4242
 6981SOL    HW132402   3.689   4.512   5.315 -2.4307 -1.7264  0.7086
 6981SOL    HW232403   3.710   4.647   5.360 -0.9629 -0.1834  0.3596
 6982SOL     OW32404   1.771   1.090   4.122  0.5183  0.1314 -0.2053
 6982SOL    HW132405   1.687   1.077   4.079  0.2247  1.3284  0.0012
 6982SOL    HW232406   1.771   1.186   4.130  2.6843  0.1697 -0.5152
 6983SOL     OW32407   0.642   0.429   5.171  0.0175  0.3824  0.2434
 6983SOL    HW132408   0.621   0.426   5.264 -0.8999  3.3204  0.1255
 6983SOL    HW232409   0.630   0.523   5.156  1.7047  0.3652 -1.1794
 6984SOL     OW32410   1.745   3.350   9.345 -1.0301  0.1148  0.4171
 6984SOL    HW132411   1.818   3.297   9.376 -1.1364  1.0429  2.2711
 6984SOL    HW232412   1.674   3.320   9.401  0.9233 -1.6808  1.9279
 6985SOL     OW32413   4.158   2.109  11.032 -0.0094  0.5622  0.2628
 6985SOL    HW132414   4.152   2.084  11.124  1.9944 -1.3245 -0.1039
 6985SOL    HW232415   4.228   2.174  11.032 -0.3189  0.8933 -0.0664
 6986SOL     OW32416   1.633   1.518   2.637 -0.0250 -0.1561 -0.3793
 6986SOL    HW132417   1.670   1.598   2.600  0.6552 -0.2661  0.0628
 6986SOL    HW232418   1.544   1.528   2.603  0.4884  1.8098 -1.1422
 6987SOL     OW32419   3.525   3.713  17.448 -0.6075  0.0259  0.5048
 6987SOL    HW132420   3.597   3.730  17.508  2.0743  1.2484 -3.0681
 6987SOL    HW232421   3.546   3.765  17.370 -0.8938 -2.2398 -1.0826
 6988SOL     OW32422   0.792   3.309   0.482  0.0110 -0.4011 -0.2818
 6988SOL    HW132423   0.856   3.360   0.434 -0.4050 -0.3468 -0.7767
 6988SOL    HW232424   0.810   3.217   0.461  1.6757  0.6960 -3.4907
 6989SOL     OW32425   2.279   2.082   6.083 -0.3019 -0.3706  0.0572
 6989SOL    HW132426   2.293   1.988   6.078  0.7606 -0.2806  1.2262
 6989SOL    HW232427   2.346   2.115   6.023  1.3813  1.8763  3.1628
 6990SOL     OW32428   1.938   2.387   5.708 -0.0691 -0.2782 -0.5562
 6990SOL    HW132429   1.991   2.407   5.785  1.4312 -0.8685 -1.4153
 6990SOL    HW232430   1.924   2.295   5.729  2.2758 -0.3865  0.5175
 6991SOL     OW32431   0.513   3.536   2.708  0.5317 -0.9993 -0.3785
 6991SOL    HW132432   0.418   3.529   2.715  0.4319  0.1897 -0.5434
 6991SOL    HW232433   0.536   3.565   2.620 -0.0751  1.4693  0.3002
 6992SOL     OW32434   0.650   4.388  14.462  0.0591 -0.5103 -0.2952
 6992SOL    HW132435   0.664   4.472  14.419 -0.6371  0.3786  1.2069
 6992SOL    HW232436   0.694   4.394  14.547 -1.8806  1.8809  0.5102
 6993SOL     OW32437   0.786   1.298   1.604 -0.3678  0.1065  0.4086
 6993SOL    HW132438   0.796   1.392   1.616  1.0337 -0.0248  0.3018
 6993SOL    HW232439   0.852   1.271   1.668 -0.2924  1.9909  1.1013
 6994SOL     OW32440   2.455   0.011  13.910 -0.0197  0.5867  0.1964
 6994SOL    HW132441   2.495   4.669  13.853  2.1349  2.7237 -0.7119
 6994SOL    HW232442   2.532   0.042  13.958 -1.1652  1.6057  1.3913
 6995SOL     OW32443   1.074   3.482   5.260 -0.7172 -0.0611  0.1055
 6995SOL    HW132444   1.082   3.387   5.256  1.4759  0.1339 -0.0436
 6995SOL    HW232445   1.038   3.501   5.174 -0.6680 -0.4162  0.0060
 6996SOL     OW32446   3.444   1.750   6.653  0.2016  0.1548  0.6079
 6996SOL    HW132447   3.400   1.833   6.637  2.5805  1.2704 -0.2194
 6996SOL    HW232448   3.432   1.753   6.748 -1.0034 -1.6180  0.5152
 6997SOL     OW32449   3.195   1.240   7.338 -0.0259  0.2150  0.5620
 6997SOL    HW132450   3.174   1.196   7.420 -0.1552  0.0736  0.4519
 6997SOL    HW232451   3.270   1.293   7.367  1.3971 -1.5849  0.1360
 6998SOL     OW32452   3.600   1.569   6.251  0.2485  0.1189  0.0791
 6998SOL    HW132453   3.594   1.476   6.271 -0.5330  0.1039 -0.2381
 6998SOL    HW232454   3.688   1.576   6.214 -0.3173  0.5127 -1.2110
 6999SOL     OW32455   3.413   3.352   2.605 -0.2227  0.4440 -0.2976
 6999SOL    HW132456   3.415   3.288   2.534 -2.6952 -2.1031  1.9057
 6999SOL    HW232457   3.507   3.355   2.622 -0.4251  0.3343  0.8323
 7000SOL     OW32458   3.162   4.290   4.381 -0.0312 -0.3850 -0.8614
 7000SOL    HW132459   3.182   4.367   4.435 -0.4534 -2.0135  1.6550
 7000SOL    HW232460   3.112   4.331   4.311 -0.0996 -1.6689 -1.5636
 7001SOL     OW32461   1.153   0.695   7.823  0.3260  0.0186 -0.2545
 7001SOL    HW132462   1.161   0.776   7.773  0.5120  0.4827  0.5292
 7001SOL    HW232463   1.061   0.669   7.814 -0.3235  2.2560 -0.0275
 7002SOL     OW32464   3.755   1.899   5.924 -0.2667  0.2214  0.5152
 7002SOL    HW132465   3.749   1.849   5.843 -0.7133  1.9171 -0.5006
 7002SOL    HW232466   3.785   1.831   5.985 -1.5088 -1.1984 -0.4649
 7003SOL     OW32467   2.861   3.410   7.012 -0.1593 -0.5474 -0.7714
 7003SOL    HW132468   2.933   3.472   6.996  0.9008 -1.9509 -1.3733
 7003SOL    HW232469   2.826   3.404   6.923  2.1531 -0.0094 -1.7063
 7004SOL     OW32470   4.249   1.637  13.146  0.4433 -0.5261  0.3019
 7004SOL    HW132471   4.315   1.568  13.148  0.9271 -0.1066 -1.5257
 7004SOL    HW232472   4.214   1.654  13.234  1.9652  2.6901  0.2796
 7005SOL     OW32473   3.628   1.892  14.059  0.1134  0.2145  0.0823
 7005SOL    HW132474   3.715   1.879  14.096 -0.5462 -0.5831  1.3609
 7005SOL    HW232475   3.611   1.978  14.097 -1.4713  0.5126 -1.3080
 7006SOL     OW32476   2.840   0.591   9.652 -0.4478  0.2040 -0.1497
 7006SOL    HW132477   2.745   0.587   9.656 -0.3749 -0.9769  0.3004
 7006SOL    HW232478   2.845   0.643   9.571 -1.0603  0.4319 -0.0414
 7007SOL     OW32479   2.877   3.125  11.419  0.3507  0.8639 -0.0123
 7007SOL    HW132480   2.969   3.110  11.398  0.4502  2.6562 -0.8513
 7007SOL    HW232481   2.856   3.168  11.337 -0.4860 -1.8525 -1.1972
 7008SOL     OW32482   0.599   3.782   8.414  0.0856  0.5194  0.6416
 7008SOL    HW132483   0.579   3.747   8.501  0.3461 -0.0584  0.4726
 7008SOL    HW232484   0.598   3.875   8.434 -0.4500  1.2676 -2.8980
 7009SOL     OW32485   1.286   3.096   3.148 -0.2343 -0.0264  0.1461
 7009SOL    HW132486   1.206   3.078   3.098  0.2678 -2.3594  0.1746
 7009SOL    HW232487   1.262   3.040   3.222  0.0480 -1.2062 -0.6587
 7010SOL     OW32488   4.393   3.035   8.889  0.0409  0.2173  0.4479
 7010SOL    HW132489   4.308   2.998   8.911  0.0751 -0.2103 -0.1600
 7010SOL    HW232490   4.452   2.986   8.947  1.8317  0.5478 -1.1037
 7011SOL     OW32491   2.411   2.621  10.750  0.7938  0.8995  0.0085
 7011SOL    HW132492   2.364   2.688  10.701 -1.2370 -1.1945 -0.9259
 7011SOL    HW232493   2.344   2.576  10.803 -0.3816  1.1251 -1.2796
 7012SOL     OW32494   2.962   4.425   6.097  0.2225  0.8733  0.5526
 7012SOL    HW132495   2.949   4.508   6.143 -1.5929  0.4360  0.8357
 7012SOL    HW232496   3.019   4.462   6.029 -0.9684 -1.5235 -1.7305
 7013SOL     OW32497   1.532   3.182   8.820  0.2802 -0.0582 -0.4946
 7013SOL    HW132498   1.496   3.128   8.750  0.9987 -1.6858  0.4074
 7013SOL    HW232499   1.495   3.135   8.894 -0.1624  0.3292 -0.4726
 7014SOL     OW32500   4.054   0.066   6.190 -0.0405 -0.1240  0.8615
 7014SOL    HW132501   3.961   0.081   6.208 -0.4999 -3.9344  1.6823
 7014SOL    HW232502   4.051   4.708   6.139  0.9594  0.3221  0.0945
 7015SOL     OW32503   0.038   2.485   6.312  0.0059 -0.4454 -0.0044
 7015SOL    HW132504   0.117   2.529   6.281 -0.2244 -0.3750 -0.4833
 7015SOL    HW232505   4.699   2.557   6.318 -1.0323 -1.5344  2.4467
 7016SOL     OW32506   4.499   2.179   6.459  0.2616 -0.3036 -0.4806
 7016SOL    HW132507   4.428   2.204   6.400 -0.8189 -2.0043  0.1099
 7016SOL    HW232508   4.577   2.190   6.404 -0.6516 -1.3496 -1.9943
 7017SOL     OW32509   2.246   2.766   2.232  0.0573 -0.2036 -0.7042
 7017SOL    HW132510   2.218   2.771   2.141  2.3307 -1.1016 -1.4592
 7017SOL    HW232511   2.266   2.674   2.249  1.0125  0.1988  0.3909
 7018SOL     OW32512   1.327   0.971  14.696 -0.5502 -0.1022 -0.4413
 7018SOL    HW132513   1.319   1.066  14.686 -0.8041 -0.4956 -3.9818
 7018SOL    HW232514   1.376   0.954  14.615 -2.7052  2.3800 -2.2873
 7019SOL     OW32515   2.982   3.739  11.636  0.2875 -0.0630 -0.3920
 7019SOL    HW132516   3.074   3.729  11.662 -0.4832 -0.2645  2.3037
 7019SOL    HW232517   2.989   3.709  11.546  1.7261  3.2441 -1.3786
 7020SOL     OW32518   4.239   1.853   4.479  0.5785 -0.2657  0.7025
 7020SOL    HW132519   4.312   1.886   4.532  0.4976  1.0575 -0.0111
 7020SOL    HW232520   4.173   1.852   4.548  0.0317  0.4750  0.1853
 7021SOL     OW32521   0.849   0.465   0.629 -0.4811 -0.1834 -0.4966
 7021SOL    HW132522   0.870   0.375   0.604  0.7235  0.4637 -1.8337
 7021SOL    HW232523   0.800   0.442   0.708 -0.1767  1.7285  0.2502
 7022SOL     OW32524   1.721   0.047   1.328 -0.2653 -0.2273  0.2248
 7022SOL    HW132525   1.671   0.038   1.247  0.5055  1.1161 -0.3927
 7022SOL    HW232526   1.654   0.041   1.396 -1.0531 -0.6473 -0.5867
 7023SOL     OW32527   0.750   3.085  10.531 -0.0790 -0.4655 -0.0737
 7023SOL    HW132528   0.845   3.090  10.540 -0.4599  0.7189  3.2671
 7023SOL    HW232529   0.733   3.035  10.451 -2.3703  0.3925 -0.1441
 7024SOL     OW32530   0.637   0.932   8.352 -0.6427 -0.4496 -0.1616
 7024SOL    HW132531   0.703   0.935   8.283 -1.6312  1.3210 -1.0164
 7024SOL    HW232532   0.693   0.888   8.416  0.3402  1.3525  0.2196
 7025SOL     OW32533   3.459   2.569   9.181 -0.0080  0.5681 -0.3975
 7025SOL    HW132534   3.496   2.562   9.093 -0.5119  1.5447 -0.6783
 7025SOL    HW232535   3.492   2.649   9.221 -1.4806 -1.0292  4.0310
 7026SOL     OW32536   0.384   3.546   9.087 -1.0403 -0.6934  0.7363
 7026SOL    HW132537   0.347   3.536   9.175 -1.7460 -0.7715  0.4336
 7026SOL    HW232538   0.394   3.641   9.093  1.8377 -0.8396 -1.7201
 7027SOL     OW32539   2.637   0.134  15.700  0.1435 -0.0154 -0.3014
 7027SOL    HW132540   2.628   0.134  15.604 -3.6256 -2.3739  0.0726
 7027SOL    HW232541   2.665   0.223  15.722 -0.9888  0.1450  0.4754
 7028SOL     OW32542   0.300   0.210   6.598  0.2376  0.1999  0.2616
 7028SOL    HW132543   0.230   0.248   6.651  0.3549  2.8105 -1.4359
 7028SOL    HW232544   0.264   0.123   6.580  2.7698 -0.9404  0.6504
 7029SOL     OW32545   1.569   2.915   4.329  0.4959 -0.4299 -0.0002
 7029SOL    HW132546   1.486   2.873   4.310  0.2419 -0.8359  1.9779
 7029SOL    HW232547   1.627   2.841   4.310 -0.6562 -0.4916 -3.2548
 7030SOL     OW32548   3.904   3.669   5.035 -0.2797 -0.3380  0.1206
 7030SOL    HW132549   3.994   3.666   5.068  0.2414 -0.2309 -1.2944
 7030SOL    HW232550   3.891   3.763   5.049  1.0391 -0.4626  2.2048
 7031SOL     OW32551   2.999   4.629   2.319 -0.0133 -0.5438 -0.8349
 7031SOL    HW132552   2.928   4.574   2.353  0.2230 -1.4589 -1.8075
 7031SOL    HW232553   2.952   4.712   2.316  0.0068 -0.5970 -2.6806
 7032SOL     OW32554   3.386   2.683   6.529 -0.2627 -0.0227  0.1336
 7032SOL    HW132555   3.295   2.701   6.555  0.6083  1.5149  2.0948
 7032SOL    HW232556   3.368   2.609   6.470  2.4199 -1.7126  1.4560
 7033SOL     OW32557   3.672   1.942  11.127 -0.6600 -0.0066  0.7054
 7033SOL    HW132558   3.624   1.872  11.084  2.0442 -1.2894 -0.2150
 7033SOL    HW232559   3.688   1.907  11.215 -2.0027 -1.9893  0.1573
 7034SOL     OW32560   1.771   3.088   5.726  0.1102 -0.2849  0.4538
 7034SOL    HW132561   1.783   3.004   5.770 -0.5002  0.1885  1.5346
 7034SOL    HW232562   1.742   3.143   5.799 -3.2523 -1.9588  0.4049
 7035SOL     OW32563   2.938   4.416  10.091  0.0082 -0.3777 -0.8825
 7035SOL    HW132564   2.856   4.405  10.042 -1.1110 -0.0716  0.9434
 7035SOL    HW232565   2.992   4.458  10.024  0.4101 -0.4554 -0.6081
 7036SOL     OW32566   1.108   2.122  11.327  0.3357  0.7391  0.5435
 7036SOL    HW132567   1.085   2.155  11.240 -0.7654  0.7469  0.8345
 7036SOL    HW232568   1.202   2.114  11.315  0.1069 -1.0723 -0.1596
 7037SOL     OW32569   0.098   2.580   4.027  0.0364  0.0216  0.4123
 7037SOL    HW132570   0.167   2.595   3.962 -0.0311 -0.1383  0.3045
 7037SOL    HW232571   0.138   2.510   4.079 -2.7083 -0.1559  2.3029
 7038SOL     OW32572   1.246   1.369   5.431  0.5609  0.1873  0.3011
 7038SOL    HW132573   1.283   1.281   5.433  0.2234  0.0444  0.2244
 7038SOL    HW232574   1.166   1.359   5.379  2.0756 -0.4267 -1.9297
 7039SOL     OW32575   2.987   1.826   1.588 -0.2282  0.1985 -0.0775
 7039SOL    HW132576   3.065   1.781   1.621  0.3603  0.4932 -1.0852
 7039SOL    HW232577   2.983   1.794   1.498  0.1068 -0.5863  0.1865
 7040SOL     OW32578   0.554   3.758  16.033  0.5851 -0.5958 -0.3308
 7040SOL    HW132579   0.577   3.843  16.071  1.0323 -0.2305 -1.4176
 7040SOL    HW232580   0.480   3.785  15.978  0.3242  2.1149  1.3432
 7041SOL     OW32581   1.475   0.922   3.049 -0.1350 -0.2032  0.3792
 7041SOL    HW132582   1.568   0.946   3.045  0.0504 -0.9970 -0.0599
 7041SOL    HW232583   1.436   0.995   3.001  0.4875  0.3708  0.7445
 7042SOL     OW32584   0.152   1.260  11.209 -0.2997  0.0363  0.6863
 7042SOL    HW132585   0.220   1.316  11.247 -1.4928  1.6657  0.4155
 7042SOL    HW232586   0.108   1.333  11.167  1.9645 -0.2520 -2.1785
 7043SOL     OW32587   2.627   0.334   2.218  0.1841  0.1462 -0.0404
 7043SOL    HW132588   2.679   0.283   2.156  0.8371  0.8595 -0.0811
 7043SOL    HW232589   2.558   0.373   2.164 -0.8563 -2.1999 -0.3810
 7044SOL     OW32590   3.659   3.498   2.272  0.0345  0.3391  0.0213
 7044SOL    HW132591   3.688   3.418   2.316  0.8633  0.5322 -0.1669
 7044SOL    HW232592   3.564   3.484   2.266 -0.0536  0.3607  1.4241
 7045SOL     OW32593   4.317   1.368   0.699  0.4759 -0.2563 -0.0764
 7045SOL    HW132594   4.318   1.453   0.743 -0.9506 -0.5023  0.4389
 7045SOL    HW232595   4.336   1.311   0.773  0.4399 -2.3978 -1.7402
 7046SOL     OW32596   1.175   4.030  13.862 -0.0611  0.5437 -0.0640
 7046SOL    HW132597   1.190   4.124  13.850 -0.2727  0.7477  1.2933
 7046SOL    HW232598   1.248   3.996  13.810 -0.4119  1.9881 -1.4799
 7047SOL     OW32599   0.268   4.345   7.770  0.1083 -0.3236 -0.6445
 7047SOL    HW132600   0.210   4.411   7.807 -1.6203 -1.8362 -0.6629
 7047SOL    HW232601   0.206   4.274   7.753 -0.5261 -0.1198  0.8443
 7048SOL     OW32602   3.965   2.892  13.839 -1.0206 -0.7010  0.5716
 7048SOL    HW132603   4.046   2.910  13.791 -1.0221  1.7923  1.5347
 7048SOL    HW232604   3.958   2.798  13.823 -1.6009 -0.5445 -0.1356
 7049SOL     OW32605   3.370   3.212   4.125 -0.1611 -1.0578 -0.1134
 7049SOL    HW132606   3.424   3.271   4.179 -1.3933 -0.2977  0.2911
 7049SOL    HW232607   3.379   3.132   4.176  1.4427 -0.5169  0.4871
 7050SOL     OW32608   1.674   0.099   6.212  0.3636  0.6621  0.0467
 7050SOL    HW132609   1.598   0.049   6.242  0.0333 -0.5915 -2.8216
 7050SOL    HW232610   1.634   0.185   6.200 -1.0525  0.3404  2.4780
 7051SOL     OW32611   2.338   3.145  15.231  0.1824  0.0900  0.4226
 7051SOL    HW132612   2.415   3.105  15.190 -0.7150  1.5980 -2.7210
 7051SOL    HW232613   2.347   3.232  15.191 -1.4513  0.3734  0.6609
 7052SOL     OW32614   2.521   4.040   8.948 -0.3657 -0.3660  0.1709
 7052SOL    HW132615   2.479   4.093   9.015  1.5974  1.2344  0.1363
 7052SOL    HW232616   2.572   3.983   9.006  1.0886 -0.8972 -1.5898
 7053SOL     OW32617   4.356   4.720  13.914 -0.1557 -0.2611  0.3987
 7053SOL    HW132618   4.313   0.048  13.845  0.0109 -1.1573 -0.3783
 7053SOL    HW232619   4.336   4.631  13.885 -0.8021  0.6276 -1.9586
 7054SOL     OW32620   0.496   1.697   3.192  0.1413  0.2367  0.1668
 7054SOL    HW132621   0.538   1.756   3.255 -2.2192  1.0827  0.9748
 7054SOL    HW232622   0.406   1.730   3.184 -0.3253 -1.0952 -0.1002
 7055SOL     OW32623   4.295   0.191   5.190 -0.2023 -0.3296 -0.4347
 7055SOL    HW132624   4.358   0.227   5.252  0.9704 -2.8921 -0.1401
 7055SOL    HW232625   4.334   0.217   5.106 -0.0806  0.2369 -0.2037
 7056SOL     OW32626   3.976   4.534   9.073 -0.5394  0.3786 -0.6506
 7056SOL    HW132627   4.050   4.544   9.132 -1.0817  1.6077 -0.1659
 7056SOL    HW232628   3.919   4.605   9.104 -1.4359 -0.1717 -1.0495
 7057SOL     OW32629   2.459   3.749  17.691  0.0983 -0.5977 -0.6469
 7057SOL    HW132630   2.396   3.702   0.051 -2.7099  1.8641 -1.7507
 7057SOL    HW232631   2.517   3.780   0.066  1.2003 -1.5949 -1.1298
 7058SOL     OW32632   3.917   1.551   6.376  0.5129 -0.1799 -0.0332
 7058SOL    HW132633   3.860   1.610   6.327 -0.3822 -0.1332  1.0664
 7058SOL    HW232634   3.878   1.525   6.460 -0.9614 -0.6141 -0.8631
 7059SOL     OW32635   4.309   3.797  11.670  0.2917 -0.5436 -0.7022
 7059SOL    HW132636   4.272   3.759  11.750  2.0002  1.9042  1.2472
 7059SOL    HW232637   4.352   3.714  11.649 -0.7737 -1.0500 -0.8816
 7060SOL     OW32638   4.030   3.780  17.593 -0.3453 -0.3872  0.1562
 7060SOL    HW132639   4.005   3.870  17.612  0.1408  0.0362 -1.2216
 7060SOL    HW232640   4.125   3.784  17.592 -0.3449 -0.1660  0.7280
 7061SOL     OW32641   0.605   1.228   0.002 -0.1537 -0.1265 -0.0662
 7061SOL    HW132642   0.583   1.269   0.085 -2.0620 -0.0186 -0.6174
 7061SOL    HW232643   0.700   1.232   0.014  0.0900 -0.1291 -2.0477
 7062SOL     OW32644   0.031   2.931   2.555 -0.2721 -0.4329 -0.6208
 7062SOL    HW132645   4.659   2.924   2.560 -0.1715 -0.4942  1.4338
 7062SOL    HW232646   0.060   2.869   2.622 -1.3266 -2.3209 -1.9024
 7063SOL     OW32647   2.541   2.394   0.903 -0.2458 -0.8088 -0.1641
 7063SOL    HW132648   2.615   2.430   0.952 -0.5804 -1.3166  0.7192
 7063SOL    HW232649   2.535   2.448   0.824 -0.3887  2.3447  2.0308
 7064SOL     OW32650   4.065   1.409  13.275  0.5288 -0.2200 -0.9645
 7064SOL    HW132651   4.044   1.461  13.198  0.9318  0.9757 -0.2636
 7064SOL    HW232652   4.153   1.442  13.290  0.2534 -0.4501  1.2468
 7065SOL     OW32653   3.802   1.081   6.348 -0.1375 -0.2268 -0.5081
 7065SOL    HW132654   3.849   1.154   6.306 -0.3965  2.1478  3.3171
 7065SOL    HW232655   3.840   1.086   6.435 -1.3227  0.1075 -0.0124
 7066SOL     OW32656   3.245   2.172   3.262 -0.3799 -0.1325 -0.0835
 7066SOL    HW132657   3.293   2.093   3.237 -1.7419 -1.6986  2.2223
 7066SOL    HW232658   3.305   2.234   3.221  0.9484  1.2841  4.0124
 7067SOL     OW32659   4.198   0.500   5.506 -0.1797 -0.4190 -0.0458
 7067SOL    HW132660   4.187   0.592   5.528 -0.5088 -0.1183 -1.4995
 7067SOL    HW232661   4.293   0.489   5.498 -0.3319 -1.1581 -0.9111
 7068SOL     OW32662   1.416   2.308   6.624  0.0651 -0.7847 -0.1889
 7068SOL    HW132663   1.351   2.378   6.622  2.3772  1.2902 -1.6512
 7068SOL    HW232664   1.358   2.232   6.631 -0.1090 -0.7827 -1.6022
 7069SOL     OW32665   4.227   1.890  14.240  0.1206 -0.3718 -0.1512
 7069SOL    HW132666   4.290   1.962  14.240  0.5585 -0.7276  3.8803
 7069SOL    HW232667   4.197   1.896  14.150 -0.8028 -0.1132  0.1751
 7070SOL     OW32668   1.346   4.481   6.438 -0.7758 -0.2319  0.3236
 7070SOL    HW132669   1.292   4.520   6.370  0.8784 -1.2941 -1.5771
 7070SOL    HW232670   1.286   4.492   6.512 -1.2978  1.7915 -0.4154
 7071SOL     OW32671   0.909   1.864   2.945 -0.1888 -0.1377 -0.2259
 7071SOL    HW132672   1.000   1.886   2.926 -0.8303  1.7922 -1.0703
 7071SOL    HW232673   0.901   1.778   2.903  0.4348  0.2220 -1.0865
 7072SOL     OW32674   0.056   0.503   8.028 -0.3321 -0.5693 -0.6728
 7072SOL    HW132675   0.031   0.588   8.064 -2.2899 -1.7732  0.8552
 7072SOL    HW232676   0.050   0.520   7.934  0.5195  1.0145 -0.4430
 7073SOL     OW32677   4.588   1.710   4.757 -0.0434  0.9705  0.2005
 7073SOL    HW132678   4.560   1.793   4.796 -3.9043 -0.1014 -0.2452
 7073SOL    HW232679   4.671   1.746   4.727  0.4824 -0.5175 -0.0977
 7074SOL     OW32680   4.310   2.080  14.620  0.3220  0.0082  0.0939
 7074SOL    HW132681   4.229   2.041  14.586  0.9362 -0.2441 -1.0372
 7074SOL    HW232682   4.277   2.163  14.654  1.7362  0.3834  0.5218
 7075SOL     OW32683   0.406   4.606   9.820  0.6720  0.0546  0.3252
 7075SOL    HW132684   0.448   4.521   9.807  1.2336  0.3803  0.0015
 7075SOL    HW232685   0.460   4.650   9.754  0.6142 -1.7154 -0.9128
 7076SOL     OW32686   3.721   0.660   4.876 -0.5526 -0.0829  0.4264
 7076SOL    HW132687   3.735   0.593   4.810 -0.9911  0.4743 -0.2331
 7076SOL    HW232688   3.711   0.609   4.957  0.4295  0.4231  0.8677
 7077SOL     OW32689   0.830   3.173   0.161  0.3146 -0.6021 -0.1357
 7077SOL    HW132690   0.864   3.123   0.236 -0.9861 -0.6532  0.4268
 7077SOL    HW232691   0.905   3.232   0.159  1.7041 -2.3700 -0.8072
 7078SOL     OW32692   2.772   0.504   1.384 -0.0909 -0.1006 -0.4896
 7078SOL    HW132693   2.776   0.477   1.293 -0.5582  0.7729 -0.7672
 7078SOL    HW232694   2.679   0.485   1.395  0.5332 -1.1372  2.9745
 7079SOL     OW32695   3.632   2.199  15.889 -0.3648 -0.0921  0.1315
 7079SOL    HW132696   3.545   2.230  15.915 -0.1512  1.1187 -0.6301
 7079SOL    HW232697   3.654   2.248  15.810 -0.3919 -1.0034 -0.4408
 7080SOL     OW32698   0.080   0.374  12.341  0.5753  0.0721  0.3535
 7080SOL    HW132699   0.141   0.305  12.368 -1.5086 -1.9262 -0.0508
 7080SOL    HW232700   4.722   0.337  12.378 -0.6474  2.8163  0.3978
 7081SOL     OW32701   0.469   3.969   5.120  0.1713  0.0410  0.0606
 7081SOL    HW132702   0.476   4.007   5.208 -4.5258  2.1022 -0.4785
 7081SOL    HW232703   0.427   4.048   5.086  1.2786 -0.0721 -1.5455
 7082SOL     OW32704   4.368   1.400   8.007 -0.1422  0.2491 -0.0378
 7082SOL    HW132705   4.344   1.459   7.936 -0.2237  1.5931  1.1024
 7082SOL    HW232706   4.455   1.369   7.982  0.8479  1.7744  1.4710
 7083SOL     OW32707   4.608   2.443   7.981 -0.1878 -0.2057 -0.0054
 7083SOL    HW132708   4.607   2.498   7.902  2.3622 -0.8170 -0.4636
 7083SOL    HW232709   4.647   2.365   7.941 -1.1299 -0.8994  0.4046
 7084SOL     OW32710   3.677   2.507  11.000 -0.2315  0.2115  0.5508
 7084SOL    HW132711   3.678   2.517  10.904  1.4468 -1.2783  0.4081
 7084SOL    HW232712   3.762   2.464  11.014 -0.4476 -0.7364 -0.9605
 7085SOL     OW32713   3.110   4.257   1.484 -0.1975 -0.3796 -0.4596
 7085SOL    HW132714   3.144   4.285   1.398 -1.2207  0.4454 -0.5846
 7085SOL    HW232715   3.175   4.192   1.509 -0.0248 -0.2163 -0.4792
 7086SOL     OW32716   4.588   3.108   6.225 -1.1275 -0.2416  0.6338
 7086SOL    HW132717   4.674   3.101   6.184 -0.4322  0.2470  2.0150
 7086SOL    HW232718   4.581   3.036   6.287 -1.2084  0.7105  1.7326
 7087SOL     OW32719   0.443   1.905   6.235  0.6999 -0.2850  0.2915
 7087SOL    HW132720   0.364   1.863   6.268  1.3261 -0.5572  1.4427
 7087SOL    HW232721   0.472   1.942   6.318  2.3865 -0.9606  0.0128
 7088SOL     OW32722   0.494   3.654  11.258  0.1289 -0.2714  0.3616
 7088SOL    HW132723   0.435   3.609  11.319 -1.5553  2.0885  0.4634
 7088SOL    HW232724   0.566   3.682  11.314  0.2940  0.4796 -0.2234
 7089SOL     OW32725   2.164   0.060  16.939 -0.1567 -0.0447 -0.0966
 7089SOL    HW132726   2.237   0.016  16.982  0.1981 -0.3427 -0.9970
 7089SOL    HW232727   2.090   0.018  16.983  2.0311  0.0561  3.6517
 7090SOL     OW32728   3.823   2.550   7.117 -0.2082 -0.2362 -0.7221
 7090SOL    HW132729   3.881   2.626   7.114  0.1855 -0.4816  0.5619
 7090SOL    HW232730   3.742   2.597   7.140  1.3180  1.7310  0.6456
 7091SOL     OW32731   3.283   1.299   3.501  0.0875 -0.3463 -0.3424
 7091SOL    HW132732   3.246   1.269   3.418 -1.9772 -0.9582  0.8146
 7091SOL    HW232733   3.274   1.393   3.492 -0.7756 -0.2794  1.3131
 7092SOL     OW32734   0.643   1.850   7.424  0.7542 -0.0783  0.1492
 7092SOL    HW132735   0.597   1.930   7.400 -0.3305 -0.3830  1.2429
 7092SOL    HW232736   0.616   1.830   7.513 -0.0484 -1.1915 -0.3462
 7093SOL     OW32737   0.574   1.640   5.259 -0.1385  0.0859  0.2321
 7093SOL    HW132738   0.546   1.566   5.312  1.2039  0.3663  1.3216
 7093SOL    HW232739   0.490   1.668   5.222 -0.5600 -0.8248  0.4908
 7094SOL     OW32740   4.437   4.036   3.875 -0.0216  0.7249  0.3862
 7094SOL    HW132741   4.501   3.996   3.933 -0.8471  2.8157  2.7123
 7094SOL    HW232742   4.489   4.051   3.796 -0.0295  3.1822  0.8564
 7095SOL     OW32743   1.136   3.907   9.027  0.1488 -0.1558  0.1963
 7095SOL    HW132744   1.068   3.974   9.037 -0.4137 -0.7535  0.4269
 7095SOL    HW232745   1.187   3.951   8.960  0.8372 -0.3929  0.5657
 7096SOL     OW32746   1.096   3.697   7.265 -0.1195  0.1030  0.3346
 7096SOL    HW132747   1.071   3.647   7.188  0.9777  0.0350  0.0222
 7096SOL    HW232748   1.020   3.754   7.275 -0.3333 -0.5484  2.3814
 7097SOL     OW32749   3.218   2.203  15.903  0.8185  0.0775 -0.7229
 7097SOL    HW132750   3.263   2.118  15.893 -1.9833 -1.5219  0.2941
 7097SOL    HW232751   3.173   2.210  15.818  0.3455 -0.3133 -0.5036
 7098SOL     OW32752   1.620   3.242   6.926  0.4206  0.4273 -0.2250
 7098SOL    HW132753   1.700   3.193   6.906  2.0509  1.2556  4.3540
 7098SOL    HW232754   1.640   3.335   6.921 -0.1698  0.4907 -1.5320
 7099SOL     OW32755   0.357   3.928  10.371 -0.4161  0.3768  0.2214
 7099SOL    HW132756   0.377   3.860  10.306 -1.2904 -0.1387  0.4942
 7099SOL    HW232757   0.406   4.002  10.335 -0.3825 -0.4266 -1.4336
 7100SOL     OW32758   3.842   4.255   2.716  0.0357 -0.0193 -0.0521
 7100SOL    HW132759   3.763   4.283   2.669  0.2628  1.1059  0.2392
 7100SOL    HW232760   3.885   4.216   2.640 -0.4727  2.1174 -1.4302
 7101SOL     OW32761   1.585   0.931  10.091  0.4727  0.3434  0.4579
 7101SOL    HW132762   1.608   0.851  10.138 -1.7062 -0.4793  0.1082
 7101SOL    HW232763   1.606   0.997  10.157 -0.4197  2.2267 -1.1492
 7102SOL     OW32764   0.318   4.022   3.130 -0.9370  0.1178  0.2832
 7102SOL    HW132765   0.351   3.955   3.071 -1.0081  1.1011 -0.8769
 7102SOL    HW232766   0.272   3.965   3.192  0.7849 -0.8753  0.6133
 7103SOL     OW32767   3.741   2.470   2.551  0.2076 -0.2029 -0.3227
 7103SOL    HW132768   3.801   2.397   2.563  0.8650  0.2916 -0.6525
 7103SOL    HW232769   3.688   2.464   2.631 -0.8412  2.4797 -0.8145
 7104SOL     OW32770   3.877   0.874   7.819  0.0698  0.3989  0.1520
 7104SOL    HW132771   3.939   0.863   7.747  1.1216  0.4222  1.0384
 7104SOL    HW232772   3.898   0.961   7.853 -0.7359  0.6345  0.0429
 7105SOL     OW32773   1.066   1.934   3.538 -0.0052  0.3703 -0.1924
 7105SOL    HW132774   1.125   2.006   3.518  2.7761 -1.4547  1.3915
 7105SOL    HW232775   1.059   1.926   3.633  0.6470  0.3097 -0.1533
 7106SOL     OW32776   1.361   1.257  10.215 -0.9777 -0.6202  0.0836
 7106SOL    HW132777   1.297   1.278  10.283  0.9836  1.4145  1.2984
 7106SOL    HW232778   1.352   1.162  10.210 -2.0528 -0.4330 -1.5212
 7107SOL     OW32779   2.091   3.472   3.242  0.5004 -0.0420 -0.1843
 7107SOL    HW132780   2.018   3.519   3.281 -0.9445 -1.9185 -0.6001
 7107SOL    HW232781   2.090   3.494   3.149  2.0455  1.0938  0.0660
 7108SOL     OW32782   3.261   2.180   5.548  0.2997  0.0617 -0.3239
 7108SOL    HW132783   3.172   2.163   5.578  1.3217 -0.4306  2.5068
 7108SOL    HW232784   3.307   2.177   5.632  0.1955  1.9051 -0.1955
 7109SOL     OW32785   0.108   4.400   0.868 -0.4173  0.1845 -0.0611
 7109SOL    HW132786   0.018   4.425   0.850  0.0163  1.6563 -0.1951
 7109SOL    HW232787   0.125   4.462   0.939 -1.7952 -1.3265  1.5653
 7110SOL     OW32788   4.348   4.472   6.752 -0.5177 -0.0168  0.2692
 7110SOL    HW132789   4.263   4.448   6.716 -0.2825  0.1393 -0.3795
 7110SOL    HW232790   4.321   4.488   6.843  0.7539  1.0992  0.4539
 7111SOL     OW32791   3.511   0.323  14.875  0.3423  0.0474  0.1997
 7111SOL    HW132792   3.420   0.295  14.872 -0.2501  2.1177 -1.1299
 7111SOL    HW232793   3.532   0.297  14.965  1.5140  0.4144  0.0382
 7112SOL     OW32794   1.704   0.464  10.728  0.0356 -0.6104  0.6591
 7112SOL    HW132795   1.689   0.455  10.822  1.6053 -1.6013  0.8297
 7112SOL    HW232796   1.616   0.473  10.693 -0.2306 -1.3102  1.1303
 7113SOL     OW32797   0.342   4.367  13.263 -0.1232  0.4746  0.0298
 7113SOL    HW132798   0.385   4.358  13.348  0.7926  1.2429 -0.3413
 7113SOL    HW232799   0.339   4.463  13.259 -1.3941  0.4223 -0.3402
 7114SOL     OW32800   2.523   4.645  14.721 -0.4748 -0.3543 -0.0593
 7114SOL    HW132801   2.531   4.601  14.806  2.9599  3.2595  1.4963
 7114SOL    HW232802   2.550   4.566  14.673  2.8043  0.0109  1.1902
 7115SOL     OW32803   1.423   0.530   9.887 -0.2840 -0.0143 -0.3611
 7115SOL    HW132804   1.343   0.546   9.936  0.8028  2.8701  0.4528
 7115SOL    HW232805   1.469   0.479   9.954  0.0860  0.7060 -0.0703
 7116SOL     OW32806   3.072   3.640   2.640 -0.2050  0.1500 -0.1926
 7116SOL    HW132807   3.070   3.694   2.561 -2.9446 -0.7631 -0.7300
 7116SOL    HW232808   3.034   3.702   2.703 -0.0307  0.7185 -0.6535
 7117SOL     OW32809   2.743   2.169   8.960  0.1032  0.2449 -0.2658
 7117SOL    HW132810   2.737   2.264   8.949 -0.3965  0.4514  1.9449
 7117SOL    HW232811   2.680   2.139   8.894 -0.4055  0.8190 -0.0409
 7118SOL     OW32812   3.750   4.712  13.048 -0.2329  0.3254 -0.1631
 7118SOL    HW132813   3.690   0.041  13.102 -0.7528 -1.6907  1.2210
 7118SOL    HW232814   3.798   0.045  12.988 -2.9586  1.2283 -1.5004
 7119SOL     OW32815   3.334   3.599   1.813  0.2392 -0.4964 -0.2925
 7119SOL    HW132816   3.300   3.677   1.856 -0.7793  0.9564 -3.7784
 7119SOL    HW232817   3.337   3.541   1.890  0.0821  1.2608  1.0389
 7120SOL     OW32818   4.067   1.760   3.925  0.3314 -0.4057 -0.0395
 7120SOL    HW132819   4.095   1.669   3.930  4.5471  0.9679  1.1680
 7120SOL    HW232820   4.094   1.780   4.015  2.3649  0.3507 -0.8357
 7121SOL     OW32821   1.251   3.422   9.983 -0.2737  0.0895 -0.1245
 7121SOL    HW132822   1.231   3.466   9.900  1.2132  0.0583 -0.4887
 7121SOL    HW232823   1.277   3.494  10.041 -0.3639  0.1379 -0.1441
 7122SOL     OW32824   4.212   2.298   4.350 -0.2603  0.1813  0.2581
 7122SOL    HW132825   4.194   2.336   4.435  0.8417 -0.9622  1.0085
 7122SOL    HW232826   4.252   2.375   4.310 -0.9796  0.4138 -0.0148
 7123SOL     OW32827   1.506   0.545   3.657  0.2355 -0.3656  0.1929
 7123SOL    HW132828   1.596   0.517   3.673  0.8635  0.4311 -2.0052
 7123SOL    HW232829   1.456   0.465   3.678  0.0618 -1.2268 -3.5537
 7124SOL     OW32830   2.574   0.145   5.897 -0.3488  0.5307 -0.5366
 7124SOL    HW132831   2.591   0.165   5.989  1.4669  0.6557 -0.8997
 7124SOL    HW232832   2.596   0.226   5.851  0.6513  0.9351  0.6381
 7125SOL     OW32833   0.271   0.655   3.056 -0.0355  0.3634  0.1041
 7125SOL    HW132834   0.255   0.562   3.070 -0.4211  0.3710 -0.2941
 7125SOL    HW232835   0.280   0.659   2.960  0.6549  1.5419  0.2124
 7126SOL     OW32836   0.440   4.346   5.235 -0.5195  0.5883  0.1018
 7126SOL    HW132837   0.421   4.292   5.158  0.7644  0.6021 -0.2100
 7126SOL    HW232838   0.524   4.385   5.211 -0.4407  0.2189 -0.2229
 7127SOL     OW32839   1.933   4.120   2.833  0.2551  0.1942  0.8470
 7127SOL    HW132840   1.838   4.113   2.839  0.2249  1.3490  1.6978
 7127SOL    HW232841   1.942   4.144   2.740  0.6384 -1.1198  0.5506
 7128SOL     OW32842   0.724   1.977   3.119  0.3158  0.4123 -0.0630
 7128SOL    HW132843   0.803   1.941   3.078  1.2806  1.2266  1.0781
 7128SOL    HW232844   0.706   1.909   3.185  0.3843 -0.2816 -0.7568
 7129SOL     OW32845   2.300   3.680  15.123 -0.1190  0.1890  0.3198
 7129SOL    HW132846   2.232   3.741  15.093 -1.8215 -1.8306  0.0412
 7129SOL    HW232847   2.366   3.702  15.057  0.7369 -0.0982  1.0840
 7130SOL     OW32848   3.901   0.448   3.557  0.6481  0.1108 -0.4597
 7130SOL    HW132849   3.810   0.418   3.549  0.4528  0.2241  1.1528
 7130SOL    HW232850   3.891   0.543   3.563 -0.0438  0.0180 -0.0916
 7131SOL     OW32851   3.672   1.941   6.809  0.7813 -0.0341 -0.3894
 7131SOL    HW132852   3.626   1.960   6.891 -1.2749  0.3546 -1.6380
 7131SOL    HW232853   3.616   1.983   6.743  0.5155 -0.7628 -0.6294
 7132SOL     OW32854   2.489   3.995  17.579 -0.6338  0.7032 -0.6559
 7132SOL    HW132855   2.464   3.904  17.594  0.1889  0.3989 -1.1177
 7132SOL    HW232856   2.492   4.040  17.663  1.2886  1.6171 -1.2114
 7133SOL     OW32857   0.157   2.393   3.149 -0.0034  0.3973  0.8114
 7133SOL    HW132858   0.201   2.471   3.115 -0.6556 -0.0462 -1.0591
 7133SOL    HW232859   0.203   2.323   3.104 -2.9576  0.0744 -1.7339
 7134SOL     OW32860   0.626   2.679   6.557 -0.6337 -0.2916 -0.1543
 7134SOL    HW132861   0.678   2.643   6.486 -1.1746 -3.2869  0.9247
 7134SOL    HW232862   0.589   2.597   6.590 -2.2935  0.4494 -0.1863
 7135SOL     OW32863   0.340   3.274  13.563  0.1016 -0.2869 -0.0716
 7135SOL    HW132864   0.360   3.184  13.537 -0.3144  0.2733 -2.2880
 7135SOL    HW232865   0.409   3.299  13.625  0.3264 -1.2881  0.0744
 7136SOL     OW32866   0.604   2.855   8.925  0.3078  0.3276  0.2287
 7136SOL    HW132867   0.604   2.864   9.021  2.0497  0.1448  0.2330
 7136SOL    HW232868   0.610   2.762   8.904  2.3784  0.2576  1.1760
 7137SOL     OW32869   0.793   2.957   6.363 -0.0608  0.7613  0.2320
 7137SOL    HW132870   0.740   2.985   6.437 -1.9946  2.1511 -1.6753
 7137SOL    HW232871   0.874   2.931   6.406 -0.2162  0.4382  0.3271
 7138SOL     OW32872   3.123   0.638   9.279 -0.0000 -0.7668 -0.4196
 7138SOL    HW132873   3.211   0.617   9.250 -0.3058 -2.3947 -0.1512
 7138SOL    HW232874   3.122   0.734   9.274 -0.5768 -0.5302  3.5642
 7139SOL     OW32875   1.967   0.205   1.695  0.5796 -0.6596  0.0679
 7139SOL    HW132876   2.059   0.203   1.671  0.3335 -0.2127 -0.9136
 7139SOL    HW232877   1.937   0.143   1.630 -0.1141 -1.4122  1.0961
 7140SOL     OW32878   0.837   3.268   3.036  0.1798 -0.5833  0.3089
 7140SOL    HW132879   0.790   3.339   2.993  1.3745  0.6864  1.0858
 7140SOL    HW232880   0.789   3.197   2.994  3.0059 -2.5728  0.4545
 7141SOL     OW32881   3.433   0.268   7.861  0.3269 -0.1009 -0.7534
 7141SOL    HW132882   3.370   0.337   7.844 -1.9578 -1.5072  1.8839
 7141SOL    HW232883   3.432   0.276   7.957 -0.3561 -1.7830 -0.6062
 7142SOL     OW32884   0.117   1.645   3.649  0.5223 -0.1675 -0.5546
 7142SOL    HW132885   0.198   1.607   3.682  1.3870  1.5611 -0.7160
 7142SOL    HW232886   0.149   1.670   3.562  0.4210 -0.0149 -0.5483
 7143SOL     OW32887   4.268   0.422   8.606  0.0021  0.3438 -0.0067
 7143SOL    HW132888   4.248   0.475   8.683 -1.5503  1.3147 -1.0842
 7143SOL    HW232889   4.281   0.335   8.644 -1.6378  0.8886  1.8208
 7144SOL     OW32890   0.698   0.119   1.110  0.1656  0.0916  0.3589
 7144SOL    HW132891   0.708   0.111   1.015  1.2921  0.6914  0.4333
 7144SOL    HW232892   0.604   0.105   1.121 -0.3636  1.6220 -1.9726
 7145SOL     OW32893   0.915   0.420  15.005  0.3294 -0.2024 -0.2146
 7145SOL    HW132894   0.907   0.444  15.097  2.2835 -0.7771  0.1071
 7145SOL    HW232895   0.961   0.498  14.972  0.6617  0.5866  2.1389
 7146SOL     OW32896   2.184   3.208   3.972 -0.1962 -0.1971  0.3843
 7146SOL    HW132897   2.201   3.239   4.061 -1.0946  3.7900 -0.8103
 7146SOL    HW232898   2.266   3.222   3.923 -2.1508  2.1315 -2.2111
 7147SOL     OW32899   0.800   0.623  16.651  0.4163  1.0478 -0.2520
 7147SOL    HW132900   0.741   0.695  16.628  1.6858  2.9397  2.4123
 7147SOL    HW232901   0.742   0.548  16.662 -0.1039  1.3021 -1.2521
 7148SOL     OW32902   2.417   2.401  14.641  0.2707  0.4122 -0.4772
 7148SOL    HW132903   2.359   2.362  14.706  0.1678  0.8300 -0.3151
 7148SOL    HW232904   2.469   2.326  14.614 -0.2480  0.2599 -1.0499
 7149SOL     OW32905   3.105   3.122   4.478  0.1553  0.3811  0.0055
 7149SOL    HW132906   3.147   3.092   4.558  0.2946  0.3117 -0.0955
 7149SOL    HW232907   3.051   3.191   4.518  2.8814  1.0176  2.5549
 7150SOL     OW32908   0.288   3.405   9.339 -0.1386  0.2939  0.6917
 7150SOL    HW132909   0.367   3.354   9.321 -1.6881 -1.5078 -1.0001
 7150SOL    HW232910   0.232   3.376   9.267  1.9564 -1.6749 -0.1509
 7151SOL     OW32911   0.893   2.223  15.551 -0.0171 -0.1486 -0.2985
 7151SOL    HW132912   0.957   2.216  15.622  1.3651  1.3210 -1.3884
 7151SOL    HW232913   0.930   2.301  15.509  0.1759 -0.5890 -0.9515
 7152SOL     OW32914   0.142   1.949  15.545  0.1430  0.4483  0.2303
 7152SOL    HW132915   0.056   1.908  15.555  0.5683 -0.1032  1.6161
 7152SOL    HW232916   0.199   1.878  15.575  1.7119  1.0748 -1.2566
 7153SOL     OW32917   3.152   4.256  16.606  0.2392 -0.1724 -0.4532
 7153SOL    HW132918   3.120   4.170  16.633  1.6059 -0.6555 -0.4160
 7153SOL    HW232919   3.067   4.301  16.601  1.0955  1.7342  1.7426
 7154SOL     OW32920   0.743   1.706   8.683 -0.1056 -0.3163 -0.1083
 7154SOL    HW132921   0.786   1.673   8.762  0.8268  0.1873 -0.3985
 7154SOL    HW232922   0.805   1.775   8.659 -0.2579  0.0261  0.4780
 7155SOL     OW32923   2.403   1.829   6.295 -0.0933  0.5505 -0.3858
 7155SOL    HW132924   2.366   1.893   6.356  2.5682  1.2587  0.4941
 7155SOL    HW232925   2.468   1.796   6.357 -1.1050  2.4711  1.6873
 7156SOL     OW32926   2.428   4.051   5.389  0.3314 -0.0335 -0.3240
 7156SOL    HW132927   2.339   4.019   5.403 -0.1120  2.5421  2.8074
 7156SOL    HW232928   2.472   4.046   5.475 -0.1259  2.3830  0.0396
 7157SOL     OW32929   2.219   1.787   4.555  0.2398  0.2620  1.0266
 7157SOL    HW132930   2.150   1.752   4.498  2.5186  0.3703 -1.7964
 7157SOL    HW232931   2.292   1.764   4.498  0.0919 -1.5162  1.5735
 7158SOL     OW32932   3.481   3.540   5.088  0.0269  0.4288  0.2604
 7158SOL    HW132933   3.479   3.622   5.039 -2.4095 -0.9069 -1.8821
 7158SOL    HW232934   3.564   3.494   5.071  0.3145  0.8201  0.6039
 7159SOL     OW32935   3.441   0.555   8.334 -0.3798 -0.3230 -1.0258
 7159SOL    HW132936   3.479   0.508   8.407  0.8022 -1.0839 -2.1342
 7159SOL    HW232937   3.500   0.628   8.314 -0.9896  0.3176 -0.5009
 7160SOL     OW32938   1.447   1.179   8.135 -0.1690 -0.1846 -0.2307
 7160SOL    HW132939   1.477   1.245   8.073 -0.6831  0.0156 -0.2614
 7160SOL    HW232940   1.370   1.218   8.175 -0.3039 -1.3983  0.7244
 7161SOL     OW32941   1.655   3.411  10.062 -0.1610  0.2803  0.0927
 7161SOL    HW132942   1.678   3.463  10.139 -0.1214  0.9315 -0.3542
 7161SOL    HW232943   1.673   3.321  10.089 -0.7199 -0.2840 -1.4234
 7162SOL     OW32944   0.783   1.824   5.087 -0.3196 -0.1397 -0.7176
 7162SOL    HW132945   0.821   1.823   4.999 -1.1593 -0.4681 -1.0824
 7162SOL    HW232946   0.691   1.842   5.069  0.0274  0.5217 -1.8257
 7163SOL     OW32947   2.811   4.650  15.965  0.1133  0.2973 -0.3033
 7163SOL    HW132948   2.884   4.684  16.017 -1.4093  2.9157  0.1016
 7163SOL    HW232949   2.842   4.596  15.892 -0.4910  1.0963 -1.1389
 7164SOL     OW32950   0.499   2.113   3.886 -0.0119  0.1139 -0.1064
 7164SOL    HW132951   0.532   2.140   3.800 -1.3307  0.6712 -0.4390
 7164SOL    HW232952   0.499   2.197   3.932  1.0401 -0.2967  0.6389
 7165SOL     OW32953   2.324   0.896  16.834  0.6269 -0.4644  0.3598
 7165SOL    HW132954   2.282   0.812  16.854  0.8815 -0.8876 -0.9121
 7165SOL    HW232955   2.311   0.904  16.740 -1.4315  1.5677  0.8179
 7166SOL     OW32956   1.978   2.931   2.472  0.3292  0.2978  0.9482
 7166SOL    HW132957   1.919   2.998   2.438  0.1244 -0.4124 -0.0955
 7166SOL    HW232958   1.919   2.859   2.450  1.6953 -0.0217 -1.6542
 7167SOL     OW32959   1.871   3.522   7.277 -0.0135  0.0500 -0.5909
 7167SOL    HW132960   1.776   3.510   7.271 -0.1437  0.0438  1.2696
 7167SOL    HW232961   1.877   3.561   7.364  0.8864 -0.5004 -0.4086
 7168SOL     OW32962   2.585   3.223  12.738  0.4126  0.6248 -0.2376
 7168SOL    HW132963   2.560   3.309  12.773  2.2979  0.8434  0.5681
 7168SOL    HW232964   2.678   3.213  12.758  0.7719  3.4067 -0.6578
 7169SOL     OW32965   0.721   0.462   1.694  0.0055  0.0225  0.0205
 7169SOL    HW132966   0.626   0.452   1.703 -0.0797  0.4607 -0.3765
 7169SOL    HW232967   0.725   0.538   1.635 -0.5708  0.2947  0.3394
 7170SOL     OW32968   4.505   1.946   4.567 -0.4459  1.1915  0.4705
 7170SOL    HW132969   4.537   2.025   4.610  0.5872  1.2910 -0.4825
 7170SOL    HW232970   4.470   1.989   4.490  0.0436  0.2548 -0.2707
 7171SOL     OW32971   1.743   1.655   3.156 -0.1380  0.4138  0.7987
 7171SOL    HW132972   1.750   1.607   3.074 -1.9893 -1.2030  1.6026
 7171SOL    HW232973   1.650   1.679   3.152  0.2639  1.8503 -0.1090
 7172SOL     OW32974   0.574   4.054   3.229 -0.1207 -0.0374  0.2259
 7172SOL    HW132975   0.602   4.111   3.157 -0.0115  0.0200  0.3144
 7172SOL    HW232976   0.480   4.061   3.212 -0.2759 -0.9386  0.7221
 7173SOL     OW32977   2.125   0.488   5.965 -0.0710  0.0263  0.9445
 7173SOL    HW132978   2.171   0.481   5.881 -2.1833  0.6738 -0.2879
 7173SOL    HW232979   2.053   0.424   5.958  0.5961 -0.6703  0.4253
 7174SOL     OW32980   1.189   3.363   2.903  0.0458  0.2166  0.8228
 7174SOL    HW132981   1.094   3.358   2.888  0.9299 -2.4640 -3.9647
 7174SOL    HW232982   1.223   3.274   2.897  0.9578  0.7372 -1.6441
 7175SOL     OW32983   1.747   1.988  17.477 -0.0345  0.0911  0.2118
 7175SOL    HW132984   1.713   2.038  17.402 -3.1274  1.8430  2.7930
 7175SOL    HW232985   1.820   2.044  17.503 -2.6160  3.3128  0.5665
 7176SOL     OW32986   4.512   3.701   4.854  0.0123 -0.0728  0.0109
 7176SOL    HW132987   4.493   3.693   4.760  0.5508 -0.0885 -0.0978
 7176SOL    HW232988   4.506   3.796   4.859  0.2348 -0.0457 -0.2803
 7177SOL     OW32989   3.129   4.696   3.658  0.5031 -0.6564 -0.0724
 7177SOL    HW132990   3.153   4.606   3.683  1.6986 -0.2671  0.1960
 7177SOL    HW232991   3.207   4.717   3.606  0.3071  1.3891  0.4707
 7178SOL     OW32992   1.163   0.729  13.521 -0.4572 -0.0734  0.2808
 7178SOL    HW132993   1.117   0.702  13.441 -2.1468  0.5866  1.0295
 7178SOL    HW232994   1.133   0.820  13.521  1.0990  0.4325 -1.5406
 7179SOL     OW32995   2.796   0.102   0.556  0.0629 -0.3961 -0.4504
 7179SOL    HW132996   2.826   0.173   0.499  1.3026 -0.6529 -0.1200
 7179SOL    HW232997   2.774   0.034   0.491 -1.0632 -0.1214 -0.3540
 7180SOL     OW32998   1.307   4.710  17.287  0.3540 -0.5160  0.2173
 7180SOL    HW132999   1.388   4.668  17.259  0.6868  0.1393  0.2144
 7180SOL    HW233000   1.320   0.076  17.256 -0.2771  0.0626  1.5990
 7181SOL     OW33001   1.745   2.726   7.084 -0.2749 -0.2962 -0.2368
 7181SOL    HW133002   1.778   2.680   7.161 -2.2068  0.6995  1.1656
 7181SOL    HW233003   1.690   2.793   7.124 -0.6321 -0.7962  0.1176
 7182SOL     OW33004   1.656   3.892  13.508  0.1987  0.2097  0.5756
 7182SOL    HW133005   1.662   3.832  13.433  1.6753 -1.1829  1.8086
 7182SOL    HW233006   1.694   3.839  13.578  0.8857  0.2076  0.1998
 7183SOL     OW33007   1.266   2.660   7.832  0.4287  0.0489 -0.6162
 7183SOL    HW133008   1.300   2.745   7.805 -0.0132  0.0339 -1.2130
 7183SOL    HW233009   1.350   2.617   7.845  0.2704  0.5019  1.9287
 7184SOL     OW33010   1.698   1.560   5.171  0.1290  0.2592  0.3932
 7184SOL    HW133011   1.784   1.603   5.167 -0.0706  0.2842 -3.9202
 7184SOL    HW233012   1.645   1.639   5.180 -0.0095  0.4984 -2.4819
 7185SOL     OW33013   0.034   1.325   4.597 -0.3803  0.2161  0.2678
 7185SOL    HW133014   0.114   1.288   4.636 -0.5350  0.1236  0.4946
 7185SOL    HW233015   4.705   1.341   4.675 -0.2518 -2.2208  0.8560
 7186SOL     OW33016   3.581   4.373  13.895 -0.0932  0.2815  0.1207
 7186SOL    HW133017   3.659   4.416  13.858  0.0691 -1.0878 -1.1385
 7186SOL    HW233018   3.522   4.366  13.820 -0.0009  1.7389 -0.0949
 7187SOL     OW33019   2.198   0.397   8.765  0.7028 -0.3169 -0.3528
 7187SOL    HW133020   2.210   0.419   8.673  0.1321  1.5776  0.0297
 7187SOL    HW233021   2.118   0.346   8.755  1.3611 -1.6929  1.4761
 7188SOL     OW33022   4.664   0.113   8.677 -0.3198  0.2550  0.2072
 7188SOL    HW133023   4.707   0.081   8.597  1.2302 -0.7470  1.4524
 7188SOL    HW233024   4.651   0.207   8.663  1.0932  0.7147  1.9521
 7189SOL     OW33025   2.991   2.634   7.200 -0.0335 -0.1561 -0.6274
 7189SOL    HW133026   3.029   2.549   7.220 -0.5110 -0.5053 -1.2318
 7189SOL    HW233027   3.033   2.689   7.266  1.1008 -1.7083 -0.0560
 7190SOL     OW33028   0.938   0.544   7.485  0.4101  0.5566 -0.1987
 7190SOL    HW133029   0.904   0.634   7.483 -0.5008  0.1738 -2.5536
 7190SOL    HW233030   0.851   0.507   7.470 -0.0166  1.6677 -0.5101
 7191SOL     OW33031   3.218   1.187   4.011  0.4056 -0.0050 -0.6051
 7191SOL    HW133032   3.269   1.238   3.948  0.3523  2.2138  1.1550
 7191SOL    HW233033   3.138   1.174   3.959  0.5278  0.9927 -1.0324
 7192SOL     OW33034   4.190   0.618   8.761 -0.4625  0.2608 -0.2038
 7192SOL    HW133035   4.158   0.670   8.688  0.2016 -0.0083 -0.6857
 7192SOL    HW233036   4.214   0.688   8.822  1.4553  0.2069 -0.9012
 7193SOL     OW33037   1.371   1.449   6.220  0.1081 -0.7230 -0.0485
 7193SOL    HW133038   1.350   1.524   6.276 -1.3467 -0.4805 -0.9140
 7193SOL    HW233039   1.436   1.492   6.164 -0.9964 -1.2974 -1.7993
 7194SOL     OW33040   4.069   1.344  10.259  0.4402  0.2268 -0.0551
 7194SOL    HW133041   4.069   1.294  10.178  3.8997  0.1455 -0.0149
 7194SOL    HW233042   4.060   1.270  10.319 -2.8490  1.3247  0.7981
 7195SOL     OW33043   4.309   4.646   1.568  0.2612 -0.3353 -0.0430
 7195SOL    HW133044   4.235   4.607   1.522 -0.0118 -0.1293  0.2244
 7195SOL    HW233045   4.379   4.647   1.502  1.1775  0.0478  0.9401
 7196SOL     OW33046   1.940   2.893   7.261  0.0430  0.2345  0.5266
 7196SOL    HW133047   1.892   2.944   7.327 -0.6391  1.0099 -0.5848
 7196SOL    HW233048   1.924   2.803   7.290 -2.5688 -0.0071 -1.7224
 7197SOL     OW33049   2.340   1.415   9.214 -0.1970 -0.2145  0.2229
 7197SOL    HW133050   2.369   1.416   9.305 -0.7558 -0.3663  0.4035
 7197SOL    HW233051   2.420   1.397   9.164 -1.1294 -0.0498 -1.3399
 7198SOL     OW33052   1.542   3.957   5.524 -0.2074  0.1401  0.5059
 7198SOL    HW133053   1.542   4.043   5.565  0.4200  0.6677 -0.5927
 7198SOL    HW233054   1.471   3.912   5.571  0.3910 -1.5906 -0.2625
 7199SOL     OW33055   3.761   0.888   5.516  0.3219 -0.4543 -0.4614
 7199SOL    HW133056   3.846   0.925   5.542  0.5961  1.1489 -3.6629
 7199SOL    HW233057   3.712   0.950   5.462  1.7169  1.0299 -0.0518
 7200SOL     OW33058   4.463   2.770  11.683 -0.4449 -0.2337 -0.5153
 7200SOL    HW133059   4.380   2.806  11.653 -1.4388 -1.0258  1.2966
 7200SOL    HW233060   4.459   2.776  11.779  0.5285 -2.6457 -0.3305
 7201SOL     OW33061   1.920   0.780   5.980  0.5302 -0.6191  0.1506
 7201SOL    HW133062   1.936   0.813   6.068  0.3093 -1.8371  0.6450
 7201SOL    HW233063   1.897   0.862   5.936 -0.4644 -0.3415  1.1951
 7202SOL     OW33064   3.513   3.697   7.276  0.2427  0.2699  0.2317
 7202SOL    HW133065   3.600   3.692   7.235  1.0495  0.9695  1.8669
 7202SOL    HW233066   3.553   3.691   7.362 -2.3985 -1.0771  1.3676
 7203SOL     OW33067   2.452   3.678  11.195  0.2448 -0.0132  0.2464
 7203SOL    HW133068   2.522   3.726  11.239  1.3997 -1.6096  0.1545
 7203SOL    HW233069   2.500   3.609  11.149  2.5136  0.6885  1.6048
 7204SOL     OW33070   0.672   2.220   2.209 -0.7084 -0.7500 -0.3004
 7204SOL    HW133071   0.639   2.141   2.251 -0.6898  0.1526  1.4001
 7204SOL    HW233072   0.757   2.232   2.251 -2.6445  2.4026  2.6826
 7205SOL     OW33073   2.740   4.356   5.469  0.6786  0.2575 -0.0817
 7205SOL    HW133074   2.668   4.409   5.434  0.7623  0.7792  0.5340
 7205SOL    HW233075   2.746   4.370   5.563  0.7888 -1.7740  0.2177
 7206SOL     OW33076   1.154   2.892   2.349  0.3298 -0.0482  0.6208
 7206SOL    HW133077   1.059   2.896   2.362  0.2747 -3.2451  1.0311
 7206SOL    HW233078   1.183   2.826   2.412  0.5935 -1.7868 -1.3255
 7207SOL     OW33079   1.883   0.625   8.040 -0.3194 -0.0516  0.3704
 7207SOL    HW133080   1.872   0.700   7.981 -0.7708 -0.1964  0.2684
 7207SOL    HW233081   1.918   0.667   8.119  0.1625  1.2608 -0.5532
 7208SOL     OW33082   4.158   0.212   3.119 -0.2641 -0.0217  0.1131
 7208SOL    HW133083   4.096   0.257   3.177 -0.7011 -2.5606  1.6369
 7208SOL    HW233084   4.100   0.149   3.075  0.9704 -0.2213 -1.2237
 7209SOL     OW33085   0.983   3.809   0.171 -0.6577  0.1848 -0.6036
 7209SOL    HW133086   1.067   3.773   0.200 -0.8271  1.4567  1.5041
 7209SOL    HW233087   1.000   3.858   0.090 -0.6864 -0.0735 -0.7660
 7210SOL     OW33088   2.105   4.422   3.744  0.3748 -0.8128  0.4726
 7210SOL    HW133089   2.131   4.332   3.764 -0.9683 -1.5671 -1.1576
 7210SOL    HW233090   2.085   4.420   3.651  0.8069  1.1260  0.3459
 7211SOL     OW33091   4.020   2.011   2.294  0.1427  0.3306  0.4623
 7211SOL    HW133092   4.084   2.000   2.364 -1.1578 -1.1836  1.4095
 7211SOL    HW233093   4.051   2.092   2.254  0.3095  0.3849  0.7061
 7212SOL     OW33094   3.688   4.590   7.035  0.7411  0.1525  0.6035
 7212SOL    HW133095   3.773   4.629   7.055  1.5714 -1.2240 -0.3142
 7212SOL    HW233096   3.707   4.518   6.975 -0.5927 -0.5400  0.9989
 7213SOL     OW33097   3.593   0.064  11.025  0.2298 -0.0094  0.2681
 7213SOL    HW133098   3.646   0.005  11.077 -1.1447  0.6938  2.4674
 7213SOL    HW233099   3.615   0.036  10.936 -0.0098 -0.6139  0.4003
 7214SOL     OW33100   3.116   0.284  16.208  1.0648 -0.3542  0.0525
 7214SOL    HW133101   3.181   0.288  16.279  0.1402 -2.0153  0.9988
 7214SOL    HW233102   3.135   0.375  16.184 -0.0526 -0.5790 -1.6712
 7215SOL     OW33103   2.558   4.629   4.961  0.3802 -0.0766  0.0251
 7215SOL    HW133104   2.596   4.565   4.901 -1.6444 -1.5983  0.3372
 7215SOL    HW233105   2.594   4.712   4.929  1.2064 -1.0911 -1.6644
 7216SOL     OW33106   1.175   2.981   5.369  0.1203 -0.7011 -0.2212
 7216SOL    HW133107   1.230   2.927   5.312  2.5150  0.6901  0.8191
 7216SOL    HW233108   1.243   3.030   5.414 -2.5273  2.3862  0.4026
 7217SOL     OW33109   1.030   3.269  10.860  0.0969  0.0915  0.0296
 7217SOL    HW133110   1.001   3.193  10.810 -0.9428  0.2886  0.3339
 7217SOL    HW233111   0.962   3.326  10.824 -1.4045 -1.8395 -0.1789
 7218SOL     OW33112   3.919   2.594  12.686  0.2985  0.0081 -0.3359
 7218SOL    HW133113   3.911   2.597  12.591  1.7400 -1.9393 -0.5243
 7218SOL    HW233114   3.987   2.660  12.695 -1.5244  1.8045  0.2733
 7219SOL     OW33115   1.751   2.223   9.021  0.0604 -0.0554 -0.6234
 7219SOL    HW133116   1.767   2.135   9.055  0.4659  0.0972 -0.4140
 7219SOL    HW233117   1.828   2.222   8.964  1.1105 -2.5661  0.8488
 7220SOL     OW33118   4.016   0.976   0.669 -0.8784 -0.1416 -0.4420
 7220SOL    HW133119   3.998   1.009   0.758  2.7557 -0.1604  0.2690
 7220SOL    HW233120   3.944   1.024   0.628 -1.3440  1.5938  2.4002
 7221SOL     OW33121   1.458   4.379   3.084 -0.2350  0.1600  0.1444
 7221SOL    HW133122   1.519   4.345   3.149  0.0462  1.5516  0.6054
 7221SOL    HW233123   1.443   4.468   3.116 -1.3306  0.0359 -0.0209
 7222SOL     OW33124   0.544   0.368  10.785  0.3291 -0.0025  0.1077
 7222SOL    HW133125   0.556   0.295  10.846  0.7394 -1.5180 -1.7480
 7222SOL    HW233126   0.490   0.428  10.835 -0.2062 -1.5807  1.4322
 7223SOL     OW33127   2.831   0.894   8.573 -0.1912  0.1165 -0.6485
 7223SOL    HW133128   2.836   0.976   8.621  2.9454  0.1131 -0.9895
 7223SOL    HW233129   2.903   0.895   8.509  0.4302  1.4436  0.0869
 7224SOL     OW33130   1.917   1.400   8.805 -0.1718 -0.3587 -0.3591
 7224SOL    HW133131   1.939   1.493   8.803 -1.8656  0.0956  1.7190
 7224SOL    HW233132   1.977   1.373   8.874  1.4305  0.9221 -1.2535
 7225SOL     OW33133   2.028   0.133   4.082 -0.1624  0.5388 -0.6229
 7225SOL    HW133134   2.081   0.086   4.146 -2.8218 -0.3333  0.9209
 7225SOL    HW233135   2.081   0.114   4.004  0.4175  1.5436 -0.4708
 7226SOL     OW33136   1.837   1.976   5.208 -0.3136  0.3559 -0.3950
 7226SOL    HW133137   1.798   1.979   5.121 -0.9669 -1.6587 -0.1838
 7226SOL    HW233138   1.929   1.994   5.191 -0.4732 -0.0944 -1.6903
 7227SOL     OW33139   3.004   3.086   3.816 -0.0676  0.5135  0.1782
 7227SOL    HW133140   2.920   3.043   3.805  2.5405 -4.4471 -0.2040
 7227SOL    HW233141   3.051   3.008   3.847  0.7358  1.0682  0.3747
 7228SOL     OW33142   0.031   3.436   5.958 -0.4287 -0.3351 -0.0767
 7228SOL    HW133143   4.709   3.352   5.966  0.6880 -0.7694  1.5717
 7228SOL    HW233144   0.121   3.403   5.954  0.1833  1.1301  2.1324
 7229SOL     OW33145   1.829   0.218   1.962  0.7280 -0.8324  0.2506
 7229SOL    HW133146   1.872   0.216   1.876  0.5667  1.3051  0.1200
 7229SOL    HW233147   1.890   0.182   2.026  0.1027 -0.9911  0.7480
 7230SOL     OW33148   1.226   2.274  16.130  0.3711  0.5622 -0.4536
 7230SOL    HW133149   1.166   2.314  16.193  0.6200 -0.8565  0.6616
 7230SOL    HW233150   1.288   2.345  16.111  0.5305  0.6835  0.5602
 7231SOL     OW33151   1.721   3.759  16.209  0.6807  0.7322 -0.1998
 7231SOL    HW133152   1.658   3.712  16.264  0.9559 -0.4324 -0.8634
 7231SOL    HW233153   1.801   3.710  16.227 -1.2653 -2.0115  1.0407
 7232SOL     OW33154   4.576   2.246   0.725 -0.7418  0.8623  0.2617
 7232SOL    HW133155   4.554   2.171   0.781  1.3557  1.3944  1.7733
 7232SOL    HW233156   4.644   2.290   0.775  0.0542 -0.6526  0.5401
 7233SOL     OW33157   0.390   3.094   5.616  0.1558 -0.2746 -0.7301
 7233SOL    HW133158   0.450   3.099   5.541  0.8973 -0.5525 -0.1508
 7233SOL    HW233159   0.439   3.152   5.674 -2.2175  0.0567  0.9136
 7234SOL     OW33160   0.386   3.670  10.734 -0.0154 -0.2004  0.8892
 7234SOL    HW133161   0.332   3.605  10.778  1.1751 -3.1885 -2.0558
 7234SOL    HW233162   0.468   3.621  10.723 -0.2987 -0.4478 -0.1305
 7235SOL     OW33163   0.001   4.061   8.033 -0.0884 -0.8395  0.3423
 7235SOL    HW133164   0.054   3.983   8.024  0.7068 -0.2714  0.1055
 7235SOL    HW233165   4.657   4.031   8.093 -1.7843  1.5105 -0.3454
 7236SOL     OW33166   2.641   4.522  17.461  0.5739  0.0148 -0.6103
 7236SOL    HW133167   2.669   4.541  17.550 -0.4064  0.8492 -0.4872
 7236SOL    HW233168   2.572   4.588  17.452  0.1614 -0.5805 -1.8269
 7237SOL     OW33169   4.657   0.316  16.841  0.1377  0.3447 -0.3481
 7237SOL    HW133170   4.719   0.246  16.861 -0.3320  0.1177  0.3261
 7237SOL    HW233171   4.657   0.366  16.923  0.1129  0.4705 -0.4241
 7238SOL     OW33172   1.989   2.150   8.311 -0.0556 -0.3823  0.1771
 7238SOL    HW133173   2.021   2.066   8.345 -0.6233 -0.3012  0.8959
 7238SOL    HW233174   1.902   2.148   8.351  0.9194 -0.6112  2.2553
 7239SOL     OW33175   1.177   3.065  10.191 -0.7409 -0.3920 -0.2123
 7239SOL    HW133176   1.221   2.986  10.161  1.1397  0.4238  0.4095
 7239SOL    HW233177   1.242   3.099  10.252 -1.1258  0.3272 -0.1992
 7240SOL     OW33178   4.559   0.654   6.765  0.1561  0.5576 -0.1581
 7240SOL    HW133179   4.528   0.723   6.824 -3.2072  0.0933 -1.3745
 7240SOL    HW233180   4.653   0.662   6.782  0.1543 -1.3351  0.7070
 7241SOL     OW33181   3.057   1.462   6.440  0.1899 -0.2697  0.2918
 7241SOL    HW133182   2.984   1.400   6.435 -0.0502  0.1637 -1.9653
 7241SOL    HW233183   3.071   1.467   6.534 -0.0266 -0.8991  0.3553
 7242SOL     OW33184   3.501   1.234   5.965 -0.2910  0.0092 -0.2266
 7242SOL    HW133185   3.490   1.240   6.060  2.1815 -0.1075  0.0598
 7242SOL    HW233186   3.412   1.245   5.931 -0.9144 -2.1749  0.7135
 7243SOL     OW33187   3.778   0.001   4.259  0.2240  0.1520  0.2529
 7243SOL    HW133188   3.733   4.671   4.324  1.9995 -2.5886 -0.7448
 7243SOL    HW233189   3.758   0.088   4.291 -2.7019 -1.0119  1.5678
 7244SOL     OW33190   3.850   4.571   9.616  0.0248  0.1533  0.0761
 7244SOL    HW133191   3.793   4.609   9.683 -0.5126  0.7659 -0.7315
 7244SOL    HW233192   3.908   4.519   9.672  0.1810  0.9574  0.6635
 7245SOL     OW33193   3.725   2.111   4.033 -0.4325  0.5128  0.2087
 7245SOL    HW133194   3.750   2.096   4.124 -1.9973  1.9347  0.8904
 7245SOL    HW233195   3.795   2.064   3.989  0.2981 -0.5475  2.5205
 7246SOL     OW33196   2.299   3.311  14.180  0.1680 -1.0267 -0.3837
 7246SOL    HW133197   2.281   3.222  14.151  2.2283 -1.2308 -1.0291
 7246SOL    HW233198   2.207   3.337  14.191  0.7208  0.8359 -0.1726
 7247SOL     OW33199   4.372   0.803   3.479  0.4229 -0.1579  0.1045
 7247SOL    HW133200   4.323   0.749   3.541  1.0938  0.9891  1.6007
 7247SOL    HW233201   4.433   0.736   3.447 -1.6165 -2.2216  0.5550
 7248SOL     OW33202   2.969   1.042  11.994 -0.0248 -0.7237 -0.1068
 7248SOL    HW133203   2.906   0.974  11.970 -1.9892  0.2137  2.3862
 7248SOL    HW233204   2.969   1.098  11.916  0.1938  0.5561  0.8080
 7249SOL     OW33205   0.215   4.517  11.713 -0.5991 -0.2628  0.1674
 7249SOL    HW133206   0.196   4.553  11.799 -1.9530  0.1378 -0.2822
 7249SOL    HW233207   0.309   4.532  11.703 -0.9282  0.2218 -2.2744
 7250SOL     OW33208   0.861   3.197   4.973  0.0859  0.3737  0.0880
 7250SOL    HW133209   0.813   3.240   5.044 -0.1343  0.9782 -0.4271
 7250SOL    HW233210   0.930   3.154   5.024 -0.8563 -0.3912  0.7188
 7251SOL     OW33211   4.060   2.324   3.030  0.9520  0.4053  0.2530
 7251SOL    HW133212   3.994   2.309   2.963  0.0447 -0.0630  1.2597
 7251SOL    HW233213   3.997   2.322   3.102 -0.9903 -0.9413 -1.4887
 7252SOL     OW33214   2.746   0.552  16.174 -0.0892 -0.3503 -0.4500
 7252SOL    HW133215   2.704   0.504  16.103 -0.5149 -1.0296  0.2684
 7252SOL    HW233216   2.738   0.644  16.147  0.7080 -1.4678 -4.3737
 7253SOL     OW33217   1.552   0.447   2.646 -0.3356 -0.8166  0.0086
 7253SOL    HW133218   1.590   0.455   2.559 -0.4631  0.2841  0.0499
 7253SOL    HW233219   1.481   0.385   2.629  0.8969 -2.1250 -0.3746
 7254SOL     OW33220   0.367   1.185  14.483  0.2417  0.2433  0.5658
 7254SOL    HW133221   0.363   1.175  14.578 -0.5982  0.1438  0.5251
 7254SOL    HW233222   0.284   1.229  14.465  0.1929 -0.6430 -1.3463
 7255SOL     OW33223   3.238   3.884  15.157 -1.0059 -0.2624  0.2773
 7255SOL    HW133224   3.201   3.918  15.239  0.4757  1.1968  0.3488
 7255SOL    HW233225   3.159   3.879  15.103 -1.1592  0.5405  0.4215
 7256SOL     OW33226   4.194   2.240  10.746 -0.7198  0.2707 -0.0471
 7256SOL    HW133227   4.208   2.237  10.841  1.6029  2.4535 -0.3153
 7256SOL    HW233228   4.250   2.168  10.719  0.5247  1.2594 -0.0822
 7257SOL     OW33229   2.812   0.727   7.016  0.2807  0.1712 -0.4077
 7257SOL    HW133230   2.765   0.732   7.099 -0.8113  2.0639 -1.1378
 7257SOL    HW233231   2.821   0.632   7.012  2.3604  0.3733 -0.8025
 7258SOL     OW33232   1.528   2.446  17.612 -0.3481  0.0374  0.4453
 7258SOL    HW133233   1.538   2.352  17.594  1.2735  0.3149 -0.1475
 7258SOL    HW233234   1.456   2.439  17.675 -0.3959 -3.1377  0.0366
 7259SOL     OW33235   1.713   1.013   2.980  0.2770 -0.0694 -0.0616
 7259SOL    HW133236   1.726   1.003   2.885 -0.6652 -2.0622  0.0199
 7259SOL    HW233237   1.797   0.995   3.021  0.8795  2.1950 -0.3206
 7260SOL     OW33238   3.815   1.676   8.414  0.1282 -0.4174  0.4488
 7260SOL    HW133239   3.788   1.736   8.344 -1.8316  0.6568  2.1222
 7260SOL    HW233240   3.910   1.683   8.404  0.3381 -4.4464 -0.4802
 7261SOL     OW33241   0.007   3.551   2.652 -0.2210 -0.9620 -0.3096
 7261SOL    HW133242   4.682   3.557   2.569 -0.8141 -0.8979  0.0341
 7261SOL    HW233243   0.084   3.514   2.609  0.6848  0.7237 -0.1700
 7262SOL     OW33244   1.780   0.642  14.846 -0.4628  0.1156  0.4417
 7262SOL    HW133245   1.828   0.687  14.915  0.0288  1.4363 -0.7577
 7262SOL    HW233246   1.734   0.580  14.903  0.1841 -1.4930 -0.7763
 7263SOL     OW33247   0.146   1.072  12.575  0.4206 -0.2500 -0.3102
 7263SOL    HW133248   0.131   0.992  12.625 -1.2828  1.1827  1.4662
 7263SOL    HW233249   0.146   1.140  12.643  1.7463 -0.3383 -0.2165
 7264SOL     OW33250   1.253   4.689  12.193 -0.4520  0.3396 -0.1981
 7264SOL    HW133251   1.323   0.029  12.184 -0.0054 -0.2065 -0.5687
 7264SOL    HW233252   1.287   4.615  12.243 -2.3685 -0.2235  0.2801
 7265SOL     OW33253   2.422   4.716  17.410 -0.5622  0.5633  0.3183
 7265SOL    HW133254   2.388   0.033  17.490  0.6578  0.1627  1.0357
 7265SOL    HW233255   2.339   4.695  17.366  0.2260  2.1913 -1.9264
 7266SOL     OW33256   4.103   1.900   4.713 -0.6451 -0.3526 -0.0933
 7266SOL    HW133257   4.075   1.853   4.792  0.1660 -0.4876  0.1102
 7266SOL    HW233258   4.103   1.990   4.745 -1.8976 -0.2458 -0.3901
 7267SOL     OW33259   0.701   4.278  10.493 -0.0552  0.0505 -0.2173
 7267SOL    HW133260   0.740   4.267  10.580  0.7199  0.3748 -0.5233
 7267SOL    HW233261   0.782   4.270  10.442  1.1171 -0.4684  1.7339
 7268SOL     OW33262   2.041   4.487   3.072  0.0385  0.1331 -0.4880
 7268SOL    HW133263   1.983   4.559   3.049 -1.1729 -1.1561 -1.5106
 7268SOL    HW233264   1.988   4.457   3.146 -0.7429  0.8656 -0.7601
 7269SOL     OW33265   0.262   4.202   5.874 -0.4448  0.3716  0.3152
 7269SOL    HW133266   0.203   4.260   5.826  1.0919  0.4550 -1.4848
 7269SOL    HW233267   0.218   4.183   5.957  3.0590  0.0370  2.0625
 7270SOL     OW33268   0.657   1.569  12.216 -0.2018  0.3085  0.5425
 7270SOL    HW133269   0.695   1.529  12.138  1.2158  0.7337  1.0170
 7270SOL    HW233270   0.574   1.521  12.224 -0.6070  1.0866  0.9564
 7271SOL     OW33271   3.531   0.734   7.879  0.4800  0.2923 -0.0645
 7271SOL    HW133272   3.444   0.712   7.914  0.8058 -1.5009 -0.3916
 7271SOL    HW233273   3.587   0.667   7.918  0.6512  0.3883 -0.1480
 7272SOL     OW33274   0.559   2.469   4.368  0.0260  0.4506  0.4184
 7272SOL    HW133275   0.614   2.521   4.310  0.3291 -1.1868 -0.7790
 7272SOL    HW233276   0.597   2.482   4.456 -1.1878  1.8959  0.7129
 7273SOL     OW33277   4.706   3.136  14.588  0.3706 -0.7699 -0.1503
 7273SOL    HW133278   0.029   3.106  14.510 -1.9041 -0.4760 -1.6342
 7273SOL    HW233279   4.620   3.101  14.562 -0.1694  0.7399 -0.4106
 7274SOL     OW33280   1.432   0.360   7.971 -0.5810  0.3758  0.3766
 7274SOL    HW133281   1.427   0.407   8.055 -1.4569  0.4528  0.2846
 7274SOL    HW233282   1.518   0.317   7.975 -1.4066 -1.2197  1.3731
 7275SOL     OW33283   0.082   0.483  12.083  0.5206  0.1760 -0.0317
 7275SOL    HW133284   0.001   0.532  12.095  0.5533  0.0615  0.6156
 7275SOL    HW233285   0.100   0.442  12.167  3.7615 -0.3007 -0.9618
 7276SOL     OW33286   1.593   4.429   1.734 -0.2900 -0.5805  0.0319
 7276SOL    HW133287   1.597   4.433   1.639 -0.9413  2.5381  0.1201
 7276SOL    HW233288   1.519   4.487   1.752  0.2576 -0.2099  1.0967
 7277SOL     OW33289   1.206   2.533   3.550 -0.0880  0.2530 -0.0115
 7277SOL    HW133290   1.257   2.576   3.618  1.9263 -2.3395  0.1221
 7277SOL    HW233291   1.189   2.448   3.591  4.5486 -0.5971  0.2318
 7278SOL     OW33292   3.220   3.543  16.934  0.4052 -0.2495  0.1088
 7278SOL    HW133293   3.310   3.575  16.939  1.3159 -2.5910 -1.1245
 7278SOL    HW233294   3.198   3.558  16.842  0.6124  1.7339  0.3859
 7279SOL     OW33295   0.221   1.074   8.246 -0.0374 -0.1114 -0.3581
 7279SOL    HW133296   0.272   1.013   8.299  1.8261  1.4559 -0.3586
 7279SOL    HW233297   0.135   1.059   8.285  1.1715  1.7850  3.0346
 7280SOL     OW33298   0.006   4.383   3.675 -0.1973 -0.0036 -0.7908
 7280SOL    HW133299   4.633   4.391   3.674 -0.2023  0.1265  0.3060
 7280SOL    HW233300   0.040   4.427   3.597 -0.6096  1.7041 -0.0232
 7281SOL     OW33301   3.695   4.476   3.166 -0.1509 -0.2119 -0.9873
 7281SOL    HW133302   3.767   4.519   3.119 -0.2292 -0.1616 -1.0602
 7281SOL    HW233303   3.730   4.433   3.245  1.2922  1.1560 -0.8760
 7282SOL     OW33304   1.841   1.353   7.102  0.2900  0.4986  0.3073
 7282SOL    HW133305   1.781   1.341   7.175  0.0220 -1.4798 -0.2349
 7282SOL    HW233306   1.810   1.282   7.045  0.1349 -1.7562  3.1933
 7283SOL     OW33307   3.446   1.303  13.173 -0.6982  0.7405  0.5719
 7283SOL    HW133308   3.393   1.323  13.096 -0.2478 -2.0931 -0.4846
 7283SOL    HW233309   3.432   1.387  13.217  0.9808  0.9788  0.6295
 7284SOL     OW33310   0.774   0.199   2.609  0.3661  0.1399 -0.2089
 7284SOL    HW133311   0.731   0.250   2.678  1.9182 -0.5527  1.2741
 7284SOL    HW233312   0.755   0.108   2.634  1.2743 -0.1665 -0.6239
 7285SOL     OW33313   2.715   4.128  10.758 -0.0487  0.0014 -0.2079
 7285SOL    HW133314   2.747   4.091  10.676 -1.4098  3.3155 -2.2737
 7285SOL    HW233315   2.732   4.220  10.736  0.9357  0.6078  3.1096
 7286SOL     OW33316   2.791   3.483  11.028 -0.3368  0.3921  0.1818
 7286SOL    HW133317   2.697   3.483  11.046 -0.2066 -1.2545  0.8755
 7286SOL    HW233318   2.810   3.569  10.990 -0.7831 -0.2891 -1.6035
 7287SOL     OW33319   2.500   4.210   6.762 -0.2496 -0.2547 -0.1610
 7287SOL    HW133320   2.543   4.147   6.705 -1.3709 -0.2654 -0.9808
 7287SOL    HW233321   2.464   4.159   6.835 -0.2589 -0.8544 -0.5832
 7288SOL     OW33322   2.645   3.391   5.170 -0.4334 -0.1565  0.4461
 7288SOL    HW133323   2.710   3.388   5.100 -0.0021 -2.2038  0.9143
 7288SOL    HW233324   2.564   3.392   5.119 -1.6745  1.5181  2.4418
 7289SOL     OW33325   4.447   3.301   4.803  0.0985  0.7504  0.0564
 7289SOL    HW133326   4.413   3.310   4.714  1.0063 -0.7320 -0.4316
 7289SOL    HW233327   4.390   3.230   4.833  0.7945  0.6140  1.0560
 7290SOL     OW33328   4.305   1.202   8.188 -0.1747 -0.1031  0.2493
 7290SOL    HW133329   4.327   1.281   8.139 -1.4958 -0.7573 -1.4189
 7290SOL    HW233330   4.359   1.227   8.263 -0.6236 -2.7218  1.4573
 7291SOL     OW33331   4.128   3.529  11.723 -0.3529 -0.6480 -1.0405
 7291SOL    HW133332   4.127   3.531  11.627  2.3829 -0.7972 -1.0709
 7291SOL    HW233333   4.211   3.485  11.739  1.1807  1.6934 -2.5913
 7292SOL     OW33334   2.133   0.664   2.804 -0.7885 -0.0447 -0.1028
 7292SOL    HW133335   2.179   0.748   2.809 -0.4438 -0.3388  1.6011
 7292SOL    HW233336   2.066   0.688   2.740  0.9133  1.9070 -1.1613
 7293SOL     OW33337   2.348   0.251  14.425  0.1622  0.0192 -0.2441
 7293SOL    HW133338   2.290   0.315  14.385  1.6350 -0.2310 -2.8038
 7293SOL    HW233339   2.391   0.220  14.345  0.4650 -0.6871  0.1912
 7294SOL     OW33340   1.000   1.609   4.680  0.0052 -0.2318 -0.0362
 7294SOL    HW133341   1.075   1.598   4.622  0.5298 -1.6049  0.9025
 7294SOL    HW233342   0.997   1.522   4.721  1.5291 -0.6968 -0.9127
 7295SOL     OW33343   1.477   4.349  11.237  0.1850  0.4067 -0.0652
 7295SOL    HW133344   1.397   4.301  11.261 -0.0082  0.6033 -0.3161
 7295SOL    HW233345   1.478   4.436  11.278 -2.2465  1.2828 -1.8771
 7296SOL     OW33346   3.288   2.928   0.125 -0.1509 -0.3913  0.3932
 7296SOL    HW133347   3.346   2.952   0.196  0.5020 -1.7992  0.3401
 7296SOL    HW233348   3.290   2.832   0.124  0.2185 -0.3902  1.6334
 7297SOL     OW33349   0.338   3.976   8.233  0.1859  0.3366 -0.2302
 7297SOL    HW133350   0.275   3.951   8.301  1.6079  0.9035  1.2869
 7297SOL    HW233351   0.295   3.927   8.163 -0.2481 -1.9980  1.6753
 7298SOL     OW33352   1.048   0.285   1.719 -0.0416 -0.1217 -0.1706
 7298SOL    HW133353   1.102   0.295   1.797 -1.4847  0.1757  0.7893
 7298SOL    HW233354   1.059   0.373   1.682  0.7302  0.5283  1.6317
 7299SOL     OW33355   3.164   3.223   3.626 -0.5521  0.2584  0.5163
 7299SOL    HW133356   3.191   3.170   3.551 -1.0006  0.8721 -0.0787
 7299SOL    HW233357   3.102   3.165   3.670 -0.9580 -0.7178 -1.3297
 7300SOL     OW33358   2.247   1.360   5.654 -0.0558  0.3806  0.5725
 7300SOL    HW133359   2.234   1.454   5.666  1.7067  0.5237  1.3215
 7300SOL    HW233360   2.304   1.336   5.727  1.0470  1.2673  0.0023
 7301SOL     OW33361   2.658   4.068   3.088 -0.0592 -0.1946 -0.6506
 7301SOL    HW133362   2.604   4.045   3.163  1.7663  0.8723  1.0045
 7301SOL    HW233363   2.660   4.163   3.096  0.1454 -0.0279 -2.5988
 7302SOL     OW33364   2.299   1.374   8.812  0.0311  0.1736 -0.5605
 7302SOL    HW133365   2.298   1.279   8.806 -0.8361  0.2186 -1.0715
 7302SOL    HW233366   2.208   1.386   8.839  0.2292 -0.9782  0.6214
 7303SOL     OW33367   0.496   0.208  17.467 -0.5556  0.1143 -0.4439
 7303SOL    HW133368   0.409   0.227  17.502 -0.1611 -1.3308  1.2798
 7303SOL    HW233369   0.504   0.292  17.422 -0.1738  0.1252 -0.3596
 7304SOL     OW33370   3.530   2.804   9.301 -0.1448  0.5258  0.4224
 7304SOL    HW133371   3.555   2.862   9.230  2.6838 -0.5938  0.5027
 7304SOL    HW233372   3.619   2.787   9.331 -0.0728  0.1118 -0.0327
 7305SOL     OW33373   2.642   2.078  14.370  0.3769  0.6159  0.1085
 7305SOL    HW133374   2.611   2.102  14.457  1.8450 -1.7940  1.3112
 7305SOL    HW233375   2.693   1.998  14.386  0.8281  0.7811 -0.5148
 7306SOL     OW33376   0.128   2.560   5.363 -0.4239 -0.2150 -0.1926
 7306SOL    HW133377   0.122   2.502   5.287 -1.4326 -1.6824  0.9994
 7306SOL    HW233378   0.072   2.628   5.327 -0.7773  0.3375  1.3877
 7307SOL     OW33379   1.686   4.016   7.494  0.4885 -0.3087  0.5801
 7307SOL    HW133380   1.603   3.978   7.464 -1.0163  1.1159  2.9969
 7307SOL    HW233381   1.738   3.958   7.438  0.1502  0.3756 -0.4460
 7308SOL     OW33382   4.672   3.655   5.803  0.0146 -0.2564  0.2919
 7308SOL    HW133383   4.706   3.576   5.845  0.4417 -0.4144 -0.3513
 7308SOL    HW233384   4.579   3.634   5.801 -0.2968  1.1085  0.1661
 7309SOL     OW33385   1.506   0.931  12.998  0.2809  0.3052  0.6911
 7309SOL    HW133386   1.513   0.837  13.016 -2.3321 -0.1326 -0.5899
 7309SOL    HW233387   1.445   0.934  12.924 -0.7058  0.4463  1.5161
 7310SOL     OW33388   4.159   3.278  11.274 -0.3962 -0.4197  0.5030
 7310SOL    HW133389   4.187   3.236  11.193  1.3159  0.9077  0.4213
 7310SOL    HW233390   4.248   3.300  11.302 -0.3875  1.6513 -1.1823
 7311SOL     OW33391   2.698   3.213   2.997 -0.2443 -0.2080  0.4735
 7311SOL    HW133392   2.653   3.292   3.028  0.5255  0.4215 -0.0097
 7311SOL    HW233393   2.780   3.244   2.960 -0.4939  1.7328  1.4924
 7312SOL     OW33394   4.483   3.651  10.002 -0.0237  0.0849 -0.3736
 7312SOL    HW133395   4.538   3.710  10.055  0.3854 -2.2251  1.7591
 7312SOL    HW233396   4.405   3.706  10.002  0.2772  0.5344  1.7946
 7313SOL     OW33397   3.616   2.884  16.743  0.5793 -0.3311 -0.7431
 7313SOL    HW133398   3.526   2.859  16.719  0.2734 -0.0539  0.1131
 7313SOL    HW233399   3.671   2.835  16.682  0.8908 -0.4919 -0.3334
 7314SOL     OW33400   3.871   0.334  13.882  0.1698 -0.0016 -0.1521
 7314SOL    HW133401   3.918   0.253  13.900 -1.9511 -1.6293 -1.9619
 7314SOL    HW233402   3.825   0.305  13.804  1.8163  0.9691 -1.4745
 7315SOL     OW33403   0.981   2.709   3.506 -0.6019 -0.6214 -0.2999
 7315SOL    HW133404   1.053   2.654   3.536 -0.0280  0.6493  0.6309
 7315SOL    HW233405   0.915   2.646   3.476 -1.3956 -0.0912  0.3498
 7316SOL     OW33406   3.521   2.863   1.565  0.1643 -0.0088 -0.3309
 7316SOL    HW133407   3.446   2.923   1.561  0.5825  0.4076 -1.8315
 7316SOL    HW233408   3.534   2.833   1.475 -0.2507  2.5363 -1.2189
 7317SOL     OW33409   1.524   3.056   0.027 -0.3685  0.1830 -0.2669
 7317SOL    HW133410   1.542   3.010  17.639 -1.0831 -1.2453  0.3809
 7317SOL    HW233411   1.428   3.060   0.026 -0.4081 -0.4734  0.9766
 7318SOL     OW33412   0.203   1.488   4.895 -0.2481 -0.5140  0.1617
 7318SOL    HW133413   0.169   1.538   4.821  0.6278  0.9625  0.7713
 7318SOL    HW233414   0.297   1.492   4.875 -0.0491 -0.5303  1.0877
 7319SOL     OW33415   1.360   4.324  16.116 -1.1217 -0.3580  0.1232
 7319SOL    HW133416   1.305   4.281  16.050 -0.5458 -1.1468  0.1561
 7319SOL    HW233417   1.426   4.360  16.057  1.1139  1.3924  3.7013
 7320SOL     OW33418   2.216   1.810   6.102 -0.2933  0.3017 -0.0379
 7320SOL    HW133419   2.291   1.810   6.161 -0.2667 -0.4498 -0.0620
 7320SOL    HW233420   2.138   1.818   6.157  0.1357  0.1366  0.5925
 7321SOL     OW33421   2.350   0.791   5.036 -0.1034 -0.6736 -0.0736
 7321SOL    HW133422   2.272   0.775   4.982 -1.4078 -2.3996  2.2761
 7321SOL    HW233423   2.377   0.882   5.030 -0.6074 -0.7482 -3.3107
 7322SOL     OW33424   1.768   2.757   7.860  0.5217  0.1339 -0.2891
 7322SOL    HW133425   1.830   2.780   7.930  2.6391 -3.2567 -1.0806
 7322SOL    HW233426   1.817   2.719   7.788 -0.8039 -1.0887 -0.5493
 7323SOL     OW33427   1.827   0.016   3.351 -0.0774 -0.3757 -0.4838
 7323SOL    HW133428   1.922   0.012   3.357 -0.0570  2.0008  1.0137
 7323SOL    HW233429   1.810   4.715   3.260  0.3255  2.2250 -1.2645
 7324SOL     OW33430   1.840   3.810   5.346  0.4145 -0.1363 -0.1462
 7324SOL    HW133431   1.747   3.803   5.324  0.6252  0.1496 -1.0999
 7324SOL    HW233432   1.839   3.854   5.431 -1.7026 -0.9081  0.2549
 7325SOL     OW33433   1.143   0.813   5.468  0.2930  0.1653  0.0574
 7325SOL    HW133434   1.228   0.857   5.457  0.5406 -0.1356  0.8165
 7325SOL    HW233435   1.130   0.814   5.563  3.0122 -2.5172  0.4666
 7326SOL     OW33436   1.834   1.617   3.773 -0.3026 -0.5770  0.3711
 7326SOL    HW133437   1.783   1.550   3.819 -1.3158 -0.1099 -0.0695
 7326SOL    HW233438   1.812   1.695   3.823 -0.7718 -1.2168  1.1776
 7327SOL     OW33439   1.269   0.764  16.754 -0.5344 -0.0522  0.0022
 7327SOL    HW133440   1.249   0.749  16.661  0.6384 -0.6032 -0.1644
 7327SOL    HW233441   1.182   0.795  16.778 -2.5194 -3.6670 -2.4700
 7328SOL     OW33442   1.085   0.141  10.386 -0.7575 -0.2296 -0.0383
 7328SOL    HW133443   1.129   0.225  10.400 -0.3728 -0.1462 -1.7829
 7328SOL    HW233444   1.157   0.092  10.345  0.3122 -1.6709  3.5718
 7329SOL     OW33445   4.445   1.483   6.972  0.1867  0.1789 -0.0563
 7329SOL    HW133446   4.374   1.538   6.940 -0.7665 -1.0672 -0.1017
 7329SOL    HW233447   4.417   1.481   7.064 -1.5859 -1.4909 -0.6382
 7330SOL     OW33448   1.271   0.964   6.951  0.2338  0.4973  0.9448
 7330SOL    HW133449   1.356   0.937   6.915  0.0889  0.7216  0.4389
 7330SOL    HW233450   1.254   0.886   7.004  0.6090  1.3572  2.3076
 7331SOL     OW33451   3.656   0.310   5.881 -0.4125 -0.1824 -0.4257
 7331SOL    HW133452   3.602   0.326   5.804 -2.3079 -1.7757  0.5959
 7331SOL    HW233453   3.624   0.377   5.941  1.7357  1.4498 -1.1197
 7332SOL     OW33454   1.681   2.395  13.825 -0.2029 -0.1497 -0.2694
 7332SOL    HW133455   1.595   2.429  13.851 -0.3545 -0.2430 -0.6469
 7332SOL    HW233456   1.700   2.344  13.904  0.5447 -1.2451 -1.1538
 7333SOL     OW33457   4.465   1.309   0.483  0.0072 -0.6752 -0.8234
 7333SOL    HW133458   4.405   1.323   0.557 -1.0124 -0.7833 -1.6328
 7333SOL    HW233459   4.539   1.284   0.539  0.2704  2.2169  0.1080
 7334SOL     OW33460   2.828   0.879   5.079  0.5298 -0.6966 -0.1954
 7334SOL    HW133461   2.856   0.804   5.027 -1.1558 -1.2363 -0.3178
 7334SOL    HW233462   2.807   0.842   5.165  1.1369  0.2161  0.3432
 7335SOL     OW33463   2.148   0.002  13.981  0.4145 -0.0194 -0.3433
 7335SOL    HW133464   2.125   4.698  14.070  1.3324  0.7742  0.1389
 7335SOL    HW233465   2.179   4.644  13.942 -1.6490 -1.3812  0.8604
 7336SOL     OW33466   1.632   2.430   6.696  0.4434  0.5423  0.0571
 7336SOL    HW133467   1.581   2.498   6.741 -0.4366  0.7616 -1.2717
 7336SOL    HW233468   1.559   2.372   6.673  1.8128 -0.7463 -1.0283
 7337SOL     OW33469   2.719   0.827   2.036 -0.3525  0.4251 -0.2403
 7337SOL    HW133470   2.657   0.818   1.964 -0.0263  1.8922 -0.7089
 7337SOL    HW233471   2.656   0.856   2.103  1.3138 -0.2021  1.5946
 7338SOL     OW33472   3.678   3.227   9.414 -0.1308  0.2573 -0.4753
 7338SOL    HW133473   3.651   3.279   9.338  0.6410  1.7121  0.2421
 7338SOL    HW233474   3.769   3.203   9.394 -0.9732 -3.1978 -0.2442
 7339SOL     OW33475   0.258   2.207  15.613  0.9736  0.5878  0.3428
 7339SOL    HW133476   0.205   2.131  15.590  0.6702  1.0271 -0.3977
 7339SOL    HW233477   0.201   2.266  15.662  0.8918 -0.1510  1.1438
 7340SOL     OW33478   0.812   0.171   1.721  0.1162  0.5936  0.3308
 7340SOL    HW133479   0.898   0.211   1.737  0.0861  1.3080 -1.3124
 7340SOL    HW233480   0.760   0.251   1.717 -0.6878 -0.0407 -1.9386
 7341SOL     OW33481   3.586   2.678   7.179  0.1500  0.1609  0.3959
 7341SOL    HW133482   3.563   2.765   7.212  0.6147  0.1839  0.6673
 7341SOL    HW233483   3.494   2.654   7.172  0.1332  0.4794 -0.5707
 7342SOL     OW33484   2.079   0.934   8.765  0.1579  0.0678 -0.0944
 7342SOL    HW133485   2.157   0.889   8.796 -0.3877 -1.0408 -0.3539
 7342SOL    HW233486   2.046   0.951   8.853  1.0782  3.1186 -0.3357
 7343SOL     OW33487   3.102   3.898  16.035  0.3311  0.9722 -0.3538
 7343SOL    HW133488   3.140   3.910  16.122 -0.8035  3.6882 -0.2413
 7343SOL    HW233489   3.088   3.803  16.038  1.8687  0.7709  0.0915
 7344SOL     OW33490   2.736   2.528   8.450  0.3626  0.3507 -0.2591
 7344SOL    HW133491   2.751   2.557   8.540 -0.4645 -2.1899  0.6903
 7344SOL    HW233492   2.663   2.467   8.448  0.4921  0.1895 -0.1014
 7345SOL     OW33493   2.027   2.413   8.340 -0.0850  0.1338  0.0758
 7345SOL    HW133494   2.030   2.319   8.326 -0.3947 -0.0955  1.5771
 7345SOL    HW233495   1.933   2.427   8.351  0.0847  2.1180 -1.0318
 7346SOL     OW33496   4.150   1.835   6.645 -0.0326 -0.3016 -0.1712
 7346SOL    HW133497   4.078   1.848   6.707  0.4569  2.5871 -0.2023
 7346SOL    HW233498   4.120   1.893   6.574  1.8326  1.8303  0.7729
 7347SOL     OW33499   2.657   3.147   3.733 -0.6668  0.0377 -0.0633
 7347SOL    HW133500   2.711   3.082   3.779 -1.5234 -0.5701  0.0688
 7347SOL    HW233501   2.671   3.117   3.643  2.2387  0.7565  0.1344
 7348SOL     OW33502   3.002   0.367   7.757 -0.2751  0.2999 -0.0486
 7348SOL    HW133503   2.996   0.278   7.793  1.3536  1.5623  3.2980
 7348SOL    HW233504   3.095   0.388   7.763  0.1510 -1.1067 -1.8682
 7349SOL     OW33505   4.390   0.503  17.182 -0.1089 -0.1376 -0.4439
 7349SOL    HW133506   4.480   0.482  17.158 -0.3299 -1.1826 -0.3580
 7349SOL    HW233507   4.347   0.418  17.182  1.8865 -1.1398 -1.8707
 7350SOL     OW33508   0.119   3.865   1.788  0.4248 -0.1869  0.4039
 7350SOL    HW133509   0.037   3.915   1.788 -0.6295 -1.9313  1.1348
 7350SOL    HW233510   0.107   3.798   1.721 -1.4317 -1.1726  1.7493
 7351SOL     OW33511   3.566   2.321   2.055  0.0382 -0.4929 -0.5517
 7351SOL    HW133512   3.640   2.262   2.070  1.3054  0.9950 -1.0211
 7351SOL    HW233513   3.503   2.248   2.058 -0.8842  0.3104 -0.5457
 7352SOL     OW33514   1.715   2.829  10.918 -0.0762  0.5799  0.9190
 7352SOL    HW133515   1.670   2.892  10.862 -1.3167 -1.2811 -0.1882
 7352SOL    HW233516   1.645   2.771  10.946 -1.8584  2.1903 -0.2003
 7353SOL     OW33517   2.001   1.048   2.558 -0.1505  0.4652 -0.4760
 7353SOL    HW133518   2.051   1.117   2.603 -0.2042  1.1500 -1.4771
 7353SOL    HW233519   2.018   1.053   2.464 -0.5102 -2.5794 -0.7165
 7354SOL     OW33520   2.641   3.295   1.394 -0.2238  0.4917  0.0057
 7354SOL    HW133521   2.730   3.261   1.385 -0.4760  0.5769 -2.5438
 7354SOL    HW233522   2.615   3.281   1.486 -1.6319 -1.0753 -0.6317
 7355SOL     OW33523   3.658   3.847   4.353 -0.4158  0.5607 -0.2201
 7355SOL    HW133524   3.712   3.903   4.298 -2.0486  0.7451 -1.6158
 7355SOL    HW233525   3.626   3.917   4.409  0.4747 -0.7895  2.0189
 7356SOL     OW33526   4.589   1.814   9.704 -0.5782  0.1363 -0.0243
 7356SOL    HW133527   4.684   1.800   9.711 -0.4241  1.6267  0.8773
 7356SOL    HW233528   4.573   1.770   9.620  0.4722  3.3188 -1.9345
 7357SOL     OW33529   2.095   2.613   6.504  0.0208 -0.1590 -0.5461
 7357SOL    HW133530   2.018   2.597   6.559  1.4088  1.4225  1.8432
 7357SOL    HW233531   2.137   2.528   6.499 -1.0105 -0.6651 -0.7169
 7358SOL     OW33532   0.818   1.595  15.573  0.3311  0.6058 -0.4216
 7358SOL    HW133533   0.797   1.524  15.513 -1.3518  0.4314  0.3689
 7358SOL    HW233534   0.874   1.647  15.515  0.9924  1.0331  0.6005
 7359SOL     OW33535   0.096   4.693   8.835 -0.3163 -0.1719 -0.0594
 7359SOL    HW133536   0.177   4.713   8.787  0.2956 -1.7297  0.3281
 7359SOL    HW233537   0.044   0.037   8.791  0.1810  0.7891  0.8103
 7360SOL     OW33538   0.168   0.996   7.480  0.2493 -0.4248 -0.2735
 7360SOL    HW133539   0.158   1.043   7.562 -1.2524  1.0620 -1.3345
 7360SOL    HW233540   0.080   1.001   7.443 -0.1707 -1.5969  0.5598
 7361SOL     OW33541   1.532   1.261  15.017  0.4548 -1.0153 -0.4140
 7361SOL    HW133542   1.515   1.348  14.980  1.3712  0.6357  3.0494
 7361SOL    HW233543   1.451   1.265  15.067  0.9441 -1.8804  0.4547
 7362SOL     OW33544   4.095   2.566   3.422  0.2213  0.0350  0.3751
 7362SOL    HW133545   4.176   2.533   3.382  2.8583  0.5784  5.2281
 7362SOL    HW233546   4.115   2.589   3.513  2.4762 -0.9743  0.1205
 7363SOL     OW33547   3.999   3.254   2.135  0.6238  0.1709 -0.1945
 7363SOL    HW133548   4.023   3.189   2.201  2.8720  1.5278  0.3261
 7363SOL    HW233549   4.048   3.214   2.063 -3.7438 -1.7768 -2.1328
 7364SOL     OW33550   2.754   0.593   7.756 -0.0652  0.4978  0.4473
 7364SOL    HW133551   2.713   0.538   7.689  0.3011  0.5111  0.2084
 7364SOL    HW233552   2.811   0.522   7.786 -1.4656 -1.5096 -1.6436
 7365SOL     OW33553   4.152   2.884   3.770  0.4475 -0.2598 -0.0706
 7365SOL    HW133554   4.172   2.791   3.761 -3.0156 -1.1134  1.1894
 7365SOL    HW233555   4.240   2.917   3.790 -0.3253  0.8883  1.3976
 7366SOL     OW33556   2.282   1.801   8.262  0.4038 -0.2720 -0.0354
 7366SOL    HW133557   2.322   1.717   8.287 -0.3172  0.5563  3.8447
 7366SOL    HW233558   2.242   1.829   8.344  0.4106 -1.8121  0.5017
 7367SOL     OW33559   0.318   1.607  12.848 -0.5896 -0.2955 -0.0844
 7367SOL    HW133560   0.308   1.650  12.762  0.3780  1.5972  0.7385
 7367SOL    HW233561   0.413   1.595  12.849 -0.9164 -3.0643 -6.0761
 7368SOL     OW33562   4.721   1.179   4.972 -0.2328  0.3862  0.0373
 7368SOL    HW133563   4.696   1.266   4.941  3.4516  0.8984 -1.5196
 7368SOL    HW233564   0.048   1.197   5.052 -0.3641  4.0589 -0.7071
 7369SOL     OW33565   3.741   1.718   1.948 -0.3551  0.3658 -0.5952
 7369SOL    HW133566   3.790   1.767   2.014 -2.6994 -1.4590  2.4949
 7369SOL    HW233567   3.652   1.752   1.947 -0.0192  1.2978  0.5867
 7370SOL     OW33568   0.866   1.736   1.389  0.2840  0.0389 -0.1190
 7370SOL    HW133569   0.914   1.801   1.440 -0.6093  1.3587 -0.9714
 7370SOL    HW233570   0.777   1.750   1.422 -0.0405 -0.7832 -0.6399
 7371SOL     OW33571   3.290   3.619   1.024  0.0557 -0.0890 -0.6664
 7371SOL    HW133572   3.214   3.636   1.079  1.0698  1.2411  0.3506
 7371SOL    HW233573   3.279   3.524   1.026  0.5975 -0.1310  0.4733
 7372SOL     OW33574   3.445   4.184  16.609  0.4046 -0.1519 -0.0457
 7372SOL    HW133575   3.354   4.171  16.635  0.1152  1.1457 -0.4341
 7372SOL    HW233576   3.466   4.277  16.605  3.1102 -0.7967 -0.7717
 7373SOL     OW33577   3.676   2.817   4.794  0.7242  0.6944 -0.1074
 7373SOL    HW133578   3.621   2.739   4.781 -3.2487  3.7849 -1.9094
 7373SOL    HW233579   3.676   2.815   4.890 -0.4486 -0.5608 -0.1308
 7374SOL     OW33580   0.030   1.120  17.614  0.4857 -0.0639  0.2058
 7374SOL    HW133581   0.072   1.081  17.691 -1.0994  0.2090  1.1979
 7374SOL    HW233582   4.664   1.085  17.618  0.6439 -0.7045 -1.7275
 7375SOL     OW33583   0.074   3.610   6.174 -0.5801 -0.7072 -0.2615
 7375SOL    HW133584   0.145   3.667   6.148 -0.6941 -0.7787 -0.7271
 7375SOL    HW233585   0.068   3.546   6.102  1.2780 -0.0067 -1.0362
 7376SOL     OW33586   0.993   3.451   6.514  0.2265  0.1353 -0.0382
 7376SOL    HW133587   1.074   3.434   6.467  0.0085  0.4648 -0.5391
 7376SOL    HW233588   0.968   3.533   6.471 -1.2451 -1.1172 -1.5451
 7377SOL     OW33589   0.912   2.808   9.335 -0.6981 -0.2317 -0.1602
 7377SOL    HW133590   0.939   2.746   9.267 -3.0050 -0.7040 -0.6418
 7377SOL    HW233591   0.937   2.762   9.415 -2.1087  0.9054  0.9252
 7378SOL     OW33592   2.128   3.683   3.712 -0.1193  0.5508  0.0361
 7378SOL    HW133593   2.206   3.701   3.659 -1.2673  0.1873 -1.7794
 7378SOL    HW233594   2.128   3.758   3.772  0.5319 -1.4339  2.4984
 7379SOL     OW33595   0.159   2.616   9.470  0.1624  0.7057  0.1922
 7379SOL    HW133596   0.171   2.629   9.376  2.0644  1.3969  0.5166
 7379SOL    HW233597   0.115   2.698   9.494 -2.3714 -0.6172  0.0836
 7380SOL     OW33598   3.917   3.339   9.080 -0.8105  1.1678 -0.1965
 7380SOL    HW133599   3.866   3.283   9.139 -4.3948  1.4879 -3.0113
 7380SOL    HW233600   3.942   3.283   9.007 -0.5709  1.4272 -0.3181
 7381SOL     OW33601   4.123   3.989   2.652  0.0636 -0.3419 -0.3713
 7381SOL    HW133602   4.084   4.047   2.586  0.1216  0.8487  0.6508
 7381SOL    HW233603   4.048   3.949   2.694  0.6233 -1.2850 -0.2694
 7382SOL     OW33604   1.572   3.413   4.978 -0.1186  0.8175  0.1887
 7382SOL    HW133605   1.600   3.418   5.070  2.3482 -3.2186 -0.3538
 7382SOL    HW233606   1.491   3.463   4.987 -0.1784  0.3977  2.1536
 7383SOL     OW33607   3.205   4.449  16.369 -0.2006  0.6353  0.5254
 7383SOL    HW133608   3.293   4.415  16.353 -0.4464  1.2653 -2.2998
 7383SOL    HW233609   3.180   4.392  16.441  1.0425  0.9385  1.1847
 7384SOL     OW33610   0.698   1.450  14.509 -0.7008  0.0374  0.0534
 7384SOL    HW133611   0.606   1.477  14.507 -0.9851 -0.9559 -0.3536
 7384SOL    HW233612   0.676   1.357  14.503  0.4569 -0.1994 -0.3392
 7385SOL     OW33613   4.261   1.135   4.523 -0.0272 -0.1693  0.1432
 7385SOL    HW133614   4.218   1.080   4.589 -2.5567  1.4064 -0.2204
 7385SOL    HW233615   4.201   1.209   4.519 -0.8488 -0.7892  0.9346
 7386SOL     OW33616   3.856   3.511   9.334 -0.3884 -0.2276 -0.2528
 7386SOL    HW133617   3.815   3.557   9.261 -1.5894  1.0012  1.2057
 7386SOL    HW233618   3.930   3.464   9.294 -0.0422 -0.0940  0.2373
 7387SOL     OW33619   2.198   3.353  11.422 -0.1417  0.1706  0.4425
 7387SOL    HW133620   2.255   3.426  11.445  1.3670 -0.4778 -1.2010
 7387SOL    HW233621   2.260   3.285  11.448  0.8398  1.0660  0.4436
 7388SOL     OW33622   0.397   1.335  11.953 -0.0013 -0.2490 -0.4923
 7388SOL    HW133623   0.475   1.289  11.983 -0.0413 -0.0904 -0.1381
 7388SOL    HW233624   0.339   1.289  12.015 -0.7526  1.7112  0.2839
 7389SOL     OW33625   3.061   2.605   8.087  0.2982  0.1689  0.3323
 7389SOL    HW133626   3.100   2.646   8.165 -0.3909  2.2346 -0.4056
 7389SOL    HW233627   3.068   2.675   8.022 -0.1428 -0.8631 -0.8249
 7390SOL     OW33628   1.144   4.716   5.287  0.0891 -0.2024  0.1713
 7390SOL    HW133629   1.222   4.669   5.257  0.5714  0.8859 -0.2826
 7390SOL    HW233630   1.077   4.701   5.220 -0.3904 -1.2704  0.8886
 7391SOL     OW33631   3.160   3.313   3.899 -0.3275  0.0599 -0.1489
 7391SOL    HW133632   3.163   3.218   3.904  0.2395  0.1402  1.1479
 7391SOL    HW233633   3.171   3.330   3.805 -1.2790 -0.9836 -0.4486
 7392SOL     OW33634   0.319   2.562   7.880  0.6579 -0.7321 -0.2584
 7392SOL    HW133635   0.244   2.617   7.903  1.2132  0.6674 -1.8799
 7392SOL    HW233636   0.279   2.492   7.829  0.0215  0.2701 -1.1378
 7393SOL     OW33637   1.370   2.228   0.191  0.9217 -0.1601  0.3234
 7393SOL    HW133638   1.394   2.145   0.149  0.7637 -0.6564  1.1994
 7393SOL    HW233639   1.349   2.288   0.121 -0.0203  0.4596  1.1404
 7394SOL     OW33640   1.644   2.922   8.375 -0.2179 -0.0914  0.0925
 7394SOL    HW133641   1.735   2.932   8.400  0.1509  1.6740 -1.8341
 7394SOL    HW233642   1.646   3.013   8.344  0.0503 -0.4663 -1.0093
 7395SOL     OW33643   1.310   3.349   3.784  0.3779  0.5576 -0.2281
 7395SOL    HW133644   1.315   3.308   3.698 -0.2365 -1.5463  0.7443
 7395SOL    HW233645   1.222   3.332   3.816  0.5186  0.3214  0.0301
 7396SOL     OW33646   0.490   4.714   1.247 -0.7420 -0.2338  0.2332
 7396SOL    HW133647   0.453   0.071   1.284  0.3082  0.8344 -1.0490
 7396SOL    HW233648   0.421   4.650   1.263 -1.3604  0.2502 -0.4565
 7397SOL     OW33649   3.875   2.445   5.539 -0.5778 -0.2815 -0.1370
 7397SOL    HW133650   3.932   2.483   5.472 -1.6830 -1.1353 -1.5676
 7397SOL    HW233651   3.907   2.359   5.564 -1.7914 -0.0365  2.2469
 7398SOL     OW33652   4.147   1.698   2.484 -0.2221 -0.1999  0.3920
 7398SOL    HW133653   4.070   1.687   2.428  2.0830  1.4124 -3.0531
 7398SOL    HW233654   4.194   1.625   2.446  2.6538  2.8835 -1.9724
 7399SOL     OW33655   1.656   0.080   3.538 -0.0825 -0.0784 -0.2513
 7399SOL    HW133656   1.686   0.010   3.596  0.7377  0.9178  0.5389
 7399SOL    HW233657   1.722   0.070   3.469 -1.7074  1.9640 -2.0801
 7400SOL     OW33658   0.247   0.888   7.858  0.9615  0.0883  0.0648
 7400SOL    HW133659   0.227   0.949   7.930 -0.2135 -0.8882  0.5678
 7400SOL    HW233660   0.224   0.949   7.788 -1.5791 -0.2173  0.6334
 7401SOL     OW33661   2.258   4.441  11.474 -0.2777 -0.0540  0.2473
 7401SOL    HW133662   2.267   4.450  11.569 -1.7837  0.5178  0.3393
 7401SOL    HW233663   2.337   4.491  11.451  1.4641 -3.1577 -0.5567
 7402SOL     OW33664   1.315   1.233   3.364 -0.5254  0.2173 -0.3844
 7402SOL    HW133665   1.400   1.253   3.326 -0.4430  0.2404 -0.1877
 7402SOL    HW233666   1.324   1.140   3.342 -0.6539  0.0305  0.3399
 7403SOL     OW33667   3.560   4.307   5.155 -0.2090  0.5732  0.1136
 7403SOL    HW133668   3.633   4.369   5.159 -0.2971  0.8348 -1.9809
 7403SOL    HW233669   3.602   4.225   5.181 -0.4543  0.4193  0.0224
 7404SOL     OW33670   2.059   0.382   4.957  1.0005  0.0669  0.0278
 7404SOL    HW133671   1.976   0.333   4.950 -1.5496  4.1331  1.7870
 7404SOL    HW233672   2.043   0.438   4.882 -1.8106 -1.0628 -0.2132
 7405SOL     OW33673   1.792   1.818   7.462  0.7000  0.5264  0.2056
 7405SOL    HW133674   1.822   1.906   7.486  3.5469 -0.6364  0.9609
 7405SOL    HW233675   1.874   1.776   7.437 -1.0577 -3.3120  0.8926
 7406SOL     OW33676   3.842   0.132  15.210 -0.7206  0.5347  0.1150
 7406SOL    HW133677   3.827   0.210  15.157 -2.9239  0.7347  1.0418
 7406SOL    HW233678   3.757   0.115  15.251 -1.1050 -2.0053 -1.8065
 7407SOL     OW33679   4.591   1.891   6.443 -0.4771  0.4331 -0.0060
 7407SOL    HW133680   4.680   1.925   6.434 -0.5803  1.8053  3.9949
 7407SOL    HW233681   4.537   1.956   6.396 -0.3020  0.7778  0.2716
 7408SOL     OW33682   4.098   0.231   2.420  0.5314  0.0601 -0.9270
 7408SOL    HW133683   4.156   0.173   2.370  1.1059 -0.8034  0.7339
 7408SOL    HW233684   4.032   0.247   2.352 -0.4757 -0.6280 -0.1058
 7409SOL     OW33685   1.713   1.352   1.578 -0.4630 -0.3721 -0.3167
 7409SOL    HW133686   1.778   1.285   1.556  0.6912 -0.2582  2.6617
 7409SOL    HW233687   1.756   1.433   1.553 -1.6029  0.2455 -0.2533
 7410SOL     OW33688   3.924   2.373  14.822 -0.0908  0.3599  0.2180
 7410SOL    HW133689   4.013   2.341  14.840  0.6152  2.4417  0.3470
 7410SOL    HW233690   3.883   2.286  14.824  2.6410 -0.9933 -2.3307
 7411SOL     OW33691   0.525   1.191  12.444  0.1363 -0.4604 -0.3391
 7411SOL    HW133692   0.542   1.158  12.532 -1.0219  0.9429  0.4077
 7411SOL    HW233693   0.434   1.221  12.445 -0.1256 -1.3153  1.1873
 7412SOL     OW33694   1.840   3.526   1.488 -0.4083 -0.1605  0.1947
 7412SOL    HW133695   1.789   3.559   1.415  0.2034  0.8931  0.2296
 7412SOL    HW233696   1.873   3.608   1.524 -1.8878  0.5460 -0.0698
 7413SOL     OW33697   0.484   0.581   4.774  0.4141 -0.2598  0.1129
 7413SOL    HW133698   0.566   0.620   4.805  1.1363 -0.5699 -1.4028
 7413SOL    HW233699   0.513   0.559   4.685  0.8076  1.8145 -0.2714
 7414SOL     OW33700   2.827   0.231   7.077  0.5414 -0.1283  0.0900
 7414SOL    HW133701   2.863   0.303   7.026 -0.8480 -0.3378 -1.1934
 7414SOL    HW233702   2.810   0.168   7.007  0.3533 -2.3195  2.0733
 7415SOL     OW33703   2.267   1.840   1.007  0.1817 -0.5775 -0.4093
 7415SOL    HW133704   2.327   1.899   0.961  1.3448 -2.0391 -0.7611
 7415SOL    HW233705   2.264   1.891   1.088  0.1502 -0.7361 -0.3112
 7416SOL     OW33706   4.451   0.917   8.371 -0.2062  0.5127 -0.1435
 7416SOL    HW133707   4.485   0.835   8.335  0.1844 -0.1364  1.7037
 7416SOL    HW233708   4.400   0.963   8.305  2.0040  0.6259 -1.8077
 7417SOL     OW33709   1.181   1.931  16.506 -0.0904 -0.7955 -0.0951
 7417SOL    HW133710   1.149   1.998  16.445 -0.4284 -0.3044  0.6066
 7417SOL    HW233711   1.124   1.948  16.582  0.1625  2.5957 -0.6660
 7418SOL     OW33712   4.240   2.810   4.339 -0.2213  1.3829 -0.7451
 7418SOL    HW133713   4.274   2.739   4.284  2.4293  1.0645  1.2986
 7418SOL    HW233714   4.153   2.777   4.361  0.1556 -0.4647 -2.0264
 7419SOL     OW33715   3.246   1.763   9.202  0.4557 -0.1301  0.0876
 7419SOL    HW133716   3.159   1.750   9.239  0.1140 -1.7926 -1.2887
 7419SOL    HW233717   3.228   1.776   9.109  0.7261  2.7858  0.4410
 7420SOL     OW33718   2.056   2.589   4.990  0.4262 -0.3095  0.2179
 7420SOL    HW133719   2.142   2.599   4.949  0.2087  1.5729  0.2153
 7420SOL    HW233720   2.003   2.608   4.913 -2.1184 -1.3153  1.7085
 7421SOL     OW33721   4.226   4.173   8.515  0.1553  0.3171 -0.5376
 7421SOL    HW133722   4.204   4.123   8.593  1.1110  2.6662  1.2195
 7421SOL    HW233723   4.195   4.258   8.544  1.4397 -0.2637  2.5238
 7422SOL     OW33724   2.074   1.544   4.944 -0.2364  0.2689  0.4117
 7422SOL    HW133725   2.026   1.465   4.967  0.4353  0.4399  2.3632
 7422SOL    HW233726   2.044   1.548   4.853  0.6445 -0.8102  0.0834
 7423SOL     OW33727   0.592   3.251   8.794  0.7015  0.2283  0.1945
 7423SOL    HW133728   0.539   3.171   8.787 -1.6928  1.7721  0.8567
 7423SOL    HW233729   0.613   3.250   8.888  0.0797 -2.6675  0.3169
 7424SOL     OW33730   2.424   2.760  11.066  0.1031 -0.3026 -0.6851
 7424SOL    HW133731   2.510   2.719  11.050  1.3208  2.1724 -0.5415
 7424SOL    HW233732   2.447   2.828  11.002  1.4047 -0.5735 -0.5189
 7425SOL     OW33733   1.449   3.940  10.187  0.0558  0.3550  0.2240
 7425SOL    HW133734   1.434   3.948  10.093 -1.0769  0.9273  0.4553
 7425SOL    HW233735   1.545   3.938  10.185 -0.0274 -2.8230 -0.9058
 7426SOL     OW33736   4.699   1.460   1.149 -0.0083 -0.1283  0.4609
 7426SOL    HW133737   4.672   1.551   1.162 -1.2160 -0.6925  1.8422
 7426SOL    HW233738   0.053   1.477   1.096 -0.0736 -2.3415 -0.3733
 7427SOL     OW33739   2.423   0.896   2.596 -0.4255 -0.1950  0.1753
 7427SOL    HW133740   2.384   0.906   2.510 -2.0746 -1.2814  0.7873
 7427SOL    HW233741   2.516   0.877   2.581 -0.6633 -1.3185  0.0888
 7428SOL     OW33742   3.259   2.257   4.310 -0.2270 -0.3529 -0.6843
 7428SOL    HW133743   3.331   2.195   4.327  0.1450 -0.2131 -1.7578
 7428SOL    HW233744   3.206   2.201   4.254 -0.1547  0.4032 -1.5018
 7429SOL     OW33745   2.376   0.552   5.495 -0.1269  0.2547 -0.0406
 7429SOL    HW133746   2.448   0.512   5.445  0.2403  1.4542 -0.4710
 7429SOL    HW233747   2.363   0.629   5.440 -2.6742 -0.3474 -0.2837
 7430SOL     OW33748   0.921   1.156   0.498  0.0691 -0.2120  0.0711
 7430SOL    HW133749   0.875   1.122   0.420  0.3250  1.8384 -0.9625
 7430SOL    HW233750   0.842   1.176   0.548  0.1320  0.9934 -0.3266
 7431SOL     OW33751   1.632   1.495   9.283 -0.0537  0.2359  0.2395
 7431SOL    HW133752   1.543   1.508   9.249  0.6479  1.1685 -1.2234
 7431SOL    HW233753   1.627   1.399   9.290 -2.1793  0.5697  3.8814
 7432SOL     OW33754   4.531   4.459  16.472  0.1089  0.2317  0.2277
 7432SOL    HW133755   4.487   4.462  16.387 -0.0770 -0.5038  0.2956
 7432SOL    HW233756   4.446   4.462  16.515  0.4037  3.3040  0.6079
 7433SOL     OW33757   1.474   0.150   4.923  0.2129  0.3787  0.1105
 7433SOL    HW133758   1.385   0.184   4.935  0.3193 -1.0920  5.2084
 7433SOL    HW233759   1.511   0.156   5.011  2.6778 -0.9050 -0.8516
 7434SOL     OW33760   3.866   4.639   2.577 -0.3809  0.2898 -0.1772
 7434SOL    HW133761   3.941   4.697   2.593 -1.1570  1.0658  0.6582
 7434SOL    HW233762   3.807   4.681   2.515 -1.4593  0.1785  0.7707
 7435SOL     OW33763   1.431   1.692   5.809  0.3813 -0.2100  0.0245
 7435SOL    HW133764   1.452   1.785   5.800  2.5631 -0.7723 -0.7155
 7435SOL    HW233765   1.336   1.684   5.806  0.7059 -3.4123 -1.4347
 7436SOL     OW33766   1.040   4.557  10.079 -0.0368  0.2664  0.5481
 7436SOL    HW133767   1.004   4.468  10.085  0.7840 -0.2613 -2.1419
 7436SOL    HW233768   0.994   4.592  10.155  0.3984 -1.6859  1.7056
 7437SOL     OW33769   3.750   4.166   8.209 -0.2060 -0.7175 -0.0163
 7437SOL    HW133770   3.840   4.187   8.236 -0.8028  2.1156 -0.2599
 7437SOL    HW233771   3.775   4.143   8.120  1.1060 -0.9522  0.4025
 7438SOL     OW33772   2.856   3.235  12.750 -0.0093 -0.2040 -0.2744
 7438SOL    HW133773   2.907   3.238  12.669  1.6204  5.8079  1.0157
 7438SOL    HW233774   2.855   3.328  12.770  1.4248 -0.3842  0.6483
 7439SOL     OW33775   4.572   0.515  15.386 -0.2669  0.4191 -0.2947
 7439SOL    HW133776   4.610   0.437  15.344 -0.8585  0.9337 -1.8096
 7439SOL    HW233777   4.508   0.536  15.317  0.3567 -0.1306 -1.0437
 7440SOL     OW33778   1.871   1.364   4.278 -0.1717 -0.2168  0.4463
 7440SOL    HW133779   1.788   1.369   4.325 -0.5732  0.7263 -0.3742
 7440SOL    HW233780   1.936   1.384   4.346  1.1119 -1.0626 -0.5265
 7441SOL     OW33781   1.279   1.616  14.660 -0.3792 -0.1745  0.4443
 7441SOL    HW133782   1.190   1.642  14.639 -0.3080 -0.0072  0.3435
 7441SOL    HW233783   1.307   1.698  14.701  1.5322 -0.5850 -0.0215
 7442SOL     OW33784   4.449   2.975   4.234 -0.0758 -0.4159 -0.5897
 7442SOL    HW133785   4.381   2.936   4.290 -0.9792  0.8604 -0.8018
 7442SOL    HW233786   4.448   2.909   4.164  2.4581  1.9026 -2.7873
 7443SOL     OW33787   4.458   3.675  16.562 -0.6321  0.2896 -0.3322
 7443SOL    HW133788   4.390   3.611  16.583 -0.5597 -0.0661 -1.1983
 7443SOL    HW233789   4.532   3.656  16.619 -0.6824  0.6404 -0.1547
 7444SOL     OW33790   3.621   0.744   8.246 -0.1178 -0.5784  0.1728
 7444SOL    HW133791   3.697   0.723   8.300  1.9010  2.6732 -1.3901
 7444SOL    HW233792   3.663   0.774   8.165 -1.3451 -0.4223 -0.3943
 7445SOL     OW33793   1.063   4.296  12.059  0.0558  0.4686 -0.2380
 7445SOL    HW133794   1.088   4.319  11.969 -0.2387 -1.4771 -0.8201
 7445SOL    HW233795   1.149   4.261  12.083 -0.4052 -1.2041 -1.0694
 7446SOL     OW33796   4.589   3.531   0.708  0.4877 -0.0170  0.3098
 7446SOL    HW133797   4.628   3.589   0.643 -0.7443 -1.0419 -1.3408
 7446SOL    HW233798   4.512   3.504   0.657 -0.8269  0.8263  1.8204
 7447SOL     OW33799   4.672   2.257   1.415  0.3460 -0.1467  0.0196
 7447SOL    HW133800   4.625   2.314   1.353  0.0520  0.2567  0.6150
 7447SOL    HW233801   4.698   2.322   1.480  0.4636 -0.2457  0.0695
 7448SOL     OW33802   2.463   4.392   8.953 -0.3330 -0.0932 -0.3295
 7448SOL    HW133803   2.493   4.482   8.967 -1.8119  0.2667  0.5140
 7448SOL    HW233804   2.444   4.365   9.043  0.0259  0.4517 -0.0909
 7449SOL     OW33805   1.038   2.769   3.144 -0.2143 -0.0107 -0.0830
 7449SOL    HW133806   1.122   2.802   3.112  0.1041 -2.1968 -1.4989
 7449SOL    HW233807   1.070   2.687   3.182  1.6366  0.6288 -0.2580
 7450SOL     OW33808   2.109   3.737   7.281 -0.0663 -0.2899 -0.4574
 7450SOL    HW133809   2.175   3.766   7.218 -0.2720 -0.4636 -0.7496
 7450SOL    HW233810   2.175   3.678   7.319  0.0356 -0.7021 -1.2837
 7451SOL     OW33811   3.803   2.008   3.287  0.4654  0.2359  0.9856
 7451SOL    HW133812   3.796   1.932   3.229 -3.1332 -0.8093  2.8030
 7451SOL    HW233813   3.828   1.957   3.364 -0.4199 -0.5519  0.7424
 7452SOL     OW33814   1.682   2.588   7.533  0.6903  0.0984  0.0382
 7452SOL    HW133815   1.608   2.623   7.582  0.1082  1.9158 -2.1384
 7452SOL    HW233816   1.654   2.497   7.537 -0.1837  0.4141  1.0592
 7453SOL     OW33817   0.958   4.140   6.231 -0.1536  0.2197  0.6024
 7453SOL    HW133818   0.921   4.194   6.161 -1.1465 -0.0273  0.9365
 7453SOL    HW233819   1.004   4.206   6.283 -0.0861  0.8608 -0.2719
 7454SOL     OW33820   1.718   4.399   6.483 -0.5310 -0.5223  0.3080
 7454SOL    HW133821   1.801   4.432   6.450 -1.3702 -0.5278 -1.7858
 7454SOL    HW233822   1.665   4.431   6.410 -1.9457  2.0244  2.4065
 7455SOL     OW33823   0.172   2.814   4.872 -0.4032 -0.1356  0.0291
 7455SOL    HW133824   0.183   2.899   4.914  1.8515 -1.2768  1.7184
 7455SOL    HW233825   0.078   2.793   4.870 -0.3600 -0.6968  2.8107
 7456SOL     OW33826   2.534   2.064   7.534 -0.1999  0.0207 -0.2064
 7456SOL    HW133827   2.502   2.119   7.606  3.2017  1.7173 -0.0077
 7456SOL    HW233828   2.463   2.064   7.470 -2.1843  0.0787  2.0133
 7457SOL     OW33829   2.490   0.520   4.209  0.1549  0.0046  0.0963
 7457SOL    HW133830   2.463   0.608   4.183  2.9460  0.3342 -1.7088
 7457SOL    HW233831   2.405   0.482   4.234  0.0376  0.3493  0.2263
 7458SOL     OW33832   3.949   4.127   2.498 -1.0516  0.0989  0.4245
 7458SOL    HW133833   3.878   4.091   2.444 -1.4724 -0.2120  1.1882
 7458SOL    HW233834   3.958   4.218   2.471  1.0023 -0.1074  0.3786
 7459SOL     OW33835   3.805   0.477   4.668 -0.5381  0.4312  0.8320
 7459SOL    HW133836   3.874   0.464   4.603  0.0595 -0.8186  1.7016
 7459SOL    HW233837   3.796   0.392   4.713 -0.8583 -0.3169 -0.6551
 7460SOL     OW33838   2.240   0.758  15.939 -0.4223  0.5941  0.3323
 7460SOL    HW133839   2.249   0.837  15.886  1.7351 -1.5195 -2.5039
 7460SOL    HW233840   2.148   0.741  15.920 -0.2982 -0.8351  0.9624
 7461SOL     OW33841   0.187   1.725   6.820  0.4998 -0.3023  0.5139
 7461SOL    HW133842   0.098   1.759   6.826  1.1999  1.6084  0.4305
 7461SOL    HW233843   0.201   1.731   6.726 -1.5385  0.4075  0.2706
 7462SOL     OW33844   2.141   2.238  13.472  0.2730  0.1460  0.5792
 7462SOL    HW133845   2.113   2.262  13.560 -0.6419  0.2507  0.2597
 7462SOL    HW233846   2.119   2.320  13.428  0.8495 -1.0092 -1.8845
 7463SOL     OW33847   0.149   2.374   7.425  0.5847 -0.3774  0.2568
 7463SOL    HW133848   0.239   2.394   7.400  0.9348 -0.8653  1.1291
 7463SOL    HW233849   0.105   2.432   7.362  2.0518  0.1205 -0.3151
 7464SOL     OW33850   4.590   3.376   3.340 -0.3441 -0.5314  0.1237
 7464SOL    HW133851   4.562   3.441   3.405  0.0851 -0.6075  0.3807
 7464SOL    HW233852   4.505   3.346   3.306 -0.8124  0.3169  0.5464
 7465SOL     OW33853   2.990   1.130   2.436 -0.5778  0.0147 -0.0430
 7465SOL    HW133854   2.940   1.115   2.355  0.9990  2.2206 -1.4339
 7465SOL    HW233855   3.019   1.041   2.456  1.5325  0.5947 -0.5233
 7466SOL     OW33856   3.229   1.899  14.067 -0.0704  0.2712  0.0353
 7466SOL    HW133857   3.244   1.815  14.024  1.6692 -1.1024  3.2589
 7466SOL    HW233858   3.289   1.953  14.016  0.5066  0.8297  1.3020
 7467SOL     OW33859   4.449   4.282  14.652  0.3286  0.0089 -0.7718
 7467SOL    HW133860   4.385   4.347  14.680  1.1635  0.1437  0.8084
 7467SOL    HW233861   4.475   4.242  14.735 -0.1837  0.6838 -0.2926
 7468SOL     OW33862   4.193   2.283   0.943 -0.4138 -0.2975 -0.5374
 7468SOL    HW133863   4.212   2.368   0.904 -1.4000 -0.2389 -0.8713
 7468SOL    HW233864   4.224   2.220   0.878 -1.6126 -2.1894  0.6983
 7469SOL     OW33865   1.691   4.511   2.340  0.3207  0.9496  0.5151
 7469SOL    HW133866   1.635   4.471   2.274 -0.2844 -1.1200  2.3216
 7469SOL    HW233867   1.630   4.542   2.406 -0.4092  1.1840 -0.2595
 7470SOL     OW33868   1.708   0.128   6.509 -0.0161  0.2743 -0.0010
 7470SOL    HW133869   1.673   0.074   6.579  1.7533 -1.0750 -0.1597
 7470SOL    HW233870   1.637   0.108   6.448 -0.8801  1.7349  0.5185
 7471SOL     OW33871   3.482   1.447   0.202 -0.2467 -0.4246 -0.1946
 7471SOL    HW133872   3.393   1.413   0.209 -0.3230 -0.1812  0.0106
 7471SOL    HW233873   3.516   1.418   0.117  0.0748 -0.6346  0.0062
 7472SOL     OW33874   0.867   2.861   7.106  0.0188 -0.7304  0.5913
 7472SOL    HW133875   0.782   2.860   7.151 -1.6558 -0.2991 -2.6046
 7472SOL    HW233876   0.841   2.885   7.017  0.2425  1.7074  1.1725
 7473SOL     OW33877   0.931   1.125  11.723 -0.6012  0.3382  0.2212
 7473SOL    HW133878   0.898   1.215  11.729  3.2511  1.8399 -1.0864
 7473SOL    HW233879   1.020   1.146  11.752 -0.2138  1.6732 -1.9074
 7474SOL     OW33880   2.674   0.207  16.128  0.2463  0.0682 -0.0730
 7474SOL    HW133881   2.649   0.146  16.058  1.5438 -1.2386  0.6285
 7474SOL    HW233882   2.653   0.291  16.087  1.6261 -0.1133 -1.1346
 7475SOL     OW33883   1.913   2.318   5.275 -0.2324  0.3543 -0.0721
 7475SOL    HW133884   1.916   2.254   5.346  3.9304  2.2932  1.5182
 7475SOL    HW233885   1.976   2.386   5.300 -0.6450 -0.2625  2.6247
 7476SOL     OW33886   1.620   0.136   5.829 -0.0871 -0.2365 -0.0563
 7476SOL    HW133887   1.602   0.215   5.880  0.7438  2.1467 -3.4484
 7476SOL    HW233888   1.591   0.158   5.740 -0.0811  0.8991  0.2184
 7477SOL     OW33889   2.361   4.150   2.754 -0.3163  0.0753  0.1934
 7477SOL    HW133890   2.337   4.146   2.662 -2.0762  2.1957  0.5535
 7477SOL    HW233891   2.286   4.197   2.791 -0.2188 -0.2832  0.8564
 7478SOL     OW33892   1.899   0.068   1.048  0.5157 -0.9372  0.1067
 7478SOL    HW133893   1.853   0.041   1.128 -1.8066  0.6102 -0.7001
 7478SOL    HW233894   1.866   0.158   1.052  0.3180 -0.9145 -2.1649
 7479SOL     OW33895   3.388   4.438  12.822 -0.0484  0.1863 -0.2160
 7479SOL    HW133896   3.324   4.373  12.794 -0.5957  0.3555  0.6373
 7479SOL    HW233897   3.365   4.513  12.767  0.5938  0.2499 -0.4003
 7480SOL     OW33898   1.425   3.968   1.342  0.5277 -0.3203 -0.2668
 7480SOL    HW133899   1.359   3.928   1.399  0.7027 -0.8990 -0.4651
 7480SOL    HW233900   1.418   3.908   1.268  0.4643  2.5354 -2.5696
 7481SOL     OW33901   3.043   0.746   7.283  0.1064  0.0597  0.5955
 7481SOL    HW133902   3.136   0.763   7.300  0.5685  0.7650 -2.6507
 7481SOL    HW233903   3.019   0.838   7.274  1.1784  0.3239  0.4578
 7482SOL     OW33904   2.732   2.078   6.079  0.3652 -0.0061 -0.0793
 7482SOL    HW133905   2.646   2.075   6.036  1.3257 -1.0643 -1.9502
 7482SOL    HW233906   2.704   2.121   6.160 -0.3229  1.6046 -1.1695
 7483SOL     OW33907   0.629   1.499   3.080  0.2401  0.4888  0.5774
 7483SOL    HW133908   0.579   1.566   3.128 -2.0469 -0.9193  0.1353
 7483SOL    HW233909   0.647   1.545   2.998  0.5334  1.6195  1.2697
 7484SOL     OW33910   0.738   1.933   3.711  0.6077 -0.1074  0.8587
 7484SOL    HW133911   0.752   1.991   3.636  0.6220 -0.2663  0.7378
 7484SOL    HW233912   0.649   1.905   3.690  1.5798 -0.3738 -2.9002
 7485SOL     OW33913   4.109   2.770   5.562  0.8529 -0.4099 -0.3540
 7485SOL    HW133914   4.062   2.836   5.511  1.9925  0.1389 -0.6962
 7485SOL    HW233915   4.196   2.795   5.532  1.1923 -1.4725 -0.2547
 7486SOL     OW33916   4.521   1.716   6.246  1.2394  0.1822 -0.3523
 7486SOL    HW133917   4.606   1.674   6.230  2.3770  2.0519  0.7486
 7486SOL    HW233918   4.532   1.736   6.339 -1.2121 -1.2978  0.2617
 7487SOL     OW33919   1.180   2.225  15.769  0.0347 -0.2858  0.2165
 7487SOL    HW133920   1.213   2.154  15.823 -0.5388 -0.4174  0.3984
 7487SOL    HW233921   1.235   2.299  15.796 -0.5701  0.2240  0.0830
 7488SOL     OW33922   3.073   2.123   9.201 -0.7690  0.1612  0.5276
 7488SOL    HW133923   3.068   2.179   9.279 -1.6737  2.3656 -1.0868
 7488SOL    HW233924   3.166   2.139   9.188 -0.7618  0.0890  0.4942
 7489SOL     OW33925   1.627   4.151   2.929 -0.0972  0.8011 -0.0234
 7489SOL    HW133926   1.643   4.098   3.007 -0.1913  0.6894 -0.0793
 7489SOL    HW233927   1.541   4.121   2.899  0.3457  0.0529 -0.5450
 7490SOL     OW33928   3.439   3.945   1.757 -0.7792  0.0280  0.5176
 7490SOL    HW133929   3.521   3.960   1.804 -0.2910  2.6690 -1.1861
 7490SOL    HW233930   3.408   4.035   1.751 -1.8877 -0.5807 -2.9984
 7491SOL     OW33931   1.208   2.679   1.729 -0.6571 -0.7655 -0.1131
 7491SOL    HW133932   1.201   2.774   1.738  2.8107 -0.5787  0.9792
 7491SOL    HW233933   1.294   2.675   1.685 -0.6368  1.8766 -0.2783
 7492SOL     OW33934   4.647   2.142   7.183  0.1198 -0.7692 -0.1984
 7492SOL    HW133935   4.675   2.129   7.274 -2.3393  0.9562  0.8009
 7492SOL    HW233936   4.554   2.120   7.179 -0.1287 -0.1878  2.1851
 7493SOL     OW33937   0.468   4.579  14.129 -0.5791 -0.2658  0.3357
 7493SOL    HW133938   0.523   4.589  14.206  0.2625 -0.3216 -0.2609
 7493SOL    HW233939   0.386   4.622  14.155 -0.5587 -0.8495  1.3457
 7494SOL     OW33940   2.153   2.425  16.498  0.0931 -0.4845  0.5506
 7494SOL    HW133941   2.226   2.408  16.558 -0.4732  1.6852  1.8421
 7494SOL    HW233942   2.099   2.476  16.558  0.0389  1.2015 -0.9318
 7495SOL     OW33943   1.914   2.811   8.119  0.1360 -0.0843  0.2098
 7495SOL    HW133944   1.912   2.892   8.170  0.7129  1.8044 -2.7552
 7495SOL    HW233945   1.987   2.765   8.160  0.7094 -0.3885 -1.1350
 7496SOL     OW33946   3.973   3.194  14.503 -0.3307 -0.4531  0.2168
 7496SOL    HW133947   3.910   3.202  14.575 -0.3210 -1.3827  0.3190
 7496SOL    HW233948   3.923   3.139  14.442  0.9854 -3.6048  2.0029
 7497SOL     OW33949   0.179   0.773   2.561 -0.1236 -0.0420 -0.1530
 7497SOL    HW133950   0.264   0.730   2.574 -0.7693 -1.4474 -0.5818
 7497SOL    HW233951   0.144   0.726   2.485  1.0738 -1.2323  0.0235
 7498SOL     OW33952   0.576   1.616   9.003  0.2908 -0.6275  0.0556
 7498SOL    HW133953   0.529   1.700   9.006 -1.1939 -1.3777 -2.4291
 7498SOL    HW233954   0.592   1.605   9.096  0.3857  1.3321  0.2761
 7499SOL     OW33955   0.612   4.541  14.910  0.4238 -0.0460 -0.3391
 7499SOL    HW133956   0.582   4.537  14.819 -0.6592  1.1236 -0.0495
 7499SOL    HW233957   0.639   4.452  14.932  2.1471  0.9080  1.3547
 7500SOL     OW33958   0.995   3.545   3.288  0.5865  0.0956  0.1637
 7500SOL    HW133959   1.042   3.612   3.238 -0.2304  0.9725  0.5604
 7500SOL    HW233960   1.055   3.476   3.259 -0.5197  0.2934 -2.5024
 7501SOL     OW33961   0.997   0.817   0.840 -0.0268  0.4820  0.0400
 7501SOL    HW133962   0.986   0.794   0.748  1.7985  1.4101 -0.4146
 7501SOL    HW233963   0.912   0.792   0.876  0.1743  0.8281  0.7650
 7502SOL     OW33964   2.850   1.111  13.986 -0.0904  0.5087 -0.2826
 7502SOL    HW133965   2.903   1.148  13.916  0.2401 -0.3685 -0.5036
 7502SOL    HW233966   2.850   1.017  13.968 -2.5861  0.2730  0.9152
 7503SOL     OW33967   4.379   3.801   5.923  0.6544 -0.3820 -0.0873
 7503SOL    HW133968   4.390   3.750   5.842  1.7615  0.1721 -0.2761
 7503SOL    HW233969   4.403   3.738   5.991 -0.2337  0.1568  0.7190
 7504SOL     OW33970   1.939   2.643   5.243 -0.7703  0.2648  0.6539
 7504SOL    HW133971   1.999   2.604   5.179 -1.0941  0.0350  0.4894
 7504SOL    HW233972   1.967   2.584   5.313 -0.8467  0.4904  0.8702
 7505SOL     OW33973   3.082   3.389   8.127  0.2540  0.3253 -0.0891
 7505SOL    HW133974   3.048   3.315   8.077 -0.4588  0.1813  0.6230
 7505SOL    HW233975   3.155   3.411   8.069 -0.4243  2.3018 -0.1798
 7506SOL     OW33976   2.380   0.502   5.113 -0.0575  0.0645 -0.1011
 7506SOL    HW133977   2.351   0.443   5.043  1.4266 -0.7246 -0.0578
 7506SOL    HW233978   2.393   0.585   5.067 -2.0830  0.0435 -0.7126
 7507SOL     OW33979   0.764   4.050   5.032  0.0388  0.3104  0.2687
 7507SOL    HW133980   0.717   4.114   5.085  0.2020  2.6877 -2.4469
 7507SOL    HW233981   0.754   3.969   5.082 -1.5252 -1.4286 -2.8291
 7508SOL     OW33982   0.758   2.067   1.553 -0.3060  0.4884 -0.2271
 7508SOL    HW133983   0.682   2.084   1.497 -0.9885 -0.5233  0.3860
 7508SOL    HW233984   0.795   2.155   1.557 -0.9932  0.8054 -0.9361
 7509SOL     OW33985   2.038   2.364   2.100  0.3574  0.1942  0.2797
 7509SOL    HW133986   1.983   2.342   2.024 -0.3040 -0.6343  0.9912
 7509SOL    HW233987   1.997   2.305   2.163  0.0672  0.8502  0.7019
 7510SOL     OW33988   3.310   1.856  14.386  0.4413  0.1051 -0.6182
 7510SOL    HW133989   3.265   1.890  14.309 -1.1360  2.4308  1.2991
 7510SOL    HW233990   3.276   1.903  14.463  0.4083  1.8545 -1.7134
 7511SOL     OW33991   2.490   2.817   0.895 -0.6547  0.0533 -0.8614
 7511SOL    HW133992   2.445   2.789   0.815  0.5555  0.9291 -1.8527
 7511SOL    HW233993   2.479   2.911   0.882  0.6742  0.0810 -1.7759
 7512SOL     OW33994   1.972   3.756   3.977  0.0597 -0.4159  1.0271
 7512SOL    HW133995   1.880   3.759   3.951  0.7929  0.8708 -1.4604
 7512SOL    HW233996   2.008   3.844   3.979 -1.3019  0.1988 -1.7349
 7513SOL     OW33997   4.482   4.209   6.783 -0.0867  0.0730  0.6268
 7513SOL    HW133998   4.471   4.304   6.792 -2.2181 -0.3119  2.0556
 7513SOL    HW233999   4.523   4.203   6.696  0.8147 -0.0792  1.0654
 7514SOL     OW34000   2.011   3.997   3.611 -0.1257  0.1385  0.0223
 7514SOL    HW134001   2.085   4.056   3.601  0.1095 -0.1550  0.0290
 7514SOL    HW234002   1.950   4.046   3.666  0.8252  1.9753 -0.5643
 7515SOL     OW34003   0.326   0.485   4.983  0.0721  0.1420 -0.7516
 7515SOL    HW134004   0.388   0.421   5.017 -0.0393 -0.6757 -2.1092
 7515SOL    HW234005   0.379   0.503   4.905  2.9736  0.0494  1.2034
 7516SOL     OW34006   1.917   0.019  15.232  0.0927  0.2246 -0.4730
 7516SOL    HW134007   1.858   0.037  15.306 -0.1841  1.9959 -1.1409
 7516SOL    HW234008   1.991   4.712  15.284 -0.0531 -0.7539 -0.8184
 7517SOL     OW34009   3.208   3.498   5.977  0.6141 -0.0486  0.0730
 7517SOL    HW134010   3.280   3.536   6.028 -0.4146  0.8233  0.8924
 7517SOL    HW234011   3.255   3.495   5.894  0.1779 -2.6975 -0.0781
 7518SOL     OW34012   1.996   4.115  12.913  0.3482 -0.0057 -0.4195
 7518SOL    HW134013   1.966   4.079  12.829  0.4481  1.1235 -0.9384
 7518SOL    HW234014   1.923   4.131  12.972 -0.2466  0.9089 -1.3918
 7519SOL     OW34015   3.006   0.584   1.484  0.1804 -0.1814 -0.7402
 7519SOL    HW134016   3.031   0.527   1.411  1.3619 -2.4451  1.4095
 7519SOL    HW234017   2.912   0.577   1.465  0.1530 -1.8034  0.0240
 7520SOL     OW34018   3.487   2.410   8.643  0.4993  0.5318  0.3014
 7520SOL    HW134019   3.486   2.343   8.574  0.7003  1.0349 -0.1814
 7520SOL    HW234020   3.491   2.351   8.719 -2.4117 -0.2277 -0.1167
 7521SOL     OW34021   3.416   4.256   0.807  0.0949 -0.6617  0.0690
 7521SOL    HW134022   3.496   4.210   0.783 -1.5945 -1.5381 -3.9579
 7521SOL    HW234023   3.353   4.185   0.795 -1.9327  1.0175  0.7750
 7522SOL     OW34024   2.957   4.662  11.407 -0.0140  0.8728 -0.3734
 7522SOL    HW134025   3.001   4.662  11.492  1.6877  0.6496 -1.2506
 7522SOL    HW234026   2.869   4.696  11.426  0.0969  1.1955 -0.4303
 7523SOL     OW34027   4.262   0.863  10.640  0.1926  0.0210 -0.6939
 7523SOL    HW134028   4.334   0.837  10.698 -1.4321 -1.8820  0.4890
 7523SOL    HW234029   4.240   0.947  10.681 -1.9707  0.1160 -2.0631
 7524SOL     OW34030   0.500   2.575   5.158  0.2430 -0.2540 -0.7334
 7524SOL    HW134031   0.592   2.583   5.136 -0.3397  1.1860 -2.6080
 7524SOL    HW234032   0.472   2.667   5.155  0.3157 -0.1647  1.0884
 7525SOL     OW34033   3.291   0.655   1.759 -0.0357 -0.1617  0.1953
 7525SOL    HW134034   3.335   0.638   1.675  0.6097 -1.3602  0.7641
 7525SOL    HW234035   3.215   0.599   1.748  0.9759 -1.4357 -0.3639
 7526SOL     OW34036   4.016   2.038   6.489  0.2169  0.2280  0.6066
 7526SOL    HW134037   3.941   2.085   6.525  0.5924  2.5808 -1.6842
 7526SOL    HW234038   4.045   2.108   6.430 -1.6523  0.8872  0.4572
 7527SOL     OW34039   3.077   0.510   4.696 -0.2004  0.1035 -0.3030
 7527SOL    HW134040   3.092   0.429   4.746  0.9960  0.1189 -0.6250
 7527SOL    HW234041   2.996   0.480   4.655  0.4656  0.1545 -1.6509
 7528SOL     OW34042   4.343   1.406   1.823 -0.0665  0.7433 -0.1045
 7528SOL    HW134043   4.296   1.479   1.864 -0.0514 -0.3116  1.8232
 7528SOL    HW234044   4.260   1.374   1.788 -0.4184  2.4858 -0.8512
 7529SOL     OW34045   3.560   3.261  14.266 -0.0588  0.1322 -0.2824
 7529SOL    HW134046   3.569   3.318  14.342 -2.4856  0.0023  0.1205
 7529SOL    HW234047   3.489   3.303  14.217 -0.1298 -1.1327 -1.2883
 7530SOL     OW34048   2.280   1.629   5.679  0.4457  0.2128 -0.3809
 7530SOL    HW134049   2.245   1.680   5.605 -2.0134 -0.6407  0.1939
 7530SOL    HW234050   2.374   1.623   5.664  0.4699 -0.9447  0.2513
 7531SOL     OW34051   3.560   3.364   3.218  0.3221  0.0907  0.6194
 7531SOL    HW134052   3.610   3.313   3.154 -2.4359 -1.9693  0.1267
 7531SOL    HW234053   3.546   3.307   3.293 -3.7173  1.0264  0.5792
 7532SOL     OW34054   1.516   0.506   2.924 -0.6135  0.1446  0.3372
 7532SOL    HW134055   1.537   0.495   2.832 -0.8897  1.7498  0.0769
 7532SOL    HW234056   1.486   0.597   2.916  1.2074  0.7295  0.2455
 7533SOL     OW34057   1.859   1.941   7.138 -0.2261  0.1488 -0.0646
 7533SOL    HW134058   1.832   1.853   7.109 -2.2170  0.7628 -0.0849
 7533SOL    HW234059   1.815   1.933   7.223  0.4819 -1.0170  0.1953
 7534SOL     OW34060   0.008   2.153   7.432  0.0576 -0.2454 -0.0098
 7534SOL    HW134061   0.060   2.143   7.511 -0.4463 -1.4434  0.1840
 7534SOL    HW234062   0.060   2.229   7.407 -1.7613  0.1683 -2.5998
 7535SOL     OW34063   0.748   2.306   2.558  0.1882 -0.8345 -0.2397
 7535SOL    HW134064   0.795   2.226   2.582  2.2911  1.7197  4.1215
 7535SOL    HW234065   0.793   2.346   2.484 -0.2549  0.2730  0.0893
 7536SOL     OW34066   0.629   1.853   5.874  0.5172 -0.0093 -0.1410
 7536SOL    HW134067   0.603   1.840   5.965 -0.5385 -1.0240 -0.5867
 7536SOL    HW234068   0.721   1.876   5.881  0.9005 -0.9330 -2.2030
 7537SOL     OW34069   2.688   2.831   2.075  0.4397 -0.0795  0.1215
 7537SOL    HW134070   2.626   2.798   2.010 -1.1422  1.8751  0.6520
 7537SOL    HW234071   2.687   2.760   2.139  1.5043  1.6292  2.0572
 7538SOL     OW34072   0.935   0.955   4.731  0.3779  0.3650  0.6596
 7538SOL    HW134073   1.024   0.933   4.757  0.3030 -0.7820 -0.0710
 7538SOL    HW234074   0.885   0.899   4.789  0.2801  1.0686  1.2555
 7539SOL     OW34075   3.402   1.626   8.777  0.1213  0.3534  0.0340
 7539SOL    HW134076   3.437   1.553   8.828  1.5699  0.7729 -0.3539
 7539SOL    HW234077   3.479   1.653   8.726  0.1834  0.2778  0.0887
 7540SOL     OW34078   3.043   1.811   4.529  0.4068  0.2524 -0.4304
 7540SOL    HW134079   3.032   1.720   4.500 -2.1639  0.9102 -1.4832
 7540SOL    HW234080   2.956   1.847   4.512  0.1261 -0.1330  0.2196
 7541SOL     OW34081   1.500   0.406   7.609  0.5747 -0.2719  0.0779
 7541SOL    HW134082   1.531   0.451   7.687 -0.3716  0.8802 -0.2070
 7541SOL    HW234083   1.413   0.382   7.642  1.1754  0.0745  1.8826
 7542SOL     OW34084   3.082   0.536   3.299  0.3523 -0.9319  0.0690
 7542SOL    HW134085   3.157   0.586   3.267 -0.8874 -0.0281 -1.4167
 7542SOL    HW234086   3.113   0.499   3.382  0.3163 -0.4607  0.2918
 7543SOL     OW34087   0.897   1.858   4.222 -0.2773 -0.0155  0.1041
 7543SOL    HW134088   0.931   1.927   4.278  1.6001 -0.5028 -0.4294
 7543SOL    HW234089   0.885   1.903   4.139 -1.2784  0.1832  0.3491
 7544SOL     OW34090   0.999   1.075   7.364  0.3994  0.4442  0.1775
 7544SOL    HW134091   1.056   1.028   7.425  3.2380 -0.0589 -2.8453
 7544SOL    HW234092   1.014   1.020   7.287 -1.6356 -0.6742  0.5716
 7545SOL     OW34093   4.233   2.632   0.851  0.0650 -0.4115  0.0902
 7545SOL    HW134094   4.146   2.593   0.843 -0.9799  1.9140  0.1483
 7545SOL    HW234095   4.218   2.726   0.859  1.3316 -0.1250 -0.9044
 7546SOL     OW34096   4.537   4.080   2.651 -0.2952  0.3344 -0.6912
 7546SOL    HW134097   4.608   4.134   2.614 -1.0994  0.3719 -2.2040
 7546SOL    HW234098   4.461   4.114   2.604 -1.5453 -2.0000 -0.3091
 7547SOL     OW34099   2.934   3.899   0.549  1.2009  0.2854 -0.3397
 7547SOL    HW134100   2.952   3.892   0.642  0.5691  1.1663 -0.1539
 7547SOL    HW234101   2.953   3.809   0.522  3.6293  0.7702 -0.2999
 7548SOL     OW34102   0.358   3.432   8.146  0.8556 -0.3776 -0.3090
 7548SOL    HW134103   0.367   3.431   8.241 -2.0300 -1.6113 -0.0443
 7548SOL    HW234104   0.289   3.367   8.130  0.7672 -0.6795  1.3660
 7549SOL     OW34105   2.641   3.261   7.898 -0.3650  0.0137  0.2709
 7549SOL    HW134106   2.653   3.167   7.912  0.6194 -0.0288 -0.9646
 7549SOL    HW234107   2.729   3.297   7.910 -0.9124 -0.0469  4.4448
 7550SOL     OW34108   4.482   3.365   6.864 -0.2486  0.4197 -0.1798
 7550SOL    HW134109   4.419   3.389   6.795 -1.9277 -1.4127  0.7138
 7550SOL    HW234110   4.440   3.399   6.943 -0.6423 -0.0697 -0.1737
 7551SOL     OW34111   4.625   4.251  14.487  0.0118 -0.8054 -0.9760
 7551SOL    HW134112   4.693   4.281  14.547 -1.7388  0.4106  0.3913
 7551SOL    HW234113   4.553   4.274  14.545  2.0585  1.6598  0.6191
 7552SOL     OW34114   0.101   1.213  15.409  0.2109 -0.5911 -0.2656
 7552SOL    HW134115   0.178   1.175  15.450  0.7295 -1.1202 -1.7319
 7552SOL    HW234116   0.106   1.306  15.429 -0.0831 -0.7098  0.3814
 7553SOL     OW34117   1.929   3.896  15.245 -0.1506 -0.1578 -0.2292
 7553SOL    HW134118   1.867   3.902  15.317 -0.5057 -1.0810 -0.4641
 7553SOL    HW234119   1.893   3.821  15.198 -1.8862  0.6452 -0.1612
 7554SOL     OW34120   1.718   3.044   3.785 -0.5266  0.3132  0.5537
 7554SOL    HW134121   1.634   3.039   3.831  0.5158 -1.5658  2.2786
 7554SOL    HW234122   1.775   3.073   3.856  1.3657  0.0321 -0.8648
 7555SOL     OW34123   1.736   4.312   9.829  0.4142 -0.8349 -0.0538
 7555SOL    HW134124   1.678   4.377   9.869  1.8221 -0.5321  1.5197
 7555SOL    HW234125   1.699   4.239   9.879 -0.4827 -2.4604 -3.0898
 7556SOL     OW34126   1.827   2.687  17.216  0.1242  0.0675 -0.0761
 7556SOL    HW134127   1.914   2.700  17.254  1.0620 -1.2975 -1.7565
 7556SOL    HW234128   1.801   2.619  17.278  1.4026  0.5625  1.0102
 7557SOL     OW34129   3.064   3.288   7.511  0.1737 -0.0857  0.4904
 7557SOL    HW134130   3.012   3.366   7.527  0.8886  0.7337 -1.1440
 7557SOL    HW234131   3.012   3.219   7.551  0.9169 -2.1190 -1.9863
 7558SOL     OW34132   2.075   3.863  13.816  0.1749 -0.2228 -0.1819
 7558SOL    HW134133   2.045   3.924  13.748 -0.2151 -0.2069  0.0057
 7558SOL    HW234134   1.994   3.842  13.862  0.6602  0.4048  0.9766
 7559SOL     OW34135   0.998   0.323   2.496 -0.0309  0.2615 -0.0110
 7559SOL    HW134136   1.064   0.256   2.484  0.2063  0.2739  1.2193
 7559SOL    HW234137   0.924   0.274   2.533  0.1884 -1.0402 -1.3233
 7560SOL     OW34138   0.709   1.424   6.460  0.2874 -0.3955 -0.6748
 7560SOL    HW134139   0.699   1.332   6.485 -0.5452  0.1563  1.0520
 7560SOL    HW234140   0.695   1.460   6.548 -2.4352  0.0079 -1.2583
 7561SOL     OW34141   4.015   4.292   6.804 -0.3651 -0.4264  0.0937
 7561SOL    HW134142   3.920   4.298   6.798 -0.2074 -0.4110 -2.1687
 7561SOL    HW234143   4.042   4.383   6.815 -1.4676  0.1795 -2.2733
 7562SOL     OW34144   2.707   1.511   5.167 -0.4704 -0.1823  0.7214
 7562SOL    HW134145   2.692   1.441   5.104 -0.1566  1.0437 -0.7410
 7562SOL    HW234146   2.627   1.509   5.220  0.4297 -2.2238  1.9695
 7563SOL     OW34147   1.426   0.201   8.850 -0.2446 -0.5220  0.0112
 7563SOL    HW134148   1.429   0.109   8.824 -0.2808 -0.3230 -0.7076
 7563SOL    HW234149   1.336   0.225   8.825 -0.3201 -1.5092 -0.6760
 7564SOL     OW34150   3.915   0.297   6.705 -0.0440 -0.4354  0.1676
 7564SOL    HW134151   3.915   0.209   6.741  0.3528 -0.2894  0.5252
 7564SOL    HW234152   4.008   0.296   6.684 -0.1232  0.5774 -0.2443
 7565SOL     OW34153   2.067   4.434   1.512  0.1069 -0.3060  0.6294
 7565SOL    HW134154   2.128   4.382   1.564  2.2440 -0.4673 -2.0215
 7565SOL    HW234155   1.984   4.416   1.555  1.3522  0.2390  3.2753
 7566SOL     OW34156   2.980   2.817   8.502  0.1407 -0.1781 -0.3133
 7566SOL    HW134157   2.897   2.771   8.517  1.0051 -0.9593  2.1200
 7566SOL    HW234158   2.953   2.900   8.464  2.1915  0.4286 -0.4507
 7567SOL     OW34159   2.827   0.458  13.172  0.6894 -0.1540  0.0341
 7567SOL    HW134160   2.756   0.467  13.109  0.4581  0.2515  0.3513
 7567SOL    HW234161   2.845   0.366  13.156 -0.3915 -0.2881 -0.4006
 7568SOL     OW34162   4.632   3.296   0.168  0.3985  0.3052 -0.0684
 7568SOL    HW134163   4.626   3.389   0.151 -1.8140  0.6378  2.5839
 7568SOL    HW234164   4.557   3.259   0.121 -0.9332  1.4944  1.1657
 7569SOL     OW34165   3.397   1.908  10.676 -0.7890 -0.5240 -0.1606
 7569SOL    HW134166   3.350   1.973  10.728 -0.1854  0.5355 -0.9478
 7569SOL    HW234167   3.434   1.848  10.742  0.3374  0.0034 -0.3051
 7570SOL     OW34168   3.884   0.626   1.643  0.4680  0.0708  0.5070
 7570SOL    HW134169   3.939   0.704   1.653  0.1561  0.3151  0.3108
 7570SOL    HW234170   3.803   0.663   1.609  0.1311 -1.3168 -0.1711
 7571SOL     OW34171   3.075   1.797   7.453  0.0586 -0.5875 -0.4244
 7571SOL    HW134172   3.000   1.842   7.493  0.6081 -0.5891  0.5876
 7571SOL    HW234173   3.029   1.728   7.404 -0.5025 -1.4875  1.3856
 7572SOL     OW34174   2.515   2.375   3.288  0.1317 -0.1972  0.7723
 7572SOL    HW134175   2.437   2.328   3.259  0.9667 -0.3524 -1.2293
 7572SOL    HW234176   2.518   2.452   3.231 -3.8683  0.7788  1.8766
 7573SOL     OW34177   0.049   0.739  12.885  0.1911  0.1063 -0.0584
 7573SOL    HW134178   0.076   0.766  12.797 -0.1573 -0.2073 -0.2613
 7573SOL    HW234179   4.680   0.753  12.867  0.0275 -0.8683  0.0128
 7574SOL     OW34180   4.315   1.439   2.798  0.0701 -0.4715  0.1911
 7574SOL    HW134181   4.247   1.433   2.865 -1.0715 -3.1744 -1.2227
 7574SOL    HW234182   4.307   1.524   2.756  1.0407  0.0681  1.0878
 7575SOL     OW34183   4.063   0.512   8.403  0.1030 -0.3374  0.4099
 7575SOL    HW134184   4.122   0.448   8.444  0.0355  1.5542  3.4421
 7575SOL    HW234185   4.073   0.584   8.465 -2.9850 -0.3855  0.9935
 7576SOL     OW34186   2.006   0.288   8.622 -0.3159  0.1423  0.0695
 7576SOL    HW134187   1.974   0.346   8.553  0.2218 -0.2208 -0.4796
 7576SOL    HW234188   1.935   0.300   8.686 -0.6987 -2.9777  0.2345
 7577SOL     OW34189   0.002   4.170   7.383 -0.3946  0.2380  0.3447
 7577SOL    HW134190   0.058   4.244   7.408 -0.3341  0.9285 -1.7675
 7577SOL    HW234191   0.051   4.088   7.384  0.1138  0.5416  0.5545
 7578SOL     OW34192   3.467   2.972   0.317 -0.8596 -0.3655  1.1450
 7578SOL    HW134193   3.411   2.971   0.394 -0.3058  2.0195  1.5728
 7578SOL    HW234194   3.539   2.919   0.350  0.1707 -0.3784 -1.0700
 7579SOL     OW34195   3.908   1.540  12.233 -0.1661  0.4708 -0.5044
 7579SOL    HW134196   3.858   1.607  12.186  1.1718  2.0113  0.2651
 7579SOL    HW234197   3.881   1.464  12.181  1.0061 -0.5364  0.3816
 7580SOL     OW34198   2.826   4.312   0.233  0.0157  0.1997 -0.1307
 7580SOL    HW134199   2.778   4.297   0.315  2.6933 -0.7143  1.2576
 7580SOL    HW234200   2.904   4.349   0.273 -0.2343 -0.3945  0.9257
 7581SOL     OW34201   0.178   1.038   6.575 -0.0952  0.1121 -0.6693
 7581SOL    HW134202   0.166   1.062   6.483 -1.9158  1.2585 -0.1380
 7581SOL    HW234203   0.132   0.954   6.575  0.5012 -0.2038  0.9025
 7582SOL     OW34204   4.470   4.182   7.440 -0.0632  0.8606 -0.0506
 7582SOL    HW134205   4.555   4.173   7.397 -0.1559 -1.1282  0.1995
 7582SOL    HW234206   4.497   4.211   7.528 -0.5527 -0.8481  0.6707
 7583SOL     OW34207   1.224   3.876   5.393  0.7916  0.9339 -0.0073
 7583SOL    HW134208   1.247   3.863   5.485 -0.1761 -2.9281 -0.3262
 7583SOL    HW234209   1.135   3.910   5.400  0.4232  0.1564 -0.9822
 7584SOL     OW34210   1.410   4.027   2.149  0.1917 -0.2266 -0.1157
 7584SOL    HW134211   1.398   4.113   2.189 -1.9650 -0.9638  0.8769
 7584SOL    HW234212   1.463   4.040   2.070  0.1887  1.1475  0.1150
 7585SOL     OW34213   0.798   3.314   6.660 -0.1074 -0.3113  0.3704
 7585SOL    HW134214   0.791   3.348   6.749 -0.3534 -1.6667  0.8713
 7585SOL    HW234215   0.862   3.379   6.633 -2.3452  1.6169 -0.2820
 7586SOL     OW34216   4.651   3.088   0.691 -0.1263 -0.0513  0.2632
 7586SOL    HW134217   4.555   3.091   0.686 -0.0361  0.5410 -1.0814
 7586SOL    HW234218   4.673   3.007   0.736 -2.2103  0.0901  1.5580
 7587SOL     OW34219   1.573   0.296   3.114  0.2103 -0.3496  0.3753
 7587SOL    HW134220   1.488   0.254   3.128 -0.6997  1.1251 -0.8138
 7587SOL    HW234221   1.553   0.362   3.048 -2.0651 -0.7079  0.7030
 7588SOL     OW34222   4.424   2.956   6.401 -0.1348 -0.5544 -0.3572
 7588SOL    HW134223   4.342   2.992   6.434  1.4627  1.2047  1.7309
 7588SOL    HW234224   4.440   2.901   6.478  0.4199  1.5475  1.0415
 7589SOL     OW34225   3.386   0.626   3.644 -0.5428  0.1021 -0.4151
 7589SOL    HW134226   3.411   0.575   3.721 -2.7269 -0.4651 -0.0984
 7589SOL    HW234227   3.434   0.572   3.582 -0.0931 -0.4481  0.4105
 7590SOL     OW34228   0.632   3.665   2.095  0.5320 -0.4387 -0.4597
 7590SOL    HW134229   0.552   3.617   2.074  1.3476 -1.8166 -0.4076
 7590SOL    HW234230   0.599   3.735   2.152  0.2051  0.0148 -1.2089
 7591SOL     OW34231   1.869   0.009  16.521  0.4856 -0.5231  0.4573
 7591SOL    HW134232   1.883   4.722  16.427  0.3834 -0.7579  0.4697
 7591SOL    HW234233   1.786   0.056  16.513 -0.5172 -2.2281  0.9359
 7592SOL     OW34234   0.552   2.534   4.638  0.2446  0.4792  0.5853
 7592SOL    HW134235   0.487   2.600   4.659  0.1579  0.2943  0.8998
 7592SOL    HW234236   0.559   2.483   4.719  0.6531 -0.8908 -0.3089
 7593SOL     OW34237   0.567   1.904  12.964 -0.1946 -0.5571 -0.3419
 7593SOL    HW134238   0.601   1.911  12.875 -0.7674 -1.5297 -0.6354
 7593SOL    HW234239   0.502   1.974  12.962  2.3447  1.7592 -0.5992
 7594SOL     OW34240   2.289   1.737  13.524  0.6485 -0.1943 -0.1269
 7594SOL    HW134241   2.318   1.827  13.510 -0.7724  0.4348  0.9481
 7594SOL    HW234242   2.194   1.750  13.518  0.8371  1.0012 -0.5555
 7595SOL     OW34243   1.468   0.445   6.435 -0.3043 -0.2279 -0.3788
 7595SOL    HW134244   1.416   0.375   6.475  2.5423 -2.3927 -0.4799
 7595SOL    HW234245   1.523   0.465   6.511  0.8539 -0.6356 -1.1115
 7596SOL     OW34246   1.522   0.528  12.530  0.2192 -0.5280 -0.2729
 7596SOL    HW134247   1.543   0.583  12.454 -3.6925 -0.2515 -1.1652
 7596SOL    HW234248   1.534   0.447  12.481 -3.1788 -1.5691  0.5919
 7597SOL     OW34249   2.761   3.241  13.029 -0.0045  0.7337 -0.0475
 7597SOL    HW134250   2.709   3.295  12.969  0.8643  1.7869  0.1514
 7597SOL    HW234251   2.828   3.210  12.968 -0.1026  3.1697 -1.4110
 7598SOL     OW34252   3.997   3.836   9.374 -0.6784  0.1227 -0.3413
 7598SOL    HW134253   3.976   3.832   9.281 -2.7955  0.0331  0.1364
 7598SOL    HW234254   4.026   3.927   9.369  2.4131 -0.8887 -0.8142
 7599SOL     OW34255   0.616   1.929   2.328  0.2458 -0.1214  0.3960
 7599SOL    HW134256   0.562   1.891   2.259  0.4545  1.8956 -0.8881
 7599SOL    HW234257   0.701   1.884   2.322  0.0993 -0.4181  0.5283
 7600SOL     OW34258   3.778   2.508   3.199 -0.5090  0.8936 -0.2517
 7600SOL    HW134259   3.696   2.488   3.243  0.4987 -1.3511  0.5921
 7600SOL    HW234260   3.770   2.445   3.127 -0.9752  1.8362 -1.0246
 7601SOL     OW34261   0.888   1.233   0.083 -0.4591  0.0342 -0.1479
 7601SOL    HW134262   0.834   1.185   0.146 -1.4232  1.1317 -0.1372
 7601SOL    HW234263   0.974   1.240   0.125 -0.0399  0.4596 -1.0899
 7602SOL     OW34264   4.523   1.966   0.439  0.7306  0.0443  0.3579
 7602SOL    HW134265   4.611   1.980   0.403  0.4516  3.2583  0.9427
 7602SOL    HW234266   4.483   2.044   0.400  2.9241  0.3396 -1.3144
 7603SOL     OW34267   1.557   2.168  17.613 -0.1215  0.7263  0.1763
 7603SOL    HW134268   1.628   2.110  17.584 -2.5878 -0.8125 -2.8825
 7603SOL    HW234269   1.517   2.120  17.686  0.9916  1.0719  1.0041
 7604SOL     OW34270   1.831   1.972   9.586  0.6798  0.7613  0.1903
 7604SOL    HW134271   1.799   1.892   9.544 -3.0824  1.3406  1.9466
 7604SOL    HW234272   1.757   2.032   9.576 -0.6044 -0.8669 -0.1679
 7605SOL     OW34273   1.667   2.934  17.527  0.4420  0.0460  0.4273
 7605SOL    HW134274   1.739   2.905  17.472  1.4696  0.7959  1.3704
 7605SOL    HW234275   1.611   2.856  17.527  2.0309 -1.0953  0.3393
 7606SOL     OW34276   2.921   4.222   2.736  0.4508 -0.3288 -0.5939
 7606SOL    HW134277   2.865   4.202   2.812 -1.8883  1.1501 -1.9309
 7606SOL    HW234278   3.005   4.234   2.781  0.2334  0.6116 -0.4409
 7607SOL     OW34279   3.022   1.975   6.513  0.2282 -0.2944  0.6143
 7607SOL    HW134280   2.999   1.893   6.469 -0.4996  0.2246  0.0251
 7607SOL    HW234281   2.945   2.028   6.491 -0.4971 -1.4650  0.3201
 7608SOL     OW34282   0.093   3.848   2.368 -0.2004 -0.3479 -0.2643
 7608SOL    HW134283   0.102   3.875   2.460 -2.1776 -1.3084  0.2100
 7608SOL    HW234284   0.003   3.871   2.345 -0.9932 -0.6454  2.5367
 7609SOL     OW34285   0.914   2.557   8.814 -0.1673 -0.7627  0.1060
 7609SOL    HW134286   0.855   2.509   8.873 -0.1885  0.8281  1.3731
 7609SOL    HW234287   0.903   2.505   8.735  1.0296  3.5894 -2.9333
 7610SOL     OW34288   0.435   2.397   3.757 -0.0280 -0.1417 -0.0070
 7610SOL    HW134289   0.451   2.361   3.845 -0.4139  0.1508  0.1832
 7610SOL    HW234290   0.352   2.442   3.770 -0.5232 -1.2106  0.5426
 7611SOL     OW34291   1.713   3.058   9.328  1.0095 -0.0945  0.1457
 7611SOL    HW134292   1.665   3.133   9.293  2.3105  1.5009  1.7648
 7611SOL    HW234293   1.789   3.105   9.363  0.9476 -1.0278  1.5199
 7612SOL     OW34294   3.209   3.150   7.052 -0.3345 -0.0289 -0.1707
 7612SOL    HW134295   3.147   3.161   6.980  2.3396  0.6925 -2.3628
 7612SOL    HW234296   3.282   3.102   7.012 -1.4577 -0.1116 -2.1582
 7613SOL     OW34297   0.636   3.445   4.909 -0.0718 -0.3949 -0.0677
 7613SOL    HW134298   0.663   3.405   4.826 -2.1994 -2.0658  0.0554
 7613SOL    HW234299   0.545   3.473   4.894 -0.1375 -1.4552 -1.6570
 7614SOL     OW34300   2.813   4.654   8.437  0.3014 -0.5673 -0.3247
 7614SOL    HW134301   2.853   0.012   8.405  2.6389 -0.6404  2.4001
 7614SOL    HW234302   2.894   4.605   8.449  0.3068 -0.1558  1.3562
 7615SOL     OW34303   0.951   2.421  12.293 -0.5207 -0.5777  0.5710
 7615SOL    HW134304   1.045   2.443  12.291 -0.3814 -1.4100 -1.7535
 7615SOL    HW234305   0.911   2.507  12.305  0.7197  0.0131  0.5610
 7616SOL     OW34306   2.474   4.144   4.784  0.2530  0.0892 -0.5235
 7616SOL    HW134307   2.396   4.200   4.787  0.3506  0.1623  0.5460
 7616SOL    HW234308   2.456   4.080   4.853 -0.4232  0.9710  0.1233
 7617SOL     OW34309   0.427   4.255  14.529  0.2832 -0.3192 -0.3162
 7617SOL    HW134310   0.509   4.289  14.492  1.4199 -0.5971  1.9677
 7617SOL    HW234311   0.453   4.165  14.550 -0.4503  0.1744  2.6081
 7618SOL     OW34312   1.544   4.447   4.360  0.3718 -0.4166  0.0202
 7618SOL    HW134313   1.526   4.363   4.404  1.2420 -0.9301 -0.6119
 7618SOL    HW234314   1.508   4.507   4.425 -1.8255 -2.9438  1.1332
 7619SOL     OW34315   1.559   3.723  13.762  0.1261 -0.1805 -0.5643
 7619SOL    HW134316   1.522   3.653  13.816 -0.7059  1.4637  0.9974
 7619SOL    HW234317   1.636   3.672  13.736  0.5098  0.0637  0.0973
 7620SOL     OW34318   0.343   0.896  13.575 -0.4174 -0.3705  0.0660
 7620SOL    HW134319   0.305   0.941  13.651 -0.0887  2.8785 -1.6895
 7620SOL    HW234320   0.395   0.961  13.528  0.1232 -0.1788  0.9228
 7621SOL     OW34321   3.306   1.078   2.277 -0.6331  0.2372  0.8806
 7621SOL    HW134322   3.272   1.154   2.228 -0.0028  1.8663  2.9862
 7621SOL    HW234323   3.237   1.016   2.257 -0.7261  0.8547 -0.7273
 7622SOL     OW34324   1.075   2.135  16.369  0.1950  0.0875  0.0635
 7622SOL    HW134325   1.056   2.229  16.371 -1.7722 -0.3128  0.7074
 7622SOL    HW234326   0.984   2.109  16.383  0.4469 -0.4104  0.7471
 7623SOL     OW34327   1.938   2.725  13.297  0.4833 -0.4331  0.1652
 7623SOL    HW134328   1.868   2.685  13.348  1.0763  0.2907  1.5581
 7623SOL    HW234329   1.931   2.663  13.226  0.9814 -0.8911  0.5171
 7624SOL     OW34330   3.164   3.626   4.998  0.0084  0.2819  0.0343
 7624SOL    HW134331   3.125   3.550   5.042 -1.7420  0.0328 -1.9151
 7624SOL    HW234332   3.083   3.652   4.954  0.2753  4.5730  2.0435
 7625SOL     OW34333   2.411   2.682  14.589  0.0800 -0.0576  0.6073
 7625SOL    HW134334   2.416   2.587  14.598 -0.6056  0.0666  2.3290
 7625SOL    HW234335   2.388   2.677  14.496 -1.7521  2.7269  0.8831
 7626SOL     OW34336   2.022   2.988  10.840 -0.3762  0.4493 -0.6445
 7626SOL    HW134337   2.008   2.955  10.751 -2.5471  3.0219 -1.2372
 7626SOL    HW234338   1.962   3.063  10.838  0.3318  1.0250 -0.2703
 7627SOL     OW34339   2.963   2.659   4.262 -1.1222 -0.1345 -0.5457
 7627SOL    HW134340   2.959   2.719   4.187 -2.8352  0.1200 -0.2394
 7627SOL    HW234341   3.031   2.687   4.324 -0.8329 -0.7301 -0.5902
 7628SOL     OW34342   1.277   4.179   3.058 -0.0710  0.2035 -0.1591
 7628SOL    HW134343   1.210   4.228   3.010  0.6453 -1.4997 -2.9184
 7628SOL    HW234344   1.342   4.244   3.085  1.2706 -1.0877 -0.2368
 7629SOL     OW34345   3.790   1.191   2.817  0.2184  0.6614 -0.5620
 7629SOL    HW134346   3.766   1.099   2.823  1.5075  0.4174  0.6573
 7629SOL    HW234347   3.865   1.187   2.758  0.6109 -4.0599  0.2797
 7630SOL     OW34348   0.244   0.221  12.856 -0.0481  0.0457  0.2064
 7630SOL    HW134349   0.210   0.302  12.817  0.4807 -0.1318 -0.6300
 7630SOL    HW234350   0.195   0.165  12.795  2.4804 -0.6395 -1.1927
 7631SOL     OW34351   1.045   4.419   0.608  0.0719 -0.4781  0.3531
 7631SOL    HW134352   1.021   4.341   0.558 -0.7165  1.1787 -1.8224
 7631SOL    HW234353   1.128   4.395   0.649  1.4928  0.8961 -1.6940
 7632SOL     OW34354   1.495   0.310   4.166  0.7388  0.1646 -0.3300
 7632SOL    HW134355   1.545   0.281   4.089 -0.5403  0.4305 -1.2475
 7632SOL    HW234356   1.405   0.299   4.135 -0.2125 -2.2627  3.4005
 7633SOL     OW34357   1.808   2.950  17.284  0.2037  0.0751 -0.0311
 7633SOL    HW134358   1.749   2.974  17.213  0.0739 -0.0392  0.0372
 7633SOL    HW234359   1.816   2.858  17.258 -1.5272  0.2838 -1.2701
 7634SOL     OW34360   4.113   0.533   7.482  0.2098  0.2146  0.0554
 7634SOL    HW134361   4.029   0.502   7.516 -0.1185  1.6317  0.5307
 7634SOL    HW234362   4.170   0.553   7.556 -0.4358  1.1056  0.3132
 7635SOL     OW34363   2.199   1.965   9.025 -0.0664  0.3881 -0.3298
 7635SOL    HW134364   2.125   1.932   9.076 -0.6988  1.1853 -0.7266
 7635SOL    HW234365   2.281   1.935   9.064 -1.0408 -2.0090 -0.1375
 7636SOL     OW34366   4.444   2.019   9.240  0.2800  0.2641  0.1876
 7636SOL    HW134367   4.476   1.930   9.250  1.8347  0.8341  0.3329
 7636SOL    HW234368   4.385   2.021   9.315 -2.9658 -1.2362 -2.2703
 7637SOL     OW34369   2.375   2.059   8.107  0.1319  0.1459 -0.4305
 7637SOL    HW134370   2.333   1.980   8.074 -1.1923  0.8174 -0.3443
 7637SOL    HW234371   2.388   2.037   8.200 -0.0314  2.0112  0.0364
 7638SOL     OW34372   1.508   4.327   4.113  0.0583 -0.0880 -0.4063
 7638SOL    HW134373   1.493   4.377   4.193  1.0499  0.3508 -0.4942
 7638SOL    HW234374   1.510   4.243   4.158  0.8817  0.2378  0.1776
 7639SOL     OW34375   1.853   1.184  13.510  0.0437  0.1326 -0.2711
 7639SOL    HW134376   1.831   1.115  13.448 -0.2476 -0.0426  0.0317
 7639SOL    HW234377   1.948   1.174  13.505 -0.0977 -1.4241  0.2436
 7640SOL     OW34378   4.292   2.032   5.440 -0.1518 -0.4668 -0.2638
 7640SOL    HW134379   4.305   1.938   5.429  3.8590 -0.2439  2.3086
 7640SOL    HW234380   4.270   2.055   5.350  0.1848  0.4466 -0.1132
 7641SOL     OW34381   0.292   0.102  15.909 -0.0193 -0.7321  0.6527
 7641SOL    HW134382   0.310   0.176  15.850 -0.4768 -1.9245 -0.9997
 7641SOL    HW234383   0.197   0.099  15.906 -0.0931  1.8780 -0.1385
 7642SOL     OW34384   1.501   2.996   6.727  0.1906  0.0536 -0.2768
 7642SOL    HW134385   1.585   2.952   6.716 -0.6743 -1.8276  0.6755
 7642SOL    HW234386   1.481   2.960   6.814  0.9046  0.4035  0.0318
 7643SOL     OW34387   4.577   1.468   3.806  0.6659 -0.1903  0.1433
 7643SOL    HW134388   4.657   1.444   3.854  1.8188 -1.0541 -2.2075
 7643SOL    HW234389   4.594   1.436   3.717  1.1376  0.7726 -0.1131
 7644SOL     OW34390   2.387   0.351   9.203  0.7447 -0.2659  0.1065
 7644SOL    HW134391   2.419   0.439   9.183 -1.3796  0.7839  1.3802
 7644SOL    HW234392   2.292   0.363   9.205  0.7926  0.1124 -0.0347
 7645SOL     OW34393   0.626   1.274   2.178  0.6200 -0.9535  0.2280
 7645SOL    HW134394   0.664   1.187   2.191  0.5220 -1.3379 -2.0847
 7645SOL    HW234395   0.682   1.297   2.104 -2.0981 -0.7671 -1.7380
 7646SOL     OW34396   0.882   0.425   1.916  0.3321  0.3524 -0.5420
 7646SOL    HW134397   0.820   0.441   1.845 -0.0525  1.0978 -0.0435
 7646SOL    HW234398   0.950   0.480   1.877  0.9154 -0.8488 -1.1974
 7647SOL     OW34399   4.056   3.140   8.194  0.7011 -0.3851 -0.0413
 7647SOL    HW134400   4.039   3.110   8.284  2.3993  0.2886  0.5026
 7647SOL    HW234401   3.970   3.140   8.152  1.5514 -0.2812 -1.7931
 7648SOL     OW34402   3.264   4.649   5.692 -0.0420 -0.0954  0.2065
 7648SOL    HW134403   3.251   4.712   5.621  1.5805  1.9187  1.6824
 7648SOL    HW234404   3.198   4.583   5.676 -0.2697  0.2333 -0.2017
 7649SOL     OW34405   3.042   3.711   1.531  0.1695 -0.1617  0.4920
 7649SOL    HW134406   3.122   3.658   1.529  0.4554  0.2993 -0.3392
 7649SOL    HW234407   3.066   3.782   1.472 -2.3525  0.7303  0.5553
 7650SOL     OW34408   2.325   2.477  15.596 -0.1207 -0.3038  0.3369
 7650SOL    HW134409   2.240   2.484  15.639 -0.6035 -2.3543 -0.2743
 7650SOL    HW234410   2.341   2.391  15.636  3.0906 -0.3078 -0.9861
 7651SOL     OW34411   0.445   0.193   3.798 -0.2317  0.7244 -0.3264
 7651SOL    HW134412   0.477   0.241   3.875 -3.2384 -0.5336  1.6908
 7651SOL    HW234413   0.503   0.118   3.786 -1.1351  0.4868 -3.1536
 7652SOL     OW34414   2.861   3.374  10.007 -0.1124  0.6514 -0.7190
 7652SOL    HW134415   2.917   3.302   9.979  1.3693  2.9892 -3.7131
 7652SOL    HW234416   2.839   3.342  10.095 -0.5455 -0.5941 -1.2838
 7653SOL     OW34417   1.380   1.009  15.719  0.1317 -0.0291 -0.0790
 7653SOL    HW134418   1.435   1.014  15.798  2.6645 -0.1428 -1.8170
 7653SOL    HW234419   1.444   0.969  15.659  1.8407  0.9174  1.1045
 7654SOL     OW34420   0.627   1.256   2.505  0.4999 -0.0705  0.6298
 7654SOL    HW134421   0.582   1.268   2.422 -0.0505 -0.4282  0.8775
 7654SOL    HW234422   0.556   1.260   2.569  0.2344  0.1302  0.3205
 7655SOL     OW34423   3.506   2.950  15.690 -0.3338  0.2036 -0.2832
 7655SOL    HW134424   3.421   2.905  15.687  0.6680 -1.6835 -0.4046
 7655SOL    HW234425   3.537   2.943  15.600 -0.1509  1.0037 -0.2823
 7656SOL     OW34426   2.603   4.598  13.719 -0.1616 -0.1457 -0.0817
 7656SOL    HW134427   2.627   4.551  13.799 -0.3163  1.8365  1.1439
 7656SOL    HW234428   2.632   4.530  13.659 -1.2564 -0.3497 -0.3802
 7657SOL     OW34429   3.445   0.037  12.544 -0.2541  0.0566  0.1938
 7657SOL    HW134430   3.521   4.703  12.532  0.0001  0.1781  1.2457
 7657SOL    HW234431   3.375   4.697  12.562  0.0640 -0.5159 -0.5827
 7658SOL     OW34432   2.251   0.711  14.321  0.0788 -0.3011 -0.1716
 7658SOL    HW134433   2.324   0.726  14.262  1.0319 -2.5971  0.4347
 7658SOL    HW234434   2.248   0.617  14.309 -2.6744 -0.2413 -0.1139
 7659SOL     OW34435   1.100   1.408   6.014  0.1295 -0.3782  0.6063
 7659SOL    HW134436   1.167   1.340   6.025  0.4663  0.1548  1.7915
 7659SOL    HW234437   1.059   1.410   6.100 -0.6093  0.9202  0.2155
 7660SOL     OW34438   0.783   2.682  15.351 -0.2656  0.0811 -0.0994
 7660SOL    HW134439   0.848   2.751  15.366 -0.2929 -0.0366  0.5729
 7660SOL    HW234440   0.803   2.658  15.261  0.0904 -0.3551  0.0947
 7661SOL     OW34441   0.358   0.793   5.648  0.0577 -0.3296  0.0328
 7661SOL    HW134442   0.278   0.758   5.608 -0.3161 -0.7940  1.2129
 7661SOL    HW234443   0.377   0.871   5.595  3.2670 -1.2513 -0.1501
 7662SOL     OW34444   3.646   0.367   3.626 -0.0265 -0.3780 -0.0617
 7662SOL    HW134445   3.581   0.359   3.697  0.5012  0.2797  0.4891
 7662SOL    HW234446   3.712   0.303   3.654  0.6542 -0.2979 -1.5105
 7663SOL     OW34447   4.459   2.836   6.854 -0.4100 -0.1748 -0.2442
 7663SOL    HW134448   4.484   2.807   6.766  2.0777 -0.1164  0.4601
 7663SOL    HW234449   4.476   2.930   6.853  2.0619 -0.6323  0.0839
 7664SOL     OW34450   4.053   1.600  16.368  0.1274 -0.2195 -0.5719
 7664SOL    HW134451   4.080   1.531  16.428  1.2394 -0.5670 -1.4567
 7664SOL    HW234452   4.021   1.562  16.286  1.8440  0.3688 -1.5100
 7665SOL     OW34453   0.044   1.789   0.618  0.5138 -0.0388  0.0202
 7665SOL    HW134454   0.063   1.880   0.640 -1.5336  0.4350 -0.1520
 7665SOL    HW234455   4.675   1.786   0.642  0.6778 -2.1980  0.3426
 7666SOL     OW34456   1.406   3.756   7.568  0.2205 -0.3090  0.0650
 7666SOL    HW134457   1.405   3.710   7.652 -0.8463  0.8542  0.6924
 7666SOL    HW234458   1.357   3.697   7.511 -1.8011  1.3443  0.1197
 7667SOL     OW34459   2.486   0.825   7.271  0.6555 -0.4255 -0.2628
 7667SOL    HW134460   2.578   0.812   7.296  0.3631  3.0141  2.6055
 7667SOL    HW234461   2.464   0.741   7.231  2.5246 -0.4315 -1.3103
 7668SOL     OW34462   0.804   4.109  13.216 -0.5485 -0.1666  0.5602
 7668SOL    HW134463   0.768   4.186  13.171 -1.8074 -1.3561 -0.4459
 7668SOL    HW234464   0.735   4.090  13.279 -1.9595  1.5397 -0.4422
 7669SOL     OW34465   3.314   3.542   3.938  0.2677 -0.4258 -0.0091
 7669SOL    HW134466   3.255   3.599   3.889  0.4604 -0.6534 -0.5139
 7669SOL    HW234467   3.271   3.457   3.934 -1.4989  0.4226  1.3362
 7670SOL     OW34468   0.821   3.847   4.270  0.2805  0.1926  0.4521
 7670SOL    HW134469   0.863   3.851   4.184  2.2236 -1.1691  1.3237
 7670SOL    HW234470   0.891   3.854   4.334  0.9771  0.2172 -0.3129
 7671SOL     OW34471   2.511   2.010  14.146 -0.4656 -0.1806 -0.6447
 7671SOL    HW134472   2.543   2.031  14.234 -1.9770  1.1980 -0.4049
 7671SOL    HW234473   2.586   2.047  14.099  0.4208  0.8540  1.5443
 7672SOL     OW34474   4.086   1.223   8.378  0.3491 -0.2714 -0.2202
 7672SOL    HW134475   4.151   1.217   8.308  0.5880  0.7595 -0.0981
 7672SOL    HW234476   4.050   1.135   8.374 -0.1873  0.0172 -1.7922
 7673SOL     OW34477   1.225   1.072   9.597  0.1528  0.1001  0.2306
 7673SOL    HW134478   1.247   1.135   9.528  0.8410  0.8955  1.1736
 7673SOL    HW234479   1.313   1.035   9.602 -1.2805 -3.1937  1.1315
 7674SOL     OW34480   2.044   2.538  14.111  0.2789 -0.5272  0.2337
 7674SOL    HW134481   2.079   2.584  14.035 -0.9990 -1.0353 -0.6460
 7674SOL    HW234482   2.073   2.448  14.094  1.2304 -0.7522  3.0261
 7675SOL     OW34483   1.813   0.325   4.046 -0.1447 -0.9647  0.6452
 7675SOL    HW134484   1.802   0.315   3.952 -0.1621  0.3343  0.5128
 7675SOL    HW234485   1.907   0.312   4.054  0.2366  1.0319 -0.5977
 7676SOL     OW34486   2.563   2.686   6.668 -0.6207  0.3242 -0.3221
 7676SOL    HW134487   2.542   2.615   6.729 -0.3635 -0.9366 -1.6835
 7676SOL    HW234488   2.495   2.752   6.677 -1.4052 -0.4795 -0.3700
 7677SOL     OW34489   1.804   1.456   6.088 -0.3790  0.4691  0.0595
 7677SOL    HW134490   1.739   1.386   6.090  0.9325 -0.7623 -0.2272
 7677SOL    HW234491   1.757   1.528   6.045 -1.1902 -1.1411 -1.7310
 7678SOL     OW34492   4.183   0.588   4.053 -0.1865  0.3992  0.1911
 7678SOL    HW134493   4.169   0.502   4.014 -1.1675  0.6454 -0.0117
 7678SOL    HW234494   4.237   0.569   4.130 -0.8367  2.5019  1.1747
 7679SOL     OW34495   1.814   2.629  17.570  0.2728  0.2743  0.1258
 7679SOL    HW134496   1.740   2.602  17.626  0.6484 -1.2697 -0.1521
 7679SOL    HW234497   1.789   2.593  17.486  0.2076 -0.8042  0.6079
 7680SOL     OW34498   0.474   3.334   3.307  0.1247 -0.1803 -0.5677
 7680SOL    HW134499   0.406   3.282   3.265  1.5159 -1.8358 -0.7760
 7680SOL    HW234500   0.551   3.322   3.251 -0.7573  1.1173 -2.0457
 7681SOL     OW34501   1.211   4.508   9.553  0.4192 -0.1248 -0.2440
 7681SOL    HW134502   1.186   4.577   9.492 -0.1268 -0.1022  0.0081
 7681SOL    HW234503   1.303   4.515   9.527  0.5025  1.4904  0.4896
 7682SOL     OW34504   1.770   1.276   5.528  0.4946 -0.0318  0.2211
 7682SOL    HW134505   1.790   1.347   5.588  1.5187  0.1884 -0.3747
 7682SOL    HW234506   1.743   1.211   5.592  1.5956 -0.7399 -0.0294
 7683SOL     OW34507   0.059   1.961   2.039 -0.2912  0.5361  0.1678
 7683SOL    HW134508   0.073   1.982   1.947 -0.3439  0.5694  0.1673
 7683SOL    HW234509   4.719   2.029   2.063  0.4003  1.6501 -1.2094
 7684SOL     OW34510   0.450   0.582   2.211  0.1365  0.1155  0.0366
 7684SOL    HW134511   0.520   0.523   2.185  1.3425  0.3325  2.8094
 7684SOL    HW234512   0.468   0.648   2.144  0.3636  1.6592  1.5956
 7685SOL     OW34513   1.710   3.898   3.591  0.3914  0.6890 -0.6010
 7685SOL    HW134514   1.657   3.924   3.666  1.7445  0.0568  0.5654
 7685SOL    HW234515   1.778   3.838   3.621  1.1844 -0.0042 -3.7168
 7686SOL     OW34516   1.867   1.463  13.513  0.0089 -0.2246 -0.0176
 7686SOL    HW134517   1.943   1.518  13.532  0.9358 -1.7781  0.8155
 7686SOL    HW234518   1.900   1.434  13.428 -1.1041 -1.1800 -0.1262
 7687SOL     OW34519   1.537   0.621   6.009 -0.3465 -0.2228  0.3317
 7687SOL    HW134520   1.515   0.541   5.962  2.3274 -0.1630 -1.0327
 7687SOL    HW234521   1.447   0.653   6.018  1.0687  3.2738  2.2509
 7688SOL     OW34522   3.576   3.947   6.012  0.3164  0.0396 -0.0110
 7688SOL    HW134523   3.671   3.954   6.001  0.2377  0.0099 -0.7173
 7688SOL    HW234524   3.552   3.878   5.951 -0.7689  0.5572 -0.1790
 7689SOL     OW34525   2.672   2.820   4.683  0.1417  0.8641 -0.3137
 7689SOL    HW134526   2.725   2.862   4.752  0.5036  1.6143 -1.0450
 7689SOL    HW234527   2.716   2.847   4.602  1.4538  2.8506  1.0512
 7690SOL     OW34528   1.080   3.588   5.489 -0.0532 -0.3472 -0.5838
 7690SOL    HW134529   1.054   3.554   5.404  0.9257  1.0079 -1.4126
 7690SOL    HW234530   1.155   3.530   5.502 -1.0308 -1.1776  1.4805
 7691SOL     OW34531   3.703   1.758   6.619 -0.1641  0.1633  0.1884
 7691SOL    HW134532   3.609   1.747   6.632 -0.2455  1.2900  0.5477
 7691SOL    HW234533   3.715   1.827   6.685  1.2845  0.1163 -0.0230
 7692SOL     OW34534   1.940   4.516   5.256 -0.7722  0.2892 -0.7339
 7692SOL    HW134535   1.918   4.552   5.342  1.4494 -0.6311  0.2146
 7692SOL    HW234536   2.006   4.449   5.273 -0.5634  0.3522 -1.2915
 7693SOL     OW34537   2.961   3.333   5.373 -0.3048  0.0003  0.5636
 7693SOL    HW134538   2.963   3.405   5.435  1.0990 -0.8618  1.5075
 7693SOL    HW234539   2.987   3.256   5.424 -1.4309 -0.7498  0.0276
 7694SOL     OW34540   2.900   3.404   6.042 -0.0795 -0.2521  0.6742
 7694SOL    HW134541   2.985   3.361   6.034 -0.4615 -1.2020  1.7700
 7694SOL    HW234542   2.866   3.345   6.109 -1.1931 -0.3351  0.0474
 7695SOL     OW34543   1.226   3.312  17.604 -0.5717  0.0337 -0.2098
 7695SOL    HW134544   1.298   3.315  17.540  0.2531 -0.3531  0.6969
 7695SOL    HW234545   1.150   3.284  17.553 -0.4411 -2.3334  0.9197
 7696SOL     OW34546   0.247   1.898   1.586  0.2075 -0.1254  0.6723
 7696SOL    HW134547   0.263   1.842   1.662  0.8360 -0.7574  0.0786
 7696SOL    HW234548   0.333   1.941   1.587  0.1851 -0.1415  2.9809
 7697SOL     OW34549   4.407   4.573   5.558 -0.5519  0.3397 -0.2479
 7697SOL    HW134550   4.314   4.562   5.579  0.2378 -3.7505  1.1791
 7697SOL    HW234551   4.413   4.668   5.551 -0.9590  0.4420  0.7139
 7698SOL     OW34552   1.057   0.300   6.501 -0.5307 -0.4985  0.0613
 7698SOL    HW134553   1.049   0.326   6.593  0.0964  0.1941 -0.0761
 7698SOL    HW234554   1.007   0.372   6.462 -1.2273 -0.0006  1.8719
 7699SOL     OW34555   4.214   4.380   2.390 -0.2227  0.4025 -0.0694
 7699SOL    HW134556   4.123   4.397   2.413 -0.1357  1.0564 -0.2305
 7699SOL    HW234557   4.251   4.466   2.410 -0.7502  0.4608  0.6519
 7700SOL     OW34558   4.348   2.820   3.010 -0.7617 -0.4677 -0.2165
 7700SOL    HW134559   4.413   2.786   2.949  0.3028 -2.3238  1.9501
 7700SOL    HW234560   4.269   2.768   2.995  0.0379 -1.9164  0.5592
 7701SOL     OW34561   3.002   2.202   2.213 -0.2960 -0.2397 -0.1623
 7701SOL    HW134562   3.046   2.260   2.150  0.2153 -0.5199 -0.0601
 7701SOL    HW234563   3.078   2.162   2.255 -0.5595  0.5003  1.0196
 7702SOL     OW34564   2.808   0.498   8.641  0.1916  0.1541  0.2976
 7702SOL    HW134565   2.783   0.419   8.688 -1.1286 -0.7013 -1.8242
 7702SOL    HW234566   2.795   0.565   8.708  1.9284  0.3864  0.3895
 7703SOL     OW34567   0.654   0.723   1.606 -0.0492 -0.2733  0.0666
 7703SOL    HW134568   0.615   0.804   1.639 -1.3438 -0.2068 -1.6945
 7703SOL    HW234569   0.579   0.668   1.583 -0.5327  0.4177 -0.0055
 7704SOL     OW34570   2.123   1.278  16.954 -0.1717 -0.0411  0.1106
 7704SOL    HW134571   2.038   1.236  16.964  1.3900 -3.1412  0.2330
 7704SOL    HW234572   2.128   1.328  17.036 -1.7045 -0.4409  0.4585
 7705SOL     OW34573   0.935   2.305   2.320 -0.1228 -0.7620 -0.0168
 7705SOL    HW134574   0.957   2.212   2.313 -0.3584 -0.8273  0.1097
 7705SOL    HW234575   0.974   2.347   2.243  0.0274  0.8317  0.9467
 7706SOL     OW34576   4.309   1.258   3.890 -0.1147  0.4112 -0.6766
 7706SOL    HW134577   4.404   1.257   3.902 -0.3761 -1.3186  1.1805
 7706SOL    HW234578   4.282   1.284   3.977 -1.1052  0.0001 -0.8619
 7707SOL     OW34579   2.736   3.464   5.823 -0.3387 -0.2682 -0.2177
 7707SOL    HW134580   2.804   3.450   5.757  1.6456 -0.7063  1.9321
 7707SOL    HW234581   2.790   3.444   5.899 -0.6982  0.9748  0.3693
 7708SOL     OW34582   4.334   1.978   5.135 -0.4172 -0.3906  0.4286
 7708SOL    HW134583   4.316   1.892   5.174  0.4887  0.0638  1.8529
 7708SOL    HW234584   4.250   1.980   5.089 -0.2317 -0.2434  0.0987
 7709SOL     OW34585   2.602   2.168  11.182 -0.2760  0.6186  0.6429
 7709SOL    HW134586   2.531   2.226  11.153 -1.5094 -0.5826  1.2628
 7709SOL    HW234587   2.657   2.227  11.233  0.2897  1.6093 -1.1278
 7710SOL     OW34588   0.753   0.656   0.870 -0.3988 -0.5763 -0.6329
 7710SOL    HW134589   0.830   0.605   0.894  1.4839  1.8750 -1.5104
 7710SOL    HW234590   0.698   0.587   0.834  0.7749 -1.7957 -0.0719
 7711SOL     OW34591   0.188   2.757  14.267 -0.2371 -0.1923 -0.1049
 7711SOL    HW134592   0.209   2.776  14.175  1.6315 -0.0963  0.3247
 7711SOL    HW234593   0.244   2.821  14.310  0.7953  0.4387 -2.3479
 7712SOL     OW34594   3.302   3.350   7.929  0.4738 -0.2444 -0.3754
 7712SOL    HW134595   3.375   3.306   7.884 -0.9335 -2.5537 -0.3902
 7712SOL    HW234596   3.222   3.322   7.884 -0.0216  1.4041 -0.5195
 7713SOL     OW34597   3.648   0.844   2.805  0.3142 -0.4089 -0.2655
 7713SOL    HW134598   3.692   0.804   2.730 -1.9477 -0.0433 -1.7881
 7713SOL    HW234599   3.558   0.814   2.789 -0.0623  0.1253  0.8044
 7714SOL     OW34600   1.146   3.887   1.111 -0.4733 -0.6699 -0.0224
 7714SOL    HW134601   1.135   3.803   1.066  0.5438  0.7419 -2.9128
 7714SOL    HW234602   1.190   3.942   1.046  0.3622  1.2959  2.1733
 7715SOL     OW34603   0.641   0.162  10.384 -0.0644 -0.2475  0.1560
 7715SOL    HW134604   0.602   0.074  10.381 -0.2881 -0.1513  0.2534
 7715SOL    HW234605   0.680   0.174  10.297  0.6326  1.2881  0.6855
 7716SOL     OW34606   1.179   1.720  15.739 -0.1567  0.0962  0.1190
 7716SOL    HW134607   1.263   1.751  15.773  0.0582 -0.4132  0.0641
 7716SOL    HW234608   1.124   1.721  15.816 -0.5238 -1.3772 -0.1131
 7717SOL     OW34609   4.473   0.824   6.953 -0.2935  0.2608 -0.5157
 7717SOL    HW134610   4.438   0.888   7.015 -2.1695 -0.9073 -0.3545
 7717SOL    HW234611   4.543   0.876   6.914 -0.1826  0.4652 -0.0304
 7718SOL     OW34612   3.492   2.218   9.558 -0.5224  0.1252  0.1356
 7718SOL    HW134613   3.506   2.158   9.632  0.5946 -1.4111 -1.3290
 7718SOL    HW234614   3.549   2.180   9.491 -0.8146  0.7440 -0.4632
 7719SOL     OW34615   1.827   1.262   9.874  0.1272 -0.1032 -0.1832
 7719SOL    HW134616   1.768   1.262   9.949 -0.5498 -0.7176 -0.7109
 7719SOL    HW234617   1.836   1.168   9.859  0.7700 -0.2111  0.8518
 7720SOL     OW34618   1.023   1.892   3.828  0.2733 -0.0046 -0.0406
 7720SOL    HW134619   1.089   1.873   3.896  0.7905  1.6236 -0.0913
 7720SOL    HW234620   0.962   1.929   3.892  1.2966  1.4464  0.0972
 7721SOL     OW34621   1.938   2.802  15.049 -0.0822  0.2779 -0.6375
 7721SOL    HW134622   2.025   2.789  15.087 -2.0310 -2.5367  2.8003
 7721SOL    HW234623   1.895   2.826  15.130 -1.4256 -1.7362 -0.7611
 7722SOL     OW34624   4.011   4.276   7.162  0.4120  0.1828 -0.1828
 7722SOL    HW134625   4.083   4.326   7.124  1.9211 -1.2932  0.6982
 7722SOL    HW234626   3.972   4.224   7.091  0.8024  0.4690 -0.6096
 7723SOL     OW34627   1.089   3.140  16.257 -0.4087 -0.0854 -0.8033
 7723SOL    HW134628   0.998   3.109  16.250 -0.0896 -0.8920 -1.3050
 7723SOL    HW234629   1.135   3.057  16.271  0.2390  0.6190  1.3147
 7724SOL     OW34630   2.935   0.320   4.006  0.2572  0.3158 -0.5131
 7724SOL    HW134631   2.846   0.314   3.970 -0.7217 -1.0551  2.2058
 7724SOL    HW234632   2.982   0.276   3.935  0.1083 -0.0204 -0.4033
 7725SOL     OW34633   2.987   1.626   2.675  0.1023  0.4745  0.0039
 7725SOL    HW134634   2.962   1.534   2.666 -0.5329  0.4214  2.3204
 7725SOL    HW234635   2.899   1.663   2.663 -0.8138 -1.6193  0.3977
 7726SOL     OW34636   1.448   0.306   3.738 -0.2260  0.0241  0.2369
 7726SOL    HW134637   1.543   0.309   3.747 -0.1549 -0.2750 -0.4199
 7726SOL    HW234638   1.428   0.225   3.785  2.3541 -0.2537  0.8353
 7727SOL     OW34639   4.133   1.504   3.978 -0.1565 -0.0154 -0.0374
 7727SOL    HW134640   4.176   1.468   4.056  2.5534 -0.1302 -1.5825
 7727SOL    HW234641   4.203   1.502   3.913  0.0984  2.1521  0.1596
 7728SOL     OW34642   2.532   1.028   4.485 -0.3043  0.0596 -0.4664
 7728SOL    HW134643   2.509   1.019   4.578  2.1616  3.0258  0.4516
 7728SOL    HW234644   2.612   0.976   4.486 -1.8479 -2.3197 -3.0435
 7729SOL     OW34645   1.419   4.679   0.182  0.0642  0.4513  0.3812
 7729SOL    HW134646   1.363   4.606   0.209 -2.5434  2.7217  1.0393
 7729SOL    HW234647   1.383   4.717   0.102 -0.4383 -0.6261  0.0975
 7730SOL     OW34648   2.261   4.007   8.754 -0.5735  0.0268 -0.3063
 7730SOL    HW134649   2.345   4.015   8.798 -0.3969 -1.6458 -0.3637
 7730SOL    HW234650   2.216   4.082   8.794 -0.8546 -0.6190  0.5826
 7731SOL     OW34651   1.440   0.495  10.654 -0.4454  0.1144  0.3082
 7731SOL    HW134652   1.387   0.480  10.732  1.5389 -1.0895  1.4344
 7731SOL    HW234653   1.385   0.447  10.591 -0.4137 -1.2998  1.3581
 7732SOL     OW34654   1.575   4.339  16.702  0.6034 -0.2849  0.2381
 7732SOL    HW134655   1.558   4.324  16.609  0.2851 -0.7052  0.3652
 7732SOL    HW234656   1.666   4.309  16.714 -0.0025 -1.7133  1.3554
 7733SOL     OW34657   0.578   2.945   7.235 -0.0872  0.5119  0.1007
 7733SOL    HW134658   0.557   3.038   7.236 -2.3336 -0.0291  1.4961
 7733SOL    HW234659   0.579   2.948   7.139 -1.8283  1.6572  0.1236
 7734SOL     OW34660   2.245   3.090  12.342 -0.0331 -0.2549 -0.2092
 7734SOL    HW134661   2.192   3.135  12.407 -0.3005  1.6766 -1.7762
 7734SOL    HW234662   2.320   3.148  12.352  2.6510 -3.9757  1.3708
 7735SOL     OW34663   4.030   3.953  17.253 -0.0642 -0.2132  0.3088
 7735SOL    HW134664   4.071   4.033  17.222  1.5518 -0.0363  2.9170
 7735SOL    HW234665   4.009   3.990  17.339  0.9114 -0.3179  0.5896
 7736SOL     OW34666   1.277   1.993   7.040  0.5398  0.5291 -0.4362
 7736SOL    HW134667   1.229   1.996   6.957  1.1114 -1.7008 -0.8252
 7736SOL    HW234668   1.314   1.906   7.026  1.5066  0.8760 -0.0142
 7737SOL     OW34669   0.738   3.288   2.662  0.5671  0.2932  0.1396
 7737SOL    HW134670   0.673   3.230   2.701 -2.0017  1.0839 -2.9353
 7737SOL    HW234671   0.672   3.316   2.598  0.5581 -3.6244 -1.5750
 7738SOL     OW34672   1.407   3.309   9.326 -0.6787  0.7515  0.2209
 7738SOL    HW134673   1.329   3.279   9.372  0.3013 -0.7139  0.8922
 7738SOL    HW234674   1.477   3.280   9.383 -0.4861 -2.2318 -1.5571
 7739SOL     OW34675   2.366   0.081   5.329  0.0067  0.9740  0.2431
 7739SOL    HW134676   2.279   0.113   5.306 -0.3592  0.2856  0.6595
 7739SOL    HW234677   2.373   0.020   5.255  3.5874 -0.0410  1.4057
 7740SOL     OW34678   2.770   3.028   5.105 -0.0766 -0.2975  0.2042
 7740SOL    HW134679   2.850   3.024   5.053  1.2033 -1.0621  2.2356
 7740SOL    HW234680   2.706   3.023   5.034  1.7398 -1.7688 -1.3306
 7741SOL     OW34681   3.094   2.214   8.916  0.0150 -0.0802  0.4373
 7741SOL    HW134682   3.135   2.215   9.003 -0.1316  1.1728  0.4953
 7741SOL    HW234683   3.022   2.276   8.927 -1.2479 -1.2696 -1.1437
 7742SOL     OW34684   0.695   2.796   1.839  0.0797 -0.3568 -0.3247
 7742SOL    HW134685   0.666   2.713   1.800 -0.7007  0.3670 -1.2871
 7742SOL    HW234686   0.753   2.832   1.772  0.5447 -0.0278  0.2542
 7743SOL     OW34687   3.396   0.466   5.872 -0.0231  0.2055 -0.7508
 7743SOL    HW134688   3.404   0.489   5.964  0.2596  2.5297 -1.3454
 7743SOL    HW234689   3.400   0.555   5.837  0.9357 -0.2104 -1.6919
 7744SOL     OW34690   2.303   3.658  11.764  0.0227 -0.1147  0.3903
 7744SOL    HW134691   2.388   3.670  11.720 -0.0196 -1.9228 -0.1902
 7744SOL    HW234692   2.256   3.667  11.681 -2.8028 -0.4437  1.9704
 7745SOL     OW34693   4.475   2.910   2.568 -0.2032  0.0085  0.7888
 7745SOL    HW134694   4.427   2.919   2.486  0.5699 -0.0012  0.3323
 7745SOL    HW234695   4.453   2.995   2.607  0.3578  1.4042 -1.9312
 7746SOL     OW34696   4.567   1.503   1.671  0.2700  0.1345 -0.1717
 7746SOL    HW134697   4.515   1.455   1.735 -0.1127  0.6066 -0.1272
 7746SOL    HW234698   4.493   1.551   1.633  0.2357 -0.7182 -1.1758
 7747SOL     OW34699   4.273   1.350   6.167  0.0294 -0.3190 -0.1156
 7747SOL    HW134700   4.264   1.428   6.221 -3.2301  1.1200 -2.7989
 7747SOL    HW234701   4.189   1.349   6.122  0.8083 -0.1205 -1.5762
 7748SOL     OW34702   0.587   1.372   0.785  0.8126 -0.4213  0.3403
 7748SOL    HW134703   0.537   1.302   0.743 -0.8998  1.3246 -0.5000
 7748SOL    HW234704   0.672   1.344   0.752  0.5968  1.2399 -1.6071
 7749SOL     OW34705   3.125   4.344   1.185  0.1315  0.3475 -0.0846
 7749SOL    HW134706   3.079   4.399   1.122  1.8906  1.3615 -0.4536
 7749SOL    HW234707   3.179   4.295   1.124 -0.6073 -0.0834 -0.3959
 7750SOL     OW34708   1.242   0.659   6.770  0.4174 -0.4837  0.2855
 7750SOL    HW134709   1.328   0.633   6.736  0.6756  1.1250 -0.2767
 7750SOL    HW234710   1.264   0.663   6.863 -1.1713  0.7580  0.6034
 7751SOL     OW34711   1.454   2.883   8.202 -0.1043 -0.4912  0.0629
 7751SOL    HW134712   1.540   2.877   8.243 -0.4604  0.4606  0.9402
 7751SOL    HW234713   1.476   2.899   8.110 -3.1381 -0.3038 -0.6129
 7752SOL     OW34714   1.292   3.668   8.465  0.3764 -0.3902  0.0169
 7752SOL    HW134715   1.332   3.656   8.551 -0.0621 -1.7916  0.0311
 7752SOL    HW234716   1.349   3.619   8.405  0.3792 -0.4887  0.1009
 7753SOL     OW34717   2.095   1.617   8.705  0.1669  0.2203  0.4293
 7753SOL    HW134718   2.077   1.689   8.644 -3.4043 -1.0507 -0.0254
 7753SOL    HW234719   2.167   1.577   8.657 -0.9865 -0.5113 -0.7079
 7754SOL     OW34720   2.075   0.110   4.844 -1.2068 -0.1400 -0.7219
 7754SOL    HW134721   2.128   0.088   4.767  0.5499  0.0261  0.4328
 7754SOL    HW234722   2.099   0.052   4.916  1.6885  0.8588 -0.8932
 7755SOL     OW34723   2.210   3.778   2.544 -0.6773 -0.7707  0.7734
 7755SOL    HW134724   2.215   3.859   2.493 -3.4018 -0.3519  1.1619
 7755SOL    HW234725   2.270   3.795   2.617 -1.5165  2.4584  0.7159
 7756SOL     OW34726   1.423   1.339  11.384 -0.1176  0.5180  0.1002
 7756SOL    HW134727   1.346   1.340  11.326  0.0927  2.2871 -0.1599
 7756SOL    HW234728   1.488   1.310  11.319  0.3279 -1.3818  1.4075
 7757SOL     OW34729   1.574   3.027   0.418  0.5353 -0.2586  0.1241
 7757SOL    HW134730   1.575   2.982   0.334  0.5414  1.0613 -0.5870
 7757SOL    HW234731   1.488   3.068   0.412  1.7103  1.7783 -2.8180
 7758SOL     OW34732   3.684   0.064   8.688  0.5061  0.6033 -0.1320
 7758SOL    HW134733   3.657   4.706   8.646 -1.0107  1.4382 -0.7650
 7758SOL    HW234734   3.603   0.114   8.675  0.5973  1.1158  1.2491
 7759SOL     OW34735   3.524   4.367  10.898 -0.1701 -0.6687 -0.1200
 7759SOL    HW134736   3.477   4.383  10.817 -0.1904  2.4583  0.5255
 7759SOL    HW234737   3.592   4.434  10.896 -2.0548  1.2163 -0.2993
 7760SOL     OW34738   2.699   4.601   7.366  0.0067  0.4497  0.2987
 7760SOL    HW134739   2.788   4.584   7.334  0.3744  0.1431  1.4797
 7760SOL    HW234740   2.719   4.632   7.454 -0.1342 -0.6695  0.7266
 7761SOL     OW34741   2.353   3.271   8.101 -0.7066  0.2918 -0.5907
 7761SOL    HW134742   2.328   3.183   8.129 -0.7772  0.2283 -0.8538
 7761SOL    HW234743   2.447   3.258   8.113 -1.1509  0.0669  2.6308
 7762SOL     OW34744   2.223   3.157  16.594 -0.0816  1.0645 -0.3117
 7762SOL    HW134745   2.238   3.231  16.653 -1.0647  1.0615 -0.0568
 7762SOL    HW234746   2.270   3.086  16.636  0.9909  1.5246 -0.7219
 7763SOL     OW34747   0.122   3.792   4.617  0.1898  0.2398 -0.0530
 7763SOL    HW134748   0.160   3.771   4.532  0.9617 -0.3747  0.4434
 7763SOL    HW234749   0.044   3.843   4.595 -0.0585 -0.7239 -1.4134
 7764SOL     OW34750   4.135   4.357   0.217 -0.3439 -0.4128 -0.2806
 7764SOL    HW134751   4.074   4.309   0.162  0.3541 -1.7050  0.0482
 7764SOL    HW234752   4.199   4.287   0.234  0.4129  0.2341 -0.4313
 7765SOL     OW34753   3.262   1.835  11.181 -0.1749 -0.3497  0.7375
 7765SOL    HW134754   3.302   1.880  11.255  1.5112  0.5139 -0.7028
 7765SOL    HW234755   3.179   1.881  11.170  0.5173  0.5735 -0.6729
 7766SOL     OW34756   1.961   0.611   6.701 -0.8681  0.2225 -0.0996
 7766SOL    HW134757   1.961   0.515   6.692 -4.5869  0.2070 -0.1854
 7766SOL    HW234758   2.037   0.615   6.758 -0.8597 -0.6061 -0.0434
 7767SOL     OW34759   2.638   2.241  17.538 -0.1334 -0.3831  0.4329
 7767SOL    HW134760   2.701   2.196  17.595  1.7059 -1.1693 -2.1777
 7767SOL    HW234761   2.622   2.170  17.476 -1.3721  1.0474 -0.8785
 7768SOL     OW34762   1.341   0.456  16.762 -0.1879 -0.0707 -0.9547
 7768SOL    HW134763   1.260   0.412  16.738 -0.7903 -0.8933  2.6552
 7768SOL    HW234764   1.324   0.550  16.756  2.4764  0.4857  0.0232
 7769SOL     OW34765   0.578   2.895   3.290 -0.0954 -0.4996  1.3102
 7769SOL    HW134766   0.579   2.823   3.353  1.5677 -1.1823  0.5173
 7769SOL    HW234767   0.667   2.930   3.302  0.2471 -0.8422 -0.3583
 7770SOL     OW34768   0.584   3.912   2.967 -0.0414  0.0556 -0.0643
 7770SOL    HW134769   0.644   3.973   2.924 -0.0803  1.2149  1.5443
 7770SOL    HW234770   0.605   3.827   2.928  2.0497  0.9422 -0.8450
 7771SOL     OW34771   4.684   2.939   7.473 -0.2070 -0.0584 -0.2273
 7771SOL    HW134772   4.698   2.862   7.417 -1.0864 -0.1897 -0.2761
 7771SOL    HW234773   0.039   2.924   7.525  0.0854  0.1338 -0.6136
 7772SOL     OW34774   0.592   1.311   7.652  0.0564  0.7345  0.1397
 7772SOL    HW134775   0.610   1.243   7.718  3.1496  0.1812 -1.2751
 7772SOL    HW234776   0.670   1.300   7.598  0.9274  0.5211  1.4304
 7773SOL     OW34777   3.085   2.903   2.569 -0.3182 -0.4329  0.5546
 7773SOL    HW134778   3.059   2.995   2.572 -0.0217 -0.2939 -0.9113
 7773SOL    HW234779   3.022   2.869   2.506 -1.3522  0.3976  1.1554
 7774SOL     OW34780   3.254   3.010   9.877 -0.6749 -0.0981 -0.1027
 7774SOL    HW134781   3.193   2.947   9.839  1.7641 -3.5640  1.7977
 7774SOL    HW234782   3.303   2.957   9.939  1.5007  0.0204 -1.7131
 7775SOL     OW34783   0.271   1.413  14.673  0.2685  0.1244  0.2485
 7775SOL    HW134784   0.228   1.479  14.727  1.9698  0.7871  0.7847
 7775SOL    HW234785   0.262   1.332  14.723  1.0355 -0.8738 -1.2363
 7776SOL     OW34786   0.927   3.549  16.159 -0.5289  0.1763  0.2035
 7776SOL    HW134787   0.939   3.506  16.243 -0.2734  0.5827  0.3741
 7776SOL    HW234788   0.981   3.491  16.106  0.3412  1.8173 -0.7307
 7777SOL     OW34789   2.505   2.572   2.437 -0.0025  0.6448 -0.4958
 7777SOL    HW134790   2.564   2.646   2.426  0.9128  0.1591  1.2306
 7777SOL    HW234791   2.569   2.502   2.430 -0.7597  0.0160 -1.2284
 7778SOL     OW34792   4.573   0.619   5.130 -0.3723 -0.1467 -0.3215
 7778SOL    HW134793   4.644   0.566   5.092  1.1208  1.3759  0.3607
 7778SOL    HW234794   4.587   0.619   5.225  0.6497 -0.5755 -0.4685
 7779SOL     OW34795   0.699   1.618   0.087 -0.0422 -0.2816  0.1187
 7779SOL    HW134796   0.649   1.538   0.106 -1.2190  0.5883  0.6821
 7779SOL    HW234797   0.625   1.678   0.080 -0.4752 -0.6029  1.7272
 7780SOL     OW34798   2.370   2.500   6.196  0.4821 -0.5301  0.2110
 7780SOL    HW134799   2.448   2.527   6.244  0.3843 -0.3339  0.2578
 7780SOL    HW234800   2.416   2.469   6.119  2.1527  0.3738  0.8529
 7781SOL     OW34801   4.336   2.758   4.782 -0.0281  0.2880 -0.0854
 7781SOL    HW134802   4.258   2.763   4.727 -1.1374 -1.3060  1.3052
 7781SOL    HW234803   4.402   2.718   4.725 -1.1065  0.5114 -1.4870
 7782SOL     OW34804   3.490   0.843  17.358 -0.0123  0.1296  0.1778
 7782SOL    HW134805   3.447   0.917  17.314 -0.7201  0.3051  1.1681
 7782SOL    HW234806   3.529   0.894  17.428  0.1212 -0.5880  0.6284
 7783SOL     OW34807   2.202   2.562   7.828 -0.3350 -0.0373  0.7324
 7783SOL    HW134808   2.274   2.530   7.774  0.9885  2.2115  1.1901
 7783SOL    HW234809   2.145   2.607   7.766 -0.0162 -1.0066 -0.2698
 7784SOL     OW34810   0.032   3.096   7.820 -0.5953 -0.5948 -0.2927
 7784SOL    HW134811   4.710   3.118   7.738 -0.2079 -2.9844 -1.1486
 7784SOL    HW234812   0.103   3.038   7.793 -0.6416 -1.2969  1.1327
 7785SOL     OW34813   1.316   3.520  16.198  0.2631  0.2840  0.0028
 7785SOL    HW134814   1.375   3.447  16.215 -0.3514 -0.1934  0.1233
 7785SOL    HW234815   1.232   3.481  16.173  1.7490 -1.9610 -1.5211
 7786SOL     OW34816   2.138   0.992   5.790  0.3620  0.0492  0.0057
 7786SOL    HW134817   2.210   0.931   5.773  0.7737  0.3744  0.5853
 7786SOL    HW234818   2.130   0.974   5.884  0.0142  2.4997  0.4496
 7787SOL     OW34819   1.370   3.376   7.589  0.6005  0.2507  0.2234
 7787SOL    HW134820   1.453   3.341   7.622  1.6710  2.2618 -0.3368
 7787SOL    HW234821   1.401   3.441   7.526 -0.6348  0.4022 -0.2304
 7788SOL     OW34822   3.652   3.759   3.624 -0.1177  0.0304 -0.5152
 7788SOL    HW134823   3.610   3.701   3.687 -1.6477 -1.1585 -2.6354
 7788SOL    HW234824   3.603   3.841   3.626 -1.1810 -0.6602  1.7855
 7789SOL     OW34825   2.029   2.826   0.059  0.2000  0.1631  0.2465
 7789SOL    HW134826   2.006   2.798   0.148 -0.3388  0.7032  0.2710
 7789SOL    HW234827   2.000   2.916   0.070 -1.6337 -0.3810 -0.1821
 7790SOL     OW34828   3.204   0.938   4.169  0.1670 -0.0132  0.1284
 7790SOL    HW134829   3.178   0.987   4.248 -2.2040 -0.1604 -0.5428
 7790SOL    HW234830   3.199   1.002   4.098 -0.0869 -0.1183  0.0487
 7791SOL     OW34831   3.438   2.485   1.142  0.3913 -0.5470  0.0140
 7791SOL    HW134832   3.529   2.470   1.113 -0.0267 -0.0299 -1.5891
 7791SOL    HW234833   3.406   2.526   1.062 -1.3915 -1.0274  0.4963
 7792SOL     OW34834   3.833   3.433  14.123  0.6534  0.3351  0.0130
 7792SOL    HW134835   3.762   3.444  14.187  1.8922  1.8065  1.1463
 7792SOL    HW234836   3.819   3.508  14.064  0.7986  0.6799  0.4151
 7793SOL     OW34837   1.590   2.583  15.942  0.3257 -0.4769 -0.3882
 7793SOL    HW134838   1.680   2.561  15.922  0.2002 -0.1627 -1.2914
 7793SOL    HW234839   1.585   2.674  15.911 -0.8199 -0.5681 -0.4710
 7794SOL     OW34840   1.595   0.244   8.346  0.1676  0.4196  0.0798
 7794SOL    HW134841   1.558   0.213   8.429 -1.0231  1.2930 -0.1333
 7794SOL    HW234842   1.641   0.326   8.365  0.5745  0.1285  0.3785
 7795SOL     OW34843   0.639   1.197  14.494  0.0196 -0.0423 -0.2110
 7795SOL    HW134844   0.674   1.121  14.448 -0.3326 -0.2166 -0.1867
 7795SOL    HW234845   0.546   1.176  14.488 -0.1315 -0.1550  2.6144
 7796SOL     OW34846   1.855   4.205   6.781 -0.0605  0.3292  0.5235
 7796SOL    HW134847   1.925   4.226   6.720 -0.4730  0.5524  0.1203
 7796SOL    HW234848   1.818   4.292   6.796 -1.7796 -0.8152  2.8524
 7797SOL     OW34849   2.379   4.197   5.937  0.6093  0.3689  0.0830
 7797SOL    HW134850   2.381   4.284   5.977 -4.0740  0.1976  0.6973
 7797SOL    HW234851   2.459   4.158   5.970  0.7656  1.5255  1.0774
 7798SOL     OW34852   3.559   2.964   3.186  0.3311 -0.0296  0.4126
 7798SOL    HW134853   3.490   2.904   3.157 -1.1429  0.7141  2.3540
 7798SOL    HW234854   3.600   2.895   3.238  0.0351 -0.4767  0.0489
 7799SOL     OW34855   3.083   4.433   6.669  0.7076 -0.1202  0.4773
 7799SOL    HW134856   3.125   4.427   6.755 -2.0071 -1.6432  1.7009
 7799SOL    HW234857   3.085   4.339   6.654 -0.6339 -0.3434  1.6147
 7800SOL     OW34858   4.428   4.004   3.205  0.2175 -0.1136  0.0676
 7800SOL    HW134859   4.460   3.914   3.205  1.6502  0.3965  1.4199
 7800SOL    HW234860   4.429   4.026   3.112  0.5067 -0.0784  0.0802
 7801SOL     OW34861   4.180   3.471   9.370 -0.4987  0.2137  0.0490
 7801SOL    HW134862   4.249   3.483   9.304 -2.1989  0.4111 -1.7015
 7801SOL    HW234863   4.233   3.455   9.448  0.5935 -0.0280 -0.7313
 7802SOL     OW34864   2.693   1.676   2.661  0.4562 -0.5949 -0.2505
 7802SOL    HW134865   2.698   1.770   2.676  2.1117 -0.3791 -2.1208
 7802SOL    HW234866   2.670   1.640   2.747 -0.4251  0.2267 -0.1378
 7803SOL     OW34867   1.944   3.690  11.802 -0.0234  0.2483  0.2443
 7803SOL    HW134868   1.982   3.746  11.735  2.0327  0.2072  1.3612
 7803SOL    HW234869   1.868   3.745  11.819 -1.5266 -1.7505  0.0365
 7804SOL     OW34870   3.753   4.291   5.953  0.1383  0.5960  0.5194
 7804SOL    HW134871   3.839   4.272   5.915 -0.1634  2.5160 -1.0860
 7804SOL    HW234872   3.703   4.325   5.879 -0.7692 -0.2925  0.7312
 7805SOL     OW34873   1.207   3.028   6.994  1.1591 -0.1653 -1.1269
 7805SOL    HW134874   1.295   3.038   6.959  1.9522  1.9907  1.4005
 7805SOL    HW234875   1.150   3.015   6.918  0.9988 -0.9695 -0.8680
 7806SOL     OW34876   3.040   2.977   5.877 -0.2848 -0.3045 -0.1269
 7806SOL    HW134877   3.101   2.924   5.825 -0.1771 -0.6424  0.3447
 7806SOL    HW234878   2.981   2.908   5.907 -0.5589 -0.1373 -0.2846
 7807SOL     OW34879   1.147   3.466   0.951 -0.5701 -0.1490  0.0845
 7807SOL    HW134880   1.225   3.456   0.896  0.5035  1.0177  1.4126
 7807SOL    HW234881   1.119   3.550   0.915  2.8052  0.4628 -1.1207
 7808SOL     OW34882   2.074   3.915   7.848  0.3763 -0.1696 -0.2729
 7808SOL    HW134883   2.167   3.925   7.868  0.0945 -2.6650  2.2991
 7808SOL    HW234884   2.056   4.001   7.809  1.0040 -0.1387 -0.5094
 7809SOL     OW34885   0.297   1.351   8.505  0.0642 -0.0173 -0.3016
 7809SOL    HW134886   0.283   1.339   8.599 -0.6008 -0.9185 -0.5091
 7809SOL    HW234887   0.373   1.403   8.479  0.0293 -0.0419 -0.4569
 7810SOL     OW34888   1.475   1.984   7.638 -0.1000 -0.3111  0.3183
 7810SOL    HW134889   1.529   2.037   7.697 -0.1530  1.8041 -1.5055
 7810SOL    HW234890   1.493   2.031   7.556  0.8493  2.6764  2.2267
 7811SOL     OW34891   0.858   1.909   9.208 -0.2483 -0.4587 -0.0537
 7811SOL    HW134892   0.912   1.971   9.256 -0.6686  0.7302 -1.1172
 7811SOL    HW234893   0.838   1.849   9.280  0.5444  0.1715  0.6892
 7812SOL     OW34894   0.447   4.457   7.440 -0.0200  0.3357  0.1196
 7812SOL    HW134895   0.540   4.458   7.417 -0.3807  0.8943 -1.3245
 7812SOL    HW234896   0.432   4.540   7.485 -0.3191  0.8372 -0.8970
 7813SOL     OW34897   3.811   0.378   2.661  0.1707  0.6818  0.4812
 7813SOL    HW134898   3.767   0.427   2.592  0.1371 -1.6344 -1.1092
 7813SOL    HW234899   3.905   0.399   2.655 -0.1027  1.5383 -0.7249
 7814SOL     OW34900   2.689   2.809  13.333 -0.0466 -0.1592  0.0635
 7814SOL    HW134901   2.765   2.785  13.280  0.5637  0.4546  0.6485
 7814SOL    HW234902   2.668   2.896  13.298 -1.1194 -0.0698  0.9289
 7815SOL     OW34903   3.717   2.334   7.707 -0.2241 -0.3262 -0.0188
 7815SOL    HW134904   3.696   2.279   7.783 -0.0643  1.5145  1.3514
 7815SOL    HW234905   3.659   2.295   7.642  0.6655  0.9566 -1.5618
 7816SOL     OW34906   2.576   2.182   2.988  0.6886  0.0225  0.1439
 7816SOL    HW134907   2.494   2.222   2.958  1.1000  0.8934  0.2113
 7816SOL    HW234908   2.625   2.191   2.906 -3.7280  0.4884 -2.4701
 7817SOL     OW34909   1.916   4.512  15.887  0.0329 -0.0879 -1.1897
 7817SOL    HW134910   1.897   4.437  15.831 -1.3212 -1.6247  1.2843
 7817SOL    HW234911   1.965   4.474  15.961 -0.5498  0.1517 -0.6825
 7818SOL     OW34912   3.266   1.805   7.211  1.1074 -0.2916 -0.7342
 7818SOL    HW134913   3.195   1.810   7.275  2.2397 -0.8230  0.5639
 7818SOL    HW234914   3.261   1.897   7.185  2.7048 -0.3566 -1.2771
 7819SOL     OW34915   3.753   4.534   7.483  0.3148  0.6820 -0.7064
 7819SOL    HW134916   3.768   4.443   7.454 -2.3592  0.2356 -0.6391
 7819SOL    HW234917   3.753   4.520   7.578  0.9448  4.0930 -0.2165
 7820SOL     OW34918   4.237   3.906   6.113 -0.6583 -0.4079  0.5344
 7820SOL    HW134919   4.270   3.882   6.026  0.5089  0.2182  0.7970
 7820SOL    HW234920   4.149   3.918   6.078 -0.3358 -1.8557 -0.8240
 7821SOL     OW34921   2.610   3.837   0.652 -0.4307 -0.3465  0.3590
 7821SOL    HW134922   2.700   3.813   0.672  0.7041  1.8723 -1.9772
 7821SOL    HW234923   2.614   3.933   0.656 -0.9530 -0.3275  0.4364
 7822SOL     OW34924   0.804   0.229  16.743  0.0771 -0.0076 -0.4995
 7822SOL    HW134925   0.813   0.146  16.697  0.6641  0.1885 -0.7370
 7822SOL    HW234926   0.760   0.282  16.678  0.8155 -0.2401 -1.1911
 7823SOL     OW34927   1.147   3.852   7.732  0.0595  0.3408 -0.3317
 7823SOL    HW134928   1.131   3.943   7.760 -0.0770 -0.3038  1.7211
 7823SOL    HW234929   1.243   3.852   7.726  0.3055 -1.1364  3.4238
 7824SOL     OW34930   1.699   1.247   1.868  0.8732  0.3083  0.0888
 7824SOL    HW134931   1.627   1.186   1.880  0.8158  0.5683  1.0937
 7824SOL    HW234932   1.721   1.258   1.776  0.5139  0.7858  0.0608
 7825SOL     OW34933   0.840   2.025  16.205 -0.0217 -0.0526 -0.0936
 7825SOL    HW134934   0.911   2.012  16.142 -0.4635 -0.1016 -0.5893
 7825SOL    HW234935   0.818   2.113  16.176 -2.0163 -0.1630  1.0976
 7826SOL     OW34936   3.130   0.420  12.682  0.4217  0.6499  0.0374
 7826SOL    HW134937   3.138   0.503  12.635 -0.2828  1.5198  1.4768
 7826SOL    HW234938   3.059   0.381  12.630 -0.6526  1.8057  0.6293
 7827SOL     OW34939   1.357   2.440   2.374  0.2569 -0.0696 -0.0433
 7827SOL    HW134940   1.346   2.357   2.328 -0.6172  0.3788 -0.6180
 7827SOL    HW234941   1.428   2.405   2.428  1.0218  1.0449 -0.3214
 7828SOL     OW34942   1.157   4.076   8.823  0.5632 -0.9276  0.3781
 7828SOL    HW134943   1.243   4.082   8.782 -0.3633  1.4117 -1.1903
 7828SOL    HW234944   1.120   4.006   8.770 -1.7523  1.3596 -1.0463
 7829SOL     OW34945   3.687   1.205   3.766  0.2025  0.0109  0.3983
 7829SOL    HW134946   3.707   1.178   3.856 -2.9085  1.0212  1.3920
 7829SOL    HW234947   3.741   1.284   3.767 -1.6383  1.2911 -1.7728
 7830SOL     OW34948   3.598   3.403  16.937  0.2006  0.4569 -0.0835
 7830SOL    HW134949   3.656   3.353  16.878  0.4577  1.1267 -0.3988
 7830SOL    HW234950   3.525   3.342  16.949 -0.1884  0.9909  0.2341
 7831SOL     OW34951   0.669   2.748   7.401 -0.8558  0.0173 -0.1158
 7831SOL    HW134952   0.628   2.808   7.339  0.5991  0.9667 -0.1519
 7831SOL    HW234953   0.734   2.805   7.443 -1.8138  0.9887  0.0665
 7832SOL     OW34954   1.062   3.268   2.480 -0.1407 -0.3935  0.5257
 7832SOL    HW134955   1.044   3.358   2.510  0.1045 -0.4907  0.9546
 7832SOL    HW234956   1.045   3.214   2.557  0.4124 -0.8371  0.3278
 7833SOL     OW34957   1.263   3.968   0.866 -0.2199  0.1302  0.4358
 7833SOL    HW134958   1.171   3.988   0.847 -0.0249 -1.0216 -1.7391
 7833SOL    HW234959   1.316   4.035   0.823 -0.7679  0.1824 -0.1624
 7834SOL     OW34960   1.210   1.347   8.219  0.4522 -0.0072 -0.0613
 7834SOL    HW134961   1.192   1.337   8.312 -1.6186 -1.7313 -0.6410
 7834SOL    HW234962   1.195   1.442   8.213 -2.1476 -0.4578 -0.9321
 7835SOL     OW34963   0.623   2.205   3.201 -0.4822  0.1592 -0.0118
 7835SOL    HW134964   0.694   2.242   3.148  0.4963  1.5360  2.2481
 7835SOL    HW234965   0.651   2.116   3.178  1.7419  1.2210 -1.4838
 7836SOL     OW34966   0.383   3.022  13.504 -0.1763  0.2285 -0.2156
 7836SOL    HW134967   0.331   2.948  13.473 -0.7065  0.6177 -0.2721
 7836SOL    HW234968   0.470   2.988  13.487 -0.1898  0.8636 -1.6248
 7837SOL     OW34969   1.687   0.977   8.624 -0.6929  0.5286  0.4499
 7837SOL    HW134970   1.737   1.034   8.683  1.5139  0.4474 -1.3288
 7837SOL    HW234971   1.708   1.011   8.537 -1.5532  1.1464  0.4845
 7838SOL     OW34972   1.704   4.389  14.120 -0.3028 -0.6834 -0.2932
 7838SOL    HW134973   1.770   4.362  14.184  0.1883  3.2391  0.8090
 7838SOL    HW234974   1.656   4.309  14.094 -0.1679 -0.3069 -1.6899
 7839SOL     OW34975   4.152   2.194  14.847 -0.3587 -0.1372  0.0508
 7839SOL    HW134976   4.246   2.187  14.861 -0.2353 -0.6168 -0.9994
 7839SOL    HW234977   4.128   2.107  14.880 -0.5573 -0.4949 -1.0281
 7840SOL     OW34978   2.833   3.955  11.691  0.3455  0.2272  0.7635
 7840SOL    HW134979   2.913   4.007  11.683  0.7359 -0.4675  0.1962
 7840SOL    HW234980   2.859   3.868  11.660 -2.2021  0.4067 -1.9009
 7841SOL     OW34981   1.162   3.728   3.191  1.0634 -0.4162  0.0507
 7841SOL    HW134982   1.167   3.793   3.121  2.3410  0.0931  0.6227
 7841SOL    HW234983   1.252   3.698   3.190  0.8975 -0.8929 -0.4406
 7842SOL     OW34984   1.984   2.230   8.859  0.1270  0.3056  0.0227
 7842SOL    HW134985   2.046   2.288   8.815  0.9888 -2.1597 -2.0372
 7842SOL    HW234986   1.907   2.252   8.806 -0.1560  1.7592  1.0424
 7843SOL     OW34987   2.322   0.516   3.768  0.1989  0.1000 -0.0952
 7843SOL    HW134988   2.228   0.530   3.751  0.4517  2.7790  0.5903
 7843SOL    HW234989   2.328   0.445   3.832  1.9380  0.3744  0.0471
 7844SOL     OW34990   2.851   3.731   7.863 -0.3486  0.3516 -0.1522
 7844SOL    HW134991   2.929   3.763   7.818 -0.0556 -0.6958 -0.3741
 7844SOL    HW234992   2.864   3.746   7.956 -0.7350  0.0009 -0.0448
 7845SOL     OW34993   1.083   3.834   6.552  0.1318  0.1692  0.0832
 7845SOL    HW134994   1.068   3.779   6.475  2.9726  1.4340 -1.3968
 7845SOL    HW234995   1.168   3.807   6.587 -0.5143 -1.1669  0.6110
 7846SOL     OW34996   3.087   0.700   2.931  0.4598  0.3445  0.6710
 7846SOL    HW134997   3.137   0.642   2.873  0.6477  0.1403  1.0295
 7846SOL    HW234998   3.011   0.709   2.874 -1.4755  0.9786  3.3677
 7847SOL     OW34999   4.038   1.424   5.205  0.0487 -0.5763 -0.0254
 7847SOL    HW135000   4.015   1.331   5.202  0.9284 -0.7532 -1.1943
 7847SOL    HW235001   3.990   1.437   5.288  0.3848 -2.0191  0.3954
 7848SOL     OW35002   2.644   2.787  11.409  0.2078  0.6480  0.0516
 7848SOL    HW135003   2.715   2.779  11.346 -1.4698 -1.0034 -1.6232
 7848SOL    HW235004   2.569   2.813  11.356 -0.7299 -2.0746  0.0086
 7849SOL     OW35005   4.291   3.783   7.349 -0.3438 -0.4160 -0.1939
 7849SOL    HW135006   4.266   3.732   7.426  0.5358  1.7000  1.4794
 7849SOL    HW235007   4.378   3.743   7.339  0.4219  1.4205 -0.8757
 7850SOL     OW35008   3.617   4.023   1.965  0.2929  0.1386  0.1798
 7850SOL    HW135009   3.603   3.956   2.033 -0.9786 -0.0450 -0.2772
 7850SOL    HW235010   3.541   4.080   1.976  1.3087  1.3999  0.6478
 7851SOL     OW35011   1.941   1.784   0.581 -0.2445 -0.2738 -0.5975
 7851SOL    HW135012   1.982   1.827   0.656 -1.8822 -0.4413  0.4103
 7851SOL    HW235013   1.891   1.712   0.618 -0.9164  0.8676  0.7194
 7852SOL     OW35014   0.950   1.126   9.623  0.3458 -0.1858 -0.2833
 7852SOL    HW135015   0.910   1.087   9.700 -1.0189  3.1085  0.6592
 7852SOL    HW235016   1.037   1.088   9.608  1.4768  2.4869 -0.3639
 7853SOL     OW35017   0.139   1.072   3.434  0.2595 -0.1344 -0.2122
 7853SOL    HW135018   0.157   0.981   3.459 -0.1477  0.1233  1.0371
 7853SOL    HW235019   0.157   1.061   3.341 -0.5831 -2.4794 -0.1132
 7854SOL     OW35020   2.886   2.542   2.254 -0.6428 -1.0421 -0.0831
 7854SOL    HW135021   2.975   2.522   2.224  0.7934  1.4286  2.5991
 7854SOL    HW235022   2.835   2.520   2.175  0.8266 -1.7559 -0.8362
 7855SOL     OW35023   0.863   1.694   3.715 -0.1722 -0.6444 -0.1093
 7855SOL    HW135024   0.933   1.757   3.730  0.9040 -1.6481 -0.8712
 7855SOL    HW235025   0.791   1.756   3.721  0.4300  0.0701 -0.3573
 7856SOL     OW35026   3.089   4.047   4.270  0.4560 -0.0237  0.8919
 7856SOL    HW135027   2.994   4.052   4.260  0.9001 -0.9718 -3.8371
 7856SOL    HW235028   3.119   4.122   4.320 -1.9259  0.8911  0.9515
 7857SOL     OW35029   1.469   4.541   9.499 -0.0051  0.4112  0.3783
 7857SOL    HW135030   1.558   4.546   9.533 -0.8341  4.4228  1.9706
 7857SOL    HW235031   1.486   4.501   9.414  0.3864  0.8147  0.2711
 7858SOL     OW35032   1.888   4.133   3.170 -0.0568  0.1871  0.3366
 7858SOL    HW135033   1.810   4.086   3.139 -0.1916  0.0918  0.8133
 7858SOL    HW235034   1.935   4.064   3.217  1.5792  0.0315 -1.5278
 7859SOL     OW35035   0.629   4.073   5.866  1.0477  0.2604 -0.0497
 7859SOL    HW135036   0.563   4.024   5.816  1.7126 -0.3523 -0.3296
 7859SOL    HW235037   0.700   4.011   5.879  0.6424 -0.3363 -0.6596
 7860SOL     OW35038   1.563   2.729   9.831 -0.5737  0.0782  0.0602
 7860SOL    HW135039   1.651   2.736   9.795  0.4228 -0.4471  2.3637
 7860SOL    HW235040   1.578   2.766   9.918 -0.2240  0.4053 -0.1392
 7861SOL     OW35041   1.036   0.989  13.509 -0.0431 -0.3630 -0.4592
 7861SOL    HW135042   0.978   0.957  13.578  1.4388 -1.0835  0.4425
 7861SOL    HW235043   0.975   1.009  13.438  0.4751 -0.6858 -0.9952
 7862SOL     OW35044   1.325   3.227   8.109  0.0465 -0.1811 -0.1887
 7862SOL    HW135045   1.310   3.226   8.204 -3.2825  0.0023 -0.6897
 7862SOL    HW235046   1.419   3.244   8.105 -0.3048  1.4766 -1.1891
 7863SOL     OW35047   1.969   4.360   8.029 -0.1736  0.8158 -0.1728
 7863SOL    HW135048   1.885   4.399   8.053 -0.1388 -0.4848  2.0595
 7863SOL    HW235049   1.995   4.324   8.113 -2.3726  0.7809  0.5006
 7864SOL     OW35050   0.660   4.700   3.282  0.2070 -0.2000  0.4525
 7864SOL    HW135051   0.755   4.710   3.285  0.1547 -0.0501  1.3999
 7864SOL    HW235052   0.633   0.066   3.260  1.2568  0.0929  0.3727
 7865SOL     OW35053   2.512   3.673   1.507  1.0349  0.3385  0.8062
 7865SOL    HW135054   2.511   3.659   1.412  0.1332 -0.6668  0.9667
 7865SOL    HW235055   2.515   3.584   1.542 -3.1009 -0.4778 -0.9549
 7866SOL     OW35056   2.783   0.307   8.244 -0.0994 -0.9520  0.3244
 7866SOL    HW135057   2.835   0.387   8.238 -0.2949 -0.7565  1.1895
 7866SOL    HW235058   2.726   0.305   8.167 -1.1279 -2.6483  1.1222
 7867SOL     OW35059   0.169   0.711   9.363 -0.4326 -0.2114  0.0827
 7867SOL    HW135060   0.116   0.790   9.375 -0.6007 -0.5327  1.4483
 7867SOL    HW235061   0.201   0.674   9.445  0.4975  0.7882  0.1791
 7868SOL     OW35062   0.056   3.951   8.871 -0.1975 -0.1704 -0.3140
 7868SOL    HW135063   0.025   3.990   8.953 -1.8002  0.5886 -1.2733
 7868SOL    HW235064   0.094   4.027   8.828  0.4127 -1.4890 -2.1132
 7869SOL     OW35065   4.657   0.336   5.773 -0.2237  1.0140  0.6650
 7869SOL    HW135066   4.568   0.353   5.741 -0.1840  0.6072  0.3428
 7869SOL    HW235067   4.649   0.241   5.781 -0.8696  0.9950 -0.2076
 7870SOL     OW35068   3.940   0.541   0.469 -0.8086  0.2857 -0.0880
 7870SOL    HW135069   4.000   0.614   0.453  0.3640 -0.6953 -0.2031
 7870SOL    HW235070   3.936   0.556   0.563 -0.1033  0.4183 -0.0806
 7871SOL     OW35071   2.115   0.164   5.715  0.0097 -0.0988 -0.0389
 7871SOL    HW135072   2.198   0.191   5.677 -1.0133  3.2771  0.1005
 7871SOL    HW235073   2.099   0.234   5.777  0.4016 -0.7592  0.8033
 7872SOL     OW35074   2.679   3.389   1.147 -0.5183 -0.4188  0.7004
 7872SOL    HW135075   2.738   3.329   1.101 -1.5537 -1.3623  0.6061
 7872SOL    HW235076   2.674   3.346   1.233  0.3828 -0.4593  0.7288
 7873SOL     OW35077   1.864   3.784   7.416  0.0107  0.0068 -0.6499
 7873SOL    HW135078   1.856   3.717   7.483 -0.4464  0.3411 -0.3722
 7873SOL    HW235079   1.955   3.790   7.389  0.3956 -1.2734  0.4044
 7874SOL     OW35080   3.289   4.665   8.736 -0.4657  0.0033 -0.0690
 7874SOL    HW135081   3.225   4.710   8.791 -0.4150 -1.8903  1.5330
 7874SOL    HW235082   3.294   4.576   8.770 -0.3961 -0.1885 -0.5755
 7875SOL     OW35083   3.195   2.480  16.854 -0.2377  0.1362 -0.3540
 7875SOL    HW135084   3.256   2.423  16.900 -0.8897 -0.2614  0.0034
 7875SOL    HW235085   3.244   2.486  16.772  0.3716 -0.3978 -0.0299
 7876SOL     OW35086   4.648   3.536   8.717 -0.2872 -0.7719  0.0714
 7876SOL    HW135087   0.001   3.578   8.677 -2.7516  2.0336 -1.6968
 7876SOL    HW235088   4.686   3.448   8.720  0.1671 -0.6128 -0.9325
 7877SOL     OW35089   2.906   3.611   2.942  0.1474  0.4298 -0.1838
 7877SOL    HW135090   2.986   3.663   2.936 -0.0267  0.5102 -1.7987
 7877SOL    HW235091   2.858   3.664   3.006 -0.7005  0.6323 -0.9796
 7878SOL     OW35092   2.536   1.974  10.976  0.0226 -0.1095  0.4988
 7878SOL    HW135093   2.490   2.050  10.941  1.1602  0.6243  0.6035
 7878SOL    HW235094   2.593   2.012  11.043  1.5171  0.1069 -0.9133
 7879SOL     OW35095   2.186   0.206   1.494  0.0451  0.9800 -0.1705
 7879SOL    HW135096   2.203   0.114   1.473  0.3474  0.8451  0.6841
 7879SOL    HW235097   2.277   0.234   1.491  0.6758 -0.8983  1.2730
 7880SOL     OW35098   4.340   1.922   6.847 -0.3967  0.2003  0.0086
 7880SOL    HW135099   4.409   1.963   6.794  0.6121  0.4999  1.5724
 7880SOL    HW235100   4.301   1.873   6.774  0.9515  1.0832 -1.3111
 7881SOL     OW35101   4.351   0.309  10.095 -0.1120  0.3877  0.6676
 7881SOL    HW135102   4.299   0.257  10.156  0.4169 -0.8092  0.0976
 7881SOL    HW235103   4.303   0.310  10.013 -0.0589 -0.0450  0.6293
 7882SOL     OW35104   1.021   2.399   2.067  0.8472 -0.1278  0.1759
 7882SOL    HW135105   1.104   2.351   2.075  1.9058  1.6496 -0.1521
 7882SOL    HW235106   1.053   2.480   2.029 -0.8881  0.3446 -0.2724
 7883SOL     OW35107   2.185   3.058   9.156 -0.1321 -0.3483 -0.0828
 7883SOL    HW135108   2.177   2.968   9.188 -1.0402 -0.4331 -0.5609
 7883SOL    HW235109   2.280   3.066   9.152 -0.3143  1.8025 -0.1192
 7884SOL     OW35110   0.016   4.363  14.810  0.0865  0.4287 -0.4272
 7884SOL    HW135111   0.042   4.339  14.899  2.0696  0.0384 -1.1163
 7884SOL    HW235112   0.083   4.312  14.764  0.8017  2.4870 -1.6472
 7885SOL     OW35113   2.612   0.519   1.967  0.1468  0.4135  0.2961
 7885SOL    HW135114   2.612   0.529   2.062 -0.0005  0.7608  0.2589
 7885SOL    HW235115   2.697   0.476   1.962 -0.6429 -0.9397 -1.7624
 7886SOL     OW35116   2.602   1.774   8.198 -0.1513  0.3069 -0.2660
 7886SOL    HW135117   2.595   1.840   8.267  0.1893 -0.9552  0.9744
 7886SOL    HW235118   2.666   1.712   8.233 -0.7756 -0.5826 -0.6988
 7887SOL     OW35119   3.729   1.646   9.080 -0.3831  0.4417  0.4046
 7887SOL    HW135120   3.800   1.583   9.092 -0.4907 -0.0786 -1.6486
 7887SOL    HW235121   3.753   1.692   8.999  1.9041 -2.3925 -0.5631
 7888SOL     OW35122   4.594   2.030  10.753 -0.3100 -0.0168 -0.1305
 7888SOL    HW135123   4.624   1.941  10.769 -0.0188 -0.2822 -2.1580
 7888SOL    HW235124   4.501   2.010  10.753  0.0005 -1.4494 -0.9088
 7889SOL     OW35125   2.207   0.506   6.569  0.2297  0.0712  0.0696
 7889SOL    HW135126   2.209   0.584   6.514 -0.0102 -0.7437 -1.0959
 7889SOL    HW235127   2.190   0.432   6.511 -0.0662 -0.0673  0.3281
 7890SOL     OW35128   0.410   3.767   7.304 -0.1284 -0.0270  0.2777
 7890SOL    HW135129   0.501   3.740   7.315 -0.0994 -0.5050 -1.1631
 7890SOL    HW235130   0.372   3.715   7.375 -0.4795  1.7410  1.3881
 7891SOL     OW35131   2.142   4.398   4.281  0.3562 -0.0240  0.3597
 7891SOL    HW135132   2.049   4.396   4.302  0.0886 -0.9933 -0.9036
 7891SOL    HW235133   2.185   4.370   4.362 -2.0376  0.0384  1.6361
 7892SOL     OW35134   2.227   0.766  17.411 -0.0916  0.2418 -0.1847
 7892SOL    HW135135   2.218   0.817  17.331  0.6923 -0.2935 -0.6181
 7892SOL    HW235136   2.180   0.684  17.396  0.2119  0.1140 -0.4359
 7893SOL     OW35137   2.811   0.010   2.964  0.1245 -0.2218  0.2889
 7893SOL    HW135138   2.788   4.719   2.872  1.1414 -2.3726  0.3707
 7893SOL    HW235139   2.776   4.654   3.004  1.9263 -1.3952 -0.4586
 7894SOL     OW35140   4.219   0.590   1.566 -0.1668 -0.1605 -0.1815
 7894SOL    HW135141   4.306   0.629   1.569  0.4594 -1.3940 -2.4477
 7894SOL    HW235142   4.172   0.657   1.515  0.2500 -1.1851 -1.9176
 7895SOL     OW35143   2.015   0.523   8.442 -0.1408 -0.1579  0.2381
 7895SOL    HW135144   2.022   0.573   8.524 -0.1026  1.3920 -0.7052
 7895SOL    HW235145   1.979   0.589   8.382  2.5004  0.2281 -0.8881
 7896SOL     OW35146   2.561   4.262   4.419  0.4852  0.1817  0.3590
 7896SOL    HW135147   2.477   4.267   4.372  0.9872 -0.9929 -0.6742
 7896SOL    HW235148   2.616   4.335   4.392 -0.2649  1.4854  2.3851
 7897SOL     OW35149   4.152   0.356  17.508  0.4458 -0.1731 -0.1744
 7897SOL    HW135150   4.173   0.331  17.418  0.3905  0.7549 -0.4412
 7897SOL    HW235151   4.060   0.381  17.502  0.2062 -0.6520  1.3466
 7898SOL     OW35152   0.454   1.498   4.911 -0.0251  0.3175  0.2814
 7898SOL    HW135153   0.498   1.444   4.845 -1.6372 -1.0938  0.3507
 7898SOL    HW235154   0.538   1.526   4.947 -0.5662 -0.7432  2.3137
 7899SOL     OW35155   1.175   2.916   8.262 -0.1608  0.0548 -0.1857
 7899SOL    HW135156   1.127   2.861   8.201 -4.3524 -0.8746  3.9707
 7899SOL    HW235157   1.262   2.911   8.224  0.2497 -3.5041  1.2545
 7900SOL     OW35158   1.835   4.723  16.244  0.4812  0.3821  0.4403
 7900SOL    HW135159   1.858   0.086  16.210  0.9170  0.0882 -0.0126
 7900SOL    HW235160   1.863   4.664  16.174 -1.3620  0.6350 -0.5220
 7901SOL     OW35161   2.610   2.125   8.649  0.1814  0.2450 -0.3151
 7901SOL    HW135162   2.701   2.096   8.639  0.9139  1.7565  1.8639
 7901SOL    HW235163   2.555   2.060   8.605 -0.4107  0.2093  0.4741
 7902SOL     OW35164   2.140   4.574   4.660 -0.2513 -0.3857  0.4390
 7902SOL    HW135165   2.096   4.565   4.575  3.3977  0.9285 -1.5698
 7902SOL    HW235166   2.070   4.577   4.725  0.8139  0.6332  1.5326
 7903SOL     OW35167   1.122   4.007  10.635  0.0880  0.1191  0.2556
 7903SOL    HW135168   1.217   4.020  10.637  0.2440 -0.8873 -0.7300
 7903SOL    HW235169   1.119   3.980  10.544  1.6252  2.4921 -0.4899
 7904SOL     OW35170   1.689   2.799  16.998  0.5864  0.2314 -0.4675
 7904SOL    HW135171   1.753   2.756  17.053  0.6030 -0.6861 -1.1918
 7904SOL    HW235172   1.702   2.891  17.020 -1.5282  0.7899 -1.4635
 7905SOL     OW35173   1.893   1.055   4.603  0.2042  0.0317 -0.1620
 7905SOL    HW135174   1.926   1.142   4.579 -0.3350  0.6576  1.4197
 7905SOL    HW235175   1.802   1.074   4.584  0.3934  1.3850  0.2755
 7906SOL     OW35176   2.996   3.144   2.688  0.4849 -0.0969 -0.0234
 7906SOL    HW135177   3.078   3.189   2.707  0.0609  0.4511  0.5005
 7906SOL    HW235178   2.935   3.217   2.692  1.4786  0.6334  1.7680
 7907SOL     OW35179   0.985   4.694  14.651 -0.0991  0.3724  0.2191
 7907SOL    HW135180   0.975   4.691  14.747  1.2690 -0.3734  0.3358
 7907SOL    HW235181   1.054   4.628  14.642 -0.6443  0.1408 -2.0315
 7908SOL     OW35182   2.758   1.130   4.819 -0.5078 -0.1562 -0.7260
 7908SOL    HW135183   2.849   1.104   4.835 -0.6892 -1.0322 -1.1491
 7908SOL    HW235184   2.720   1.043   4.808  1.5374 -0.9193 -1.8384
 7909SOL     OW35185   3.013   4.681   0.660 -0.8930 -0.3163  0.6214
 7909SOL    HW135186   2.936   0.004   0.629 -1.1171 -1.3832 -0.4128
 7909SOL    HW235187   3.083   0.017   0.632  0.2337 -1.8396  0.2103
 7910SOL     OW35188   3.880   3.022  12.859  0.8540  0.1162  0.3894
 7910SOL    HW135189   3.895   3.094  12.921 -1.5891 -0.1902  1.3203
 7910SOL    HW235190   3.786   3.017  12.842  1.0196 -2.2330  0.0981
 7911SOL     OW35191   1.621   1.529   4.872 -0.0383 -0.7498  0.3838
 7911SOL    HW135192   1.624   1.494   4.783  0.9320  1.1076 -0.3267
 7911SOL    HW235193   1.666   1.612   4.857  0.5000 -1.8314 -3.9969
 7912SOL     OW35194   2.052   2.851   3.273 -0.1334  0.1167 -0.4557
 7912SOL    HW135195   2.081   2.847   3.182 -1.8386 -1.7673 -0.8996
 7912SOL    HW235196   2.019   2.940   3.287  0.3109 -0.1500  2.3146
 7913SOL     OW35197   4.271   2.230   3.174  0.0999  0.1779 -0.3878
 7913SOL    HW135198   4.288   2.144   3.138  1.0782  1.1450 -2.2473
 7913SOL    HW235199   4.216   2.268   3.106 -1.8995  2.3729  2.4098
 7914SOL     OW35200   1.103   1.450   2.552 -0.0113 -0.0965 -0.4953
 7914SOL    HW135201   1.082   1.542   2.561  1.4787  0.5430 -3.6291
 7914SOL    HW235202   1.016   1.409   2.550 -0.5632  1.1138 -0.7496
 7915SOL     OW35203   2.388   2.564   8.249 -0.5495 -0.0585 -0.7473
 7915SOL    HW135204   2.369   2.488   8.303  2.9020  0.1459  0.7859
 7915SOL    HW235205   2.307   2.580   8.200  1.0735  0.1228 -3.3706
 7916SOL     OW35206   4.259   2.025   9.451 -0.5528 -0.7955 -0.1595
 7916SOL    HW135207   4.188   2.078   9.415  0.8059  0.7237 -0.5741
 7916SOL    HW235208   4.217   1.969   9.516 -0.4308  0.5760  1.0899
 7917SOL     OW35209   2.311   1.755   3.755  0.2304  0.2132  0.1919
 7917SOL    HW135210   2.369   1.706   3.813 -1.3691 -0.6903  1.0541
 7917SOL    HW235211   2.239   1.691   3.749 -0.4820  0.8895  1.5698
 7918SOL     OW35212   2.511   3.777  13.432 -0.0084 -0.2166 -0.2094
 7918SOL    HW135213   2.469   3.779  13.347  4.4385  2.1935 -2.3715
 7918SOL    HW235214   2.472   3.697  13.468 -1.1985  1.0399  1.2864
 7919SOL     OW35215   2.122   1.553   6.636 -0.2754 -0.0232 -0.2596
 7919SOL    HW135216   2.032   1.549   6.604 -0.8688  2.0031  1.1422
 7919SOL    HW235217   2.138   1.491   6.707 -1.0773  0.7668  0.6149
 7920SOL     OW35218   3.647   0.416   3.339 -0.4894 -0.0611  0.2647
 7920SOL    HW135219   3.632   0.407   3.434 -1.5360 -1.2437 -0.0113
 7920SOL    HW235220   3.562   0.410   3.296 -0.6225  1.2883  0.3473
 7921SOL     OW35221   2.776   2.514   9.305  0.2990  0.1157 -0.5799
 7921SOL    HW135222   2.734   2.502   9.390 -0.3151  1.0338 -0.7512
 7921SOL    HW235223   2.700   2.517   9.248  0.4930  0.3098 -0.8297
 7922SOL     OW35224   0.053   0.955   5.541 -0.4780 -0.5851  0.0624
 7922SOL    HW135225   0.026   1.026   5.598 -1.2810  0.4194 -1.5681
 7922SOL    HW235226   0.070   0.888   5.607  0.5357 -1.0492 -0.6638
 7923SOL     OW35227   4.596   1.285  11.426  0.6853  0.3554 -0.3023
 7923SOL    HW135228   4.664   1.231  11.467 -0.6438  1.2234  3.0441
 7923SOL    HW235229   4.652   1.354  11.390  0.3914 -0.0066 -1.4414
 7924SOL     OW35230   4.102   4.125   6.002  0.1420 -0.1053  0.0890
 7924SOL    HW135231   4.106   4.220   6.014 -2.3552 -0.2954  2.3794
 7924SOL    HW235232   4.139   4.126   5.914  0.4765  0.5472  0.2310
 7925SOL     OW35233   0.602   1.699   1.071 -0.4039  0.1220 -0.0757
 7925SOL    HW135234   0.518   1.656   1.056 -2.0533  3.1043  0.5752
 7925SOL    HW235235   0.581   1.778   1.122  0.4787  1.0799 -1.1766
 7926SOL     OW35236   4.271   1.290  12.378  0.1877  0.3013 -0.1666
 7926SOL    HW135237   4.191   1.279  12.327 -1.5878 -1.6751  3.0045
 7926SOL    HW235238   4.295   1.381  12.361  0.6529  0.9370  3.8886
 7927SOL     OW35239   3.941   2.801   7.126 -0.4256 -0.0571  0.6318
 7927SOL    HW135240   3.900   2.842   7.202  0.0795  3.1714 -0.8563
 7927SOL    HW235241   3.893   2.834   7.050  0.8763  0.3155 -0.0312
 7928SOL     OW35242   2.913   2.795  15.349 -0.5039 -0.3389 -0.0358
 7928SOL    HW135243   2.927   2.800  15.444 -0.3738 -0.0405 -0.0716
 7928SOL    HW235244   2.902   2.701  15.339 -0.5134 -0.5262  1.7548
 7929SOL     OW35245   0.612   3.441   6.292  0.2121  0.0552  0.3460
 7929SOL    HW135246   0.618   3.346   6.300 -0.1377 -0.0008 -0.0752
 7929SOL    HW235247   0.516   3.442   6.291  0.2482  0.8021 -1.4649
 7930SOL     OW35248   0.053   0.140   3.119 -0.6626  0.0626  0.0113
 7930SOL    HW135249   0.100   0.067   3.160  0.6054 -0.0567 -1.6947
 7930SOL    HW235250   0.004   0.185   3.188 -3.9572 -0.6806 -1.8505
 7931SOL     OW35251   2.445   0.234  11.871  0.0206 -0.6955  0.3096
 7931SOL    HW135252   2.377   0.186  11.919 -2.1428  0.1972 -1.8875
 7931SOL    HW235253   2.487   0.161  11.825  1.1947  0.0321  0.2218
 7932SOL     OW35254   0.005   2.238   7.841  0.3240 -0.0621 -0.0779
 7932SOL    HW135255   0.033   2.163   7.893  2.1031 -0.2938 -1.3357
 7932SOL    HW235256   0.043   2.196   7.764  1.3695 -1.2092  1.0760
 7933SOL     OW35257   2.672   2.347   6.707 -0.4619 -0.1569  0.0765
 7933SOL    HW135258   2.656   2.278   6.772  0.8755 -0.3367  0.2014
 7933SOL    HW235259   2.662   2.422   6.765  1.0717  2.7048 -3.3802
 7934SOL     OW35260   2.187   1.763  16.686  0.0610  0.1662 -0.2183
 7934SOL    HW135261   2.212   1.750  16.595 -0.7290 -1.0849 -0.2554
 7934SOL    HW235262   2.183   1.670  16.706  1.8961  0.0248 -0.4811
 7935SOL     OW35263   4.364   2.036   1.345 -0.7030  0.2470 -0.2783
 7935SOL    HW135264   4.311   2.105   1.304 -0.2144  2.2642  2.4272
 7935SOL    HW235265   4.412   2.094   1.404 -0.4447  0.2594 -0.5020
 7936SOL     OW35266   0.165   1.657   4.672  0.1563  0.3622  0.4081
 7936SOL    HW135267   0.108   1.623   4.603 -1.6752 -1.7019  2.9411
 7936SOL    HW235268   0.193   1.743   4.641 -0.0685  0.3934  0.2884
 7937SOL     OW35269   3.251   3.976   0.154  0.4679 -0.1362  0.1222
 7937SOL    HW135270   3.183   3.978   0.221  0.0688 -1.7751 -0.2459
 7937SOL    HW235271   3.198   4.022   0.088  0.2634 -0.6375 -0.0634
 7938SOL     OW35272   1.402   0.598  10.288  0.4598  0.7983  0.4044
 7938SOL    HW135273   1.373   0.669  10.345  1.4836  2.3901 -1.0331
 7938SOL    HW235274   1.493   0.629  10.288  0.9817 -0.7538 -0.6602
 7939SOL     OW35275   1.340   4.190   6.418  0.7131  0.2156 -0.5697
 7939SOL    HW135276   1.412   4.244   6.384  1.2115 -0.4488 -0.5847
 7939SOL    HW235277   1.260   4.236   6.395  0.5109  0.5237  0.7493
 7940SOL     OW35278   4.371   4.505   9.010 -0.2124  0.3897  0.3596
 7940SOL    HW135279   4.312   4.566   8.966 -1.1870 -0.1435  0.9412
 7940SOL    HW235280   4.339   4.419   8.981  0.3636  0.5618 -0.8021
 7941SOL     OW35281   0.356   2.570  13.610 -0.3831  0.1389 -0.1581
 7941SOL    HW135282   0.386   2.578  13.701 -1.7442 -2.4017  0.4985
 7941SOL    HW235283   0.322   2.481  13.614  0.8859 -0.3078  0.7343
 7942SOL     OW35284   4.584   1.812   2.675  0.5818 -0.3370  0.6024
 7942SOL    HW135285   4.613   1.807   2.584 -2.4209  3.9606 -0.5974
 7942SOL    HW235286   4.648   1.755   2.716  1.3239 -0.4776 -0.7547
 7943SOL     OW35287   0.088   3.479   5.064  0.7453 -0.6830 -0.2989
 7943SOL    HW135288   0.088   3.511   4.974 -0.9678 -0.6893 -0.2920
 7943SOL    HW235289   0.025   3.407   5.064 -1.1324  0.9683 -2.4478
 7944SOL     OW35290   3.964   4.586   1.098 -0.1292 -0.2000 -0.2569
 7944SOL    HW135291   3.871   4.605   1.083 -0.2848 -1.2419 -0.6300
 7944SOL    HW235292   3.954   4.504   1.146  1.3448 -0.4444 -0.3711
 7945SOL     OW35293   4.045   3.594   2.894  0.5095 -0.1240  0.2809
 7945SOL    HW135294   4.099   3.525   2.856 -0.1872 -1.0739  1.0160
 7945SOL    HW235295   4.115   3.659   2.898 -0.1279  0.5472  0.4673
 7946SOL     OW35296   4.547   1.445   7.767  0.2024  0.1080 -0.3291
 7946SOL    HW135297   4.536   1.500   7.689  1.7363  1.8783  0.7094
 7946SOL    HW235298   4.538   1.509   7.837  1.9935  0.0285 -0.0282
 7947SOL     OW35299   3.563   1.244   7.634  0.4154  0.2765 -0.8165
 7947SOL    HW135300   3.570   1.157   7.675 -0.0444 -0.1640 -1.6640
 7947SOL    HW235301   3.566   1.291   7.717 -1.1794  0.8829 -1.1005
 7948SOL     OW35302   4.244   0.405   7.042  0.4851 -0.2643  0.3232
 7948SOL    HW135303   4.271   0.317   7.015  1.5240 -0.2061  1.1943
 7948SOL    HW235304   4.330   0.447   7.039 -0.2377  1.3178  2.1877
 7949SOL     OW35305   2.265   4.601   8.688  0.0683  0.1893 -0.0563
 7949SOL    HW135306   2.257   4.692   8.715  0.0248 -0.1128  0.9244
 7949SOL    HW235307   2.339   4.607   8.627 -0.9901 -1.8949 -1.5430
 7950SOL     OW35308   1.937   1.322   9.624  0.2085 -0.3035  0.2278
 7950SOL    HW135309   1.901   1.302   9.710 -3.1147  0.8412 -0.9316
 7950SOL    HW235310   1.970   1.232   9.616 -1.4795 -0.8453 -0.7253
 7951SOL     OW35311   4.607   2.653   8.163 -0.5103 -0.3130 -0.4613
 7951SOL    HW135312   4.619   2.564   8.130 -0.8447  0.4948 -2.7204
 7951SOL    HW235313   4.570   2.697   8.087 -0.9150 -0.4710 -0.3598
 7952SOL     OW35314   2.380   4.673   0.907  0.4710 -0.1538 -0.4542
 7952SOL    HW135315   2.411   4.646   0.993  0.3351  0.7112 -0.1343
 7952SOL    HW235316   2.461   4.700   0.863  0.5861  1.5702  0.8139
 7953SOL     OW35317   3.111   0.535   9.590  0.9334 -0.5317 -0.3349
 7953SOL    HW135318   3.093   0.506   9.500  0.9479  1.6501 -1.0375
 7953SOL    HW235319   3.024   0.567   9.615  1.3143  1.8020 -1.9693
 7954SOL     OW35320   3.801   3.379  10.078 -0.1860 -0.3240 -0.0070
 7954SOL    HW135321   3.741   3.437  10.032 -0.4578  0.7374  1.6965
 7954SOL    HW235322   3.869   3.345  10.020  0.5367  3.1227 -1.1554
 7955SOL     OW35323   2.676   2.267   7.224 -0.4471 -0.9096 -0.3920
 7955SOL    HW135324   2.701   2.360   7.231 -0.5512 -0.8011 -1.5052
 7955SOL    HW235325   2.727   2.230   7.296 -2.9250 -0.3891  1.6427
 7956SOL     OW35326   1.917   4.686  13.825 -0.0955  0.8507 -0.1240
 7956SOL    HW135327   2.001   4.681  13.871  0.3416 -0.1196 -1.0270
 7956SOL    HW235328   1.875   4.602  13.842  1.4157  0.0985 -0.0834
 7957SOL     OW35329   3.969   4.046   4.445 -0.0568  0.3432 -1.0359
 7957SOL    HW135330   4.007   3.960   4.463 -1.6565 -0.0263  0.5793
 7957SOL    HW235331   4.037   4.096   4.490  0.3999 -2.2562  1.1561
 7958SOL     OW35332   2.449   2.506  16.052 -0.1630 -0.4629 -0.3889
 7958SOL    HW135333   2.483   2.503  15.962 -0.6630  1.3141 -0.6481
 7958SOL    HW235334   2.362   2.466  16.052  0.6587 -2.2110  0.0243
 7959SOL     OW35335   2.057   0.127  15.001 -0.3798 -0.4710  0.0217
 7959SOL    HW135336   2.007   0.097  15.077 -0.2885  0.8724  0.6040
 7959SOL    HW235337   1.993   0.193  14.974 -0.0083 -0.0011  0.2942
 7960SOL     OW35338   3.765   0.771   2.047 -0.0125 -0.1269 -0.1948
 7960SOL    HW135339   3.718   0.795   1.967 -0.3073 -2.4658 -0.7068
 7960SOL    HW235340   3.832   0.719   2.004 -0.1731 -2.2662  2.1711
 7961SOL     OW35341   3.631   2.360   4.465  0.9438  0.4280  0.5293
 7961SOL    HW135342   3.609   2.406   4.384  1.4516  2.4422  1.5594
 7961SOL    HW235343   3.571   2.285   4.458  1.5746 -0.0034 -0.3459
 7962SOL     OW35344   2.742   0.574   5.852 -0.4602  0.2514 -0.2836
 7962SOL    HW135345   2.819   0.521   5.829 -0.6784 -0.4256  0.5591
 7962SOL    HW235346   2.783   0.641   5.906 -0.5942 -1.3127  1.7391
 7963SOL     OW35347   4.579   4.597  11.718 -0.2428 -0.2554  0.4400
 7963SOL    HW135348   4.624   4.520  11.684  0.4989  0.5746 -0.4481
 7963SOL    HW235349   4.487   4.576  11.706 -0.2615 -1.6739  2.8991
 7964SOL     OW35350   0.893   2.656   5.885  0.3760 -0.0254  0.3717
 7964SOL    HW135351   0.896   2.593   5.813  1.5814 -0.2378  0.6137
 7964SOL    HW235352   0.981   2.651   5.921 -0.0064 -1.5850  1.0774
 7965SOL     OW35353   0.064   2.909   6.943 -0.6850  0.7420  1.0330
 7965SOL    HW135354   0.081   3.003   6.957  0.0411  0.1841  3.9561
 7965SOL    HW235355   4.719   2.890   7.008 -0.3394 -0.2778  1.0857
 7966SOL     OW35356   3.837   1.716  15.265 -0.7918  0.3765 -0.1203
 7966SOL    HW135357   3.814   1.715  15.172 -1.0231 -1.3858 -0.0440
 7966SOL    HW235358   3.906   1.651  15.256  0.3571  1.9119 -2.3925
 7967SOL     OW35359   3.210   1.239   5.423 -0.2027  0.4918  0.3406
 7967SOL    HW135360   3.204   1.147   5.395  0.9605 -0.0152  1.7492
 7967SOL    HW235361   3.239   1.241   5.514  1.5795 -0.2884 -0.2066
 7968SOL     OW35362   3.595   2.182   8.505 -0.2828  0.2236  0.2817
 7968SOL    HW135363   3.690   2.199   8.505 -0.1877 -0.3641  1.8468
 7968SOL    HW235364   3.583   2.173   8.410  1.7939 -1.7871  0.1949
 7969SOL     OW35365   0.331   2.229   2.027 -0.3774 -0.3479 -0.0667
 7969SOL    HW135366   0.406   2.288   2.023  1.3842 -2.7102 -1.6587
 7969SOL    HW235367   0.319   2.208   2.120 -2.5061  0.8000 -0.0710
 7970SOL     OW35368   3.568   2.558   7.663 -0.3842 -1.1531 -0.1254
 7970SOL    HW135369   3.560   2.597   7.575  0.4323  0.6120  0.5901
 7970SOL    HW235370   3.641   2.498   7.657  1.1492  0.8355 -1.4393
 7971SOL     OW35371   1.226   1.854   9.556 -0.5349  0.9779 -0.2323
 7971SOL    HW135372   1.159   1.847   9.624 -0.6077  0.0226 -0.4066
 7971SOL    HW235373   1.241   1.949   9.558  0.9917  0.7148  0.9671
 7972SOL     OW35374   2.384   3.173  11.496  0.4828  0.7792  0.9014
 7972SOL    HW135375   2.471   3.140  11.472 -0.1822 -1.1027  1.0715
 7972SOL    HW235376   2.377   3.120  11.575 -1.0467  0.6712  0.6834
 7973SOL     OW35377   1.430   4.677   2.396 -0.0340  0.8043 -1.0384
 7973SOL    HW135378   1.397   4.682   2.306 -1.2816 -0.7882 -0.6667
 7973SOL    HW235379   1.508   0.010   2.394 -0.6368  1.8173  2.5984
 7974SOL     OW35380   4.333   3.312   9.925  0.0500  0.1139  0.3818
 7974SOL    HW135381   4.388   3.278   9.854 -0.4637 -0.3059  0.1921
 7974SOL    HW235382   4.406   3.369   9.952 -1.9934  1.2401  3.5192
 7975SOL     OW35383   3.094   1.668   8.221  0.5723 -0.4179  0.6004
 7975SOL    HW135384   3.102   1.679   8.316  0.8380  0.8657  0.4223
 7975SOL    HW235385   3.187   1.661   8.198  0.7779  0.4751  1.1655
 7976SOL     OW35386   0.239   4.424   6.743  0.0375  0.0910  0.1860
 7976SOL    HW135387   0.166   4.363   6.748  0.5805 -0.6612 -1.0776
 7976SOL    HW235388   0.200   4.501   6.785  1.5609  1.6943 -1.3490
 7977SOL     OW35389   2.416   0.210   3.223 -0.1976  0.1190 -0.3071
 7977SOL    HW135390   2.511   0.217   3.224 -0.0466 -1.9379  0.7419
 7977SOL    HW235391   2.422   0.135   3.283  0.8627  0.1974 -0.3211
 7978SOL     OW35392   3.020   0.162   4.197  0.2257 -0.0333 -0.2700
 7978SOL    HW135393   2.997   0.222   4.126 -1.5181  0.6509  0.8651
 7978SOL    HW235394   3.097   0.214   4.222 -0.6398  0.0935  2.1448
 7979SOL     OW35395   4.003   3.958   7.772  0.2741 -0.6410 -0.3194
 7979SOL    HW135396   4.080   3.906   7.797 -1.0897 -2.3083  0.3919
 7979SOL    HW235397   3.940   3.939   7.841 -0.4483  1.8826 -0.2916
 7980SOL     OW35398   0.520   0.248   6.413 -0.1981  0.4354 -0.4486
 7980SOL    HW135399   0.454   0.240   6.482 -0.7653  0.5565 -0.9788
 7980SOL    HW235400   0.594   0.198   6.447 -2.2033 -2.6309 -0.6335
 7981SOL     OW35401   3.965   2.240   9.031  0.2088 -0.1221  0.2162
 7981SOL    HW135402   3.981   2.199   9.116  0.0897  0.2953  0.4394
 7981SOL    HW235403   3.956   2.160   8.979 -1.3789  0.4675 -0.4377
 7982SOL     OW35404   0.107   4.332   5.024  0.5540 -0.1437  0.0489
 7982SOL    HW135405   0.017   4.308   5.000 -0.2727 -1.2389  4.2731
 7982SOL    HW235406   0.119   4.288   5.108  0.1939 -0.1937  0.0749
 7983SOL     OW35407   3.085   0.218   2.442 -0.2123 -0.4497 -0.1852
 7983SOL    HW135408   3.160   0.158   2.442 -0.2878 -0.5467  0.5158
 7983SOL    HW235409   3.071   0.227   2.348 -1.5942 -0.3319  0.0300
 7984SOL     OW35410   3.470   2.086  14.959 -0.1732 -0.0067 -0.0466
 7984SOL    HW135411   3.448   2.109  15.050 -3.0489 -3.0067  0.0283
 7984SOL    HW235412   3.484   1.992  14.963  0.3823  0.0502 -0.7469
 7985SOL     OW35413   0.329   2.566   9.010 -0.1179  0.1843  0.6154
 7985SOL    HW135414   0.320   2.565   8.915 -1.9429  1.8827  0.7570
 7985SOL    HW235415   0.259   2.626   9.037 -0.3321  1.5882 -3.0096
 7986SOL     OW35416   0.982   1.367  12.746  0.2210  0.1586 -0.2095
 7986SOL    HW135417   0.907   1.358  12.688 -1.7299 -1.2208  2.5402
 7986SOL    HW235418   0.987   1.278  12.780 -1.7634  0.1725  0.1159
 7987SOL     OW35419   4.449   1.391   1.192 -0.3343  0.4220 -0.6500
 7987SOL    HW135420   4.543   1.395   1.176 -0.2074 -2.0699 -0.4599
 7987SOL    HW235421   4.423   1.483   1.197  0.6993  0.8442 -2.9169
 7988SOL     OW35422   0.014   1.576   6.361  0.7284  0.0447  0.2561
 7988SOL    HW135423   0.030   1.496   6.311 -1.2434  0.2120 -0.6086
 7988SOL    HW235424   0.049   1.548   6.446 -0.3867 -1.9504  0.0434
 7989SOL     OW35425   4.339   1.836   3.882 -0.0563 -0.1149  0.1592
 7989SOL    HW135426   4.334   1.853   3.788  0.5677 -0.4258  0.0684
 7989SOL    HW235427   4.301   1.748   3.880  1.1428 -0.6765  1.4814
 7990SOL     OW35428   2.908   1.041  15.796  0.0977 -0.7156  0.3103
 7990SOL    HW135429   2.923   1.126  15.754 -1.5629 -0.8351 -0.5423
 7990SOL    HW235430   2.867   1.061  15.880  2.0363 -0.9192  1.2900
 7991SOL     OW35431   3.907   0.996   6.923  0.0857 -0.2068 -0.1402
 7991SOL    HW135432   3.927   1.089   6.934  0.6729  0.1447 -3.9224
 7991SOL    HW235433   3.814   0.993   6.902 -0.2151 -0.5546  1.2686
 7992SOL     OW35434   4.056   0.051   4.171 -0.7430 -0.7247  0.2115
 7992SOL    HW135435   4.055   0.071   4.265  0.1587  0.2160  0.0097
 7992SOL    HW235436   3.975   4.723   4.169  0.0149 -1.9269  0.3886
 7993SOL     OW35437   1.166   4.334   9.760 -0.0836 -0.7017 -0.5754
 7993SOL    HW135438   1.173   4.395   9.686  1.4112 -1.4067 -0.9970
 7993SOL    HW235439   1.085   4.285   9.742  0.6406 -2.1524  0.1554
 7994SOL     OW35440   1.546   1.328   4.062 -0.1395  0.2868 -0.5977
 7994SOL    HW135441   1.459   1.355   4.032 -0.4325  1.3297  1.2067
 7994SOL    HW235442   1.554   1.244   4.015 -0.9229  0.2853 -0.7268
 7995SOL     OW35443   3.244   2.610   6.987 -0.0222 -0.2300 -1.0699
 7995SOL    HW135444   3.179   2.662   6.940 -0.0683  0.0448 -0.7028
 7995SOL    HW235445   3.189   2.532   6.991 -0.2756 -0.0177 -0.3235
 7996SOL     OW35446   2.362   3.421   3.516 -0.1451  0.2075  0.4577
 7996SOL    HW135447   2.458   3.430   3.513 -0.2436  1.1498  0.0356
 7996SOL    HW235448   2.343   3.385   3.430  0.1084  0.1129  0.4407
 7997SOL     OW35449   3.472   3.904   1.093  0.1052  0.1886  0.2093
 7997SOL    HW135450   3.400   3.945   1.141  0.5691  2.2782 -0.8828
 7997SOL    HW235451   3.556   3.932   1.129 -0.4606  1.6578  0.3860
 7998SOL     OW35452   0.918   2.154   8.840  0.1114  0.3100 -0.7536
 7998SOL    HW135453   0.858   2.091   8.880  0.7660 -0.8331 -1.5873
 7998SOL    HW235454   0.993   2.102   8.813  0.4237 -0.5450  1.7916
 7999SOL     OW35455   2.439   0.988   5.407 -0.1941 -0.1119  0.6719
 7999SOL    HW135456   2.520   0.981   5.458  0.5092  0.4799 -0.3766
 7999SOL    HW235457   2.454   1.063   5.349 -0.0341 -0.6383  0.0366
 8000SOL     OW35458   3.112   1.382   0.952 -0.3062 -0.6417  0.1674
 8000SOL    HW135459   3.129   1.475   0.967 -1.0314 -0.3429 -0.8281
 8000SOL    HW235460   3.195   1.338   0.936 -1.5853 -1.1060 -5.2238
 8001SOL     OW35461   0.081   1.055   8.672 -0.2188  0.0963 -0.1996
 8001SOL    HW135462   0.169   1.047   8.634 -1.1220 -1.0519 -2.0531
 8001SOL    HW235463   0.102   1.124   8.735 -0.4904  2.1046 -2.3155
 8002SOL     OW35464   1.329   3.745   6.370 -0.0217 -0.3531  0.0801
 8002SOL    HW135465   1.265   3.739   6.299  2.3251  0.3312 -2.0934
 8002SOL    HW235466   1.365   3.834   6.361 -0.6552 -0.2780 -1.6603
 8003SOL     OW35467   4.122   0.663   0.917  0.7827 -0.7574  0.5701
 8003SOL    HW135468   4.180   0.708   0.856 -0.3512 -1.2739 -0.8998
 8003SOL    HW235469   4.034   0.661   0.877  0.5916  1.0630  0.9053
 8004SOL     OW35470   3.617   1.712   4.656  0.5300  0.0495  0.1658
 8004SOL    HW135471   3.613   1.634   4.601 -0.4293 -1.6530  2.6314
 8004SOL    HW235472   3.711   1.726   4.654  0.4493  0.3877 -1.0557
 8005SOL     OW35473   0.524   2.173   7.860 -0.3898  0.0757  0.7944
 8005SOL    HW135474   0.556   2.254   7.820  0.8802 -0.2932  1.0340
 8005SOL    HW235475   0.603   2.120   7.853 -1.1194 -0.9090  0.0856
 8006SOL     OW35476   2.426   0.484   7.563 -0.6054 -0.3389 -0.6043
 8006SOL    HW135477   2.348   0.444   7.600 -0.1858 -0.2635  0.3727
 8006SOL    HW235478   2.418   0.569   7.606 -1.5012 -1.8386  2.1486
 8007SOL     OW35479   0.349   2.749   4.693 -0.4947  0.5158 -0.5165
 8007SOL    HW135480   0.421   2.811   4.703 -0.0181 -0.3678  1.5353
 8007SOL    HW235481   0.292   2.779   4.764 -0.7357  1.6662 -1.1965
 8008SOL     OW35482   0.348   3.333  13.244 -0.5118  0.3593 -0.7073
 8008SOL    HW135483   0.360   3.327  13.338  0.2502  0.7007 -0.7811
 8008SOL    HW235484   0.322   3.425  13.234  1.1103  0.9238  0.2222
 8009SOL     OW35485   3.281   0.853   7.320 -0.2300 -0.4099 -0.1782
 8009SOL    HW135486   3.346   0.900   7.267 -1.1559  0.5886 -0.4172
 8009SOL    HW235487   3.335   0.811   7.387  2.3649  2.5192 -0.4485
 8010SOL     OW35488   4.521   2.275   3.650  0.1660  1.0194 -0.0341
 8010SOL    HW135489   4.549   2.356   3.609  2.2105 -0.2577 -1.1286
 8010SOL    HW235490   4.457   2.248   3.585  0.3874  2.5371 -0.8668
 8011SOL     OW35491   2.871   0.351  14.516 -0.0163 -0.0000 -0.6457
 8011SOL    HW135492   2.866   0.340  14.422  0.3771  1.1931 -0.8133
 8011SOL    HW235493   2.778   0.370  14.530  0.3098  1.7920 -0.8251
 8012SOL     OW35494   0.245   1.293   7.428  0.1905  0.2234 -0.6513
 8012SOL    HW135495   0.308   1.220   7.423  2.1203  1.6931  2.2378
 8012SOL    HW235496   0.312   1.354   7.458  1.4932 -2.2298  1.5257
 8013SOL     OW35497   2.771   0.088   5.022  0.2851  0.2195  0.0856
 8013SOL    HW135498   2.814   0.006   5.001  0.7344 -0.0853  2.2423
 8013SOL    HW235499   2.772   0.123   4.932 -2.1519 -0.6029 -0.2551
 8014SOL     OW35500   2.793   2.583  10.499 -0.6064  0.2343  0.4481
 8014SOL    HW135501   2.839   2.662  10.473 -1.2171  0.4376 -0.0264
 8014SOL    HW235502   2.778   2.587  10.593 -1.1631 -0.1995  0.3837
 8015SOL     OW35503   3.276   1.410   9.048  0.2121 -0.3632  0.5998
 8015SOL    HW135504   3.336   1.444   9.114  1.7005  1.8102 -1.8765
 8015SOL    HW235505   3.336   1.375   8.982  0.6759  0.3868  0.6241
 8016SOL     OW35506   4.373   2.368   8.363 -0.2035  0.1026  0.6727
 8016SOL    HW135507   4.365   2.459   8.334 -0.6549 -0.5408 -1.2752
 8016SOL    HW235508   4.455   2.351   8.317  0.2260  0.8200  1.1797
 8017SOL     OW35509   1.698   0.145   8.610 -0.6372  0.0076  0.4136
 8017SOL    HW135510   1.709   0.152   8.705 -1.7889  3.3621  0.2994
 8017SOL    HW235511   1.680   0.053   8.593 -1.2733  0.6669 -2.5479
 8018SOL     OW35512   3.668   1.387   2.957  0.1170 -0.1447 -0.4564
 8018SOL    HW135513   3.722   1.317   2.922 -1.0529 -0.2467 -2.0665
 8018SOL    HW235514   3.652   1.356   3.047  1.2439  3.0984  0.8784
 8019SOL     OW35515   2.784   0.065   2.255 -0.4755  0.4542 -0.1253
 8019SOL    HW135516   2.744   4.712   2.297  3.2722 -0.5992  1.5547
 8019SOL    HW235517   2.749   0.134   2.310 -1.0982 -0.4161  0.5698
 8020SOL     OW35518   1.106   3.084   8.628 -0.5699  0.1546  0.0052
 8020SOL    HW135519   1.016   3.055   8.616 -0.8089  0.1564  1.8604
 8020SOL    HW235520   1.116   3.137   8.549  0.6406  1.3966  0.9951
 8021SOL     OW35521   1.975   4.195   9.996 -0.2925 -0.4853 -0.2409
 8021SOL    HW135522   1.904   4.175   9.935  0.0134 -0.7206 -0.5213
 8021SOL    HW235523   2.022   4.260   9.944  2.3634 -0.8916  1.6693
 8022SOL     OW35524   4.204   2.916   0.901 -0.0842  0.2401  0.1657
 8022SOL    HW135525   4.123   2.967   0.896  0.6938  1.3340 -1.3156
 8022SOL    HW235526   4.218   2.928   0.995 -1.9204 -2.6325  0.8215
 8023SOL     OW35527   3.541   1.970   7.496 -0.4025  0.4383  0.2786
 8023SOL    HW135528   3.528   2.064   7.483  1.5511  0.6051 -0.4972
 8023SOL    HW235529   3.454   1.937   7.519 -0.6898  0.6472 -0.5024
 8024SOL     OW35530   0.624   0.852  10.242 -0.4357  0.3951 -0.3811
 8024SOL    HW135531   0.665   0.870  10.326 -0.7027 -1.6768  0.1943
 8024SOL    HW235532   0.567   0.779  10.268 -0.5622 -0.2901 -2.5436
 8025SOL     OW35533   1.937   4.195  17.046  0.0672  0.3080 -0.0463
 8025SOL    HW135534   1.976   4.109  17.058 -0.0867  0.0994 -1.0129
 8025SOL    HW235535   1.954   4.234  17.132 -0.7709 -1.6550  0.9907
 8026SOL     OW35536   4.407   2.668  13.083  0.0164  0.3813  0.1769
 8026SOL    HW135537   4.392   2.577  13.059 -0.0059  1.3259 -3.2999
 8026SOL    HW235538   4.326   2.701  13.122 -1.4719  0.1896 -2.7530
 8027SOL     OW35539   4.367   2.492   3.798 -0.0476 -0.2365  0.0759
 8027SOL    HW135540   4.412   2.408   3.803  0.0741 -0.1737  0.0367
 8027SOL    HW235541   4.448   2.542   3.788  0.1078 -0.1313  1.8005
 8028SOL     OW35542   4.013   1.772   7.024  0.2378 -0.1003 -0.3146
 8028SOL    HW135543   4.009   1.845   7.086  0.1108 -0.3017 -0.0844
 8028SOL    HW235544   3.970   1.811   6.948 -1.2026  0.4494  0.7651
 8029SOL     OW35545   1.091   3.192   5.203  0.0558  0.0622 -0.0952
 8029SOL    HW135546   1.060   3.105   5.229 -1.5415  1.0794  1.3898
 8029SOL    HW235547   1.179   3.167   5.175  0.2373  0.9965 -0.3281
 8030SOL     OW35548   1.962   0.820  15.838  0.0965 -0.6981 -0.5570
 8030SOL    HW135549   1.930   0.786  15.922  1.4341 -3.0126 -0.9870
 8030SOL    HW235550   1.954   0.915  15.850 -0.1086 -0.6078 -1.4066
 8031SOL     OW35551   2.502   3.490   5.929 -0.1916 -0.4169  0.0170
 8031SOL    HW135552   2.585   3.469   5.887  0.1216 -2.2702  1.5699
 8031SOL    HW235553   2.517   3.581   5.954  1.9420 -1.1674  1.4239
 8032SOL     OW35554   2.034   0.327   0.669 -0.2107 -0.0041  0.3455
 8032SOL    HW135555   2.010   0.287   0.585  1.7096  1.6178 -1.0099
 8032SOL    HW235556   2.124   0.295   0.683 -0.5004 -0.1617  1.8190
 8033SOL     OW35557   0.692   1.554   7.803  0.1962 -0.5288 -0.4103
 8033SOL    HW135558   0.604   1.531   7.832  0.3277  0.2936  0.6394
 8033SOL    HW235559   0.753   1.489   7.838  1.1140  0.3580 -0.3565
 8034SOL     OW35560   3.592   1.405   3.223  0.4286  0.3462  0.1799
 8034SOL    HW135561   3.564   1.430   3.311  0.6812 -0.3604  0.4586
 8034SOL    HW235562   3.676   1.364   3.242 -0.0391 -0.5783  0.2274
 8035SOL     OW35563   3.103   0.496   1.985  0.4264 -0.4920 -0.0890
 8035SOL    HW135564   3.170   0.560   2.009 -0.6514 -1.0211  4.4797
 8035SOL    HW235565   3.081   0.518   1.895  0.0100  1.3120  0.4477
 8036SOL     OW35566   1.430   3.747   0.856  0.1489  0.0321  0.2211
 8036SOL    HW135567   1.361   3.812   0.852  0.7624  0.6696 -0.0965
 8036SOL    HW235568   1.467   3.755   0.768 -1.2572 -3.0669 -0.6304
 8037SOL     OW35569   3.888   0.134  17.159 -0.2767  0.3655  0.2485
 8037SOL    HW135570   3.884   0.094  17.073  2.0211 -2.9820  1.7199
 8037SOL    HW235571   3.801   0.116  17.195  0.7826 -0.3591  2.4796
 8038SOL     OW35572   2.904   2.302   2.958 -0.0300 -0.5974  0.0531
 8038SOL    HW135573   2.989   2.317   2.917 -0.3747 -2.1144 -1.2147
 8038SOL    HW235574   2.846   2.302   2.882 -1.1792  0.5670  0.9157
 8039SOL     OW35575   1.261   4.532   9.952 -0.2395  0.2471  0.5049
 8039SOL    HW135576   1.172   4.546   9.986 -1.4326 -1.1268 -2.0266
 8039SOL    HW235577   1.241   4.462   9.890 -0.7468  1.2130 -0.4337
 8040SOL     OW35578   0.297   1.357   8.199 -0.4560 -0.3690  0.0918
 8040SOL    HW135579   0.361   1.401   8.255 -0.5203 -0.9600  0.6299
 8040SOL    HW235580   0.309   1.267   8.230 -1.4203 -1.1451 -1.7667
 8041SOL     OW35581   4.152   0.383   5.771  0.6919 -0.6259  0.2122
 8041SOL    HW135582   4.160   0.422   5.684  1.4671 -1.8208 -0.2535
 8041SOL    HW235583   4.061   0.411   5.785  1.0274 -0.1656  1.5040
 8042SOL     OW35584   0.313   1.798  15.707 -0.1327 -0.1171  0.6634
 8042SOL    HW135585   0.404   1.771  15.698 -0.1929 -0.6162  1.5329
 8042SOL    HW235586   0.267   1.722  15.743  1.4794 -1.4237 -0.0484
 8043SOL     OW35587   1.886   4.067  10.220  0.3941  0.2853 -0.6224
 8043SOL    HW135588   1.897   4.106  10.133  0.2797 -0.2268 -0.8669
 8043SOL    HW235589   1.977   4.059  10.249 -0.2255 -0.2134  1.1916
 8044SOL     OW35590   2.245   1.807   6.611 -0.0822  0.1577 -0.1368
 8044SOL    HW135591   2.201   1.724   6.595  0.3652  0.1956 -1.6448
 8044SOL    HW235592   2.325   1.768   6.645 -2.1478 -3.5704  0.4842
 8045SOL     OW35593   0.594   1.482  10.688 -0.1518  0.1145 -0.2946
 8045SOL    HW135594   0.684   1.470  10.655  0.4544  1.0663  1.0389
 8045SOL    HW235595   0.604   1.524  10.773 -1.8353  0.3770 -0.2266
 8046SOL     OW35596   0.164   2.154   8.699 -0.4322  0.3979  0.0686
 8046SOL    HW135597   0.135   2.233   8.653 -0.8716 -0.0877 -0.4970
 8046SOL    HW235598   0.236   2.127   8.642  0.8846 -1.4788  2.6274
 8047SOL     OW35599   1.460   3.000   1.738 -0.1937 -0.4760 -0.4542
 8047SOL    HW135600   1.495   2.917   1.768 -1.5601 -0.1963  1.9343
 8047SOL    HW235601   1.533   3.039   1.690 -0.6118 -0.0771 -0.7710
 8048SOL     OW35602   0.761   1.865  13.165  0.2416  0.5673 -0.5149
 8048SOL    HW135603   0.699   1.900  13.101 -0.9212 -2.5172 -1.1071
 8048SOL    HW235604   0.813   1.803  13.114  0.3975  2.7728 -2.9807
 8049SOL     OW35605   3.805   2.535  15.852 -0.2114  0.3711 -0.7674
 8049SOL    HW135606   3.743   2.547  15.780  0.8087 -0.5198 -1.7802
 8049SOL    HW235607   3.775   2.609  15.906  3.0140  0.9268  0.2445
 8050SOL     OW35608   3.061   3.980   1.019 -0.4922 -0.7145  0.4529
 8050SOL    HW135609   3.002   4.046   0.981  0.8687  0.6635  0.7248
 8050SOL    HW235610   3.033   3.892   0.993 -0.9308 -0.5362  0.3215
 8051SOL     OW35611   2.290   1.454   2.438  0.1857 -0.5738  0.0039
 8051SOL    HW135612   2.359   1.515   2.413 -1.0367  0.2811 -1.3742
 8051SOL    HW235613   2.302   1.454   2.533  0.9500 -1.9019 -0.1052
 8052SOL     OW35614   0.407   1.025   0.011  0.7306  0.0605 -0.0839
 8052SOL    HW135615   0.464   1.098   0.036 -1.2621  0.3340  3.5400
 8052SOL    HW235616   0.462   0.947   0.018 -0.6948 -0.9943 -0.6120
 8053SOL     OW35617   0.521   4.474  13.462  0.3664  0.7394 -0.2717
 8053SOL    HW135618   0.563   4.427  13.534  0.1864  0.1019 -0.5763
 8053SOL    HW235619   0.593   4.472  13.398 -0.0590  0.6197 -0.7475
 8054SOL     OW35620   1.948   1.353   0.097 -0.5881  0.4688 -0.2741
 8054SOL    HW135621   1.952   1.318   0.008  1.6550 -1.9858  0.7830
 8054SOL    HW235622   2.015   1.421   0.091 -2.4160  2.1845 -1.2609
 8055SOL     OW35623   2.221   1.196   6.990  0.4849  0.3717  0.2568
 8055SOL    HW135624   2.284   1.125   6.999  1.8694  1.7371  1.2876
 8055SOL    HW235625   2.135   1.175   7.025  0.2843 -0.3114 -0.6432
 8056SOL     OW35626   3.723   0.204  12.867  0.4651 -0.2131 -0.8796
 8056SOL    HW135627   3.657   0.239  12.806 -1.7873 -1.4841  0.8245
 8056SOL    HW235628   3.664   0.158  12.927  0.7219 -0.1499 -0.5802
 8057SOL     OW35629   1.919   3.625   1.054  0.2341  0.0858 -0.4237
 8057SOL    HW135630   2.013   3.608   1.058  0.2269 -0.1062 -0.9944
 8057SOL    HW235631   1.892   3.589   0.969 -0.5146  0.2209 -0.2431
 8058SOL     OW35632   3.259   2.551   3.189  0.1389 -0.7302 -0.0062
 8058SOL    HW135633   3.211   2.538   3.272 -1.7849  2.1503 -0.6661
 8058SOL    HW235634   3.191   2.598   3.141 -1.2043 -2.8950 -0.2495
 8059SOL     OW35635   1.527   1.904   6.326 -0.2135 -0.4514  0.1477
 8059SOL    HW135636   1.543   1.968   6.396 -0.1756 -0.8669  0.5234
 8059SOL    HW235637   1.449   1.941   6.284  0.1874 -1.3460 -1.3818
 8060SOL     OW35638   0.613   4.059   7.370  0.8702 -0.0185  0.0802
 8060SOL    HW135639   0.558   4.103   7.434  1.1060  1.0157 -0.4232
 8060SOL    HW235640   0.607   3.969   7.400 -3.4382  0.5142  0.8155
 8061SOL     OW35641   4.331   4.106   1.068 -0.5523  0.0767 -0.3870
 8061SOL    HW135642   4.367   4.154   1.142  0.1310 -1.6762  0.4252
 8061SOL    HW235643   4.411   4.115   1.016  1.1891 -0.2225  2.2218
 8062SOL     OW35644   4.586   1.633   7.539 -0.4356 -0.1001  0.1921
 8062SOL    HW135645   4.561   1.715   7.582 -2.4493 -0.0353 -1.1403
 8062SOL    HW235646   4.633   1.667   7.463 -2.9896  0.0181 -1.3301
 8063SOL     OW35647   3.581   4.271  15.295  0.3646 -0.3968  0.4374
 8063SOL    HW135648   3.621   4.205  15.239 -1.3314 -0.6927 -0.4469
 8063SOL    HW235649   3.489   4.244  15.288  1.1330 -2.5538 -1.4325
 8064SOL     OW35650   2.638   4.174  17.424  0.0562 -0.5147 -0.2085
 8064SOL    HW135651   2.570   4.117  17.461 -0.6800  0.0267 -0.7291
 8064SOL    HW235652   2.700   4.171  17.498  1.0192  1.3044 -0.9358
 8065SOL     OW35653   4.666   2.682   6.045 -0.0634  0.1786 -0.0513
 8065SOL    HW135654   0.038   2.682   6.034 -0.5157 -0.1722 -3.7908
 8065SOL    HW235655   4.638   2.770   6.022  0.0429  0.8526  2.3645
 8066SOL     OW35656   0.101   0.765  12.608  0.5206 -0.5139  0.5087
 8066SOL    HW135657   0.143   0.690  12.566  2.6448  0.6052  0.6788
 8066SOL    HW235658   0.055   0.811  12.537  0.5541 -0.2115  0.6813
 8067SOL     OW35659   0.351   4.284   6.170 -0.2560  0.9264  0.2715
 8067SOL    HW135660   0.371   4.309   6.260 -1.2558 -1.5726  1.1690
 8067SOL    HW235661   0.256   4.273   6.177 -0.0947  0.6992  1.9827
 8068SOL     OW35662   2.459   2.086  13.558  0.0018  0.0837  0.1512
 8068SOL    HW135663   2.446   2.175  13.526 -0.1468 -0.9449 -2.6341
 8068SOL    HW235664   2.553   2.092  13.574 -0.1408  1.2525  0.5810
 8069SOL     OW35665   0.681   3.014   3.017 -0.3966 -0.0129 -0.4585
 8069SOL    HW135666   0.619   3.084   2.997 -1.4759 -0.6687  0.5317
 8069SOL    HW235667   0.640   2.981   3.097  1.9439  0.9052  1.1376
 8070SOL     OW35668   4.462   0.336   5.325  0.6980 -0.0663 -0.0984
 8070SOL    HW135669   4.532   0.398   5.347 -0.3639  1.3164 -0.6278
 8070SOL    HW235670   4.402   0.398   5.283  1.0357  1.4249  1.6162
 8071SOL     OW35671   4.363   2.158   2.694 -0.6115 -0.4083 -0.0626
 8071SOL    HW135672   4.358   2.254   2.690 -3.0289 -0.4736  2.0193
 8071SOL    HW235673   4.269   2.141   2.701 -1.2585  2.8845 -0.6252
 8072SOL     OW35674   4.716   3.236   9.425 -0.3882 -0.3320 -0.2671
 8072SOL    HW135675   0.043   3.314   9.449  0.5517 -0.8037 -0.7041
 8072SOL    HW235676   0.058   3.177   9.388 -0.1985  0.4726 -1.2076
 8073SOL     OW35677   2.671   4.261   2.331  0.2746 -0.3819 -0.5164
 8073SOL    HW135678   2.585   4.293   2.305 -0.4396  0.0582  2.3902
 8073SOL    HW235679   2.658   4.193   2.397 -1.1698  1.5429  1.1915
 8074SOL     OW35680   0.806   4.702   6.145  0.1815  0.3207 -0.2417
 8074SOL    HW135681   0.728   4.653   6.117  0.7720 -0.7921  0.0697
 8074SOL    HW235682   0.798   4.693   6.240  1.5943  0.4444 -0.1117
 8075SOL     OW35683   2.056   4.096  14.928  0.0807  0.5560  0.4160
 8075SOL    HW135684   2.086   4.099  14.837 -0.0298  1.3104  0.4020
 8075SOL    HW235685   2.067   4.191  14.938 -0.3317  0.5687  0.7620
 8076SOL     OW35686   2.039   0.715   9.070  0.0408  0.1107 -0.2780
 8076SOL    HW135687   2.087   0.682   8.994 -3.5114 -1.9000 -1.6218
 8076SOL    HW235688   1.951   0.708   9.034 -0.5238 -0.0840  1.1582
 8077SOL     OW35689   3.467   2.774   7.485 -0.1555 -0.1485 -0.4460
 8077SOL    HW135690   3.531   2.809   7.422 -0.3656  0.6200 -0.2298
 8077SOL    HW235691   3.439   2.854   7.528 -1.0293 -0.3078 -0.7132
 8078SOL     OW35692   0.839   1.451   2.489  0.0143 -0.8326  0.5435
 8078SOL    HW135693   0.802   1.538   2.475  2.7911  0.3730  0.6886
 8078SOL    HW235694   0.758   1.402   2.475 -0.0424 -0.8576  0.9529
 8079SOL     OW35695   1.536   0.151  15.686 -0.4136  1.1868 -0.0291
 8079SOL    HW135696   1.573   0.086  15.625 -0.2424 -0.5688  1.9699
 8079SOL    HW235697   1.496   0.214  15.626  0.6797  0.1052 -1.8904
 8080SOL     OW35698   4.364   1.546   0.920  0.4609  0.0517 -0.0690
 8080SOL    HW135699   4.320   1.480   0.974 -0.4825  1.6987  1.1581
 8080SOL    HW235700   4.310   1.623   0.939 -2.2100 -2.3161  1.9316
 8081SOL     OW35701   4.216   0.140   9.697 -0.0192  0.1212  0.8128
 8081SOL    HW135702   4.213   0.215   9.756 -0.7355  0.3233  0.5238
 8081SOL    HW235703   4.124   0.114   9.707 -0.0670 -0.7753 -1.9139
 8082SOL     OW35704   1.699   1.911   4.459 -0.0485 -0.7212  0.1088
 8082SOL    HW135705   1.788   1.944   4.442  0.0457 -0.3717  1.2470
 8082SOL    HW235706   1.650   1.965   4.398 -0.0560 -1.6939 -0.7418
 8083SOL     OW35707   4.536   1.072   6.038 -0.0525  0.1281  0.5835
 8083SOL    HW135708   4.541   1.026   6.121 -1.7490  0.7038  1.0108
 8083SOL    HW235709   4.630   1.079   6.022  0.1355  0.4705  1.8996
 8084SOL     OW35710   2.886   1.087  11.132  0.1026  1.0011 -0.0167
 8084SOL    HW135711   2.967   1.037  11.125  0.2404  1.3222 -0.7284
 8084SOL    HW235712   2.907   1.168  11.086 -1.1375  1.6091  0.4779
 8085SOL     OW35713   1.927   4.644   7.855  0.1385 -0.3806 -0.6656
 8085SOL    HW135714   1.854   4.584   7.841 -0.5566  0.5542 -1.0105
 8085SOL    HW235715   1.881   0.005   7.852  0.9002  0.0373 -0.6709
 8086SOL     OW35716   0.002   2.622  15.887 -0.0872 -0.1893 -0.0251
 8086SOL    HW135717   4.718   2.599  15.794 -0.1491  0.5934 -0.2102
 8086SOL    HW235718   0.065   2.694  15.886  0.4889 -0.7352 -2.7970
 8087SOL     OW35719   3.397   1.575   2.050 -0.0227  0.1546 -0.5877
 8087SOL    HW135720   3.394   1.574   1.954 -1.4441 -2.8110 -0.4960
 8087SOL    HW235721   3.307   1.602   2.064  0.7613  2.0393  0.8277
 8088SOL     OW35722   1.503   0.192  10.416  0.1387 -0.0298  0.1654
 8088SOL    HW135723   1.568   0.139  10.369  0.6122  1.9416 -1.4375
 8088SOL    HW235724   1.464   0.134  10.481  0.9073 -0.4494  0.2549
 8089SOL     OW35725   0.665   1.006   1.987 -0.1205 -0.1767  0.1125
 8089SOL    HW135726   0.660   0.987   1.893  1.6460  0.7165 -0.1641
 8089SOL    HW235727   0.725   0.936   2.011 -0.9485 -0.1300  2.2909
 8090SOL     OW35728   0.419   0.725   7.676 -0.1083  0.3268  0.1609
 8090SOL    HW135729   0.478   0.693   7.744 -0.1079 -2.4738 -1.1283
 8090SOL    HW235730   0.344   0.756   7.726 -0.2040  3.4251 -1.8700
 8091SOL     OW35731   3.206   0.363  16.842  0.2941  0.1084  0.3237
 8091SOL    HW135732   3.265   0.318  16.782 -2.0600 -1.0050 -1.1465
 8091SOL    HW235733   3.267   0.394  16.909  1.8371 -0.7322 -0.7038
 8092SOL     OW35734   1.371   0.736   2.157  0.0055  0.3350  0.2180
 8092SOL    HW135735   1.352   0.767   2.246 -1.3476  1.3886 -0.4353
 8092SOL    HW235736   1.461   0.768   2.150  0.8579 -2.1151 -0.1765
 8093SOL     OW35737   0.601   4.050   6.454  0.0655  0.0701  0.8196
 8093SOL    HW135738   0.565   3.999   6.527 -1.0166 -1.5637 -0.8624
 8093SOL    HW235739   0.692   4.024   6.467  0.4788  1.0850 -0.0303
 8094SOL     OW35740   1.692   4.185  11.493  0.0824 -0.3310 -0.3487
 8094SOL    HW135741   1.608   4.161  11.454 -0.0670 -0.7176  0.2072
 8094SOL    HW235742   1.723   4.209  11.405 -0.5208 -0.1532 -0.5091
 8095SOL     OW35743   0.920   2.709   4.996 -0.6142 -0.0152  0.1795
 8095SOL    HW135744   0.950   2.640   5.056  1.4155  0.3865 -0.3658
 8095SOL    HW235745   0.891   2.664   4.917 -2.0498 -0.6645  1.0876
 8096SOL     OW35746   2.657   3.835   3.564  0.0143  0.0324  1.0918
 8096SOL    HW135747   2.745   3.797   3.560 -0.2082 -0.5973  2.3966
 8096SOL    HW235748   2.657   3.849   3.658  1.7706  1.9292  0.8140
 8097SOL     OW35749   2.657   0.371   7.593 -0.2136 -0.3658 -0.6966
 8097SOL    HW135750   2.677   0.377   7.500  3.0263 -0.7658 -0.0485
 8097SOL    HW235751   2.566   0.400   7.596 -0.5990 -1.5072 -1.5505
 8098SOL     OW35752   3.098   1.058  16.033 -0.0290 -0.8068 -0.1823
 8098SOL    HW135753   3.096   1.147  15.998 -1.0261 -2.3367 -3.9525
 8098SOL    HW235754   3.014   1.019  16.009 -0.1470 -0.0008 -1.0459
 8099SOL     OW35755   4.268   4.218   3.762  0.2324  0.0034 -0.1403
 8099SOL    HW135756   4.336   4.162   3.798  0.8194 -0.3033 -1.7357
 8099SOL    HW235757   4.292   4.217   3.670  2.3465  1.3117  0.3972
 8100SOL     OW35758   1.009   4.561   8.426  0.1294  0.4564  0.4252
 8100SOL    HW135759   0.997   4.469   8.449  1.5104  0.3734  0.8301
 8100SOL    HW235760   1.100   4.561   8.396  0.1461  1.0991  0.4876
 8101SOL     OW35761   3.115   2.580   6.462 -0.6185 -0.2092  0.1838
 8101SOL    HW135762   3.110   2.507   6.400 -0.5628 -0.8399  0.9241
 8101SOL    HW235763   3.112   2.649   6.395 -1.0187  0.2058  0.6289
 8102SOL     OW35764   2.915   3.018   7.201 -0.3535  0.0729  0.1358
 8102SOL    HW135765   2.895   3.110   7.188 -2.1779 -0.5177 -1.3697
 8102SOL    HW235766   2.902   2.987   7.111  3.8291  1.1030 -0.7937
 8103SOL     OW35767   3.611   4.628   4.493  0.7011  0.0444  0.2990
 8103SOL    HW135768   3.670   4.691   4.534 -0.4618  2.4256 -1.6573
 8103SOL    HW235769   3.624   4.567   4.566 -0.6217  0.4920  0.9235
 8104SOL     OW35770   1.485   4.673   1.826 -0.3444  0.3306  0.0119
 8104SOL    HW135771   1.500   4.715   1.911 -1.2254  0.6240  0.0326
 8104SOL    HW235772   1.391   4.695   1.829 -1.0059 -2.5518  0.3799
 8105SOL     OW35773   4.515   0.309   6.863  0.1651 -0.4667  0.3263
 8105SOL    HW135774   4.519   0.394   6.906 -0.1581 -1.5836  2.5355
 8105SOL    HW235775   4.469   0.334   6.783  1.1172  1.1009  0.2692
 8106SOL     OW35776   1.954   4.599   6.775 -0.2548 -0.4136  0.2549
 8106SOL    HW135777   2.029   4.541   6.784 -0.5952 -0.7314  1.0720
 8106SOL    HW235778   1.886   4.535   6.799  0.5080 -1.2494  0.1869
 8107SOL     OW35779   0.357   1.979   4.708  0.2102  0.0930  0.0873
 8107SOL    HW135780   0.284   1.948   4.762 -0.1215  1.7064  0.5590
 8107SOL    HW235781   0.323   1.936   4.630 -0.0439 -0.1013  0.3076
 8108SOL     OW35782   3.484   3.552   6.064 -0.6047  0.0823  0.5004
 8108SOL    HW135783   3.577   3.537   6.082 -0.2338  1.5377 -0.2635
 8108SOL    HW235784   3.485   3.618   5.995  1.6168 -1.5744 -1.0688
 8109SOL     OW35785   1.750   3.566  11.465  0.3311 -0.2121  0.0185
 8109SOL    HW135786   1.780   3.651  11.498 -1.1703  0.7637 -1.1416
 8109SOL    HW235787   1.765   3.503  11.536 -1.8073 -1.1182 -0.3409
 8110SOL     OW35788   2.514   2.153   4.422  0.2142 -0.0911 -0.0109
 8110SOL    HW135789   2.582   2.089   4.441 -0.4529 -0.4939  1.0380
 8110SOL    HW235790   2.434   2.102   4.437 -0.5486  1.3805  0.9474
 8111SOL     OW35791   0.592   3.056   5.451  0.0566  0.1739  0.3437
 8111SOL    HW135792   0.649   3.003   5.507  0.9659  0.0697 -0.6908
 8111SOL    HW235793   0.660   3.089   5.392 -0.1347 -0.4134 -0.2027
 8112SOL     OW35794   0.869   2.697   8.462  0.0744  0.3929  0.8934
 8112SOL    HW135795   0.797   2.689   8.400  0.4624  0.4337  0.4386
 8112SOL    HW235796   0.873   2.787   8.493  2.5394  0.8118 -0.6995
 8113SOL     OW35797   2.763   4.546   5.226 -0.4933  0.2384 -0.4164
 8113SOL    HW135798   2.806   4.547   5.140  0.4821 -0.0178  0.0639
 8113SOL    HW235799   2.674   4.514   5.209 -0.3339  0.3614 -1.5427
 8114SOL     OW35800   4.473   3.282   6.431  0.0244  0.3273 -0.7562
 8114SOL    HW135801   4.557   3.277   6.477 -0.1706  1.8278 -0.2297
 8114SOL    HW235802   4.500   3.234   6.353  0.0495  0.0969 -0.6056
 8115SOL     OW35803   3.546   3.303  11.001 -0.5286 -0.3308 -0.6177
 8115SOL    HW135804   3.527   3.209  10.995  0.4804 -0.5938  0.3258
 8115SOL    HW235805   3.460   3.338  11.022 -0.1491  0.4747 -0.4216
 8116SOL     OW35806   3.340   0.289   4.128 -0.6243 -0.9118  0.1249
 8116SOL    HW135807   3.277   0.322   4.191  0.1583  0.5912  0.1049
 8116SOL    HW235808   3.417   0.345   4.143  0.0346 -1.6021 -0.6278
 8117SOL     OW35809   3.693   2.520  14.719  0.0454 -0.1192 -0.4677
 8117SOL    HW135810   3.786   2.510  14.739  0.1122  5.1223  1.8911
 8117SOL    HW235811   3.663   2.443  14.766 -2.0084  1.6364  1.0966
 8118SOL     OW35812   3.961   0.151   2.833  0.1024  0.4426 -0.2792
 8118SOL    HW135813   3.887   0.090   2.829 -1.4054  2.3167 -0.8047
 8118SOL    HW235814   4.011   0.123   2.756 -0.3221 -0.6927 -0.1539
 8119SOL     OW35815   2.538   2.388   8.699  0.5185  0.8427 -0.4935
 8119SOL    HW135816   2.585   2.404   8.780  0.4681  0.3279 -0.3591
 8119SOL    HW235817   2.561   2.297   8.679 -0.2115  1.0222 -2.1930
 8120SOL     OW35818   1.261   3.374   6.474  0.4230 -0.1781  1.2577
 8120SOL    HW135819   1.306   3.336   6.398 -1.2660  0.1988  0.0587
 8120SOL    HW235820   1.298   3.316   6.541  0.0101  0.7738  2.3064
 8121SOL     OW35821   0.391   1.065   1.863  1.3709 -0.0537  0.0684
 8121SOL    HW135822   0.422   1.061   1.954 -2.1701 -1.5947  1.2146
 8121SOL    HW235823   0.297   1.072   1.878  1.1798  1.1397 -1.7515
 8122SOL     OW35824   1.189   4.591  17.500 -0.1545 -0.1844 -0.0457
 8122SOL    HW135825   1.216   4.671  17.544  0.7683  0.2481 -1.3934
 8122SOL    HW235826   1.203   4.613  17.407 -0.7981 -1.3225 -0.4169
 8123SOL     OW35827   3.878   0.485  14.154  0.3700  0.1275  0.1154
 8123SOL    HW135828   3.879   0.571  14.110  1.2237 -0.7101 -1.5288
 8123SOL    HW235829   3.854   0.425  14.083  0.1604  0.4665 -0.1032
 8124SOL     OW35830   0.651   1.246   2.870 -0.4881  0.2885 -0.0465
 8124SOL    HW135831   0.560   1.237   2.843 -0.5057  0.9960 -0.2257
 8124SOL    HW235832   0.661   1.153   2.891 -0.3578  0.5055  0.8622
 8125SOL     OW35833   1.424   3.506   7.042  0.4932 -0.1180  0.2039
 8125SOL    HW135834   1.352   3.551   6.998  0.7785  0.7699  0.6437
 8125SOL    HW235835   1.423   3.419   7.001  1.8056  0.3568 -0.8593
 8126SOL     OW35836   2.620   3.861  13.693 -0.2456  0.1061  0.2918
 8126SOL    HW135837   2.580   3.870  13.607  1.9588  0.5494 -0.6796
 8126SOL    HW235838   2.711   3.882  13.670  0.0319 -0.8272  0.5179
 8127SOL     OW35839   3.209   2.028   6.060 -0.7103 -0.4827 -0.2149
 8127SOL    HW135840   3.136   2.078   6.024 -1.0573 -0.9422 -0.1517
 8127SOL    HW235841   3.266   2.098   6.093  0.0975 -1.0042 -0.5063
 8128SOL     OW35842   1.311   3.850   7.155  0.1742  0.7902  0.1317
 8128SOL    HW135843   1.363   3.893   7.223 -3.0393  0.5008  2.7511
 8128SOL    HW235844   1.230   3.829   7.201 -0.5482  2.8789 -0.2090
 8129SOL     OW35845   0.912   3.627  17.315 -0.5446 -0.2039  0.6256
 8129SOL    HW135846   0.913   3.721  17.329 -1.0207 -0.1765  0.4544
 8129SOL    HW235847   0.853   3.621  17.390 -0.9827  0.9704  0.3599
 8130SOL     OW35848   1.853   3.787   1.611  0.5139  0.9755  0.1422
 8130SOL    HW135849   1.791   3.853   1.579  0.2694  0.3593 -0.6356
 8130SOL    HW235850   1.844   3.809   1.704  0.4048 -2.2465  0.8703
 8131SOL     OW35851   3.043   2.083   5.743 -0.4529  0.2014  0.5216
 8131SOL    HW135852   2.969   2.070   5.683  0.7428 -1.7077 -0.5612
 8131SOL    HW235853   2.995   2.129   5.811  1.1798  1.4030  0.8502
 8132SOL     OW35854   2.941   3.376  13.208  0.7241  0.3349 -0.6088
 8132SOL    HW135855   2.897   3.309  13.157 -0.0395 -0.8628  1.6166
 8132SOL    HW235856   3.029   3.342  13.220 -0.3171 -2.2795 -0.3842
 8133SOL     OW35857   2.588   0.633   3.927  0.3364  0.0904 -0.1764
 8133SOL    HW135858   2.501   0.633   3.888  0.3034 -0.6362 -0.1177
 8133SOL    HW235859   2.567   0.621   4.020  0.1321 -0.6107 -0.3121
 8134SOL     OW35860   2.437   3.608   4.201 -0.0531 -0.4412  0.3143
 8134SOL    HW135861   2.355   3.576   4.164  0.3810 -0.3137 -0.7319
 8134SOL    HW235862   2.503   3.550   4.163 -2.7044 -3.4878  0.3357
 8135SOL     OW35863   3.912   0.047   7.052  0.0591 -0.0480  0.6356
 8135SOL    HW135864   3.978   4.709   7.084 -0.8267 -0.5803  1.4582
 8135SOL    HW235865   3.949   0.082   6.970 -1.2346 -0.4506 -0.1184
 8136SOL     OW35866   3.008   4.002   8.113  0.0304 -0.1382  0.0182
 8136SOL    HW135867   2.950   3.926   8.114  1.5072 -1.2258  1.6773
 8136SOL    HW235868   3.009   4.039   8.201  2.3481 -1.6686  0.6245
 8137SOL     OW35869   4.028   4.624   0.300  0.6887 -0.5580 -0.5017
 8137SOL    HW135870   4.008   4.566   0.373  0.2178 -2.4414 -2.1257
 8137SOL    HW235871   4.072   4.563   0.240  2.2135  0.3185 -0.2653
 8138SOL     OW35872   2.342   3.902   6.368  0.2062  0.3025  0.0468
 8138SOL    HW135873   2.397   3.929   6.442 -1.9199 -0.0351  1.7661
 8138SOL    HW235874   2.324   3.986   6.326  2.9243  2.2465  2.6807
 8139SOL     OW35875   3.681   1.739  13.624 -0.6213 -0.4364 -0.0290
 8139SOL    HW135876   3.675   1.834  13.610 -1.2604 -0.3974  0.4630
 8139SOL    HW235877   3.616   1.719  13.557 -0.5723  2.2921 -0.8899
 8140SOL     OW35878   0.138   2.393  11.209 -0.6745 -0.0875  0.0368
 8140SOL    HW135879   0.213   2.429  11.257  0.0182 -1.4590 -0.0132
 8140SOL    HW235880   0.133   2.444  11.128 -0.8153  0.9726  0.7168
 8141SOL     OW35881   1.107   1.490  14.944  0.1935  0.1554  0.7120
 8141SOL    HW135882   1.191   1.448  14.926  0.2975  0.2920  0.8863
 8141SOL    HW235883   1.131   1.579  14.969 -0.0766 -0.3753  2.8808
 8142SOL     OW35884   2.590   0.504   5.291  0.1983 -0.1288 -0.4947
 8142SOL    HW135885   2.537   0.498   5.211 -1.1048  0.7913  0.3069
 8142SOL    HW235886   2.649   0.431   5.275  0.9441  0.5911 -1.0627
 8143SOL     OW35887   3.325   0.739   0.375 -0.5333  0.2975 -0.0159
 8143SOL    HW135888   3.344   0.763   0.284 -2.0007  1.2463 -0.0747
 8143SOL    HW235889   3.278   0.820   0.399 -1.3430 -0.1498 -0.0765
 8144SOL     OW35890   3.180   2.759   8.963 -0.8514  0.2706 -0.3566
 8144SOL    HW135891   3.132   2.790   9.040 -1.0432  0.8851 -0.7232
 8144SOL    HW235892   3.224   2.840   8.936  1.6058 -0.4209  1.5833
 8145SOL     OW35893   1.260   0.711   7.059 -0.1865 -0.4190  0.0631
 8145SOL    HW135894   1.228   0.717   7.149 -1.3991 -0.4286 -0.3711
 8145SOL    HW235895   1.351   0.699   7.086 -0.3864 -1.3445  0.3101
 8146SOL     OW35896   1.998   4.184   7.776  0.4738  0.1675  0.2149
 8146SOL    HW135897   2.053   4.223   7.708  1.9698 -0.9625  0.7792
 8146SOL    HW235898   2.014   4.244   7.849 -1.1194  1.4426 -0.4724
 8147SOL     OW35899   2.704   2.529   6.907  0.4626  0.6825  0.5212
 8147SOL    HW135900   2.645   2.600   6.931 -1.1609 -1.0222  1.5417
 8147SOL    HW235901   2.697   2.483   6.990  1.0263  1.7156  1.1375
 8148SOL     OW35902   4.639   0.400  10.150 -0.2101  0.9231 -0.0500
 8148SOL    HW135903   4.544   0.397  10.156 -0.1525  0.4986  0.6525
 8148SOL    HW235904   4.658   0.343  10.075  2.7170 -1.6438  2.5910
 8149SOL     OW35905   1.613   0.716  12.330  0.2778  0.1834 -0.0833
 8149SOL    HW135906   1.681   0.675  12.276 -0.1770 -2.9912  1.7497
 8149SOL    HW235907   1.669   0.771  12.385 -1.7996 -0.2455  2.4946
 8150SOL     OW35908   3.766   3.691  16.762 -0.1600 -0.2839 -0.6888
 8150SOL    HW135909   3.752   3.731  16.676 -0.0220 -0.5596 -0.8396
 8150SOL    HW235910   3.798   3.604  16.738 -0.2487 -0.4226 -0.2996
 8151SOL     OW35911   1.805   4.647   3.031  0.3920 -0.1171  0.7131
 8151SOL    HW135912   1.729   4.702   3.011  0.3481 -1.0662 -1.6374
 8151SOL    HW235913   1.769   4.564   3.001 -1.7203  1.0505  0.0122
 8152SOL     OW35914   3.982   2.483   7.736  0.6491 -0.2742  0.3228
 8152SOL    HW135915   3.940   2.482   7.650 -0.6959 -4.1774  1.0153
 8152SOL    HW235916   3.909   2.442   7.782 -1.1720 -0.3741 -2.6363
 8153SOL     OW35917   3.167   1.183   4.570 -0.5964 -0.1091  0.9612
 8153SOL    HW135918   3.148   1.274   4.594  1.1458  0.2531  0.9488
 8153SOL    HW235919   3.137   1.175   4.480 -2.1260  0.8894  1.3815
 8154SOL     OW35920   2.956   2.899   7.871  0.3590  0.1820  0.1859
 8154SOL    HW135921   3.026   2.923   7.932 -0.1561 -0.2246  0.9243
 8154SOL    HW235922   2.988   2.813   7.843  1.4147  0.8940 -0.8074
 8155SOL     OW35923   2.082   0.221   8.253 -0.1683  0.0305  0.4941
 8155SOL    HW135924   2.083   0.145   8.195 -0.1533  1.9413 -1.9921
 8155SOL    HW235925   2.006   0.196   8.307  0.8038 -1.8902  0.9456
 8156SOL     OW35926   4.495   0.597   8.852 -0.3065 -0.0183 -0.2256
 8156SOL    HW135927   4.565   0.662   8.855 -0.8899  0.4989  2.1138
 8156SOL    HW235928   4.424   0.652   8.818  1.5946  2.4318 -0.1606
 8157SOL     OW35929   1.057   1.686  12.404 -0.0972  0.3549  0.6399
 8157SOL    HW135930   0.975   1.647  12.434 -1.2336  2.2041 -0.1136
 8157SOL    HW235931   1.086   1.614  12.348  0.4776  1.6830 -0.7629
 8158SOL     OW35932   2.546   0.846   8.622 -0.0563  0.1506 -0.6530
 8158SOL    HW135933   2.523   0.761   8.660  0.5598 -0.2447 -1.1578
 8158SOL    HW235934   2.638   0.848   8.649 -0.0644  2.6110 -0.8901
 8159SOL     OW35935   3.819   0.565   8.753 -0.7680  0.0154 -0.5022
 8159SOL    HW135936   3.841   0.477   8.722  1.0217 -0.5220  2.2993
 8159SOL    HW235937   3.733   0.549   8.791 -0.5706 -0.9784 -0.4769
 8160SOL     OW35938   1.242   0.364   1.918  0.0359  0.6499 -0.3233
 8160SOL    HW135939   1.204   0.451   1.906  2.0047  1.3791 -1.3138
 8160SOL    HW235940   1.240   0.353   2.012 -0.7890  3.1200 -0.0355
 8161SOL     OW35941   1.443   0.070   3.898  0.3454  0.2587 -0.2946
 8161SOL    HW135942   1.422   0.020   3.977 -0.0480  0.3728 -0.3288
 8161SOL    HW235943   1.439   4.720   3.836 -0.3054  1.4235 -1.6439
 8162SOL     OW35944   2.768   4.439   5.725  0.2616 -0.1396  1.0381
 8162SOL    HW135945   2.732   4.396   5.803  1.0082 -0.1450  1.3741
 8162SOL    HW235946   2.781   4.528   5.757  0.9417  0.2320 -0.2686
 8163SOL     OW35947   4.470   2.629   5.110  0.3775 -0.1680  0.1066
 8163SOL    HW135948   4.499   2.558   5.168 -0.7022 -0.1601  0.6590
 8163SOL    HW235949   4.529   2.615   5.037  0.0204  2.8058 -0.7324
 8164SOL     OW35950   1.435   3.276   6.292 -0.1400 -0.0405 -0.0669
 8164SOL    HW135951   1.529   3.275   6.274  0.1668 -0.8868  1.6853
 8164SOL    HW235952   1.415   3.183   6.285 -1.1021  0.1480  0.1835
 8165SOL     OW35953   1.466   1.162   3.661 -0.6089  0.5207  0.3314
 8165SOL    HW135954   1.544   1.120   3.627 -0.2793  0.9567  0.5518
 8165SOL    HW235955   1.502   1.244   3.694  1.8014  0.1025 -1.2912
 8166SOL     OW35956   2.947   1.513   6.950  0.1863  0.0142 -0.0098
 8166SOL    HW135957   2.961   1.456   7.026 -0.6549  1.1333  0.9846
 8166SOL    HW235958   2.852   1.512   6.939  0.0088 -0.8608  1.5393
 8167SOL     OW35959   4.093   4.420  17.408  0.1280 -0.3261 -0.0167
 8167SOL    HW135960   4.030   4.396  17.476 -0.4215  0.5863 -0.2164
 8167SOL    HW235961   4.119   4.510  17.429  0.8871 -0.4674 -0.3415
 8168SOL     OW35962   1.131   1.116   9.895  0.1213 -0.1300  0.1741
 8168SOL    HW135963   1.142   1.021   9.902 -0.6548 -0.1459  1.3151
 8168SOL    HW235964   1.157   1.131   9.805 -1.0314  0.5394 -0.0535
 8169SOL     OW35965   2.298   0.961  15.765 -0.4750  0.0345  0.2705
 8169SOL    HW135966   2.347   0.925  15.691 -0.7264 -2.7442  1.4426
 8169SOL    HW235967   2.211   0.972  15.727 -0.9820 -0.2953  1.3260
 8170SOL     OW35968   1.632   3.875   5.886 -0.5125 -0.4010 -0.4439
 8170SOL    HW135969   1.639   3.884   5.981  0.2268  1.4104 -0.6900
 8170SOL    HW235970   1.561   3.937   5.870 -1.4545 -0.6760  2.6470
 8171SOL     OW35971   0.940   2.646   9.567  0.0306  0.0928 -0.5529
 8171SOL    HW135972   0.898   2.562   9.553  2.2471 -1.2338  0.7312
 8171SOL    HW235973   0.884   2.688   9.633 -0.4875 -0.0048 -0.9299
 8172SOL     OW35974   3.657   4.191   4.554  0.0548 -0.1066 -0.2830
 8172SOL    HW135975   3.747   4.179   4.584 -0.4342 -1.1775  0.7337
 8172SOL    HW235976   3.627   4.251   4.622  4.0432 -0.0322  1.4185
 8173SOL     OW35977   4.225   1.749   1.027  0.6501  0.3648  0.3133
 8173SOL    HW135978   4.179   1.722   1.107  0.7469  0.6135  0.4514
 8173SOL    HW235979   4.265   1.829   1.060 -0.4651  1.2052 -0.3623
 8174SOL     OW35980   1.588   3.599   6.262  0.0078  0.5217 -0.0711
 8174SOL    HW135981   1.502   3.607   6.301  0.5318 -1.2405  1.4222
 8174SOL    HW235982   1.638   3.559   6.333  0.3465 -1.1115 -1.2053
 8175SOL     OW35983   3.886   3.006  12.548  0.3785 -0.1544  0.6320
 8175SOL    HW135984   3.948   2.938  12.521  0.4922  0.0943  0.2720
 8175SOL    HW235985   3.806   2.988  12.501  0.7394 -2.5331  0.9253
 8176SOL     OW35986   1.731   2.664   8.567  0.0481  0.1181 -0.1618
 8176SOL    HW135987   1.643   2.687   8.537 -0.8832 -2.2350  0.7826
 8176SOL    HW235988   1.707   2.625   8.651 -2.3252 -0.1177 -0.9390
 8177SOL     OW35989   1.897   0.831  17.181 -0.6117  0.1442 -0.2303
 8177SOL    HW135990   1.885   0.835  17.276  0.7986 -0.5227 -0.0134
 8177SOL    HW235991   1.827   0.881  17.141  0.5387  2.7273  1.0088
 8178SOL     OW35992   1.976   1.637  16.929 -0.1536  0.0003 -0.5857
 8178SOL    HW135993   1.984   1.661  17.021 -0.8915 -0.7700 -0.3240
 8178SOL    HW235994   1.996   1.722  16.890 -1.0505  0.3499 -0.2930
 8179SOL     OW35995   1.373   0.595   3.899 -0.1883 -0.1555  0.1713
 8179SOL    HW135996   1.400   0.619   3.811  2.0374  0.9158  1.1276
 8179SOL    HW235997   1.460   0.592   3.941 -1.2700 -1.0796  2.3725
 8180SOL     OW35998   1.659   1.159  13.773  0.5225  0.2310 -0.1153
 8180SOL    HW135999   1.573   1.117  13.760  0.3103  1.1712 -1.7148
 8180SOL    HW236000   1.684   1.133  13.862 -1.1091 -0.4456  0.1584
 8181SOL     OW36001   0.089   4.500   2.514  0.0246  0.2725 -0.8631
 8181SOL    HW136002   0.121   4.509   2.425  0.9417 -4.9123 -1.0943
 8181SOL    HW236003   0.056   4.589   2.526 -0.1019  0.0364  0.5979
 8182SOL     OW36004   1.919   1.349   2.464  0.5892 -0.2406  0.0992
 8182SOL    HW136005   1.878   1.395   2.390  0.4798 -0.2684  0.1429
 8182SOL    HW236006   1.988   1.301   2.419 -0.5959 -0.4919 -1.4500
 8183SOL     OW36007   2.970   1.628   7.275  0.2167  0.1537  0.1317
 8183SOL    HW136008   2.992   1.535   7.269 -3.1464 -0.3746 -3.4943
 8183SOL    HW236009   2.891   1.637   7.223 -0.3080 -1.8714  0.5650
 8184SOL     OW36010   0.798   2.598  15.086 -0.3101  1.0221 -0.4872
 8184SOL    HW136011   0.743   2.527  15.118  0.7368 -0.1779 -1.3477
 8184SOL    HW236012   0.796   2.584  14.991  2.6488 -1.1222 -0.2380
 8185SOL     OW36013   0.406   2.532   9.287 -0.3811  0.5414  0.0683
 8185SOL    HW136014   0.400   2.543   9.192  0.9111 -2.5335 -0.3528
 8185SOL    HW236015   0.390   2.624   9.312  1.7268  0.1627  2.7688
 8186SOL     OW36016   0.340   1.877   2.195  0.1997 -0.0372  0.6975
 8186SOL    HW136017   0.327   1.851   2.287 -0.6533  0.9536  0.8568
 8186SOL    HW236018   0.261   1.927   2.173 -0.3011 -0.0420  2.4172
 8187SOL     OW36019   0.714   3.689   7.174  0.1657 -1.1780 -0.4210
 8187SOL    HW136020   0.752   3.763   7.222 -3.1521 -0.5785  1.3052
 8187SOL    HW236021   0.781   3.686   7.106 -0.5320 -0.3146 -1.1506
 8188SOL     OW36022   2.160   2.532   7.291 -0.3057 -0.1866  0.3066
 8188SOL    HW136023   2.082   2.495   7.332  1.0467 -2.4825  0.7788
 8188SOL    HW236024   2.165   2.471   7.217 -2.8660  0.1800 -0.1999
 8189SOL     OW36025   1.119   3.966   4.682  0.2532  0.4583 -0.0877
 8189SOL    HW136026   1.169   3.990   4.760 -0.7606 -1.2596  1.0780
 8189SOL    HW236027   1.047   4.028   4.694  0.5037  0.5992  0.6607
 8190SOL     OW36028   3.092   3.530  11.983  0.5300 -0.5156 -0.2483
 8190SOL    HW136029   3.139   3.469  11.926  3.2555  0.1787  1.2301
 8190SOL    HW236030   3.169   3.568  12.026 -0.5943 -1.4146  2.5515
 8191SOL     OW36031   2.875   2.690   7.550 -0.2246 -0.4118 -0.3212
 8191SOL    HW136032   2.949   2.680   7.490 -0.8616 -0.8768 -1.0335
 8191SOL    HW236033   2.921   2.694   7.634 -0.5023  0.1884 -0.1952
 8192SOL     OW36034   3.987   0.180  16.204 -0.4581  0.5346  0.0593
 8192SOL    HW136035   3.924   0.161  16.134 -0.7621 -0.1532  0.5194
 8192SOL    HW236036   3.929   0.180  16.280 -0.8603  0.2871 -0.2435
 8193SOL     OW36037   1.215   4.073  11.780 -0.0092 -0.5777 -0.0128
 8193SOL    HW136038   1.180   3.984  11.781  1.1748 -1.0280  0.6066
 8193SOL    HW236039   1.137   4.121  11.752  0.5066  0.0021 -0.4591
 8194SOL     OW36040   0.380   0.866   4.189 -0.3610 -0.1855 -0.0999
 8194SOL    HW136041   0.373   0.833   4.279  1.2134 -0.6457 -0.1575
 8194SOL    HW236042   0.301   0.831   4.147  0.4085 -2.8464  0.6794
 8195SOL     OW36043   4.316   2.300  12.838  0.2924  0.2119  0.6363
 8195SOL    HW136044   4.308   2.206  12.852 -0.8139  0.3718  1.0750
 8195SOL    HW236045   4.304   2.324  12.930  0.2200  0.3840  0.5826
 8196SOL     OW36046   3.267   1.482   5.085  0.2224  0.6088 -0.6740
 8196SOL    HW136047   3.299   1.566   5.119  1.0554  0.4951 -1.1758
 8196SOL    HW236048   3.296   1.419   5.151 -1.5344  0.5155 -0.0003
 8197SOL     OW36049   1.649   1.522   7.301 -0.0330 -0.5588 -0.4780
 8197SOL    HW136050   1.650   1.427   7.286 -2.1730 -0.6424 -0.0406
 8197SOL    HW236051   1.646   1.510   7.396 -1.5385  0.4346 -0.4081
 8198SOL     OW36052   4.689   1.725   3.857  0.3053 -0.4035 -0.2322
 8198SOL    HW136053   0.008   1.708   3.773  0.5706  0.9181 -0.3644
 8198SOL    HW236054   4.608   1.673   3.857  0.0509 -0.0066 -0.2844
 8199SOL     OW36055   3.168   0.095   4.562  0.0434 -0.3341  0.6003
 8199SOL    HW136056   3.199   0.051   4.483  2.6287  2.1969  0.2203
 8199SOL    HW236057   3.170   0.023   4.625 -3.0837  0.9251  2.1543
 8200SOL     OW36058   3.602   4.275  17.556 -0.0063 -0.1351 -0.0594
 8200SOL    HW136059   3.647   4.203  17.513  0.5862 -0.2876  0.8184
 8200SOL    HW236060   3.612   4.252  17.649  2.1688 -0.4177 -0.3672
 8201SOL     OW36061   2.978   4.456  10.359 -0.0204 -0.4811  0.3226
 8201SOL    HW136062   2.924   4.535  10.350 -0.3812 -0.6185  1.2572
 8201SOL    HW236063   2.973   4.427  10.268  2.0395 -1.5464  0.5698
 8202SOL     OW36064   2.051   2.344  13.744 -0.0488  0.0567  0.3383
 8202SOL    HW136065   2.002   2.426  13.745  0.1171  0.1618 -0.0922
 8202SOL    HW236066   2.053   2.326  13.838 -1.9855  1.2713  0.6218
 8203SOL     OW36067   3.035   1.861   7.941 -0.5928  0.1679 -0.6635
 8203SOL    HW136068   3.120   1.863   7.984 -0.0228  0.6181 -1.8169
 8203SOL    HW236069   3.007   1.769   7.945 -1.3268  0.4667  0.9316
 8204SOL     OW36070   0.905   0.682   2.223  0.0455 -0.0270 -0.1689
 8204SOL    HW136071   0.989   0.665   2.181 -0.3222 -1.1447 -0.4488
 8204SOL    HW236072   0.913   0.618   2.293 -0.6490  2.1113  1.8849
 8205SOL     OW36073   3.026   4.510   5.625  0.1398  0.0499  1.0308
 8205SOL    HW136074   2.955   4.497   5.688 -2.6544 -0.2520 -2.1558
 8205SOL    HW236075   2.988   4.582   5.574 -1.6953 -1.6134  0.0408
 8206SOL     OW36076   0.383   4.644  12.725  0.3187 -0.3467  0.0178
 8206SOL    HW136077   0.381   4.568  12.667  1.9163 -1.4541  1.4397
 8206SOL    HW236078   0.294   4.677  12.709  0.0938 -0.2710  1.4414
 8207SOL     OW36079   2.612   1.823   8.684  0.5572 -0.1558 -0.4579
 8207SOL    HW136080   2.653   1.855   8.765  0.9281  0.6328 -0.9643
 8207SOL    HW236081   2.573   1.738   8.706  1.6866 -0.3777  0.7083
 8208SOL     OW36082   3.877   3.605   8.847 -0.5661  0.9562  0.7650
 8208SOL    HW136083   3.784   3.603   8.822 -0.5595 -0.7032  0.8222
 8208SOL    HW236084   3.914   3.672   8.789  0.5341  1.3276  1.9065
 8209SOL     OW36085   3.739   3.581   9.104 -0.0156 -0.3939  1.1540
 8209SOL    HW136086   3.723   3.656   9.048  1.2787 -3.7775 -3.7166
 8209SOL    HW236087   3.785   3.525   9.042  1.0067  1.6804  0.0716
 8210SOL     OW36088   1.790   1.880  13.891  0.4357 -0.4243 -0.0519
 8210SOL    HW136089   1.821   1.961  13.851 -1.2564  1.1879  1.9058
 8210SOL    HW236090   1.711   1.926  13.920  0.5829  0.4810 -1.0712
 8211SOL     OW36091   1.492   0.662   1.018  0.2766  0.3599  0.3155
 8211SOL    HW136092   1.508   0.603   0.944  0.9081 -0.1964  0.9061
 8211SOL    HW236093   1.396   0.662   1.013  0.2972 -0.8158  0.0671
 8212SOL     OW36094   1.651   2.364   1.676  0.3096 -0.0284  0.1633
 8212SOL    HW136095   1.581   2.407   1.725  0.3989  0.5617 -0.2308
 8212SOL    HW236096   1.652   2.274   1.710  0.2238  0.1924  0.7540
 8213SOL     OW36097   2.713   0.783   5.297  0.2182 -0.0892 -0.1809
 8213SOL    HW136098   2.729   0.725   5.372  0.0153 -0.5030 -0.4566
 8213SOL    HW236099   2.639   0.732   5.265 -0.4487 -0.5547  2.1073
 8214SOL     OW36100   4.355   3.523   7.066  0.1209 -0.3148 -0.7074
 8214SOL    HW136101   4.364   3.598   7.006  0.0632  1.8114  1.9303
 8214SOL    HW236102   4.309   3.561   7.141  1.6505  0.3519 -0.1067
 8215SOL     OW36103   4.414   3.612   7.963 -0.3328  0.1744  0.7855
 8215SOL    HW136104   4.422   3.528   7.919  0.9518  1.8240 -2.1218
 8215SOL    HW236105   4.446   3.581   8.048  1.3615 -0.4223 -0.0639
 8216SOL     OW36106   2.021   0.259  14.418 -0.2607 -0.5536 -0.0054
 8216SOL    HW136107   2.064   0.185  14.459  0.9056 -1.0883 -2.1721
 8216SOL    HW236108   1.951   0.214  14.371 -0.0305 -2.1036  1.1584
 8217SOL     OW36109   3.055   2.659   7.761  0.0435 -0.4051  0.0878
 8217SOL    HW136110   3.056   2.575   7.806 -2.3657 -0.2809  0.3596
 8217SOL    HW236111   3.149   2.669   7.747 -0.2399  0.5895 -1.0423
 8218SOL     OW36112   2.115   3.513   2.529  0.0917  0.9304  0.5994
 8218SOL    HW136113   2.128   3.607   2.545  3.1057  0.6421 -0.1659
 8218SOL    HW236114   2.120   3.524   2.434  2.2043 -1.9015  0.4043
 8219SOL     OW36115   3.249   1.576   8.554  0.8131 -0.2919  0.1440
 8219SOL    HW136116   3.205   1.659   8.539  0.1397 -0.3746  1.6501
 8219SOL    HW236117   3.309   1.588   8.628  0.8893 -1.8722  0.3447
 8220SOL     OW36118   0.075   0.774   5.737 -0.3039  0.3062 -0.0122
 8220SOL    HW136119   0.099   0.709   5.671  1.0008  0.3261  0.4460
 8220SOL    HW236120   0.142   0.766   5.804 -0.5277  0.5296  0.2338
 8221SOL     OW36121   3.817   4.519   0.110  0.2960  0.2433  0.1626
 8221SOL    HW136122   3.875   4.587   0.145  3.8172 -2.4233 -0.5088
 8221SOL    HW236123   3.741   4.526   0.169  1.0503  0.5904  1.0876
 8222SOL     OW36124   1.812   0.442  10.980  0.2825 -0.4648  0.1602
 8222SOL    HW136125   1.859   0.475  11.057  0.5305 -1.1082  0.2802
 8222SOL    HW236126   1.863   0.364  10.961  0.4236  0.0034 -1.3308
 8223SOL     OW36127   0.653   2.157   1.287  0.1680  0.3317 -0.0414
 8223SOL    HW136128   0.597   2.181   1.213 -2.8012 -0.4766  1.9500
 8223SOL    HW236129   0.709   2.093   1.245  1.1175  0.4543  1.0246
 8224SOL     OW36130   3.156   2.041  14.514 -0.9433  0.3434 -0.5956
 8224SOL    HW136131   3.182   2.113  14.457  1.9699 -0.4578 -0.2685
 8224SOL    HW236132   3.176   2.075  14.602 -0.7674 -0.5688 -0.2820
 8225SOL     OW36133   1.039   3.953  17.638 -0.6074  0.1262 -0.7980
 8225SOL    HW136134   1.035   4.020   0.011 -0.8129 -0.3278 -0.3630
 8225SOL    HW236135   1.134   3.950  17.627 -0.4650 -0.5519  0.6689
 8226SOL     OW36136   4.147   0.049   4.438 -0.2299 -0.2799 -0.3114
 8226SOL    HW136137   4.124   4.681   4.456  0.7102 -0.6116 -0.8062
 8226SOL    HW236138   4.241   0.036   4.430  0.0146  0.7733  0.8797
 8227SOL     OW36139   4.571   2.940   4.879  0.4988 -0.5720  0.6597
 8227SOL    HW136140   4.567   2.847   4.859  0.2835 -0.4965  0.3527
 8227SOL    HW236141   4.576   2.984   4.794 -0.3080 -0.8239  0.4807
 8228SOL     OW36142   1.259   2.279   2.080 -0.7490 -0.2069  0.7463
 8228SOL    HW136143   1.267   2.227   2.160 -0.1195  0.8229  1.3619
 8228SOL    HW236144   1.345   2.266   2.040 -1.2527 -0.1514 -0.3273
 8229SOL     OW36145   2.134   2.150   0.590 -0.4316  0.7276 -0.4383
 8229SOL    HW136146   2.121   2.055   0.590  2.2167  0.3893  2.0642
 8229SOL    HW236147   2.173   2.145   0.503 -0.3837 -0.8687 -0.3313
 8230SOL     OW36148   4.055   1.159  12.187  0.3040 -0.4206  0.0639
 8230SOL    HW136149   4.047   1.078  12.238 -2.9728  0.8067  1.4449
 8230SOL    HW236150   3.964   1.173  12.161  0.4860  0.8314  0.0939
 8231SOL     OW36151   0.738   4.565   6.422  0.1162 -0.2434 -0.0953
 8231SOL    HW136152   0.665   4.559   6.483 -0.5992 -0.4008 -0.9555
 8231SOL    HW236153   0.746   4.473   6.397 -1.5695  0.4337 -3.2246
 8232SOL     OW36154   0.711   1.644   2.340 -0.7202 -0.3490 -0.0339
 8232SOL    HW136155   0.749   1.724   2.375 -0.1712 -1.0372  0.9457
 8232SOL    HW236156   0.668   1.674   2.260  1.3932  3.6275  0.3347
 8233SOL     OW36157   0.583   1.210   8.333 -0.1491  0.0177 -0.1268
 8233SOL    HW136158   0.614   1.122   8.354 -1.9276 -0.6546 -0.3053
 8233SOL    HW236159   0.619   1.257   8.408 -0.3486 -0.2794  0.1528
 8234SOL     OW36160   1.733   1.817  14.667 -0.2360 -0.0907  0.4873
 8234SOL    HW136161   1.651   1.853  14.703  0.0573 -0.3006  1.3765
 8234SOL    HW236162   1.748   1.864  14.586 -0.8666 -1.4423 -0.4161
 8235SOL     OW36163   1.731   3.803  11.620  0.4387 -0.6597 -0.0076
 8235SOL    HW136164   1.647   3.809  11.574  0.7704 -0.8817 -0.6458
 8235SOL    HW236165   1.703   3.820  11.710 -0.2706  0.1823 -0.3870
 8236SOL     OW36166   2.281   0.613   1.595 -0.4226  0.1955 -0.0556
 8236SOL    HW136167   2.212   0.603   1.661  2.0832  0.3016  2.6016
 8236SOL    HW236168   2.283   0.706   1.573 -0.8134 -0.1135 -1.3483
 8237SOL     OW36169   4.066   1.350   2.104  0.0614  0.5101 -0.6315
 8237SOL    HW136170   4.108   1.415   2.047  0.8407  1.7698  1.3869
 8237SOL    HW236171   3.974   1.376   2.100 -0.4160 -0.8375  1.4420
 8238SOL     OW36172   3.624   0.372  16.001 -0.1726  0.1821  0.5666
 8238SOL    HW136173   3.563   0.440  16.029 -0.5024  0.1782 -0.1534
 8238SOL    HW236174   3.669   0.420  15.931 -1.6670 -1.3971 -1.4618
 8239SOL     OW36175   1.506   2.270   5.046  0.1054  0.5951  0.6178
 8239SOL    HW136176   1.495   2.365   5.047  0.2395  0.6227 -1.3252
 8239SOL    HW236177   1.555   2.257   5.128  0.1849 -2.2164  0.1082
 8240SOL     OW36178   3.577   0.250   2.192 -0.0487 -0.0503  0.2400
 8240SOL    HW136179   3.594   0.270   2.284 -3.0862 -0.1964  0.8332
 8240SOL    HW236180   3.632   0.320   2.156  0.2101 -0.5933 -0.4242
 8241SOL     OW36181   2.307   1.816   7.011 -0.4848  0.1319  0.7816
 8241SOL    HW136182   2.253   1.740   6.991  0.2288 -0.5177  1.3246
 8241SOL    HW236183   2.260   1.885   6.965 -2.2702 -0.8735  1.0812
 8242SOL     OW36184   3.209   3.642   7.992  0.1444 -0.1084  0.7708
 8242SOL    HW136185   3.116   3.663   7.995 -0.1692 -0.9820 -2.6476
 8242SOL    HW236186   3.221   3.628   8.085 -0.4389  0.8143  0.9841
 8243SOL     OW36187   2.183   1.262   8.400 -0.4285 -0.7592 -0.0307
 8243SOL    HW136188   2.206   1.323   8.330  0.1717  0.1244  0.9451
 8243SOL    HW236189   2.114   1.311   8.444  1.2296 -0.9204  2.6910
 8244SOL     OW36190   3.024   2.568   3.329 -0.3410 -0.3329 -0.2749
 8244SOL    HW136191   2.967   2.492   3.333 -0.3394 -0.2498  1.2965
 8244SOL    HW236192   2.954   2.631   3.312 -1.0008 -1.5188 -1.8819
 8245SOL     OW36193   3.599   1.112   5.072 -0.1882  0.8622  0.3856
 8245SOL    HW136194   3.641   1.092   4.988 -2.0974  0.9627 -0.5826
 8245SOL    HW236195   3.514   1.141   5.040  0.0464  3.2189  1.8527
 8246SOL     OW36196   0.832   0.045   7.722  0.1592 -0.1581  0.8843
 8246SOL    HW136197   0.866   0.134   7.711  1.5692 -0.9445 -1.0546
 8246SOL    HW236198   0.883   0.013   7.796  0.2125 -0.8924  0.5284
 8247SOL     OW36199   4.569   2.123   5.497  0.3915  0.6747 -0.4816
 8247SOL    HW136200   4.475   2.118   5.480  0.4609  0.9588 -0.9329
 8247SOL    HW236201   4.588   2.058   5.429 -0.9035 -0.3437  0.1177
 8248SOL     OW36202   1.086   3.006   7.777  0.4552 -0.0182 -0.3254
 8248SOL    HW136203   1.029   3.040   7.708 -0.0082 -0.5044 -0.1864
 8248SOL    HW236204   1.086   3.080   7.837 -0.8984 -0.3380  0.0550
 8249SOL     OW36205   1.242   1.528   4.540 -0.2027 -0.1321 -0.3338
 8249SOL    HW136206   1.307   1.593   4.567  0.2117 -0.2680 -0.9904
 8249SOL    HW236207   1.239   1.538   4.445 -0.6500 -1.7317 -0.4821
 8250SOL     OW36208   4.703   3.604   9.364  0.0441  0.3714  0.2044
 8250SOL    HW136209   4.722   3.684   9.315  1.6864  0.3120  0.7437
 8250SOL    HW236210   4.721   3.636   9.452  0.7513  0.7848 -0.0864
 8251SOL     OW36211   1.232   0.864   9.032  0.1325 -0.7767  0.4518
 8251SOL    HW136212   1.305   0.805   9.051  2.5704  2.0178 -0.2051
 8251SOL    HW236213   1.246   0.933   9.097 -3.7831  0.9321 -0.4834
 8252SOL     OW36214   0.734   3.727  11.407  0.0156  0.0107 -0.4304
 8252SOL    HW136215   0.813   3.680  11.383 -1.0035 -2.2411  0.6346
 8252SOL    HW236216   0.758   3.813  11.374 -0.9336  0.0808 -0.9562
 8253SOL     OW36217   1.392   3.258  16.297 -0.1887 -0.6073 -0.4306
 8253SOL    HW136218   1.383   3.209  16.215  1.0375  1.5478 -1.8730
 8253SOL    HW236219   1.384   3.198  16.371  0.5805 -2.5914 -1.9654
 8254SOL     OW36220   0.592   2.903   4.158  0.0997 -0.2737  0.3343
 8254SOL    HW136221   0.536   2.946   4.222  0.4776  1.8207 -0.7344
 8254SOL    HW236222   0.659   2.970   4.143  1.4436 -1.8233 -0.5703
 8255SOL     OW36223   1.724   3.713   8.339 -0.0503  0.3620  0.8039
 8255SOL    HW136224   1.686   3.769   8.272 -0.2979 -0.9706 -0.1666
 8255SOL    HW236225   1.794   3.668   8.292  0.3378 -0.3798  2.0655
 8256SOL     OW36226   0.914   2.763  16.438  0.0939 -0.0831  0.1984
 8256SOL    HW136227   0.850   2.783  16.370 -0.4148 -0.2090  0.6485
 8256SOL    HW236228   0.885   2.676  16.466 -1.2651  0.6313  0.9936
 8257SOL     OW36229   2.788   2.124   7.434  0.3447  0.5491  0.1394
 8257SOL    HW136230   2.704   2.093   7.466  0.1956 -0.2709 -1.0421
 8257SOL    HW236231   2.814   2.051   7.377 -0.3350 -0.0055  0.5382
 8258SOL     OW36232   3.872   0.920   9.762  0.8606  0.2800  0.5180
 8258SOL    HW136233   3.965   0.902   9.771  0.8341  0.3037  0.8277
 8258SOL    HW236234   3.870   0.993   9.823 -1.5820 -0.6460  1.5294
 8259SOL     OW36235   2.546   2.500   3.876  0.0377  0.4711 -0.5302
 8259SOL    HW136236   2.602   2.483   3.800  0.2543  0.6541 -0.4129
 8259SOL    HW236237   2.612   2.495   3.946  1.6932  0.3139 -2.1061
 8260SOL     OW36238   3.895   0.407   7.585  0.0024 -0.0021  0.4438
 8260SOL    HW136239   3.860   0.355   7.658  1.1586 -2.7713 -1.0008
 8260SOL    HW236240   3.822   0.398   7.524  0.4803 -1.4696  0.0777
 8261SOL     OW36241   2.011   3.473   7.050  0.3766  0.7575 -0.3592
 8261SOL    HW136242   2.048   3.388   7.073  0.1755  1.1916  1.5600
 8261SOL    HW236243   1.983   3.508   7.134  0.6168 -0.1779  0.0986
 8262SOL     OW36244   2.620   0.047   0.797 -0.0906 -0.5051 -0.4446
 8262SOL    HW136245   2.639   0.031   0.705  0.2621 -0.8947 -0.3086
 8262SOL    HW236246   2.585   0.135   0.790  1.2428 -0.0583 -1.3323
 8263SOL     OW36247   3.135   4.305   8.344  0.4897  0.0180 -0.2298
 8263SOL    HW136248   3.061   4.244   8.335 -0.1304  0.4515  1.8680
 8263SOL    HW236249   3.206   4.242   8.355 -0.6236 -1.0712  0.7162
 8264SOL     OW36250   1.018   1.412  11.978  0.5560 -0.1292 -0.2186
 8264SOL    HW136251   1.071   1.379  11.906 -2.5447  0.6193 -2.8192
 8264SOL    HW236252   0.951   1.344  11.973  1.4139 -0.9854 -0.1234
 8265SOL     OW36253   3.476   1.467   4.764  0.4422  0.1072  0.6699
 8265SOL    HW136254   3.562   1.425   4.753  0.2427 -0.4680  1.2764
 8265SOL    HW236255   3.495   1.560   4.775  2.9181 -0.0684 -2.0172
 8266SOL     OW36256   0.788   0.005   9.535 -0.2946  0.5813  0.2545
 8266SOL    HW136257   0.840   4.669   9.481  0.6353  1.0750  0.6031
 8266SOL    HW236258   0.850   0.036   9.601  1.2165  0.6258 -1.1900
 8267SOL     OW36259   4.454   2.312  17.359 -0.4017  0.1528  0.3000
 8267SOL    HW136260   4.445   2.407  17.364  0.8108  0.0235  5.3715
 8267SOL    HW236261   4.410   2.288  17.441 -2.1062 -1.7855 -1.1906
 8268SOL     OW36262   2.767   0.082   6.867 -0.0849 -0.4694 -0.0752
 8268SOL    HW136263   2.696   0.054   6.809  0.9299  0.5828 -1.8193
 8268SOL    HW236264   2.823   0.005   6.879 -1.6562 -1.5095  0.5789
 8269SOL     OW36265   3.642   0.146  13.271  0.5312 -0.4225 -1.5352
 8269SOL    HW136266   3.575   0.084  13.298  1.2577 -0.6902 -0.3369
 8269SOL    HW236267   3.616   0.227  13.315  4.3636  0.4254 -0.7688
 8270SOL     OW36268   3.297   2.737   1.232  0.0549  0.1147 -0.0841
 8270SOL    HW136269   3.303   2.695   1.146  1.9433  0.7525 -0.2758
 8270SOL    HW236270   3.285   2.658   1.284  0.5818 -0.2991 -0.5920
 8271SOL     OW36271   3.942   2.500  10.800  0.6566  0.2363 -0.1055
 8271SOL    HW136272   3.858   2.471  10.764  0.2920  1.7827 -0.5061
 8271SOL    HW236273   3.953   2.455  10.884 -1.0313 -0.4645 -0.2661
 8272SOL     OW36274   3.110   1.416   3.030  0.3170 -0.7869  0.5715
 8272SOL    HW136275   3.151   1.491   2.986  0.5547 -1.4500 -0.3338
 8272SOL    HW236276   3.106   1.350   2.962 -0.9903 -1.0167  0.8765
 8273SOL     OW36277   2.136   1.069  14.795 -0.7454  0.2451 -0.6222
 8273SOL    HW136278   2.198   1.047  14.725 -0.2927  1.0604 -0.4843
 8273SOL    HW236279   2.072   1.001  14.774  0.4347 -0.9551 -0.3710
 8274SOL     OW36280   1.994   3.912  10.792 -0.1302  0.1328  0.1872
 8274SOL    HW136281   1.978   3.830  10.839  0.6512 -0.9924 -1.4809
 8274SOL    HW236282   2.041   3.967  10.855  2.2972  0.1308 -1.6133
 8275SOL     OW36283   3.436   3.059   6.915 -0.1115 -0.5134 -0.0359
 8275SOL    HW136284   3.408   3.089   6.829 -0.1295  3.5543  1.4115
 8275SOL    HW236285   3.525   3.095   6.909  0.3160 -1.3683  1.1533
 8276SOL     OW36286   2.123   3.434  10.609  0.2910  0.1668  0.4375
 8276SOL    HW136287   2.093   3.511  10.656 -0.1600  1.8634 -2.6331
 8276SOL    HW236288   2.039   3.388  10.613  0.8681 -0.9270  0.0042
 8277SOL     OW36289   0.606   0.981   1.719 -0.5424 -0.0505 -0.1694
 8277SOL    HW136290   0.524   1.008   1.761 -1.1518 -1.9319 -0.1651
 8277SOL    HW236291   0.614   1.036   1.641 -2.4806  1.2741  0.5682
 8278SOL     OW36292   3.786   0.532   6.283 -0.5066  0.0732  0.4705
 8278SOL    HW136293   3.802   0.441   6.308 -0.2517 -0.2547 -0.8727
 8278SOL    HW236294   3.871   0.561   6.249 -0.0317  0.7489  2.2186
 8279SOL     OW36295   4.568   3.201   5.285 -0.0400 -0.5557  0.3756
 8279SOL    HW136296   4.583   3.243   5.201 -1.3627  0.6798  0.7564
 8279SOL    HW236297   4.537   3.118   5.249  1.9896 -1.5805  0.9878
 8280SOL     OW36298   3.569   2.168   9.193 -0.0328  0.1612 -0.1921
 8280SOL    HW136299   3.595   2.120   9.271  1.6837  0.1369 -0.7718
 8280SOL    HW236300   3.593   2.097   9.133 -1.5932  0.3117 -0.9792
 8281SOL     OW36301   3.136   1.395   4.874 -0.4567 -0.4602 -0.4666
 8281SOL    HW136302   3.143   1.481   4.834  0.3900 -0.6864 -0.8095
 8281SOL    HW236303   3.173   1.409   4.961 -0.7880 -1.9752 -0.0800
 8282SOL     OW36304   2.194   2.802  11.831 -0.3265  0.4492  0.4167
 8282SOL    HW136305   2.099   2.798  11.820 -0.1210 -1.7556 -0.4872
 8282SOL    HW236306   2.211   2.712  11.804 -0.9882  0.7538 -1.0070
 8283SOL     OW36307   4.197   3.901   1.486  0.0003 -0.4677  0.2744
 8283SOL    HW136308   4.151   3.889   1.403  0.0870  1.3152 -0.0233
 8283SOL    HW236309   4.271   3.846   1.464  0.9200 -0.5324  3.4703
 8284SOL     OW36310   1.441   4.568   5.511  0.5478 -0.3532  0.2776
 8284SOL    HW136311   1.420   4.586   5.419  1.9822  0.3670  0.0986
 8284SOL    HW236312   1.395   4.642   5.550  0.9974 -1.2291  2.4283
 8285SOL     OW36313   3.728   3.318   5.240  0.4204  0.4477 -0.1737
 8285SOL    HW136314   3.722   3.347   5.149  1.9364 -0.5480 -0.6002
 8285SOL    HW236315   3.674   3.241   5.220  1.4520  0.0326 -1.3779
 8286SOL     OW36316   0.387   1.456   7.634 -0.2010 -0.4323  0.1372
 8286SOL    HW136317   0.462   1.398   7.640 -1.6613 -2.2175  1.4520
 8286SOL    HW236318   0.332   1.422   7.705 -1.4150  4.2931  1.4701
 8287SOL     OW36319   1.337   4.370  17.343  0.0112 -0.2640  0.3254
 8287SOL    HW136320   1.414   4.404  17.390 -0.6415  1.2317  0.3251
 8287SOL    HW236321   1.275   4.439  17.365  1.0037  0.8897 -0.4884
 8288SOL     OW36322   1.283   0.521   4.915  0.2351 -0.5643  0.0856
 8288SOL    HW136323   1.308   0.430   4.931 -0.9827 -0.9619 -0.2475
 8288SOL    HW236324   1.278   0.549   5.006 -0.9358  2.4472 -0.8970
 8289SOL     OW36325   1.577   2.093   9.470 -0.2039  0.6437  0.5740
 8289SOL    HW136326   1.486   2.072   9.492  0.1799  0.2181  1.7344
 8289SOL    HW236327   1.588   2.036   9.394 -2.4796 -1.0654  1.5302
 8290SOL     OW36328   1.147   2.613   7.321  0.8137 -0.0349 -0.1667
 8290SOL    HW136329   1.113   2.701   7.309  1.0536  0.3440  1.8649
 8290SOL    HW236330   1.123   2.590   7.411  1.1114 -1.2191 -0.3798
 8291SOL     OW36331   3.841   1.575   7.923  0.3256  0.0461 -0.4325
 8291SOL    HW136332   3.887   1.634   7.983 -0.9476 -2.1777  2.6919
 8291SOL    HW236333   3.874   1.602   7.837  0.6903  0.9285 -0.0115
 8292SOL     OW36334   1.128   1.450  15.938  0.0599  0.2473  0.0112
 8292SOL    HW136335   1.104   1.459  16.030 -0.9159  0.1822 -0.2383
 8292SOL    HW236336   1.206   1.506  15.932 -0.7345  1.0264 -2.9482
 8293SOL     OW36337   0.848   0.192   0.626 -0.1338 -0.1209  0.6105
 8293SOL    HW136338   0.906   0.119   0.648  0.8936 -0.6044 -3.7015
 8293SOL    HW236339   0.770   0.141   0.608 -0.8772  0.7092  1.4422
 8294SOL     OW36340   2.341   0.316   3.963  0.7075  0.3972  0.1214
 8294SOL    HW136341   2.274   0.369   4.006 -1.0569  0.2070 -2.4311
 8294SOL    HW236342   2.293   0.234   3.952  0.1813  1.2037 -3.6695
 8295SOL     OW36343   1.747   2.157   3.225  0.1740 -0.0120  0.0084
 8295SOL    HW136344   1.816   2.158   3.158  0.6526  3.5893  0.5322
 8295SOL    HW236345   1.763   2.249   3.247  1.9075 -0.2505 -0.2117
 8296SOL     OW36346   2.895   3.510  16.860 -0.1977  0.1045  0.5916
 8296SOL    HW136347   2.910   3.418  16.883 -0.2703 -0.1979 -0.5907
 8296SOL    HW236348   2.912   3.550  16.946 -1.5386  2.3097 -0.1844
 8297SOL     OW36349   2.118   2.469   6.853  0.5811 -0.0048 -0.0781
 8297SOL    HW136350   2.112   2.433   6.942 -1.9010  0.6443 -0.0063
 8297SOL    HW236351   2.024   2.478   6.838  0.5744 -1.0186 -0.6819
 8298SOL     OW36352   0.375   1.770   5.489 -0.5470 -0.2805  0.4149
 8298SOL    HW136353   0.385   1.847   5.433  0.1453 -0.4191  0.3467
 8298SOL    HW236354   0.284   1.774   5.519 -1.5673  0.8312 -2.7703
 8299SOL     OW36355   2.682   2.445  16.161  0.1209  0.4997 -0.1042
 8299SOL    HW136356   2.591   2.463  16.138  0.5856  1.5680 -1.1241
 8299SOL    HW236357   2.668   2.397  16.242  1.0396 -2.8786 -1.9533
 8300SOL     OW36358   1.293   3.890   2.758  0.6625  0.0304 -0.1253
 8300SOL    HW136359   1.354   3.868   2.687 -0.3956 -0.4851 -0.8773
 8300SOL    HW236360   1.260   3.803   2.780  0.7493  0.4165  1.5216
 8301SOL     OW36361   1.481   3.526  15.547  0.4256 -0.1389  0.6601
 8301SOL    HW136362   1.441   3.603  15.589  0.6448  0.1975  0.2561
 8301SOL    HW236363   1.571   3.558  15.546  0.9652 -1.7766 -2.7158
 8302SOL     OW36364   0.979   2.847   6.527 -0.4081 -0.2811 -0.6924
 8302SOL    HW136365   1.064   2.891   6.537 -1.0326  0.9698 -0.9400
 8302SOL    HW236366   0.966   2.777   6.591  0.9262  0.7326  0.7161
 8303SOL     OW36367   2.485   0.961   9.199 -0.1116  0.1459 -0.5043
 8303SOL    HW136368   2.420   0.908   9.153 -1.9592  0.4792  1.7105
 8303SOL    HW236369   2.563   0.905   9.202  0.0141  0.3444 -0.0882
 8304SOL     OW36370   2.263   3.056   5.675 -0.3323 -0.0268  0.1976
 8304SOL    HW136371   2.190   3.117   5.668 -0.0314  0.0712 -2.0481
 8304SOL    HW236372   2.344   3.101   5.650 -0.5885  0.3570  0.0554
 8305SOL     OW36373   0.942   0.210   8.656 -0.8665  0.3668  0.2883
 8305SOL    HW136374   0.882   0.136   8.655 -0.2719 -0.0614 -3.3224
 8305SOL    HW236375   0.878   0.277   8.631  0.9983  2.3735  0.7963
 8306SOL     OW36376   2.315   4.038   7.919  0.3106  0.0821 -0.7130
 8306SOL    HW136377   2.303   4.035   7.824 -0.7753  1.7216 -0.6202
 8306SOL    HW236378   2.400   4.082   7.928 -1.0968  2.6460 -0.0572
 8307SOL     OW36379   0.076   1.985   0.367 -0.1185  0.5899  0.3636
 8307SOL    HW136380   0.166   2.011   0.387 -0.1176  0.4195  0.5764
 8307SOL    HW236381   0.086   1.938   0.284  3.2361  0.1671  1.0127
 8308SOL     OW36382   0.433   1.155  12.162  0.0746  0.3842  0.4416
 8308SOL    HW136383   0.398   1.101  12.232 -0.1067  0.8412  0.7022
 8308SOL    HW236384   0.490   1.092  12.117  1.2965  0.7586  1.4589
 8309SOL     OW36385   2.340   2.737   3.929 -0.5418 -0.0191  0.6767
 8309SOL    HW136386   2.406   2.668   3.928  0.4059  0.8827  0.9778
 8309SOL    HW236387   2.382   2.804   3.876  2.3774 -1.4745  1.1387
 8310SOL     OW36388   4.224   0.672   6.450  0.2089  0.0812  0.0848
 8310SOL    HW136389   4.258   0.733   6.384 -1.9242  0.2296 -0.8668
 8310SOL    HW236390   4.185   0.614   6.385  1.3426  1.1136 -1.5084
 8311SOL     OW36391   2.118   4.693   5.504 -0.2956  0.1885 -0.1346
 8311SOL    HW136392   2.116   0.025   5.583  2.0785 -0.7503  0.5847
 8311SOL    HW236393   2.115   0.038   5.437 -1.4802 -0.6513 -0.9177
 8312SOL     OW36394   2.942   1.627  13.422  0.0501  0.4661 -0.0939
 8312SOL    HW136395   2.962   1.680  13.345 -0.0328  0.1450 -0.3395
 8312SOL    HW236396   2.987   1.545  13.401 -0.4205  1.2274 -4.1088
 8313SOL     OW36397   3.125   1.965  15.163 -0.4800  0.2905  0.2222
 8313SOL    HW136398   3.097   2.038  15.107 -0.8481 -0.9691 -1.2320
 8313SOL    HW236399   3.125   1.892  15.101  0.2102  1.7088 -1.4639
 8314SOL     OW36400   4.366   1.107  16.871  0.3075 -0.6071  0.0804
 8314SOL    HW136401   4.444   1.062  16.903  0.2927 -0.4186  0.3801
 8314SOL    HW236402   4.301   1.037  16.872  0.2165 -0.5578 -3.0055
 8315SOL     OW36403   2.927   4.718   8.071  0.1346  0.3371  0.4898
 8315SOL    HW136404   2.955   4.630   8.097 -0.7322 -0.5238 -1.4890
 8315SOL    HW236405   2.959   0.040   8.149  2.2570  0.8640 -0.6785
 8316SOL     OW36406   0.708   3.787   4.720 -0.1799  0.3365  0.0449
 8316SOL    HW136407   0.714   3.835   4.637 -1.6003  1.2135  0.4430
 8316SOL    HW236408   0.626   3.815   4.761 -0.5410 -1.8039  0.7591
 8317SOL     OW36409   4.129   0.061   9.134  0.0027  0.3695 -0.8929
 8317SOL    HW136410   4.153   0.039   9.224  0.4702  0.7967 -0.9169
 8317SOL    HW236411   4.218   0.069   9.099 -0.3987 -0.2178 -2.0532
 8318SOL     OW36412   0.092   1.269  14.530 -0.2307 -0.0412  0.2961
 8318SOL    HW136413   0.156   1.321  14.578  0.7416  0.6134 -1.6928
 8318SOL    HW236414   0.016   1.271  14.588  0.2739  0.1379  0.9392
 8319SOL     OW36415   0.300   3.210   6.446  0.4897 -0.0422  0.1957
 8319SOL    HW136416   0.328   3.248   6.363 -0.5640  1.0738  0.3445
 8319SOL    HW236417   0.285   3.121   6.417 -0.5945  0.3298 -0.3838
 8320SOL     OW36418   0.426   4.324   4.274 -0.2241 -0.5832 -0.1448
 8320SOL    HW136419   0.368   4.387   4.231 -0.3977 -0.9598 -0.4687
 8320SOL    HW236420   0.505   4.338   4.221 -0.3487  0.2245 -0.1119
 8321SOL     OW36421   0.627   0.834   3.122  0.4373 -0.2055 -0.0381
 8321SOL    HW136422   0.572   0.913   3.119 -0.2884 -0.7322 -0.4521
 8321SOL    HW236423   0.705   0.868   3.079  0.4151  0.8005  0.6956
 8322SOL     OW36424   1.868   1.856   5.790 -0.3174  0.0231 -0.0218
 8322SOL    HW136425   1.962   1.846   5.805 -0.0824  0.2397 -1.3818
 8322SOL    HW236426   1.849   1.842   5.697 -0.4235 -1.2046  0.1812
 8323SOL     OW36427   0.165   3.050   9.320 -0.4375 -0.0733 -0.4382
 8323SOL    HW136428   0.247   3.067   9.273  0.5150 -3.2940  0.0877
 8323SOL    HW236429   0.198   3.022   9.406 -2.8323 -0.9115  0.1872
 8324SOL     OW36430   1.350   2.610   0.206 -0.1934  0.0161 -0.1437
 8324SOL    HW136431   1.445   2.622   0.203 -0.4883  2.2433 -1.1776
 8324SOL    HW236432   1.349   2.537   0.267 -1.5384  0.8084  0.7648
 8325SOL     OW36433   0.392   0.036   1.971  0.1807 -0.6736  0.1575
 8325SOL    HW136434   0.451   0.110   1.958 -1.3298  0.8578  2.0561
 8325SOL    HW236435   0.347   0.069   2.048  1.2312  0.8966  0.1039
 8326SOL     OW36436   3.074   2.213  11.513  0.0166  0.2566 -0.3182
 8326SOL    HW136437   3.084   2.278  11.583 -1.1367 -0.8440  0.8816
 8326SOL    HW236438   3.151   2.227  11.458  0.8302 -0.9882  0.5115
 8327SOL     OW36439   1.448   0.738   9.709 -0.0190 -0.1054  0.0447
 8327SOL    HW136440   1.439   0.663   9.768 -3.5385 -0.9177 -1.5218
 8327SOL    HW236441   1.440   0.817   9.764 -1.4421  1.3000 -2.1878
 8328SOL     OW36442   2.990   3.367  16.583  0.0190  0.0578 -0.2498
 8328SOL    HW136443   3.044   3.375  16.504  0.2971 -1.3118 -0.1853
 8328SOL    HW236444   2.979   3.273  16.568 -2.0815  0.0698  1.2561
 8329SOL     OW36445   0.456   2.803   2.414 -0.0145  0.1015  0.4743
 8329SOL    HW136446   0.473   2.890   2.378  2.5647 -0.5356  0.1237
 8329SOL    HW236447   0.396   2.766   2.349 -2.6934  0.2975  2.8270
 8330SOL     OW36448   2.872   1.075  10.190 -0.0276 -0.0883 -0.2854
 8330SOL    HW136449   2.812   1.031  10.251 -1.7906 -0.6182 -2.3853
 8330SOL    HW236450   2.938   1.113  10.248  0.0671  0.5576 -0.8151
 8331SOL     OW36451   2.925   0.332   5.431  0.3531 -0.0185 -0.0715
 8331SOL    HW136452   2.852   0.284   5.391 -1.3671 -0.6228  3.7338
 8331SOL    HW236453   2.882   0.393   5.491 -0.4489  0.1524 -0.8284
 8332SOL     OW36454   1.613   0.486   0.543  0.2517  0.3063  0.2649
 8332SOL    HW136455   1.581   0.396   0.546 -1.3856  0.7885 -2.9928
 8332SOL    HW236456   1.709   0.479   0.546  0.1243 -1.8265 -0.4801
 8333SOL     OW36457   1.017   1.962   0.539  0.5242  0.6498 -0.4060
 8333SOL    HW136458   0.999   2.017   0.463 -1.1613  2.4140  1.2499
 8333SOL    HW236459   1.019   1.882   0.487  0.4305 -1.3108  2.5966
 8334SOL     OW36460   3.002   1.366  13.459 -0.0781 -0.1386  0.3754
 8334SOL    HW136461   3.024   1.295  13.519  2.5180  0.0281 -0.3652
 8334SOL    HW236462   2.929   1.407  13.506 -0.7305 -1.6250  0.6447
 8335SOL     OW36463   4.118   2.825   8.106  0.6285  0.3608  0.4053
 8335SOL    HW136464   4.204   2.804   8.070 -0.2435 -0.4276 -1.2456
 8335SOL    HW236465   4.121   2.921   8.100 -1.1850  0.3562 -0.4464
 8336SOL     OW36466   2.942   2.440   9.026 -0.3419  0.2315  0.5322
 8336SOL    HW136467   2.970   2.501   8.958 -0.9459 -1.6001 -1.3617
 8336SOL    HW236468   3.017   2.439   9.084 -2.0200 -1.7186  2.6742
 8337SOL     OW36469   3.168   0.156  12.563  0.0326  0.2231  0.5363
 8337SOL    HW136470   3.219   0.236  12.554  0.6739 -0.1043  1.2239
 8337SOL    HW236471   3.235   0.095  12.596  0.6799 -0.2677 -1.6923
 8338SOL     OW36472   0.760   2.890   0.228  0.2928  0.3690 -0.2296
 8338SOL    HW136473   0.805   2.953   0.171  0.2200 -0.1113 -0.8282
 8338SOL    HW236474   0.754   2.913   0.320  1.0081  1.0907 -0.3630
 8339SOL     OW36475   0.053   0.650   3.278  0.3708  0.2512 -0.0071
 8339SOL    HW136476   0.144   0.653   3.306 -0.3423 -0.1829  2.3100
 8339SOL    HW236477   0.056   0.603   3.195 -1.7294 -1.0540  0.6603
 8340SOL     OW36478   0.258   3.866  12.242  0.1033 -0.0896 -0.1578
 8340SOL    HW136479   0.191   3.866  12.173  1.3456  1.3982 -1.3922
 8340SOL    HW236480   0.244   3.955  12.273 -1.0599 -0.2509 -0.2382
 8341SOL     OW36481   2.223   0.880   6.780 -0.1605 -0.3472  0.3305
 8341SOL    HW136482   2.202   0.788   6.800  0.4003 -0.4817  0.3173
 8341SOL    HW236483   2.295   0.893   6.843  0.9925 -1.1119 -0.8353
 8342SOL     OW36484   3.696   2.767   5.067  0.2446  0.4115  0.7740
 8342SOL    HW136485   3.617   2.741   5.114  0.8009 -0.1375  1.4130
 8342SOL    HW236486   3.749   2.687   5.064  0.0597  0.3232 -0.0845
 8343SOL     OW36487   0.906   4.277   6.603 -0.2737  0.3151 -0.6502
 8343SOL    HW136488   0.901   4.187   6.570 -0.2257  0.3599 -0.7817
 8343SOL    HW236489   0.822   4.298   6.644 -0.3208 -0.1710 -0.4962
 8344SOL     OW36490   1.042   3.889   4.114 -0.2650 -0.6754  0.2841
 8344SOL    HW136491   1.138   3.883   4.122  0.0971  0.8859 -2.8107
 8344SOL    HW236492   1.034   3.956   4.046 -1.5515  1.2850  2.3706
 8345SOL     OW36493   3.389   3.917  13.134 -0.2401  0.0801  0.0990
 8345SOL    HW136494   3.461   3.855  13.128 -0.2781  0.0714 -0.2656
 8345SOL    HW236495   3.326   3.853  13.103 -0.4566  1.0363 -1.4189
 8346SOL     OW36496   1.316   3.503  12.411  0.3364  0.4378 -0.0256
 8346SOL    HW136497   1.396   3.491  12.464 -0.2436 -0.9095  0.5305
 8346SOL    HW236498   1.255   3.519  12.483 -1.2484  1.0091 -1.5067
 8347SOL     OW36499   4.456   1.403   8.684  0.4877  0.3223 -0.1226
 8347SOL    HW136500   4.401   1.425   8.759  0.3398  0.3310 -0.2331
 8347SOL    HW236501   4.546   1.398   8.717 -0.4456 -0.3857  2.3060
 8348SOL     OW36502   2.888   0.387   4.575 -0.1321  0.2990 -0.4103
 8348SOL    HW136503   2.931   0.323   4.518 -0.9264 -0.8531  0.2700
 8348SOL    HW236504   2.810   0.419   4.531 -1.7006 -0.9001  1.4336
 8349SOL     OW36505   3.339   1.442   6.347  0.0552 -0.0783 -0.0843
 8349SOL    HW136506   3.430   1.422   6.369 -0.3965 -2.6653 -0.5732
 8349SOL    HW236507   3.336   1.536   6.360  3.4893 -0.1977  1.5708
 8350SOL     OW36508   3.104   2.446   0.632 -0.6739 -0.5657  0.5936
 8350SOL    HW136509   3.044   2.377   0.663  1.8644 -2.6587  0.8128
 8350SOL    HW236510   3.061   2.455   0.547 -0.0117  0.8136  0.4106
 8351SOL     OW36511   3.933   4.391  12.993  0.0608  0.2412  0.2243
 8351SOL    HW136512   3.986   4.400  12.914  0.1725  0.2150  0.2953
 8351SOL    HW236513   3.990   4.335  13.047  0.4911 -0.2872 -0.7649
 8352SOL     OW36514   2.088   0.453   1.983 -0.1593  0.2082 -0.0441
 8352SOL    HW136515   2.026   0.446   2.056  0.7114  1.0615  0.7647
 8352SOL    HW236516   2.116   0.363   1.998  1.6936  1.3637  3.2079
 8353SOL     OW36517   1.270   1.306   4.867  0.0280 -0.3543  0.4829
 8353SOL    HW136518   1.200   1.337   4.810 -0.4638  0.8252  1.6987
 8353SOL    HW236519   1.228   1.316   4.953  0.2041  0.9611  0.4211
 8354SOL     OW36520   2.096   1.371   7.238 -0.9387 -0.1737 -0.0682
 8354SOL    HW136521   2.023   1.373   7.175 -0.3766 -0.6607 -0.7306
 8354SOL    HW236522   2.124   1.461   7.251 -0.9129 -0.0712 -0.8308
 8355SOL     OW36523   4.116   2.001  16.173 -0.1730  0.1484  0.4728
 8355SOL    HW136524   4.210   1.984  16.171 -0.4913 -1.3506 -2.0728
 8355SOL    HW236525   4.111   2.067  16.104 -0.6172 -0.3581  0.0250
 8356SOL     OW36526   1.122   0.489   7.018  0.8307 -0.2662 -0.2182
 8356SOL    HW136527   1.164   0.574   7.025  2.9055 -1.2899 -0.1785
 8356SOL    HW236528   1.143   0.456   7.105  0.2508 -0.0088  0.0198
 8357SOL     OW36529   3.414   2.757   3.109  0.4698 -0.3598 -0.0894
 8357SOL    HW136530   3.365   2.694   3.161 -0.6091 -1.5486 -2.5038
 8357SOL    HW236531   3.384   2.746   3.018  0.0567  0.4397 -0.0485
 8358SOL     OW36532   3.610   0.190   5.096 -0.5787 -0.1335 -0.0187
 8358SOL    HW136533   3.581   0.232   5.177  0.4869  2.2036 -0.8737
 8358SOL    HW236534   3.540   0.219   5.038 -1.8109 -2.1794  0.4455
 8359SOL     OW36535   4.606   1.851   4.107 -0.4615  0.7893 -0.3384
 8359SOL    HW136536   4.654   1.809   4.036  0.0905  0.8774 -0.0178
 8359SOL    HW236537   4.537   1.791   4.135  0.0608  1.3465  2.2228
 8360SOL     OW36538   3.249   3.345  11.046 -0.6544  0.1382  0.4710
 8360SOL    HW136539   3.229   3.374  11.134 -0.3415 -1.4360  1.0654
 8360SOL    HW236540   3.167   3.369  11.003 -1.3689 -1.3140  1.0025
 8361SOL     OW36541   1.121   4.422   1.419 -0.2412  0.0361  0.1217
 8361SOL    HW136542   1.148   4.338   1.384 -1.4697  0.2942 -1.4326
 8361SOL    HW236543   1.048   4.442   1.361 -0.4857 -0.8416  0.1336
 8362SOL     OW36544   4.704   1.164   8.973  0.2534  0.5095 -0.1942
 8362SOL    HW136545   0.059   1.139   9.022  0.9454  0.0398 -1.5616
 8362SOL    HW236546   4.657   1.206   9.046  1.4042  0.3669  0.6314
 8363SOL     OW36547   1.412   4.648   4.149  0.2726 -0.3184  0.0298
 8363SOL    HW136548   1.504   4.629   4.166  0.0107  0.0302  1.8049
 8363SOL    HW236549   1.392   4.703   4.224 -1.1966  0.9677 -1.2930
 8364SOL     OW36550   2.596   1.226   9.124  0.4477 -0.0534 -0.2826
 8364SOL    HW136551   2.603   1.226   9.220 -1.5061 -2.2012 -0.1429
 8364SOL    HW236552   2.580   1.132   9.123  0.1177 -0.0169  0.7561
 8365SOL     OW36553   2.710   1.819   8.962  0.6518 -0.0763  0.0344
 8365SOL    HW136554   2.745   1.851   9.046  1.2009 -0.3396 -0.0893
 8365SOL    HW236555   2.638   1.762   8.987 -1.0896  1.8367 -0.5894
 8366SOL     OW36556   0.399   2.503   5.391 -0.7965  0.0361 -0.0305
 8366SOL    HW136557   0.305   2.514   5.381 -1.2056 -1.6632  1.9849
 8366SOL    HW236558   0.429   2.516   5.301 -0.4671  3.1490  0.5346
 8367SOL     OW36559   0.808   0.183  15.095  0.2637  0.2825 -0.2307
 8367SOL    HW136560   0.824   0.256  15.036 -0.5108 -0.4744 -1.3822
 8367SOL    HW236561   0.808   0.216  15.184 -2.3215  0.1905 -0.2165
 8368SOL     OW36562   2.807   0.635   5.535  0.1940  0.1229  0.1629
 8368SOL    HW136563   2.776   0.591   5.615 -0.0679 -2.1564 -1.1965
 8368SOL    HW236564   2.859   0.706   5.575 -0.4115  0.7120 -0.1067
 8369SOL     OW36565   1.422   0.056   9.658 -0.1721 -0.2409 -0.0637
 8369SOL    HW136566   1.511   0.085   9.675 -0.7876  1.9665 -0.7018
 8369SOL    HW236567   1.430   4.712   9.590 -1.6529  1.6056 -2.0358
 8370SOL     OW36568   1.504   1.051   1.936  0.1775  0.9110 -0.7533
 8370SOL    HW136569   1.413   1.077   1.951 -0.1406 -0.5882 -0.0113
 8370SOL    HW236570   1.490   0.993   1.861  1.1415  0.3813 -0.5273
 8371SOL     OW36571   2.730   4.555   7.867 -0.4199  0.2588  0.3381
 8371SOL    HW136572   2.677   4.479   7.846  1.6735 -0.7053 -1.3817
 8371SOL    HW236573   2.810   4.516   7.902  1.1981 -0.7967 -4.5944
 8372SOL     OW36574   2.623   3.762   2.581  0.0300  0.3317  0.1176
 8372SOL    HW136575   2.683   3.690   2.601  1.9208  1.5303 -1.1646
 8372SOL    HW236576   2.597   3.735   2.493 -0.3860 -0.5988  0.5282
 8373SOL     OW36577   2.960   0.052   7.804  0.3494 -0.3715 -0.1424
 8373SOL    HW136578   2.941   0.048   7.898 -2.7493 -2.1461 -0.8352
 8373SOL    HW236579   3.052   0.077   7.807  0.6176 -1.2965 -0.6387
 8374SOL     OW36580   1.946   1.067   1.715  0.0320 -0.2615  0.3972
 8374SOL    HW136581   1.870   1.113   1.750  0.4144  1.2952 -0.8638
 8374SOL    HW236582   1.940   0.987   1.769  1.1949 -0.0386  0.8632
 8375SOL     OW36583   3.734   2.180  10.730  0.2982  0.0184  0.1977
 8375SOL    HW136584   3.716   2.153  10.820  0.6270  0.1674  0.3069
 8375SOL    HW236585   3.752   2.103  10.677 -0.1589  0.6467 -0.8708
 8376SOL     OW36586   0.892   1.880   7.311  0.2554  0.5042  0.1859
 8376SOL    HW136587   0.904   1.931   7.391  0.5175  3.8034 -1.9632
 8376SOL    HW236588   0.801   1.852   7.318  0.2943  0.0837 -0.9490
 8377SOL     OW36589   0.233   2.493  12.890 -0.2709  0.0184 -0.0943
 8377SOL    HW136590   0.245   2.527  12.801  0.3204  2.6371  0.9888
 8377SOL    HW236591   0.238   2.572  12.944 -2.8309 -0.2034  0.4634
 8378SOL     OW36592   4.416   2.703   7.807 -0.0391 -0.2289  0.2004
 8378SOL    HW136593   4.438   2.749   7.727 -1.0969  2.8538  1.6797
 8378SOL    HW236594   4.321   2.714   7.805  0.3366  2.7088 -0.8924
 8379SOL     OW36595   0.267   2.817   1.570 -0.0121 -0.6372  0.2826
 8379SOL    HW136596   0.312   2.878   1.628 -0.7159  0.8279 -0.7129
 8379SOL    HW236597   0.272   2.857   1.483  2.8169  1.0182  1.1905
 8380SOL     OW36598   1.818   0.306   1.402  0.0466 -0.3588 -0.1060
 8380SOL    HW136599   1.789   0.221   1.370  1.7154 -1.2069  0.6446
 8380SOL    HW236600   1.762   0.320   1.478  0.5122 -0.4520  0.2549
 8381SOL     OW36601   2.474   0.702  11.645  0.0223  0.6542 -0.1349
 8381SOL    HW136602   2.527   0.623  11.650 -0.0558  0.7140  1.6408
 8381SOL    HW236603   2.524   0.755  11.583  0.4655  1.1441  0.6345
 8382SOL     OW36604   3.082   0.393  12.175  0.0653 -0.1072 -0.5265
 8382SOL    HW136605   3.156   0.340  12.146  2.1480  2.1701  0.6617
 8382SOL    HW236606   3.056   0.347  12.256  1.1846 -1.8431 -1.1616
 8383SOL     OW36607   0.573   2.676   7.855 -0.3757 -0.5612 -0.1948
 8383SOL    HW136608   0.493   2.626   7.840  0.0813 -0.6888 -2.1461
 8383SOL    HW236609   0.631   2.643   7.787 -1.6088  0.2650 -1.6357
 8384SOL     OW36610   1.630   1.103   2.210  0.1113 -0.0252  0.0456
 8384SOL    HW136611   1.573   1.048   2.156 -0.6707  2.5542 -1.7929
 8384SOL    HW236612   1.590   1.190   2.212 -0.0886 -0.0787 -1.5043
 8385SOL     OW36613   1.395   1.544   3.932  0.9055 -0.2392 -0.2332
 8385SOL    HW136614   1.461   1.522   3.866  0.5160  0.7654 -0.9563
 8385SOL    HW236615   1.314   1.530   3.883  0.8095  0.0745 -0.1621
 8386SOL     OW36616   0.904   1.338   2.816 -0.3327  0.0577 -0.0421
 8386SOL    HW136617   0.943   1.269   2.762  0.0752 -0.8120  1.3639
 8386SOL    HW236618   0.835   1.292   2.864 -0.8473  0.6015 -0.2671
 8387SOL     OW36619   3.945   1.127   0.207  0.0570  0.1849  0.1895
 8387SOL    HW136620   4.013   1.190   0.230  0.6987 -0.4391 -0.0006
 8387SOL    HW236621   3.866   1.157   0.252 -0.6783 -0.3781 -0.7245
 8388SOL     OW36622   2.295   3.032   8.223  0.7453  0.3147  0.2172
 8388SOL    HW136623   2.380   3.010   8.260 -0.2632 -3.2615  0.4220
 8388SOL    HW236624   2.229   2.992   8.280  0.0662 -0.1889 -0.9061
 8389SOL     OW36625   0.071   0.602   4.901 -0.0968 -0.0503  0.2963
 8389SOL    HW136626   0.163   0.603   4.875  0.0848 -0.1355  0.9373
 8389SOL    HW236627   0.048   0.695   4.899 -0.2113 -0.0682  0.6987
 8390SOL     OW36628   4.628   1.791   6.720  0.0263  0.1339 -0.4619
 8390SOL    HW136629   4.627   1.808   6.626 -2.7947  1.2075 -0.2194
 8390SOL    HW236630   4.596   1.879   6.741 -1.5758 -0.1699 -1.7099
 8391SOL     OW36631   0.531   2.973   6.086  0.1517  0.2672  0.1003
 8391SOL    HW136632   0.588   2.958   6.010 -0.3367 -0.6884 -0.0699
 8391SOL    HW236633   0.444   2.944   6.060  0.1458  0.0202  0.4100
 8392SOL     OW36634   1.704   3.873   8.112 -0.3199  0.0842 -0.3869
 8392SOL    HW136635   1.756   3.948   8.081  0.4544 -1.5122 -3.0191
 8392SOL    HW236636   1.652   3.867   8.032 -1.2279 -1.6869  0.3452
 8393SOL     OW36637   0.999   0.096   8.330 -0.0446 -0.5698 -0.4012
 8393SOL    HW136638   1.061   0.141   8.273 -1.6551  1.9634 -0.1064
 8393SOL    HW236639   1.063   0.030   8.359 -0.7157 -0.8774  0.3931
 8394SOL     OW36640   1.674   0.361   7.011  0.3681  0.0462  0.0333
 8394SOL    HW136641   1.720   0.286   6.974  0.5427  0.3784 -0.4350
 8394SOL    HW236642   1.680   0.348   7.105  0.2876 -0.4872 -0.0391
 8395SOL     OW36643   4.054   0.678   5.157  0.3789 -0.1668 -0.0329
 8395SOL    HW136644   4.001   0.689   5.236  2.0270 -3.3287  1.5316
 8395SOL    HW236645   4.033   0.587   5.136  0.5075 -0.3706  0.7139
 8396SOL     OW36646   3.575   3.149   3.388  0.8649 -0.0052 -0.9492
 8396SOL    HW136647   3.666   3.159   3.361  0.9133 -1.6406 -1.3750
 8396SOL    HW236648   3.554   3.060   3.359 -0.3218 -0.3960  1.1015
 8397SOL     OW36649   0.406   0.739  14.094 -0.1413 -0.1779  0.0416
 8397SOL    HW136650   0.445   0.807  14.149  2.4269 -1.6144 -0.0114
 8397SOL    HW236651   0.333   0.706  14.146 -0.4098  0.9939  0.4139
 8398SOL     OW36652   4.046   3.801   2.311  0.3478 -0.3686  0.4486
 8398SOL    HW136653   3.955   3.777   2.327 -0.1538 -0.1612 -2.1093
 8398SOL    HW236654   4.075   3.722   2.266  1.4029 -0.0060  0.4799
 8399SOL     OW36655   2.900   2.357   5.789  0.2479  0.4167  0.0102
 8399SOL    HW136656   2.953   2.392   5.717 -1.7577  0.2973 -1.5188
 8399SOL    HW236657   2.809   2.348   5.762  0.7765 -0.5647 -1.5178
 8400SOL     OW36658   0.925   0.900  15.421  0.1189  0.5792 -0.1402
 8400SOL    HW136659   0.868   0.824  15.410  0.1977  0.6990 -1.3248
 8400SOL    HW236660   1.001   0.876  15.367 -0.3992 -1.5376  0.0813
 8401SOL     OW36661   1.689   4.159   3.532 -0.0418 -0.4076 -0.3484
 8401SOL    HW136662   1.756   4.192   3.592  1.4941  0.5747 -2.6070
 8401SOL    HW236663   1.711   4.066   3.538  1.4432  0.0697  1.6454
 8402SOL     OW36664   1.907   3.153   3.942  0.2070  0.5121 -0.4383
 8402SOL    HW136665   2.002   3.162   3.937  0.5638 -1.6102  2.7254
 8402SOL    HW236666   1.890   3.234   3.894  1.6876  0.8888 -0.3148
 8403SOL     OW36667   2.071   3.334  12.176 -0.3746  0.3995  0.5441
 8403SOL    HW136668   2.082   3.428  12.166  1.2959 -0.1769 -3.1079
 8403SOL    HW236669   1.976   3.322  12.176 -0.5661  1.9699  1.2166
 8404SOL     OW36670   1.650   3.305   1.250 -0.8221  0.3648 -0.1531
 8404SOL    HW136671   1.660   3.389   1.297  0.8059  0.6145 -0.9537
 8404SOL    HW236672   1.587   3.336   1.185 -0.9253  0.2795 -0.0937
 8405SOL     OW36673   0.562   1.401   3.397 -0.3236  0.5064  0.1125
 8405SOL    HW136674   0.603   1.388   3.312 -0.1890 -0.4273  0.3249
 8405SOL    HW236675   0.619   1.469   3.434 -1.3602  0.6758  1.4041
 8406SOL     OW36676   2.071   3.216   4.436 -0.4611 -0.2441  0.1795
 8406SOL    HW136677   2.065   3.308   4.461  1.0794 -0.0889 -0.0214
 8406SOL    HW236678   2.003   3.209   4.369 -0.4370 -0.8865  0.2242
 8407SOL     OW36679   3.750   3.361   4.162  0.4903 -0.2545 -0.5541
 8407SOL    HW136680   3.711   3.447   4.178 -1.1766 -1.0785 -0.1779
 8407SOL    HW236681   3.716   3.306   4.233 -0.1232 -1.7693 -2.0247
 8408SOL     OW36682   4.067   1.420   6.014  0.2152 -0.4422  0.3703
 8408SOL    HW136683   4.051   1.514   6.004  0.7191 -0.3959  0.0304
 8408SOL    HW236684   4.058   1.395   5.922  0.4921  0.0584  0.2070
 8409SOL     OW36685   0.994   3.156  14.576 -0.3546  0.5120 -0.5929
 8409SOL    HW136686   0.920   3.146  14.636  2.0027 -0.2783  2.1365
 8409SOL    HW236687   0.971   3.085  14.515  0.7719  0.4855 -0.9812
 8410SOL     OW36688   3.358   0.718   5.467  0.2519 -0.4348 -0.0641
 8410SOL    HW136689   3.392   0.729   5.378 -0.9162  0.8730 -0.3600
 8410SOL    HW236690   3.287   0.655   5.457 -0.6103  0.7654 -1.5648
 8411SOL     OW36691   3.389   4.383  13.656  0.0895  0.0740 -0.3558
 8411SOL    HW136692   3.316   4.321  13.670 -0.3961  1.4376  3.1290
 8411SOL    HW236693   3.332   4.445  13.610 -2.6787 -2.6355 -0.6322
 8412SOL     OW36694   2.728   2.206   9.358  0.5810 -0.2578 -0.1865
 8412SOL    HW136695   2.760   2.136   9.300  0.1251 -0.6615  0.0502
 8412SOL    HW236696   2.801   2.268   9.357  0.8753 -0.5941  1.1282
 8413SOL     OW36697   3.842   4.675   5.831 -0.0770  0.2946 -0.1394
 8413SOL    HW136698   3.893   0.033   5.824  0.5762 -0.0756  0.4095
 8413SOL    HW236699   3.752   4.709   5.836 -0.4496 -0.9415  1.5625
 8414SOL     OW36700   1.281   1.314   2.366 -0.0727  0.8404  0.1972
 8414SOL    HW136701   1.199   1.353   2.397 -2.5434 -2.8376 -1.5993
 8414SOL    HW236702   1.262   1.221   2.378  1.6585  0.7919  2.4551
 8415SOL     OW36703   2.072   1.049  15.643 -0.1639  0.0366  0.3490
 8415SOL    HW136704   2.107   1.138  15.653 -2.2059  0.6121  2.5395
 8415SOL    HW236705   1.988   1.071  15.603 -0.8542 -1.0591  1.1700
 8416SOL     OW36706   0.647   1.049  12.013  0.2638  0.0463  0.6981
 8416SOL    HW136707   0.670   0.959  12.039  1.1416  0.3161  0.8667
 8416SOL    HW236708   0.727   1.100  11.997  1.6058 -1.4693  2.5185
 8417SOL     OW36709   2.018   1.054   7.165 -0.2417  0.1352 -0.5103
 8417SOL    HW136710   1.926   1.037   7.186  0.1863  1.9725  2.8431
 8417SOL    HW236711   2.050   1.058   7.255 -0.0006 -1.3828 -0.5378
 8418SOL     OW36712   3.354   3.505  12.056  0.2708  0.8057 -0.4839
 8418SOL    HW136713   3.352   3.528  12.149  1.9888  1.8626 -0.7173
 8418SOL    HW236714   3.449   3.496  12.044  0.2353  2.1625 -1.8144
 8419SOL     OW36715   1.809   2.836   5.884  1.0457 -0.0220 -0.1577
 8419SOL    HW136716   1.809   2.917   5.935 -0.5438  1.1713 -2.0503
 8419SOL    HW236717   1.878   2.794   5.935  0.8741 -0.5810 -0.3742
 8420SOL     OW36718   3.189   3.556   9.465  0.2305 -0.5728 -0.4286
 8420SOL    HW136719   3.101   3.589   9.477 -0.6936 -2.8150 -1.0535
 8420SOL    HW236720   3.230   3.643   9.466  0.9590 -0.9388  1.8352
 8421SOL     OW36721   0.651   1.907   5.364 -0.2226  0.2619 -0.2740
 8421SOL    HW136722   0.726   1.879   5.417  0.8753  2.1776 -0.8329
 8421SOL    HW236723   0.628   1.818   5.339  0.6777 -0.8343  2.7179
 8422SOL     OW36724   2.169   2.970   4.506  0.0869 -0.1166  0.5446
 8422SOL    HW136725   2.117   2.914   4.449  0.1950 -0.2335  0.5610
 8422SOL    HW236726   2.132   3.057   4.489  2.3186  1.2320  2.5689
 8423SOL     OW36727   4.372   4.271   5.732 -0.0759 -0.0049  0.1956
 8423SOL    HW136728   4.418   4.204   5.782 -0.3427 -0.0072  0.4417
 8423SOL    HW236729   4.347   4.210   5.663  0.6191  2.5667 -2.2949
 8424SOL     OW36730   4.645   1.230   0.677  0.3111 -0.2003 -0.2961
 8424SOL    HW136731   4.588   1.253   0.751 -0.1291  1.6599 -1.2216
 8424SOL    HW236732   4.708   1.301   0.684  1.6784 -1.3347 -1.1409
 8425SOL     OW36733   0.705   0.592   1.328  0.4295 -0.0783  0.2184
 8425SOL    HW136734   0.780   0.538   1.356 -0.1045 -1.7685 -1.6776
 8425SOL    HW236735   0.746   0.675   1.303  0.4893  0.1115  0.9419
 8426SOL     OW36736   1.185   2.634   8.822 -0.9846  0.1742  0.0012
 8426SOL    HW136737   1.094   2.615   8.802 -0.8844  1.3367 -1.5560
 8426SOL    HW236738   1.161   2.689   8.898 -1.5098  0.0552 -0.0818
 8427SOL     OW36739   4.610   2.422   5.881 -0.3230  0.8183  0.4628
 8427SOL    HW136740   4.572   2.397   5.797  0.4405 -1.2307  0.7350
 8427SOL    HW236741   4.658   2.504   5.867 -2.2122  1.6361 -1.2013
 8428SOL     OW36742   1.275   2.222   6.166 -0.4594 -0.2195 -0.1366
 8428SOL    HW136743   1.324   2.141   6.158  0.3219  0.4623 -2.2997
 8428SOL    HW236744   1.207   2.201   6.230 -0.9686  0.7847 -0.3373
 8429SOL     OW36745   1.052   1.884  12.778  0.1367 -0.5327 -0.1841
 8429SOL    HW136746   1.049   1.977  12.759  0.1286 -0.0096  2.3508
 8429SOL    HW236747   1.143   1.869  12.805  0.5289  2.4345  0.0421
 8430SOL     OW36748   4.522   4.668   6.660 -0.2742  0.4480 -0.0347
 8430SOL    HW136749   4.602   4.635   6.620 -0.0448  0.7113  0.2044
 8430SOL    HW236750   4.472   4.586   6.655 -0.3055  0.4034  0.9326
 8431SOL     OW36751   1.121   1.754   7.186  0.3132 -0.5479 -0.1744
 8431SOL    HW136752   1.151   1.837   7.147  1.5738 -0.6436  0.5914
 8431SOL    HW236753   1.036   1.779   7.222  1.2656  2.4523  0.0157
 8432SOL     OW36754   2.812   1.081   2.242  0.9288  0.1268 -0.3531
 8432SOL    HW136755   2.721   1.105   2.222  0.0963 -2.0684  0.7009
 8432SOL    HW236756   2.841   1.045   2.158  0.5633  2.2603 -1.4018
 8433SOL     OW36757   3.554   1.649  10.780 -0.4200  0.4499 -0.2288
 8433SOL    HW136758   3.510   1.667  10.863 -3.5643  0.5593 -1.9235
 8433SOL    HW236759   3.648   1.640  10.795 -0.0576  0.7215 -2.2461
 8434SOL     OW36760   1.506   3.012   9.766 -0.1414  0.2067 -0.0016
 8434SOL    HW136761   1.542   2.981   9.683  1.1618 -2.0195  1.3914
 8434SOL    HW236762   1.423   3.052   9.741  0.1808 -0.7113 -2.5230
 8435SOL     OW36763   0.465   3.112  15.319  0.3846 -0.4142 -0.1532
 8435SOL    HW136764   0.537   3.076  15.370 -0.6246 -1.3266  0.6233
 8435SOL    HW236765   0.503   3.199  15.311  3.0722 -1.5235  0.6769
 8436SOL     OW36766   3.461   4.637   3.041  0.1625 -0.0440  0.0057
 8436SOL    HW136767   3.492   0.001   3.066  0.2789 -0.4386  1.2439
 8436SOL    HW236768   3.537   4.581   3.059  0.6170  0.4312 -0.4585
 8437SOL     OW36769   0.082   2.216   5.829 -0.3033  0.0757 -0.0355
 8437SOL    HW136770   0.049   2.279   5.893 -0.9457 -1.9274  1.5849
 8437SOL    HW236771   0.144   2.279   5.792 -1.2332  0.5302 -0.8166
 8438SOL     OW36772   2.946   2.638   5.993 -0.3728  0.6913 -0.0036
 8438SOL    HW136773   2.976   2.569   5.934 -0.2993  0.6400  0.0940
 8438SOL    HW236774   2.894   2.692   5.934  0.0840  0.0168 -1.0146
 8439SOL     OW36775   0.373   0.851   8.365  0.1894  0.1273 -0.2352
 8439SOL    HW136776   0.460   0.873   8.330  0.7298 -1.1076  0.3334
 8439SOL    HW236777   0.400   0.790   8.434 -0.8262 -1.2141 -1.0203
 8440SOL     OW36778   1.199   2.544   9.617 -0.1987  0.6361 -0.1978
 8440SOL    HW136779   1.114   2.583   9.595 -0.1456  0.6187 -0.4368
 8440SOL    HW236780   1.189   2.502   9.702  0.2938 -0.3568 -0.6280
 8441SOL     OW36781   3.779   1.869  17.185  0.0606  0.0877 -0.5781
 8441SOL    HW136782   3.872   1.848  17.182 -0.1751 -1.0423  0.0996
 8441SOL    HW236783   3.759   1.865  17.279 -1.7797 -1.2836 -1.0411
 8442SOL     OW36784   0.610   4.679   5.327 -0.1382 -0.4568 -0.0465
 8442SOL    HW136785   0.618   4.635   5.242 -0.7280  0.0352 -0.3578
 8442SOL    HW236786   0.562   0.035   5.303  1.7907  0.9066  0.5410
 8443SOL     OW36787   3.123   2.120   9.823 -0.1546  1.1474  0.4756
 8443SOL    HW136788   3.146   2.081   9.739 -0.4462  0.5311  0.6798
 8443SOL    HW236789   3.027   2.116   9.818 -0.2602  0.9980  2.3201
 8444SOL     OW36790   4.579   3.000   9.709 -0.3751 -0.0872  0.1058
 8444SOL    HW136791   4.574   3.090   9.679  0.3916 -0.1033 -0.0708
 8444SOL    HW236792   4.489   2.974   9.691 -0.5577  0.5220  0.1609
 8445SOL     OW36793   0.904   2.536   1.717 -0.4090 -0.1787  0.1724
 8445SOL    HW136794   0.953   2.610   1.752  0.2498 -0.1874 -0.7267
 8445SOL    HW236795   0.890   2.496   1.803 -1.8433 -1.5896 -0.7093
 8446SOL     OW36796   0.142   3.572   3.508 -0.1046 -0.4561 -0.5354
 8446SOL    HW136797   0.225   3.528   3.527  0.5421  0.7381 -0.5904
 8446SOL    HW236798   0.151   3.625   3.587 -0.6043 -0.8083 -0.2377
 8447SOL     OW36799   3.297   2.421   6.038  0.3176 -0.0221  0.2346
 8447SOL    HW136800   3.222   2.416   6.097 -0.1589  2.4529 -0.1554
 8447SOL    HW236801   3.364   2.380   6.093 -0.5558  2.1122  2.8901
 8448SOL     OW36802   2.610   3.908   3.309  1.2394  0.1117  0.6785
 8448SOL    HW136803   2.515   3.902   3.297  1.1247  0.0647  1.6038
 8448SOL    HW236804   2.625   3.893   3.402  1.7719  0.0202  0.5771
 8449SOL     OW36805   2.287   4.693  15.162  0.5960 -0.4172  0.0270
 8449SOL    HW136806   2.243   0.001  15.241 -0.2325  0.6212 -0.8393
 8449SOL    HW236807   2.286   4.602  15.190  1.1035 -1.1849 -2.4331
 8450SOL     OW36808   3.612   1.826   3.902 -0.1911 -0.3107  0.3791
 8450SOL    HW136809   3.613   1.814   3.997  2.7546  2.1236  0.6762
 8450SOL    HW236810   3.558   1.904   3.893 -0.3190 -0.2305  1.8276
 8451SOL     OW36811   0.159   0.626   2.308 -0.8159 -0.1322 -0.0385
 8451SOL    HW136812   0.233   0.600   2.254  0.7259 -0.1155  2.0824
 8451SOL    HW236813   0.130   0.543   2.346 -0.5727  0.1712  0.8080
 8452SOL     OW36814   4.696   2.393  14.442  0.3425  0.1549  0.6269
 8452SOL    HW136815   4.646   2.363  14.518 -1.3128 -0.3743 -0.6614
 8452SOL    HW236816   4.674   2.328  14.375  4.3330 -0.8122  0.2702
 8453SOL     OW36817   4.403   2.016   4.060  0.7744  0.6641 -0.1177
 8453SOL    HW136818   4.473   1.958   4.090  1.8481  1.9276 -0.1929
 8453SOL    HW236819   4.364   1.964   3.989 -0.6716  0.5039  0.7877
 8454SOL     OW36820   3.178   3.974  17.256 -0.4335 -0.2429 -0.0992
 8454SOL    HW136821   3.091   3.979  17.294  0.2844  0.0579  1.4943
 8454SOL    HW236822   3.234   4.026  17.313  1.3696 -1.4010 -0.7960
 8455SOL     OW36823   2.147   2.516  15.789  0.0318  0.3387 -0.1805
 8455SOL    HW136824   2.166   2.474  15.872  0.4732 -0.2417 -0.5808
 8455SOL    HW236825   2.120   2.604  15.817  2.1244  0.5939  1.0080
 8456SOL     OW36826   2.964   1.102   5.144 -0.5253 -0.7482  0.0280
 8456SOL    HW136827   2.899   1.036   5.118  0.3679 -0.5418 -2.7215
 8456SOL    HW236828   2.978   1.125   5.053 -2.3093 -0.4520 -0.1770
 8457SOL     OW36829   3.376   4.190   0.439 -0.4990  0.1274 -0.5567
 8457SOL    HW136830   3.411   4.128   0.376 -1.9064 -0.2476 -0.9856
 8457SOL    HW236831   3.437   4.187   0.512  0.1593 -1.2987 -1.1687
 8458SOL     OW36832   2.229   0.034   7.178  0.4311  0.2745  0.1463
 8458SOL    HW136833   2.309   0.010   7.226  0.2330  0.8879  0.7875
 8458SOL    HW236834   2.182   4.675   7.171  0.0740  0.6208 -1.6842
 8459SOL     OW36835   3.562   3.812   2.125 -0.1838  0.4354 -0.2751
 8459SOL    HW136836   3.626   3.764   2.072 -0.3320  0.0278 -0.0897
 8459SOL    HW236837   3.561   3.768   2.210  1.9334  1.9806  0.5384
 8460SOL     OW36838   3.809   4.649  11.170  0.6706 -0.3803 -0.1357
 8460SOL    HW136839   3.783   4.560  11.196  1.6036 -1.0542 -1.5137
 8460SOL    HW236840   3.781   4.700  11.246  0.4939 -1.4748  0.5465
 8461SOL     OW36841   0.256   3.177   8.072 -0.5998  0.2056 -0.3577
 8461SOL    HW136842   0.276   3.089   8.041 -1.6384  0.6413 -2.2394
 8461SOL    HW236843   0.280   3.159   8.163 -0.9753  0.8478 -0.1338
 8462SOL     OW36844   2.327   3.037   7.100 -0.0847  0.1694 -0.2943
 8462SOL    HW136845   2.407   3.046   7.151 -1.5193  0.4929  1.9092
 8462SOL    HW236846   2.318   2.944   7.117  0.8161  0.3535  1.2156
 8463SOL     OW36847   1.996   4.607   8.643 -0.0980  0.3373  0.2417
 8463SOL    HW136848   1.996   4.579   8.552  1.5287 -1.6148  0.8395
 8463SOL    HW236849   2.086   4.584   8.667  0.7599  2.5085 -0.9952
 8464SOL     OW36850   4.460   4.325   1.238 -0.3718 -0.5298  0.0976
 8464SOL    HW136851   4.479   4.405   1.287 -0.1676  0.4908 -1.6453
 8464SOL    HW236852   4.392   4.281   1.290 -1.4798  1.5513  0.4209
 8465SOL     OW36853   3.099   3.219   5.977 -0.2251  0.0809 -0.3904
 8465SOL    HW136854   3.192   3.241   5.979 -0.3454  0.4626  1.4235
 8465SOL    HW236855   3.088   3.127   5.953 -1.5778 -0.1954  1.2294
 8466SOL     OW36856   4.457   1.236  14.301  0.0754 -0.7360 -0.6105
 8466SOL    HW136857   4.434   1.160  14.247  0.8990 -1.3506 -0.0886
 8466SOL    HW236858   4.419   1.215  14.387  0.1031  3.4428  0.3947
 8467SOL     OW36859   2.933   3.680   6.047 -0.2344 -0.3325  0.8511
 8467SOL    HW136860   2.937   3.586   6.064 -2.8395  0.1108  3.6874
 8467SOL    HW236861   2.897   3.663   5.959 -0.1384  0.7513  0.6050
 8468SOL     OW36862   2.406   3.404   2.439  0.1958 -0.5918 -0.0914
 8468SOL    HW136863   2.367   3.326   2.478 -2.1603 -0.3546 -2.0041
 8468SOL    HW236864   2.424   3.462   2.513 -2.5004  0.0789  0.0238
 8469SOL     OW36865   3.218   1.997  13.066  0.1756 -0.0459  0.1860
 8469SOL    HW136866   3.285   2.060  13.039  0.1561  0.1695  0.6247
 8469SOL    HW236867   3.185   1.972  12.980  0.8461 -0.3287  0.0132
 8470SOL     OW36868   0.955   4.181  10.747  0.6816  0.8824  0.3297
 8470SOL    HW136869   0.961   4.247  10.679  0.9020 -0.6496 -1.1362
 8470SOL    HW236870   1.017   4.118  10.709 -1.6249 -0.9990 -0.3145
 8471SOL     OW36871   3.928   1.821   2.111 -0.1598  0.4325 -0.1657
 8471SOL    HW136872   4.018   1.832   2.082 -0.7606  0.9580 -1.8226
 8471SOL    HW236873   3.942   1.883   2.183  1.3251  0.1052 -0.1665
 8472SOL     OW36874   0.247   0.407   3.174  0.1913 -0.4474  0.8696
 8472SOL    HW136875   0.280   0.414   3.264 -1.8639 -0.3472  1.6014
 8472SOL    HW236876   0.317   0.352   3.137  1.4541 -0.3350  3.0527
 8473SOL     OW36877   4.397   3.740  16.312 -0.1042 -0.1823 -0.3176
 8473SOL    HW136878   4.409   3.722  16.405  0.5672  0.0801 -0.3576
 8473SOL    HW236879   4.304   3.721  16.303 -0.2858  1.1505 -1.3118
 8474SOL     OW36880   1.354   2.944   7.770  0.3701  0.6362 -0.1262
 8474SOL    HW136881   1.354   3.010   7.701  0.6438  0.7213 -0.0444
 8474SOL    HW236882   1.277   2.975   7.818 -1.1973 -0.0830 -2.1704
 8475SOL     OW36883   3.631   0.025  14.820  0.2591 -0.5861 -0.4064
 8475SOL    HW136884   3.611   4.680  14.756 -3.3187 -0.3081  0.4323
 8475SOL    HW236885   3.542   0.058  14.827  0.5897  0.0844  0.6080
 8476SOL     OW36886   3.230   1.298   5.916 -0.1917 -0.4656  0.7164
 8476SOL    HW136887   3.190   1.382   5.936 -0.9632 -0.4426 -0.9023
 8476SOL    HW236888   3.234   1.255   6.002  1.6921  2.1128  1.8916
 8477SOL     OW36889   2.270   4.655   1.512  0.5055  0.9312  0.5446
 8477SOL    HW136890   2.337   4.632   1.447  0.7622 -0.3871  1.2768
 8477SOL    HW236891   2.199   4.598   1.483  0.4278  0.8175  0.9685
 8478SOL     OW36892   1.565   1.071   3.937 -0.0704 -0.1870  0.6698
 8478SOL    HW136893   1.559   0.978   3.962 -0.5623 -0.3134  0.0698
 8478SOL    HW236894   1.531   1.056   3.849  1.9389 -0.9826  0.0417
 8479SOL     OW36895   4.379   2.919  10.570 -0.6018  0.3120  0.2402
 8479SOL    HW136896   4.289   2.932  10.542 -0.6442  1.4296  0.8923
 8479SOL    HW236897   4.369   2.825  10.584  0.8640  0.0233 -0.6243
 8480SOL     OW36898   4.287   2.644  17.223  0.1685  0.2390  0.2599
 8480SOL    HW136899   4.347   2.651  17.296 -0.8623 -0.1854  1.1503
 8480SOL    HW236900   4.227   2.716  17.244  1.8231  1.2732  1.3955
 8481SOL     OW36901   0.852   0.927   3.746  0.8703 -0.2089 -0.2906
 8481SOL    HW136902   0.938   0.893   3.722  0.0020 -1.1812 -2.0606
 8481SOL    HW236903   0.862   0.917   3.840 -0.7255 -0.7892 -0.1734
 8482SOL     OW36904   4.609   1.831   3.343 -0.2493 -0.5017  0.5111
 8482SOL    HW136905   4.703   1.847   3.341 -0.4630  0.5900 -1.4873
 8482SOL    HW236906   4.575   1.919   3.325 -2.4494 -1.6259 -0.9438
 8483SOL     OW36907   2.804   0.017  11.844 -0.6283 -0.7122  0.2469
 8483SOL    HW136908   2.778   4.720  11.934  0.2753 -1.7072  0.2710
 8483SOL    HW236909   2.898   4.722  11.848 -0.6499 -0.8689  0.0416
 8484SOL     OW36910   0.901   4.412   2.458  0.4532 -0.1862  0.3278
 8484SOL    HW136911   0.938   4.484   2.509  2.6384 -0.4905 -0.8373
 8484SOL    HW236912   0.873   4.351   2.527 -1.5125 -0.0967 -0.3802
 8485SOL     OW36913   3.801   1.282  11.507 -0.2761  1.0995  0.3293
 8485SOL    HW136914   3.874   1.220  11.502 -0.3760  0.9389  0.8065
 8485SOL    HW236915   3.729   1.219  11.519  1.1112 -0.4960  0.2590
 8486SOL     OW36916   4.527   0.141  16.045  0.0503  0.2375 -0.5835
 8486SOL    HW136917   4.520   0.231  16.075 -0.1490 -0.0342  0.1707
 8486SOL    HW236918   4.440   0.131  16.007  0.6512  0.3818 -2.0091
 8487SOL     OW36919   3.710   3.695   7.515 -0.2195  0.1149  0.0745
 8487SOL    HW136920   3.715   3.789   7.534 -0.8931  0.2382 -0.3579
 8487SOL    HW236921   3.776   3.663   7.576 -1.7794 -1.5759  0.9031
 8488SOL     OW36922   0.082   4.651   1.052 -0.1878 -0.5611 -0.3353
 8488SOL    HW136923   0.012   4.716   1.061  0.8466  0.2804  1.7995
 8488SOL    HW236924   0.121   4.662   1.139  0.3523 -0.3678 -0.6036
 8489SOL     OW36925   0.010   3.834   3.473  1.0688  0.3758 -0.1561
 8489SOL    HW136926   0.055   3.750   3.459 -1.8829 -1.4993  1.5499
 8489SOL    HW236927   4.665   3.826   3.406  1.1331  0.5488 -0.2427
 8490SOL     OW36928   2.297   1.124  12.296 -0.1257 -0.3489 -0.4721
 8490SOL    HW136929   2.230   1.162  12.353  0.2524  2.3962 -1.8636
 8490SOL    HW236930   2.237   1.068  12.248  0.3922 -1.1730 -0.1600
 8491SOL     OW36931   3.785   3.982   4.914  0.0435 -0.6521 -0.6601
 8491SOL    HW136932   3.790   3.908   4.853 -3.4026 -1.6384  0.2665
 8491SOL    HW236933   3.755   4.048   4.852  1.6240  0.7652  0.0786
 8492SOL     OW36934   2.367   3.996   7.300  0.2870 -0.9511 -0.0751
 8492SOL    HW136935   2.336   3.931   7.237 -0.1388 -0.4735 -0.3584
 8492SOL    HW236936   2.283   4.034   7.325  0.0049 -1.6216  0.0072
 8493SOL     OW36937   3.052   0.474   4.982 -0.0240  0.4504  0.3175
 8493SOL    HW136938   3.083   0.386   4.958 -2.4660 -0.1944 -0.4709
 8493SOL    HW236939   3.123   0.533   4.956  0.9187 -0.1905  1.4569
 8494SOL     OW36940   4.313   0.981   0.485 -0.0391 -0.1056 -0.0711
 8494SOL    HW136941   4.378   0.948   0.547 -1.0399 -0.1531  0.9568
 8494SOL    HW236942   4.248   1.019   0.544  0.5478  2.1057 -0.8466
 8495SOL     OW36943   3.374   3.866   8.756 -0.3214 -0.1327  0.0147
 8495SOL    HW136944   3.329   3.782   8.768 -3.1044  1.1957 -0.9395
 8495SOL    HW236945   3.300   3.913   8.716  0.2404 -0.5512 -1.5117
 8496SOL     OW36946   2.752   3.846  12.158  0.9963  0.1717  0.2010
 8496SOL    HW136947   2.669   3.865  12.202  1.1363  1.5582 -0.1601
 8496SOL    HW236948   2.728   3.754  12.175 -1.3869  0.4424 -1.6122
 8497SOL     OW36949   2.890   1.630   7.764  0.1147  0.3918 -0.1934
 8497SOL    HW136950   2.880   1.550   7.711  1.3909 -0.3961  0.7662
 8497SOL    HW236951   2.858   1.696   7.703 -0.0557 -0.1329 -0.6784
 8498SOL     OW36952   3.438   2.122  12.954 -0.0751 -0.8353 -0.3595
 8498SOL    HW136953   3.478   2.202  12.920 -0.0322 -0.5676  0.3172
 8498SOL    HW236954   3.396   2.085  12.877  0.4739 -2.2093  0.0073
 8499SOL     OW36955   3.362   0.699   7.591  0.1168 -0.0723 -0.5549
 8499SOL    HW136956   3.449   0.662   7.606  0.3059 -0.0551 -1.5736
 8499SOL    HW236957   3.316   0.622   7.558 -1.7116  0.2539  1.2544
 8500SOL     OW36958   3.494   4.676   6.682 -0.0726 -0.6534 -0.2202
 8500SOL    HW136959   3.470   4.584   6.696  0.6837 -0.9211 -0.6317
 8500SOL    HW236960   3.587   4.666   6.662  0.2486  1.2735  0.3384
 8501SOL     OW36961   2.640   4.101   7.363  0.2297 -0.6988  0.3293
 8501SOL    HW136962   2.548   4.081   7.349 -0.0334 -0.2890  1.4777
 8501SOL    HW236963   2.630   4.177   7.421  0.5585 -0.3885 -0.0169
 8502SOL     OW36964   0.326   3.391   7.637 -0.9780 -0.5049 -0.5534
 8502SOL    HW136965   0.249   3.362   7.686 -1.2932  1.3910  0.0591
 8502SOL    HW236966   0.391   3.343   7.687 -1.1950 -0.2621 -0.0421
 8503SOL     OW36967   2.714   0.945   2.471 -0.5141  0.3265  0.2344
 8503SOL    HW136968   2.796   0.946   2.521 -1.1670 -1.4883  1.3248
 8503SOL    HW236969   2.740   0.995   2.393  0.3032  0.8900  0.8665
 8504SOL     OW36970   2.706   3.272   6.234  0.1567 -0.1433 -0.5932
 8504SOL    HW136971   2.731   3.219   6.310 -3.1840 -0.9678 -0.0536
 8504SOL    HW236972   2.645   3.332   6.275  0.0230 -1.3530  0.9819
 8505SOL     OW36973   1.795   3.023   7.050  0.1626  0.2823 -0.0403
 8505SOL    HW136974   1.832   3.075   7.122 -0.1855 -0.4267  0.6470
 8505SOL    HW236975   1.822   2.936   7.081  0.7814  1.1401  1.8599
 8506SOL     OW36976   3.420   2.171   7.692 -0.0918 -0.1911 -0.3300
 8506SOL    HW136977   3.333   2.199   7.720 -1.0326 -1.4796 -1.9349
 8506SOL    HW236978   3.414   2.202   7.602  3.0184 -1.0295 -0.8090
 8507SOL     OW36979   3.703   3.215   5.932 -0.4673  0.2189  0.0615
 8507SOL    HW136980   3.668   3.293   5.888 -0.5318 -1.0814 -2.1992
 8507SOL    HW236981   3.748   3.246   6.010 -1.4309 -0.1660  0.7681
 8508SOL     OW36982   1.611   4.235   4.535  0.4443 -0.0925  0.4840
 8508SOL    HW136983   1.542   4.192   4.585 -1.1775  0.3955 -1.3208
 8508SOL    HW236984   1.661   4.157   4.512 -1.0074 -1.0767  0.6706
 8509SOL     OW36985   2.401   3.979  16.218 -0.1278 -0.0736 -0.0643
 8509SOL    HW136986   2.373   4.060  16.261 -0.0978  0.5015 -1.1238
 8509SOL    HW236987   2.434   4.007  16.132  1.6848 -4.2794 -0.7366
 8510SOL     OW36988   1.923   4.347   2.317 -0.1152 -0.2126 -0.8061
 8510SOL    HW136989   1.838   4.384   2.339  0.2713 -0.9583  2.0071
 8510SOL    HW236990   1.928   4.385   2.229 -3.3189  1.0462 -0.4350
 8511SOL     OW36991   1.076   4.097  13.178  0.0804 -0.7529  0.4764
 8511SOL    HW136992   0.981   4.084  13.185 -0.3020  2.4795  1.5017
 8511SOL    HW236993   1.098   4.093  13.271  0.2622  0.6927  0.4876
 8512SOL     OW36994   4.684   0.316   3.285  0.6028 -0.6761 -0.5513
 8512SOL    HW136995   4.606   0.338   3.234 -1.1240  0.6605  2.6333
 8512SOL    HW236996   0.028   0.363   3.236  1.2557  1.2655  2.2139
 8513SOL     OW36997   4.288   1.199   9.890  0.1494 -0.0137 -0.3440
 8513SOL    HW136998   4.370   1.244   9.869  0.1095 -0.2407 -0.9639
 8513SOL    HW236999   4.253   1.180   9.803 -2.6312  0.3255  0.6855
 8514SOL     OW37000   1.545   2.170   2.659  0.1018 -0.0848 -0.2064
 8514SOL    HW137001   1.569   2.234   2.592  1.1234 -0.8158 -0.5469
 8514SOL    HW237002   1.507   2.104   2.601  0.4402  2.4599 -3.3093
 8515SOL     OW37003   4.420   3.783   2.082  0.4080 -0.1916 -0.3622
 8515SOL    HW137004   4.391   3.694   2.065 -4.3871  0.9818  1.8093
 8515SOL    HW237005   4.344   3.828   2.046 -0.0194  1.6312  2.7305
 8516SOL     OW37006   0.426   2.999   7.546 -0.7083  0.1680 -0.3687
 8516SOL    HW137007   0.513   2.974   7.577 -1.1786  0.0031  0.8123
 8516SOL    HW237008   0.458   3.053   7.474 -0.8743  0.6606 -0.0719
 8517SOL     OW37009   4.507   3.592   8.230  0.1486  0.4458  0.2087
 8517SOL    HW137010   4.487   3.539   8.308  1.0428 -0.2993 -0.0734
 8517SOL    HW237011   4.602   3.581   8.233  0.0126 -0.5482  1.1716
 8518SOL     OW37012   4.623   2.199   2.247 -0.3383 -0.2340 -1.2402
 8518SOL    HW137013   4.589   2.286   2.269  1.2451  0.1771 -0.4042
 8518SOL    HW237014   4.702   2.216   2.297 -0.5213 -0.8413 -0.7476
 8519SOL     OW37015   1.056   4.509   7.077 -0.4813 -0.3528  0.5349
 8519SOL    HW137016   1.014   4.530   7.160  1.1190 -0.6680  1.4203
 8519SOL    HW237017   1.114   4.436   7.099  1.8139  0.2204 -3.4082
 8520SOL     OW37018   1.643   0.108  10.067  0.5570 -0.1946 -0.1511
 8520SOL    HW137019   1.669   0.018  10.082 -2.1167 -0.9050  0.2044
 8520SOL    HW237020   1.562   0.097  10.017  1.4095 -1.2800 -1.2781
 8521SOL     OW37021   3.393   3.372  16.640  0.0991  0.8224  0.1917
 8521SOL    HW137022   3.463   3.425  16.676  1.5737 -0.2639 -1.0376
 8521SOL    HW237023   3.364   3.324  16.717  0.4470 -3.0280 -2.0493
 8522SOL     OW37024   0.975   0.732   3.272 -0.2253 -0.7217 -0.1230
 8522SOL    HW137025   0.963   0.792   3.198 -2.1285 -0.2332  0.5844
 8522SOL    HW237026   0.923   0.657   3.244 -0.5976 -1.0021  1.3482
 8523SOL     OW37027   2.732   3.237  12.051  0.7702  0.0646  0.1877
 8523SOL    HW137028   2.738   3.141  12.049 -1.5398 -0.0819  1.1885
 8523SOL    HW237029   2.825   3.259  12.053  0.3427  1.7935  0.8568
 8524SOL     OW37030   1.383   3.618  10.117  0.4213  0.3192 -0.5242
 8524SOL    HW137031   1.466   3.579  10.145  0.2990  0.6857  0.3712
 8524SOL    HW237032   1.389   3.711  10.137  0.7385  0.1389  0.2334
 8525SOL     OW37033   3.082   1.243  14.151 -0.2762 -0.1815  0.2496
 8525SOL    HW137034   3.000   1.214  14.110  0.1018 -1.0306  0.1044
 8525SOL    HW237035   3.130   1.161  14.157  0.7245  0.1952 -2.6733
 8526SOL     OW37036   2.669   4.442   6.238  0.3475 -0.3315  0.0217
 8526SOL    HW137037   2.707   4.513   6.289 -2.0358  0.3611  0.8324
 8526SOL    HW237038   2.729   4.371   6.263  1.1203  0.5921  0.7521
 8527SOL     OW37039   4.389   2.817   8.054 -0.2363 -0.7970  0.5102
 8527SOL    HW137040   4.412   2.770   7.973  0.4435  1.2998 -0.5165
 8527SOL    HW237041   4.447   2.892   8.043 -2.2126  0.7869  0.8064
 8528SOL     OW37042   0.404   2.207   9.674  0.0745  0.2582  0.1661
 8528SOL    HW137043   0.492   2.242   9.687 -0.4509  2.4876 -2.2423
 8528SOL    HW237044   0.380   2.279   9.615  1.5406 -0.6522 -1.5599
 8529SOL     OW37045   2.246   3.258   4.231  0.3059 -0.1922  0.6377
 8529SOL    HW137046   2.194   3.217   4.300  0.1165  1.0972  1.2520
 8529SOL    HW237047   2.290   3.324   4.285  0.6608  0.2928 -0.2460
 8530SOL     OW37048   1.782   0.399  11.390  0.1844 -0.2246 -0.0987
 8530SOL    HW137049   1.696   0.424  11.422 -0.5384 -0.6689 -1.7179
 8530SOL    HW237050   1.789   0.306  11.412 -2.4968 -0.2664  0.4818
 8531SOL     OW37051   0.259   2.985   5.840  0.0441 -0.0676  0.2522
 8531SOL    HW137052   0.326   3.025   5.784  0.0470 -0.1212  0.2172
 8531SOL    HW237053   0.220   2.910   5.795  1.9456 -0.3941 -0.8596
 8532SOL     OW37054   3.510   0.221   7.105 -0.6084  0.1023 -0.5811
 8532SOL    HW137055   3.538   0.311   7.086 -2.2876  1.0679  1.5317
 8532SOL    HW237056   3.577   0.204   7.171 -2.4758  1.8107  1.7617
 8533SOL     OW37057   3.613   2.921   9.965  0.7682  0.2805  0.5603
 8533SOL    HW137058   3.525   2.922  10.003  0.4482  2.6265 -0.2463
 8533SOL    HW237059   3.654   2.855  10.022  0.6352  0.0639  0.4045
 8534SOL     OW37060   2.026   3.012  14.915  0.9088  0.9325  0.3806
 8534SOL    HW137061   1.985   2.926  14.926  1.6527  0.2373 -2.2235
 8534SOL    HW237062   2.042   3.034  15.007  1.0800  3.5429 -0.2675
 8535SOL     OW37063   0.627   3.174   3.927  0.2438  0.0186 -0.1433
 8535SOL    HW137064   0.675   3.176   4.009 -0.3789  1.4688  0.2037
 8535SOL    HW237065   0.666   3.103   3.876  0.0062  1.0657 -1.7986
 8536SOL     OW37066   1.620   1.129   4.585 -0.0142 -0.1348 -0.3036
 8536SOL    HW137067   1.634   1.045   4.628 -0.4884 -0.9082 -1.6549
 8536SOL    HW237068   1.547   1.164   4.637 -0.4585 -1.0804 -0.3003
 8537SOL     OW37069   3.722   3.034   4.590 -0.3042  0.2828 -0.2977
 8537SOL    HW137070   3.710   2.977   4.666 -1.1443  2.0155  0.8692
 8537SOL    HW237071   3.660   3.104   4.611  0.6441  0.3339  2.2419
 8538SOL     OW37072   3.136   2.152   6.316 -0.1039  0.2165  0.2708
 8538SOL    HW137073   3.068   2.118   6.374  0.3373 -0.1741  0.5578
 8538SOL    HW237074   3.144   2.072   6.263 -0.5562  1.5440 -1.8227
 8539SOL     OW37075   1.089   2.522   5.115  0.0951  0.5458  0.4308
 8539SOL    HW137076   1.146   2.480   5.179  0.7477 -0.6196 -0.9271
 8539SOL    HW237077   1.145   2.548   5.042 -0.1702 -0.1775 -0.0365
 8540SOL     OW37078   1.725   2.811   1.245 -0.2280 -1.3640  0.2646
 8540SOL    HW137079   1.746   2.889   1.296  1.7152 -1.4690 -0.3416
 8540SOL    HW237080   1.803   2.761   1.270  0.4203 -1.0675 -1.1536
 8541SOL     OW37081   1.280   2.208   4.539 -0.3801 -0.2971  0.6306
 8541SOL    HW137082   1.192   2.170   4.541  0.0820 -1.3382  1.2089
 8541SOL    HW237083   1.315   2.203   4.628  1.7154 -0.4681 -0.2240
 8542SOL     OW37084   0.930   2.999  16.595 -0.2765  0.5054 -0.3374
 8542SOL    HW137085   0.867   3.063  16.562 -0.5255  1.0213  1.1398
 8542SOL    HW237086   0.910   2.915  16.555 -1.2909 -0.4685  2.2282
 8543SOL     OW37087   0.567   2.889   8.562  0.0080  0.6691 -0.0600
 8543SOL    HW137088   0.484   2.921   8.597  0.1566 -1.2133  2.0303
 8543SOL    HW237089   0.561   2.794   8.571  0.9446  0.4046 -2.2603
 8544SOL     OW37090   4.328   4.094   7.870  0.1047  0.2148  0.0531
 8544SOL    HW137091   4.281   4.011   7.876 -0.4211  0.2297 -3.4011
 8544SOL    HW237092   4.284   4.148   7.935  0.1888  0.1348  0.1752
 8545SOL     OW37093   1.163   1.242  11.729 -0.2143 -0.3343 -0.1684
 8545SOL    HW137094   1.252   1.247  11.764 -0.8433  0.0812  1.3647
 8545SOL    HW237095   1.186   1.206  11.644  0.1094 -1.2531  0.3118
 8546SOL     OW37096   2.145   2.842   9.327  0.2801 -0.0828  0.3432
 8546SOL    HW137097   2.110   2.759   9.295 -0.1806  0.5120 -0.7084
 8546SOL    HW237098   2.092   2.836   9.406  0.6810 -0.4359  0.5842
 8547SOL     OW37099   4.062   3.488  11.423 -0.2593  0.2422  0.7192
 8547SOL    HW137100   4.097   3.421  11.365  0.1812  1.2440 -0.1737
 8547SOL    HW237101   4.079   3.569  11.376 -0.1421  0.2980  0.8556
 8548SOL     OW37102   2.225   2.168   5.166 -0.0117  0.0016  0.2972
 8548SOL    HW137103   2.309   2.174   5.212  0.2970 -0.3733 -0.2272
 8548SOL    HW237104   2.230   2.256   5.131  0.3379  0.5435  1.7069
 8549SOL     OW37105   1.013   3.083  10.456  0.2743  0.4342 -0.4647
 8549SOL    HW137106   1.107   3.100  10.462  0.2230 -0.2531  2.3627
 8549SOL    HW237107   1.010   2.989  10.472  1.8498  0.3417 -0.7080
 8550SOL     OW37108   0.341   2.147   8.052  0.1877 -0.5873 -0.3153
 8550SOL    HW137109   0.405   2.134   8.122 -0.0176  1.4451  0.2644
 8550SOL    HW237110   0.390   2.144   7.970 -2.3328 -2.0670 -1.7821
 8551SOL     OW37111   0.344   4.430   0.747  0.1376 -0.0493  0.4841
 8551SOL    HW137112   0.300   4.446   0.831  1.1093  1.8775  0.6308
 8551SOL    HW237113   0.323   4.509   0.698  0.9038  0.6055  1.2070
 8552SOL     OW37114   0.428   3.769   7.757  0.1287  0.4480  0.1714
 8552SOL    HW137115   0.414   3.732   7.844 -0.8738  0.3757 -0.0209
 8552SOL    HW237116   0.497   3.708   7.729 -0.9428  0.7259 -3.1281
 8553SOL     OW37117   4.435   1.350   2.528  0.4894  0.5485 -0.0023
 8553SOL    HW137118   4.426   1.364   2.623  0.9042  3.8664 -0.4585
 8553SOL    HW237119   4.486   1.270   2.519 -1.3282 -0.5873 -0.2099
 8554SOL     OW37120   2.799   0.275   2.834 -0.4515 -1.0646  0.1685
 8554SOL    HW137121   2.755   0.202   2.876 -0.2540 -1.6137 -0.5938
 8554SOL    HW237122   2.826   0.329   2.909 -0.9163  0.1517 -0.5377
 8555SOL     OW37123   2.432   0.559   7.209 -0.2744 -0.0835  0.3592
 8555SOL    HW137124   2.436   0.538   7.302  2.9680  1.2849  0.5255
 8555SOL    HW237125   2.483   0.485   7.177 -0.6447  0.6646 -2.0183
 8556SOL     OW37126   2.319   3.105  11.088 -0.1423  0.0114  0.0262
 8556SOL    HW137127   2.368   3.067  11.015  1.4096 -3.0438  2.6451
 8556SOL    HW237128   2.259   3.157  11.036  2.4686  1.1378 -1.8700
 8557SOL     OW37129   3.278   4.333  12.123 -0.4052  0.5113  0.5765
 8557SOL    HW137130   3.219   4.313  12.050 -0.0013 -1.3571  0.7727
 8557SOL    HW237131   3.365   4.309  12.093 -0.8401 -0.9780  0.4857
 8558SOL     OW37132   2.145   0.438   5.233  0.0354  0.3132  0.0674
 8558SOL    HW137133   2.226   0.467   5.192  0.5992 -0.5275  0.5968
 8558SOL    HW237134   2.090   0.443   5.154  1.4298 -0.3286 -0.9361
 8559SOL     OW37135   0.851   4.625   1.586  0.5209  0.3116  0.4534
 8559SOL    HW137136   0.829   4.658   1.499  1.9335  1.5923  0.5911
 8559SOL    HW237137   0.824   4.702   1.637 -2.3961 -0.1499 -0.3643
 8560SOL     OW37138   1.991   3.190   4.871 -0.0468 -0.2563  0.0851
 8560SOL    HW137139   1.993   3.179   4.776 -0.3327 -0.7922  0.1370
 8560SOL    HW237140   1.910   3.236   4.892  0.0784 -0.8342  1.8948
 8561SOL     OW37141   0.023   3.619   6.655  0.0717  0.3275  0.2962
 8561SOL    HW137142   4.695   3.575   6.723 -2.0021  0.5052 -1.1612
 8561SOL    HW237143   0.003   3.710   6.677  2.6796  0.7067  1.1572
 8562SOL     OW37144   4.695   0.904   9.346 -0.2984  0.0289 -0.0408
 8562SOL    HW137145   4.613   0.882   9.392  0.8094 -0.7209  1.5598
 8562SOL    HW237146   4.672   0.885   9.255  0.2262 -0.1782 -0.1246
 8563SOL     OW37147   4.424   3.240   8.190  0.1018 -0.0219 -0.0752
 8563SOL    HW137148   4.501   3.184   8.186  0.1917  0.1987 -1.4090
 8563SOL    HW237149   4.388   3.223   8.277 -0.8075 -0.5113 -0.5457
 8564SOL     OW37150   3.831   4.275   5.518 -0.2235  0.2464 -0.0539
 8564SOL    HW137151   3.757   4.290   5.577  0.6243  0.3873  0.9832
 8564SOL    HW237152   3.892   4.347   5.537  0.1402  0.0946 -0.6537
 8565SOL     OW37153   1.464   2.460   1.875  0.0910 -0.5501 -0.3137
 8565SOL    HW137154   1.369   2.462   1.884  0.3318  2.5615  1.6408
 8565SOL    HW237155   1.492   2.413   1.954 -1.2649 -0.8637 -0.0141
 8566SOL     OW37156   2.158   2.390   6.345  0.0981 -0.6871 -0.2174
 8566SOL    HW137157   2.107   2.348   6.276  2.2685  0.6667 -2.6808
 8566SOL    HW237158   2.232   2.419   6.291 -1.2509 -0.8076 -2.1116
 8567SOL     OW37159   2.914   0.995   6.919 -0.5636 -0.3885 -0.3400
 8567SOL    HW137160   2.912   0.902   6.941 -1.0660  0.0672  1.5653
 8567SOL    HW237161   2.962   0.994   6.836 -1.6022 -1.9577 -0.9197
 8568SOL     OW37162   1.799   1.937  11.683 -0.2451 -0.4282  0.2684
 8568SOL    HW137163   1.730   1.934  11.616  0.4090 -1.7303 -0.3506
 8568SOL    HW237164   1.820   1.845  11.698 -0.5599 -0.3599  1.1579
 8569SOL     OW37165   3.672   1.793   4.179 -0.0694 -0.5514  0.1918
 8569SOL    HW137166   3.721   1.732   4.234 -1.7527  0.5212  2.8784
 8569SOL    HW237167   3.664   1.868   4.238 -1.3765  0.9970 -1.9324
 8570SOL     OW37168   1.878   0.141   8.406 -0.0424 -0.2399  0.3359
 8570SOL    HW137169   1.788   0.154   8.376  1.3109  1.6579 -2.8912
 8570SOL    HW237170   1.872   0.135   8.501 -0.0285  0.8161  0.3961
 8571SOL     OW37171   0.273   1.842   3.168  0.4300  0.0930 -0.0441
 8571SOL    HW137172   0.273   1.937   3.179  3.0293  0.2649 -1.6663
 8571SOL    HW237173   0.214   1.834   3.093 -1.5758  2.8299  1.2248
 8572SOL     OW37174   1.880   0.329  14.956 -0.3906  0.3924  0.0460
 8572SOL    HW137175   1.790   0.349  14.933 -0.6735 -0.4125  0.4477
 8572SOL    HW237176   1.875   0.338  15.052  0.8160 -0.5265  0.2032
 8573SOL     OW37177   2.666   3.489  15.087  0.1559  0.3945  0.9657
 8573SOL    HW137178   2.757   3.517  15.078  0.4303 -0.4678  0.9805
 8573SOL    HW237179   2.678   3.408  15.136 -0.5415  0.1543  0.7392
 8574SOL     OW37180   2.654   2.601  11.047 -0.0386 -0.0052  0.0787
 8574SOL    HW137181   2.725   2.617  11.109  0.6176  1.8854 -1.1793
 8574SOL    HW237182   2.654   2.505  11.052  0.1572  0.0584  1.4889
 8575SOL     OW37183   4.003   3.047   4.165  0.4334  0.2800  0.4714
 8575SOL    HW137184   4.076   3.109   4.159  0.7839 -0.1760 -0.0263
 8575SOL    HW237185   4.051   2.975   4.126 -0.3751  0.0474 -0.0933
 8576SOL     OW37186   3.779   2.837  15.621  0.0248  0.4267 -0.0452
 8576SOL    HW137187   3.797   2.903  15.553  0.1156  0.1570 -0.2839
 8576SOL    HW237188   3.818   2.761  15.579  0.0017  0.4122 -0.0408
 8577SOL     OW37189   0.769   4.151  13.596  0.5377  0.5596  0.3479
 8577SOL    HW137190   0.763   4.232  13.647 -0.9347  1.7116 -1.6711
 8577SOL    HW237191   0.697   4.161  13.534 -1.9422  1.1966  3.3687
 8578SOL     OW37192   0.272   2.156   2.951 -0.1419  0.1803  0.5098
 8578SOL    HW137193   0.231   2.102   2.883 -0.5054 -1.0008  1.6781
 8578SOL    HW237194   0.246   2.096   3.021 -2.9735 -0.5013 -1.1200
 8579SOL     OW37195   0.111   1.746   5.567 -0.1825 -0.2972  0.2623
 8579SOL    HW137196   0.083   1.750   5.476 -2.0620  1.0764  0.8873
 8579SOL    HW237197   0.032   1.776   5.612  0.2818 -0.3067  1.0841
 8580SOL     OW37198   3.545   1.809  15.000 -0.1037  0.3680 -0.1357
 8580SOL    HW137199   3.600   1.732  14.985  0.6246  1.0926 -1.1747
 8580SOL    HW237200   3.459   1.770  14.987  0.1397 -0.0917 -0.3666
 8581SOL     OW37201   4.639   4.053  13.729  0.0814  0.4036  0.1705
 8581SOL    HW137202   4.554   4.076  13.690  0.4007  0.0506 -0.7345
 8581SOL    HW237203   4.613   4.058  13.821  0.3128  0.2247  0.2454
 8582SOL     OW37204   1.377   0.634   5.149 -0.0226  0.0056 -0.3111
 8582SOL    HW137205   1.389   0.635   5.243 -1.4712  0.4758 -0.1337
 8582SOL    HW237206   1.460   0.665   5.113 -0.2062 -0.2879 -0.9954
 8583SOL     OW37207   1.798   3.848   1.861 -0.0347  0.6995 -0.5913
 8583SOL    HW137208   1.767   3.764   1.896 -0.4486 -0.1101 -2.8942
 8583SOL    HW237209   1.882   3.852   1.907 -0.6422 -0.5656  0.6319
 8584SOL     OW37210   2.126   0.279  13.738 -0.2457  0.6914  0.0142
 8584SOL    HW137211   2.096   0.363  13.706  0.3170  0.7293 -0.4222
 8584SOL    HW237212   2.055   0.223  13.705  0.6061 -0.4104  0.0403
 8585SOL     OW37213   1.541   1.353   6.427 -0.0904  0.3343 -0.4350
 8585SOL    HW137214   1.539   1.269   6.381 -0.9031  0.2422 -0.2209
 8585SOL    HW237215   1.482   1.413   6.382 -2.3824 -1.0119  0.8034
 8586SOL     OW37216   3.348   2.542   4.280  0.5144 -0.6860 -0.1488
 8586SOL    HW137217   3.353   2.453   4.315 -4.5661 -0.7958  0.2040
 8586SOL    HW237218   3.438   2.538   4.248  0.8630 -0.1038  0.7588
 8587SOL     OW37219   0.329   2.861   4.021 -0.0634 -0.1118 -0.7653
 8587SOL    HW137220   0.255   2.854   4.081  0.5425  1.5677  0.1530
 8587SOL    HW237221   0.401   2.867   4.084  0.3517 -4.0818 -0.8463
 8588SOL     OW37222   2.870   1.552   2.381  0.2824  0.2765  0.3908
 8588SOL    HW137223   2.949   1.498   2.374 -0.9962 -1.2401 -2.3584
 8588SOL    HW237224   2.817   1.491   2.433 -1.5152  1.5338  0.0182
 8589SOL     OW37225   1.324   3.532  15.250  0.4507 -0.1137  0.0884
 8589SOL    HW137226   1.260   3.462  15.255  1.4035 -1.0332 -0.4913
 8589SOL    HW237227   1.378   3.514  15.327 -0.8330 -0.8696  0.8000
 8590SOL     OW37228   3.357   0.971   0.694 -0.5566 -0.4788 -0.1277
 8590SOL    HW137229   3.306   1.052   0.702  0.4282  0.0984  0.2480
 8590SOL    HW237230   3.342   0.943   0.603  1.7540  1.5662 -1.1157
 8591SOL     OW37231   1.887   2.305   1.824 -0.3757 -0.5777 -0.0418
 8591SOL    HW137232   1.815   2.246   1.800 -0.6913 -0.4523  0.5864
 8591SOL    HW237233   1.926   2.305   1.737  1.4385  0.3861  0.7685
 8592SOL     OW37234   1.064   3.085   0.854 -0.0757  0.6305 -0.3782
 8592SOL    HW137235   1.012   3.123   0.925  0.6303  0.4430  0.2314
 8592SOL    HW237236   1.105   3.019   0.909  1.0837  1.2368 -0.5175
 8593SOL     OW37237   3.603   4.393   4.348 -0.0819  0.1733  0.1760
 8593SOL    HW137238   3.584   4.459   4.415  3.9588  0.4900  1.0013
 8593SOL    HW237239   3.636   4.315   4.392 -2.4393  0.0422  1.7216
 8594SOL     OW37240   0.720   3.139  16.466 -0.3608 -0.0472 -0.1619
 8594SOL    HW137241   0.649   3.104  16.520 -0.8425 -1.1289 -1.5022
 8594SOL    HW237242   0.674   3.149  16.383 -0.7621  1.0996  0.2045
 8595SOL     OW37243   2.719   1.536   6.039 -0.4023  0.4259 -0.2321
 8595SOL    HW137244   2.743   1.625   6.013  3.2234 -0.4887  0.0115
 8595SOL    HW237245   2.642   1.563   6.090  1.4675  1.1530  2.1694
 8596SOL     OW37246   3.723   2.681   8.721  0.0188  0.3304  0.9630
 8596SOL    HW137247   3.770   2.599   8.711 -1.6226 -0.3797 -0.9755
 8596SOL    HW237248   3.758   2.747   8.660  0.8053  0.1642  1.2395
 8597SOL     OW37249   0.483   3.939  10.865  0.2029  0.0158  0.1246
 8597SOL    HW137250   0.527   3.885  10.930 -1.1834 -0.7996  0.4037
 8597SOL    HW237251   0.426   3.869  10.832  0.9948  0.1683 -1.5847
 8598SOL     OW37252   1.907   3.304   1.084 -0.0652  0.1166 -0.0206
 8598SOL    HW137253   1.821   3.310   1.125  1.1035  0.3300  2.3855
 8598SOL    HW237254   1.936   3.395   1.076  0.3314 -0.1077 -1.1233
 8599SOL     OW37255   3.621   4.056   8.813  0.2789  0.2056 -0.1861
 8599SOL    HW137256   3.553   4.011   8.762 -0.2652 -0.0998  0.8153
 8599SOL    HW237257   3.697   4.039   8.757 -0.0926  1.0785 -0.9609
 8600SOL     OW37258   3.515   3.773  12.426 -0.9787 -0.1084 -0.2456
 8600SOL    HW137259   3.519   3.726  12.342 -1.1915 -0.6921  0.0744
 8600SOL    HW237260   3.422   3.794  12.417 -0.9703  0.5968  1.4378
 8601SOL     OW37261   4.174   0.172  11.798 -0.0645 -0.6254  0.1274
 8601SOL    HW137262   4.247   0.204  11.746 -1.7547 -2.9565 -3.6655
 8601SOL    HW237263   4.193   0.220  11.879  1.6814 -1.8961  0.4683
 8602SOL     OW37264   1.417   0.149   1.387 -0.2675  0.4227 -0.3543
 8602SOL    HW137265   1.408   0.055   1.398  2.5743  0.4284  2.0048
 8602SOL    HW237266   1.378   0.187   1.466  1.2371  2.1228 -0.4114
 8603SOL     OW37267   4.682   0.962   6.837 -0.2793 -0.5635 -0.3676
 8603SOL    HW137268   4.715   1.043   6.874 -0.6944 -0.6803  0.2749
 8603SOL    HW237269   0.037   0.925   6.797  0.6111 -0.2037  1.0536
 8604SOL     OW37270   3.946   0.679   4.397 -0.6236  0.0273  0.0337
 8604SOL    HW137271   3.883   0.747   4.373 -1.4426  0.5561  3.8171
 8604SOL    HW237272   4.018   0.726   4.439  0.7194 -0.8344 -1.2630
 8605SOL     OW37273   1.954   4.194   1.083  0.1544 -0.4832 -0.2181
 8605SOL    HW137274   2.040   4.152   1.090  0.4030 -0.2315 -1.7990
 8605SOL    HW237275   1.970   4.288   1.080 -0.2069 -0.3940  0.7742
 8606SOL     OW37276   2.674   0.233   4.448 -0.0586 -0.3347  0.1629
 8606SOL    HW137277   2.700   0.320   4.418 -1.6638  0.1234  0.0928
 8606SOL    HW237278   2.648   0.254   4.538  0.3145  0.6504  0.0391
 8607SOL     OW37279   2.797   4.663  10.287 -0.1631 -0.8156  0.4952
 8607SOL    HW137280   2.760   4.674  10.200 -1.4746  0.7178  1.2356
 8607SOL    HW237281   2.799   0.032  10.312 -2.5828 -0.9609  1.2745
 8608SOL     OW37282   4.016   1.068   4.863  0.2385  1.0516 -0.2382
 8608SOL    HW137283   3.999   1.077   4.769 -1.4004 -1.7335 -0.1829
 8608SOL    HW237284   3.986   0.979   4.877  2.0159  0.6104  0.7556
 8609SOL     OW37285   2.914   1.302   3.665 -0.5982  0.1033  0.1544
 8609SOL    HW137286   2.987   1.258   3.708 -2.1187 -1.4958  1.1215
 8609SOL    HW237287   2.898   1.236   3.597 -1.5054 -0.6883  1.1256
 8610SOL     OW37288   2.441   3.729   8.029 -0.2158  0.6046 -0.0522
 8610SOL    HW137289   2.503   3.739   7.957  0.5554  0.2123  0.5562
 8610SOL    HW237290   2.472   3.801   8.084  1.3283  0.4698 -0.7466
 8611SOL     OW37291   1.374   3.980  16.111  0.0795 -0.0215  0.7235
 8611SOL    HW137292   1.302   4.019  16.061  2.1569  1.4723 -1.1567
 8611SOL    HW237293   1.351   3.999  16.202  1.0105  4.0041  0.1303
 8612SOL     OW37294   0.518   0.483   6.286  0.5721 -0.0585 -0.2734
 8612SOL    HW137295   0.488   0.392   6.297  0.0994  0.1620  0.2677
 8612SOL    HW237296   0.567   0.498   6.367  1.0027  1.0898 -0.7540
 8613SOL     OW37297   0.665   4.138   5.288  0.3788  0.2901 -0.0036
 8613SOL    HW137298   0.655   4.083   5.365  0.7957 -0.8117 -0.7356
 8613SOL    HW237299   0.589   4.195   5.299  0.7823  0.7309  0.4770
 8614SOL     OW37300   0.976   4.538   5.163  0.6901 -0.2304  0.2729
 8614SOL    HW137301   1.056   4.488   5.183  0.7879 -0.6927 -1.1898
 8614SOL    HW237302   0.917   4.504   5.230 -0.8756  1.8819 -0.0760
 8615SOL     OW37303   3.533   2.702   2.492 -0.0970  0.5385  0.4879
 8615SOL    HW137304   3.569   2.626   2.446 -0.6308  0.6786 -0.1640
 8615SOL    HW237305   3.593   2.763   2.450 -1.2772  1.9940  0.9053
 8616SOL     OW37306   0.467   3.604   6.661  0.0976 -0.1340 -0.3299
 8616SOL    HW137307   0.534   3.595   6.594 -0.5439 -3.1706 -0.5429
 8616SOL    HW237308   0.523   3.610   6.739  1.6585 -0.8356 -1.3882
 8617SOL     OW37309   4.713   0.701  13.965  0.0185  0.0167  0.5245
 8617SOL    HW137310   4.642   0.648  13.929  0.7629 -0.0551 -0.8364
 8617SOL    HW237311   0.004   0.766  13.897  2.6953  1.6380  2.6459
 8618SOL     OW37312   1.459   0.689   4.400 -0.0420 -0.2971  0.6928
 8618SOL    HW137313   1.391   0.746   4.435  0.7691  1.3772 -0.4433
 8618SOL    HW237314   1.531   0.751   4.408  0.2571 -0.1464 -3.0148
 8619SOL     OW37315   0.412   2.596  12.348  0.1639 -0.0374 -0.2550
 8619SOL    HW137316   0.372   2.670  12.394 -2.9949 -0.1460 -2.8913
 8619SOL    HW237317   0.418   2.619  12.256 -1.9307  2.3262  0.1926
 8620SOL     OW37318   3.718   2.824   0.218 -0.3738 -0.1527  0.4949
 8620SOL    HW137319   3.726   2.852   0.127 -0.1023 -0.4360  0.4301
 8620SOL    HW237320   3.742   2.895   0.277 -2.6366  1.1238 -0.1502
 8621SOL     OW37321   2.603   3.057   2.173 -0.2946 -0.6397 -0.2618
 8621SOL    HW137322   2.679   3.115   2.163 -0.6052 -0.0582  0.7019
 8621SOL    HW237323   2.637   2.978   2.132  0.1745 -0.1173 -0.8823
 8622SOL     OW37324   0.598   0.699   4.047 -0.5392  0.6923 -0.6154
 8622SOL    HW137325   0.644   0.782   4.034  0.0708  0.1778 -1.6734
 8622SOL    HW237326   0.535   0.718   4.117  0.6308  0.2617  0.5463
 8623SOL     OW37327   0.276   0.837  13.220  0.5951  0.0651 -0.3178
 8623SOL    HW137328   0.277   0.929  13.246 -2.0074 -0.2141  0.7374
 8623SOL    HW237329   0.241   0.796  13.299  0.7983  1.2588  0.3869
 8624SOL     OW37330   0.574   2.187   4.479 -0.5431 -0.2021  0.4286
 8624SOL    HW137331   0.556   2.205   4.571  1.4936 -0.4230  0.8730
 8624SOL    HW237332   0.534   2.261   4.434  1.0414  0.9091  0.8203
 8625SOL     OW37333   3.265   4.170  12.968 -0.5294 -0.5286  0.0435
 8625SOL    HW137334   3.304   4.106  12.909 -1.9787 -0.1778 -1.2923
 8625SOL    HW237335   3.192   4.123  13.008 -0.6826 -1.3224 -1.1983
 8626SOL     OW37336   2.221   0.358  14.644  0.1512  0.1530  0.0595
 8626SOL    HW137337   2.168   0.422  14.597  0.1483 -1.3538 -1.9705
 8626SOL    HW237338   2.267   0.305  14.579  2.8027  0.4023  1.7542
 8627SOL     OW37339   0.384   1.940   7.749  0.2410  0.1176  0.5781
 8627SOL    HW137340   0.421   1.862   7.707 -1.4686  1.8900 -4.1906
 8627SOL    HW237341   0.455   1.977   7.801  0.1066  0.4464  0.5274
 8628SOL     OW37342   0.030   2.406   8.585 -0.6218  0.5714  0.3702
 8628SOL    HW137343   4.663   2.384   8.608 -1.5102  2.7428 -1.1238
 8628SOL    HW237344   0.018   2.482   8.528  2.4562  0.8964  0.1737
 8629SOL     OW37345   2.899   4.335   9.069  0.0345  0.2558  0.0347
 8629SOL    HW137346   2.926   4.340   9.160  0.2853  1.4355 -0.1049
 8629SOL    HW237347   2.917   4.243   9.049  0.4361  0.2439  0.4608
 8630SOL     OW37348   4.651   1.570   9.126 -0.0970 -0.3596  0.2284
 8630SOL    HW137349   4.626   1.590   9.036  1.1853 -0.7279 -0.2067
 8630SOL    HW237350   4.610   1.484   9.141 -3.0780  1.1150  0.5032
 8631SOL     OW37351   3.922   2.191   5.631  0.1857 -0.3503  0.3920
 8631SOL    HW137352   3.934   2.222   5.720 -0.1037 -0.6166  0.5234
 8631SOL    HW237353   3.841   2.139   5.632 -1.5692  2.3352 -2.6050
 8632SOL     OW37354   1.801   2.524  13.154  0.6162  0.1939 -0.0648
 8632SOL    HW137355   1.755   2.442  13.169 -1.1794  1.1399 -0.4187
 8632SOL    HW237356   1.873   2.497  13.097  1.8297  1.2598  0.9407
 8633SOL     OW37357   2.518   1.654   9.072 -0.1731  0.1273 -0.1457
 8633SOL    HW137358   2.424   1.671   9.075 -0.1010  0.5565 -0.4276
 8633SOL    HW237359   2.508   1.607   8.989  0.4094 -1.2211  0.5308
 8634SOL     OW37360   0.049   2.834  16.851 -0.5636  0.4165 -0.6601
 8634SOL    HW137361   4.723   2.840  16.933 -1.1859  0.6693 -1.0517
 8634SOL    HW237362   0.128   2.801  16.894 -0.3593 -0.4911 -1.7234
 8635SOL     OW37363   1.533   3.165   7.194 -0.6040  0.4050  0.3675
 8635SOL    HW137364   1.440   3.181   7.209 -0.7600  0.0368 -0.2223
 8635SOL    HW237365   1.555   3.194   7.106 -0.2885  1.8708  0.9308
 8636SOL     OW37366   4.364   2.522   1.522  0.1714  0.1763  0.0688
 8636SOL    HW137367   4.299   2.546   1.588  0.1276  0.0545  0.0705
 8636SOL    HW237368   4.387   2.607   1.484  1.0575 -0.9756 -1.9640
 8637SOL     OW37369   3.177   4.297  12.673 -0.0286 -0.6154 -0.2879
 8637SOL    HW137370   3.190   4.210  12.635 -2.4350 -0.7762 -0.7804
 8637SOL    HW237371   3.178   4.350  12.594 -2.5130 -1.0554 -0.6378
 8638SOL     OW37372   3.338   1.268   7.112 -0.4957  0.2024 -0.4678
 8638SOL    HW137373   3.302   1.243   7.198  0.3241 -0.7659 -0.4009
 8638SOL    HW237374   3.314   1.359   7.124 -0.4483  0.0359  0.9096
 8639SOL     OW37375   4.122   0.798   7.426 -0.2659 -0.7035 -0.1872
 8639SOL    HW137376   4.072   0.828   7.349 -1.4670 -0.6006  0.6392
 8639SOL    HW237377   4.102   0.705   7.433 -1.0815 -0.4106  1.3558
 8640SOL     OW37378   0.636   4.709   4.894 -0.4669 -0.0032  0.6957
 8640SOL    HW137379   0.717   4.685   4.849 -0.8746 -0.8777  0.4321
 8640SOL    HW237380   0.594   0.053   4.840  1.0008  0.5046  0.1750
 8641SOL     OW37381   3.481   1.733  11.043  0.2653 -0.6275 -0.0442
 8641SOL    HW137382   3.407   1.761  11.097 -0.2256 -0.0764 -0.9954
 8641SOL    HW237383   3.516   1.666  11.101  0.1367 -0.5026  0.1805
 8642SOL     OW37384   2.538   4.004   7.661  0.1249  0.2010  0.1928
 8642SOL    HW137385   2.586   4.078   7.698  1.1282 -0.7511  0.7860
 8642SOL    HW237386   2.575   3.933   7.714 -0.7295 -0.7395 -0.4825
 8643SOL     OW37387   0.243   2.294   4.591  0.8536  0.1314 -0.5434
 8643SOL    HW137388   0.251   2.207   4.552 -1.6002  0.4704 -1.7907
 8643SOL    HW237389   0.319   2.294   4.649  0.6140 -2.3900 -0.2347
 8644SOL     OW37390   2.346   1.970   7.351  0.0237 -0.2239 -0.1209
 8644SOL    HW137391   2.276   1.991   7.289 -0.9766  1.8535  1.6978
 8644SOL    HW237392   2.304   1.918   7.419 -0.9998  2.7942  1.5624
 8645SOL     OW37393   1.301   3.614   6.613  0.2604 -0.3355  0.0129
 8645SOL    HW137394   1.325   3.659   6.532  0.7071  0.5914  0.6570
 8645SOL    HW237395   1.269   3.528   6.586 -0.3142 -0.2147  0.2964
 8646SOL     OW37396   0.432   1.329   1.442  0.5445 -0.1894  0.3709
 8646SOL    HW137397   0.355   1.359   1.393  1.1454 -0.7094 -0.8796
 8646SOL    HW237398   0.493   1.380   1.388 -2.3712  2.6909 -0.2264
 8647SOL     OW37399   2.691   1.710  13.109  0.1633  0.0772 -0.2345
 8647SOL    HW137400   2.630   1.667  13.049  1.6369 -0.0343 -1.6245
 8647SOL    HW237401   2.650   1.679  13.190  1.9309 -2.6327 -0.3863
 8648SOL     OW37402   4.246   3.049  13.046 -0.1988 -0.2756  0.1620
 8648SOL    HW137403   4.315   3.000  13.001  1.2454  1.0027  0.9528
 8648SOL    HW237404   4.225   3.111  12.976  0.4787  0.1763  0.3561
 8649SOL     OW37405   4.056   2.127   1.877 -0.1077  0.0135 -0.2866
 8649SOL    HW137406   4.137   2.087   1.845 -0.0906  0.7226 -1.1552
 8649SOL    HW237407   4.020   2.156   1.792  1.3052  0.2890 -0.7828
 8650SOL     OW37408   0.269   2.757  13.445 -0.0088  0.2335 -0.3695
 8650SOL    HW137409   0.306   2.682  13.493  2.4458  0.0981 -2.4832
 8650SOL    HW237410   0.213   2.797  13.511 -2.3356  0.4114 -2.4805
 8651SOL     OW37411   1.096   4.174   1.571  0.3667  0.0169  0.4512
 8651SOL    HW137412   1.123   4.264   1.548 -1.6242  0.3501 -0.5708
 8651SOL    HW237413   1.123   4.132   1.490 -0.5934 -0.9720  0.6531
 8652SOL     OW37414   3.343   4.052   4.160 -0.1959 -0.3276 -0.2308
 8652SOL    HW137415   3.255   4.018   4.177 -0.3608  1.0854  1.7556
 8652SOL    HW237416   3.381   4.063   4.247  0.6449 -2.8474 -0.2752
 8653SOL     OW37417   2.482   2.650  16.714  0.0446  0.0987  0.1605
 8653SOL    HW137418   2.477   2.662  16.619  0.3787 -1.2079 -0.0252
 8653SOL    HW237419   2.566   2.691  16.731 -1.1723  1.4247  2.9399
 8654SOL     OW37420   3.329   1.747  16.863 -0.0393 -0.5455  0.3422
 8654SOL    HW137421   3.297   1.744  16.772 -2.1651  1.7964  1.0139
 8654SOL    HW237422   3.283   1.825  16.893 -0.2066 -0.3275 -0.4555
 8655SOL     OW37423   4.027   1.016   5.506  0.4617 -0.1025 -0.1960
 8655SOL    HW137424   4.050   1.054   5.591 -1.8984  0.8129  0.0239
 8655SOL    HW237425   4.119   0.995   5.488  0.1961 -0.3445 -1.2361
 8656SOL     OW37426   0.319   3.829   2.950 -0.3254  0.0443 -0.4003
 8656SOL    HW137427   0.406   3.867   2.940  0.6561 -1.6766  1.5222
 8656SOL    HW237428   0.343   3.737   2.963 -1.3197 -0.1187  0.3165
 8657SOL     OW37429   1.712   2.469   8.007 -0.2957  0.4244 -0.3674
 8657SOL    HW137430   1.803   2.497   8.019 -0.3607 -0.4640  2.2476
 8657SOL    HW237431   1.722   2.452   7.913  0.3795 -1.9775  0.1604
 8658SOL     OW37432   0.195   1.512   5.679 -0.2207 -0.0919  0.0119
 8658SOL    HW137433   0.177   1.594   5.632  0.7944  1.3911  2.1926
 8658SOL    HW237434   0.217   1.449   5.610 -1.3478 -0.2903 -0.1614
 8659SOL     OW37435   2.768   1.788   9.347  0.0180 -0.2073  0.1728
 8659SOL    HW137436   2.776   1.707   9.296  0.5748 -0.4061  0.5712
 8659SOL    HW237437   2.790   1.849   9.278 -0.5374 -0.3773 -0.1476
 8660SOL     OW37438   2.787   1.741   5.283 -0.9028  0.4054 -0.1491
 8660SOL    HW137439   2.758   1.673   5.223 -0.8694 -0.3004  0.6275
 8660SOL    HW237440   2.808   1.684   5.358 -2.0482 -0.1117 -0.2288
 8661SOL     OW37441   4.113   0.936   9.451 -0.7001  0.1629 -0.2714
 8661SOL    HW137442   4.075   0.848   9.454 -0.6369  0.1115 -1.1256
 8661SOL    HW237443   4.191   0.931   9.506 -0.2089  1.7071 -0.8305
 8662SOL     OW37444   2.344   0.209   6.705  0.0726  0.2263 -0.1106
 8662SOL    HW137445   2.388   0.292   6.689  1.1210 -0.1397  0.9285
 8662SOL    HW237446   2.264   0.225   6.654  0.0356 -4.6196 -1.6530
 8663SOL     OW37447   2.505   2.484  17.540 -0.1052 -0.1229 -0.3124
 8663SOL    HW137448   2.525   2.390  17.545  2.5350  0.5960  2.5029
 8663SOL    HW237449   2.475   2.503  17.628 -0.3846 -1.0868 -0.2011
 8664SOL     OW37450   0.030   2.074   0.617  0.0172  0.8111  0.0813
 8664SOL    HW137451   4.669   2.116   0.632  0.0941  1.3035 -0.8973
 8664SOL    HW237452   0.038   2.076   0.522  0.8684  0.2971  0.1387
 8665SOL     OW37453   1.510   3.971   6.405 -0.1975  0.3851 -0.2070
 8665SOL    HW137454   1.437   4.032   6.413 -1.1724 -0.7726 -0.3657
 8665SOL    HW237455   1.569   4.015   6.466  1.2163 -0.2424 -1.1055
 8666SOL     OW37456   3.390   2.786  16.310  0.2527 -0.8082  0.4226
 8666SOL    HW137457   3.313   2.810  16.258  1.9094  0.1432 -1.5731
 8666SOL    HW237458   3.349   2.775  16.396  0.9768  1.0430  1.0193
 8667SOL     OW37459   1.627   0.494   2.361 -0.0845  0.4311 -0.3811
 8667SOL    HW137460   1.667   0.524   2.280  0.1253  0.4828 -0.2577
 8667SOL    HW237461   1.562   0.433   2.325 -0.7469  1.2100 -0.5011
 8668SOL     OW37462   3.332   4.439   0.348 -0.4662 -0.0661  0.3560
 8668SOL    HW137463   3.343   4.350   0.380  2.8249  0.5546  0.8912
 8668SOL    HW237464   3.301   4.486   0.425  1.5727 -0.0004  1.1076
 8669SOL     OW37465   1.747   0.296   3.779  0.4757 -0.1594 -1.0673
 8669SOL    HW137466   1.758   0.233   3.708 -4.0609 -0.3100 -1.6172
 8669SOL    HW237467   1.766   0.368   3.720 -1.4540  1.1962 -0.0148
 8670SOL     OW37468   1.767   4.474  13.877 -0.9669  0.3556 -0.1626
 8670SOL    HW137469   1.757   4.389  13.834 -1.7865  0.2398  0.2539
 8670SOL    HW237470   1.760   4.437  13.965  1.8581 -1.8921 -0.8941
 8671SOL     OW37471   3.587   4.040   5.197 -0.6351  0.6184  0.0948
 8671SOL    HW137472   3.495   4.062   5.183 -1.5265 -1.8867  1.9963
 8671SOL    HW237473   3.599   3.956   5.153 -0.5003 -0.3938  2.0249
 8672SOL     OW37474   2.824   0.437  17.457  0.5330 -0.5012  0.2136
 8672SOL    HW137475   2.801   0.477  17.373 -0.2637 -0.5933  0.3842
 8672SOL    HW237476   2.739   0.433  17.502  0.5853  2.1194  0.5520
 8673SOL     OW37477   2.999   1.507  12.297  0.0857  0.3713  1.0031
 8673SOL    HW137478   2.987   1.461  12.381 -0.3791 -3.2946 -1.0562
 8673SOL    HW237479   3.028   1.440  12.235 -1.7283  0.0206  0.5308
 8674SOL     OW37480   4.668   3.605   8.994  0.1374  1.2271 -0.3774
 8674SOL    HW137481   4.680   3.571   8.906 -0.8317  1.1934 -0.4914
 8674SOL    HW237482   4.586   3.565   9.024  0.1354 -0.5967 -2.8815
 8675SOL     OW37483   2.683   3.162   7.655 -0.5176  0.4637 -0.1271
 8675SOL    HW137484   2.604   3.112   7.635  1.1828 -1.5333 -1.7717
 8675SOL    HW237485   2.658   3.221   7.727 -1.7647 -1.1919  0.7980
 8676SOL     OW37486   0.582   3.584   3.709 -0.9300 -0.1848 -0.3756
 8676SOL    HW137487   0.551   3.635   3.634 -1.8817  0.3915  0.4060
 8676SOL    HW237488   0.567   3.496   3.673 -2.7633  0.8978 -2.2730
 8677SOL     OW37489   1.859   1.403   3.304 -0.0684 -0.0654 -0.0635
 8677SOL    HW137490   1.887   1.314   3.281  0.0848  0.4350 -1.8067
 8677SOL    HW237491   1.910   1.450   3.238  1.1128 -1.1293  0.0866
 8678SOL     OW37492   2.080   3.464  11.737 -0.3179  0.1126  0.4932
 8678SOL    HW137493   2.022   3.538  11.756 -1.4650 -1.0249  1.4038
 8678SOL    HW237494   2.160   3.515  11.720 -0.0661  0.0703  1.5861
 8679SOL     OW37495   0.881   4.655   2.273  0.0771  0.6471 -0.4707
 8679SOL    HW137496   0.796   4.661   2.229  0.1778 -1.0509 -0.8809
 8679SOL    HW237497   0.859   4.647   2.366 -1.4987 -0.4128 -0.9524
 8680SOL     OW37498   2.465   1.661   4.122 -0.6257  0.6107 -0.9765
 8680SOL    HW137499   2.506   1.744   4.098  1.0880  0.3239  0.9228
 8680SOL    HW237500   2.467   1.637   4.029  0.2930 -0.3579 -0.7088
 8681SOL     OW37501   4.615   3.467   7.166 -0.1433  0.0441 -0.3290
 8681SOL    HW137502   4.533   3.508   7.138 -0.6257 -0.5687  0.1781
 8681SOL    HW237503   4.667   3.480   7.087  0.3979 -1.7891 -0.2696
 8682SOL     OW37504   3.690   3.959   6.693  0.6088  0.1417  0.3214
 8682SOL    HW137505   3.602   3.996   6.691  0.6910  0.3205  0.0302
 8682SOL    HW237506   3.673   3.865   6.692 -3.7671  0.9524 -0.6608
 8683SOL     OW37507   3.979   1.044   5.795 -0.1081  0.0761 -0.3697
 8683SOL    HW137508   3.971   1.051   5.890 -0.5719  0.6589 -0.4444
 8683SOL    HW237509   3.968   0.949   5.789  2.2849 -0.2791  0.9737
 8684SOL     OW37510   2.987   0.430   3.059 -0.1428 -0.0669  0.3067
 8684SOL    HW137511   3.026   0.449   3.144 -0.3777 -1.8265  0.8133
 8684SOL    HW237512   2.904   0.478   3.066 -0.3504 -0.9697  3.6863
 8685SOL     OW37513   3.056   3.846   7.743 -0.6891 -0.4695  0.1915
 8685SOL    HW137514   3.132   3.830   7.686  0.7446  0.0258  1.9651
 8685SOL    HW237515   3.059   3.939   7.767  0.2032  0.2007 -2.4866
 8686SOL     OW37516   1.016   1.764   6.629  0.2838  0.0273  0.6310
 8686SOL    HW137517   0.927   1.797   6.618  0.0816 -0.6322  0.2797
 8686SOL    HW237518   0.999   1.670   6.643 -0.1509  0.1636  1.0142
 8687SOL     OW37519   0.874   0.627   6.820 -0.3364 -0.7133 -0.2772
 8687SOL    HW137520   0.925   0.546   6.816 -0.3036 -0.5171 -3.7837
 8687SOL    HW237521   0.921   0.697   6.777 -0.1932 -0.4258  0.3396
 8688SOL     OW37522   0.736   3.472   4.016 -0.2161  0.0185  0.8018
 8688SOL    HW137523   0.790   3.550   4.003  0.4891 -0.1407  2.7483
 8688SOL    HW237524   0.743   3.431   3.930  0.2699  1.6935  0.0435
 8689SOL     OW37525   0.727   3.112   2.093  0.3715 -0.2333  0.2499
 8689SOL    HW137526   0.765   3.152   2.172 -1.3261  1.4453  0.2114
 8689SOL    HW237527   0.809   3.075   2.062  0.8597  0.4489  0.7172
 8690SOL     OW37528   3.700   2.566   6.418  0.3200 -0.3487  0.4225
 8690SOL    HW137529   3.789   2.559   6.385 -0.2694 -1.4063 -0.9547
 8690SOL    HW237530   3.687   2.661   6.422 -1.4163 -0.5620 -0.3118
 8691SOL     OW37531   4.201   0.290   6.672 -0.0859 -0.3308 -0.3675
 8691SOL    HW137532   4.255   0.367   6.654  2.8881 -2.1577  0.5907
 8691SOL    HW237533   4.200   0.246   6.586 -1.7560 -0.3361 -0.3389
 8692SOL     OW37534   0.563   1.134  17.447  1.0522  0.0868 -0.5429
 8692SOL    HW137535   0.609   1.163  17.526  0.6305 -2.2706  0.5502
 8692SOL    HW237536   0.577   1.207  17.387 -0.7108  1.0057  0.1524
 8693SOL     OW37537   2.210   2.678   9.860  0.1207  0.1924 -0.5150
 8693SOL    HW137538   2.276   2.745   9.877  0.0779  0.1913 -0.3470
 8693SOL    HW237539   2.247   2.629   9.786  3.0814  0.5173  0.7663
 8694SOL     OW37540   2.554   4.591   2.012 -0.3851  0.1011  0.2047
 8694SOL    HW137541   2.469   4.583   1.969  0.3361  0.4538 -1.2780
 8694SOL    HW237542   2.603   4.612   1.933 -0.0065 -0.3710  0.3158
 8695SOL     OW37543   3.131   4.510   5.291  0.7858  0.5771 -0.4978
 8695SOL    HW137544   3.101   4.597   5.316 -0.3072 -0.1870  0.8266
 8695SOL    HW237545   3.215   4.532   5.251  1.6203 -1.4307  0.1545
 8696SOL     OW37546   1.360   4.178   7.959 -0.1136 -0.2429 -0.8437
 8696SOL    HW137547   1.271   4.198   7.932  1.0757  2.8148 -2.4150
 8696SOL    HW237548   1.359   4.207   8.051  2.0705  2.1966 -1.5993
 8697SOL     OW37549   3.457   3.790  14.991  0.0076  0.3534  0.0469
 8697SOL    HW137550   3.451   3.717  15.052 -0.4931  0.2326 -0.1527
 8697SOL    HW237551   3.371   3.827  15.010  0.4488  2.2158 -1.5533
 8698SOL     OW37552   2.974   0.903   2.624  0.0261 -0.0363  0.1650
 8698SOL    HW137553   2.963   0.812   2.649 -1.4451 -0.7067 -3.0255
 8698SOL    HW237554   2.992   0.941   2.710  1.8973 -0.1746 -0.1620
 8699SOL     OW37555   1.378   4.605   5.213 -0.1908  0.1841  0.0397
 8699SOL    HW137556   1.456   4.612   5.156  0.3195 -1.1435  0.5997
 8699SOL    HW237557   1.359   4.512   5.211 -0.0263  0.1274  1.2275
 8700SOL     OW37558   3.852   3.355   9.594 -0.0897  0.1997 -0.1831
 8700SOL    HW137559   3.851   3.422   9.526  0.0343  0.8894  0.4969
 8700SOL    HW237560   3.761   3.325   9.593  0.6257 -1.9776 -0.1307
 8701SOL     OW37561   4.346   0.714   3.854 -0.1465 -0.7984  0.5216
 8701SOL    HW137562   4.313   0.660   3.926 -1.1907 -0.1786  0.5051
 8701SOL    HW237563   4.276   0.704   3.790  0.2201  1.7242 -0.2615
 8702SOL     OW37564   1.313   0.042   2.077  0.1625  0.5172 -0.2318
 8702SOL    HW137565   1.275   4.714   2.006  1.4779  0.7094 -1.0785
 8702SOL    HW237566   1.234   0.078   2.116  1.5333  0.0726  2.9972
 8703SOL     OW37567   1.726   2.594   2.963  0.7665 -0.1244  0.1723
 8703SOL    HW137568   1.734   2.623   3.054  0.4791 -1.6483  0.6830
 8703SOL    HW237569   1.816   2.601   2.930  0.6530  0.6818  0.0417
 8704SOL     OW37570   4.526   0.596   3.376  0.4691 -0.2954 -0.1231
 8704SOL    HW137571   4.493   0.578   3.288  0.3667  0.7157 -0.2924
 8704SOL    HW237572   4.607   0.635   3.343 -0.2438 -0.7077 -2.3254
 8705SOL     OW37573   0.726   4.627  15.294 -0.1939  0.6900 -0.4398
 8705SOL    HW137574   0.790   4.622  15.223 -0.6647 -2.1517 -0.6572
 8705SOL    HW237575   0.739   4.540  15.331  0.1026  0.1946 -1.7336
 8706SOL     OW37576   1.873   0.112  11.860  0.1731 -0.7089  0.6439
 8706SOL    HW137577   1.910   0.192  11.897 -2.7848  1.1559 -0.4717
 8706SOL    HW237578   1.954   0.061  11.851 -0.2263 -1.2022 -0.0811
 8707SOL     OW37579   4.593   1.294  12.911 -0.0185 -0.6634  0.1007
 8707SOL    HW137580   4.664   1.358  12.904 -0.7856  0.3769  1.7480
 8707SOL    HW237581   4.640   1.211  12.906 -0.8864 -1.1393 -0.0772
 8708SOL     OW37582   2.908   0.822   9.463 -0.8517  0.4869 -0.2929
 8708SOL    HW137583   2.972   0.861   9.404 -1.1343  0.7908 -0.4036
 8708SOL    HW237584   2.945   0.854   9.544  1.9885 -0.4298 -1.2378
 8709SOL     OW37585   2.846   2.447   8.065  0.1076 -0.4385  0.1572
 8709SOL    HW137586   2.925   2.500   8.063 -0.0218 -0.3566 -2.4399
 8709SOL    HW237587   2.848   2.396   8.146  2.0479  1.4948  1.3379
 8710SOL     OW37588   1.695   4.580  14.329  0.3868 -0.2242 -0.5411
 8710SOL    HW137589   1.680   4.534  14.246  0.6837 -0.5402 -0.4160
 8710SOL    HW237590   1.722   4.665  14.295 -1.0595 -1.1693 -4.1452
 8711SOL     OW37591   1.924   1.114  10.903  0.5584 -0.7229  0.0783
 8711SOL    HW137592   1.993   1.056  10.934  1.6689  0.7868  0.4546
 8711SOL    HW237593   1.975   1.162  10.839  0.7557  1.9441  2.2079
 8712SOL     OW37594   3.062   1.574   4.371 -0.2862 -0.1886 -0.2055
 8712SOL    HW137595   3.043   1.509   4.302 -1.8953  0.4468 -0.3732
 8712SOL    HW237596   3.127   1.528   4.424 -0.1229  1.1990  0.7830
 8713SOL     OW37597   1.003   2.642  12.809  0.1562  0.6367 -0.1242
 8713SOL    HW137598   0.932   2.580  12.790 -1.0564  1.3908  2.0392
 8713SOL    HW237599   1.032   2.642  12.717 -0.8684  0.1717 -0.4498
 8714SOL     OW37600   2.522   4.282  16.884 -0.4861  0.2176  0.2404
 8714SOL    HW137601   2.535   4.306  16.793  0.6542 -0.1598  0.3110
 8714SOL    HW237602   2.468   4.359  16.903 -0.8187 -0.6422  2.7659
 8715SOL     OW37603   1.515   2.747   5.818  0.4465 -0.4286 -0.0724
 8715SOL    HW137604   1.541   2.656   5.812 -1.5130 -0.9177 -1.1497
 8715SOL    HW237605   1.595   2.800   5.827  1.6932 -2.3982  0.3862
 8716SOL     OW37606   2.085   0.763   4.945  0.4735  0.0616 -0.4869
 8716SOL    HW137607   2.036   0.759   4.863  0.1542 -2.5014 -0.1808
 8716SOL    HW237608   2.100   0.857   4.949 -0.2773  0.1795 -0.5508
 8717SOL     OW37609   4.358   1.786   5.331 -0.3862  0.0611 -0.2979
 8717SOL    HW137610   4.353   1.712   5.392 -1.1588  0.2014 -0.1852
 8717SOL    HW237611   4.434   1.759   5.280  0.3991 -1.7984  1.8480
 8718SOL     OW37612   3.539   0.671   7.217  0.1905  0.0342 -0.0673
 8718SOL    HW137613   3.494   0.745   7.176 -1.7165 -2.6263 -2.7051
 8718SOL    HW237614   3.614   0.725   7.243 -0.5469  1.9521 -1.8861
 8719SOL     OW37615   4.133   2.823   6.885 -0.0710 -0.4824 -0.2086
 8719SOL    HW137616   4.175   2.907   6.902  0.7632 -0.8673 -0.3435
 8719SOL    HW237617   4.098   2.802   6.971 -0.4109  1.4301  0.1055
 8720SOL     OW37618   0.204   2.708  12.682 -0.2454  0.3017  0.3750
 8720SOL    HW137619   0.298   2.690  12.686 -0.9074 -3.0033  1.4224
 8720SOL    HW237620   0.185   2.711  12.588 -1.8558  2.7822  0.8034
 8721SOL     OW37621   0.905   3.641   4.448 -0.2557 -0.0470  0.0028
 8721SOL    HW137622   0.865   3.663   4.364 -0.7300 -0.9342 -0.0022
 8721SOL    HW237623   0.996   3.624   4.424 -0.5086  0.8524 -1.5929
 8722SOL     OW37624   3.251   0.320   2.966  0.0331  0.4682 -0.2848
 8722SOL    HW137625   3.273   0.343   2.876  1.7824 -1.4448 -0.3428
 8722SOL    HW237626   3.159   0.347   2.970 -0.3126 -0.2261 -3.1036
 8723SOL     OW37627   4.444   0.575   7.278  0.3744 -0.5024 -0.1792
 8723SOL    HW137628   4.455   0.522   7.357 -2.3677  1.8070  1.7437
 8723SOL    HW237629   4.388   0.646   7.310 -1.4072 -1.3615 -1.4189
 8724SOL     OW37630   0.615   4.622   8.179 -0.1757  0.0942 -0.1297
 8724SOL    HW137631   0.555   4.548   8.177 -4.1781  3.3390  0.0069
 8724SOL    HW237632   0.567   4.695   8.217 -2.8967 -1.6302 -0.3174
 8725SOL     OW37633   0.599   2.274   8.837 -0.7912  0.1849  0.2763
 8725SOL    HW137634   0.548   2.197   8.811 -0.9183  1.3542 -2.9014
 8725SOL    HW237635   0.606   2.267   8.932  1.0064 -1.4007  0.0426
 8726SOL     OW37636   0.820   3.352  12.594  0.5496 -0.0752  0.7822
 8726SOL    HW137637   0.837   3.324  12.684 -0.7242 -1.4438  0.5920
 8726SOL    HW237638   0.883   3.424  12.595  1.2114 -0.6824  1.7210
 8727SOL     OW37639   3.611   1.695   8.589 -0.2288  0.2411 -0.0757
 8727SOL    HW137640   3.682   1.700   8.525  1.0495 -2.7323  1.1271
 8727SOL    HW237641   3.576   1.607   8.574  0.3045 -0.2611  1.6570
 8728SOL     OW37642   2.723   4.480   0.017 -0.7673 -0.0714  0.7597
 8728SOL    HW137643   2.804   4.496  17.663 -1.2508 -1.7826 -0.6212
 8728SOL    HW237644   2.755   4.423   0.086 -2.5503 -0.2596  1.4374
 8729SOL     OW37645   3.900   2.001   9.531  0.0114 -0.6960  0.2280
 8729SOL    HW137646   3.844   2.024   9.605 -1.0184  0.6476 -0.9440
 8729SOL    HW237647   3.978   1.977   9.581  1.2816 -1.4532 -2.1200
 8730SOL     OW37648   4.394   1.689   4.200 -0.2561 -0.3530  0.1664
 8730SOL    HW137649   4.347   1.628   4.256 -0.2025 -1.9176 -1.4893
 8730SOL    HW237650   4.326   1.751   4.175  2.5025  2.3595 -0.6781
 8731SOL     OW37651   0.187   2.318   1.275  0.0273 -0.8784  0.3338
 8731SOL    HW137652   0.254   2.337   1.342  0.4415 -2.6127  0.4012
 8731SOL    HW237653   0.104   2.312   1.322 -1.3723  1.7834 -1.8273
 8732SOL     OW37654   4.387   2.894   5.705 -0.4008  0.0577  0.2745
 8732SOL    HW137655   4.353   2.929   5.786  1.2633  1.3214  0.4325
 8732SOL    HW237656   4.372   2.971   5.650  1.0442  0.1578 -0.0014
 8733SOL     OW37657   2.220   2.490   2.260 -0.4086 -0.3431  0.0477
 8733SOL    HW137658   2.161   2.474   2.186  0.7173 -0.2082 -0.8726
 8733SOL    HW237659   2.180   2.436   2.329  0.1320 -1.4579 -0.5143
 8734SOL     OW37660   3.918   3.933   5.125  0.3173  0.2706 -0.8079
 8734SOL    HW137661   3.845   3.957   5.183 -0.5172 -0.0752 -1.7101
 8734SOL    HW237662   3.882   3.982   5.050 -1.3047 -0.8175 -0.7381
 8735SOL     OW37663   4.048   3.754   1.228 -0.1999 -0.8965  0.4301
 8735SOL    HW137664   3.974   3.702   1.196  0.6536 -0.1913 -2.6759
 8735SOL    HW237665   4.086   3.686   1.284 -0.2137 -0.8748  0.4659
 8736SOL     OW37666   2.136   1.765  15.541  0.3225 -0.2668  0.0898
 8736SOL    HW137667   2.049   1.800  15.522  0.2816  1.1675  2.9258
 8736SOL    HW237668   2.181   1.849  15.533 -1.4641  0.6017 -0.8819
 8737SOL     OW37669   3.565   2.539   8.922 -0.5792 -0.5011 -0.3911
 8737SOL    HW137670   3.620   2.464   8.897 -0.3339 -0.7452  0.8438
 8737SOL    HW237671   3.603   2.608   8.868  2.0564 -0.8167  1.0429
 8738SOL     OW37672   1.735   2.724  11.556 -0.0126 -0.1487  0.2011
 8738SOL    HW137673   1.661   2.724  11.496 -0.6901  2.4405  1.0364
 8738SOL    HW237674   1.808   2.703  11.497 -0.2614 -0.7086  0.0847
 8739SOL     OW37675   2.954   1.549   1.705  0.0965 -0.6709 -0.1461
 8739SOL    HW137676   2.889   1.587   1.765  2.4300  0.1717  1.8704
 8739SOL    HW237677   2.894   1.548   1.630 -0.1166 -0.7774  0.0244
 8740SOL     OW37678   3.874   3.938   0.104  0.1322  0.0413  0.7450
 8740SOL    HW137679   3.817   3.907   0.034  1.0964  3.5923 -1.6397
 8740SOL    HW237680   3.889   3.863   0.161  1.3819 -1.8278 -2.0436
 8741SOL     OW37681   1.641   3.354  16.290  0.0789 -0.3636  0.2832
 8741SOL    HW137682   1.640   3.446  16.315 -2.8124 -0.6596  1.2928
 8741SOL    HW237683   1.549   3.328  16.293  0.3702 -1.0706  3.3393
 8742SOL     OW37684   4.259   2.968  12.723 -0.0476 -0.0150  0.1519
 8742SOL    HW137685   4.349   2.934  12.729  1.0746  2.6489 -1.2247
 8742SOL    HW237686   4.260   3.057  12.759 -0.7001 -0.6148  1.6651
 8743SOL     OW37687   4.560   2.763  13.657 -0.1478  0.0631  0.5898
 8743SOL    HW137688   4.575   2.857  13.657  2.5313 -0.3480 -1.8868
 8743SOL    HW237689   4.483   2.749  13.602  1.6948 -1.2922 -1.6331
 8744SOL     OW37690   1.266   2.549   2.820  0.4416  0.7861  0.2626
 8744SOL    HW137691   1.243   2.463   2.853 -0.0348  0.4858 -0.8768
 8744SOL    HW237692   1.359   2.530   2.805  0.4382  0.9432  0.0394
 8745SOL     OW37693   3.486   4.070   5.674  0.0961  0.7106 -0.1424
 8745SOL    HW137694   3.492   4.122   5.594 -1.6150 -1.2700 -1.5729
 8745SOL    HW237695   3.390   4.066   5.670  0.0047  1.3845  1.6092
 8746SOL     OW37696   1.696   1.930  10.874 -0.0601  0.1645 -0.1217
 8746SOL    HW137697   1.672   1.892  10.959 -0.9683 -1.9390 -1.3208
 8746SOL    HW237698   1.663   1.881  10.799 -1.2460 -0.5116  0.8288
 8747SOL     OW37699   2.257   1.399   5.084 -0.0257  1.1120 -0.0608
 8747SOL    HW137700   2.201   1.464   5.041 -0.8485  1.6484  1.8429
 8747SOL    HW237701   2.199   1.404   5.160  1.5265 -2.8151  1.3832
 8748SOL     OW37702   2.953   0.479   6.057 -0.3032  0.0928 -0.3180
 8748SOL    HW137703   2.934   0.553   6.114 -0.5842 -0.2836  0.0871
 8748SOL    HW237704   3.046   0.463   6.072  0.0537  1.7403 -0.7872
 8749SOL     OW37705   0.909   0.564  14.636  0.2556 -0.1100  0.4492
 8749SOL    HW137706   0.855   0.628  14.683 -1.4961 -0.0629 -1.6244
 8749SOL    HW237707   0.921   0.614  14.555  0.6019 -1.1531 -0.1444
 8750SOL     OW37708   3.458   0.843   3.033  0.4957  0.2548  0.2614
 8750SOL    HW137709   3.534   0.848   2.974 -0.7362 -1.7214 -1.4907
 8750SOL    HW237710   3.506   0.819   3.112 -1.1303 -0.9675  0.8738
 8751SOL     OW37711   3.908   3.903   6.359 -0.5494  0.3191 -0.1789
 8751SOL    HW137712   3.825   3.944   6.334 -1.4373 -0.8606  0.7983
 8751SOL    HW237713   3.892   3.877   6.450 -4.6919  1.4773 -0.5750
 8752SOL     OW37714   2.536   3.926   8.237 -0.0639 -0.2496 -0.0852
 8752SOL    HW137715   2.526   3.867   8.312  0.5794 -2.1193 -1.4635
 8752SOL    HW237716   2.535   4.007   8.288 -2.2535  1.0514 -2.1788
 8753SOL     OW37717   4.642   2.655   7.022 -0.4699  0.6286 -0.3560
 8753SOL    HW137718   4.620   2.710   7.097 -0.1128  0.0851  0.1505
 8753SOL    HW237719   4.604   2.706   6.950 -0.1893  1.9979  0.4624
 8754SOL     OW37720   3.104   3.228   1.915  0.6242 -0.0389 -0.4331
 8754SOL    HW137721   3.183   3.281   1.925  0.8141 -0.7128  1.6686
 8754SOL    HW237722   3.088   3.195   2.003 -0.5517  0.3355 -0.5091
 8755SOL     OW37723   0.307   1.579   4.377 -0.7564  0.4953  0.3225
 8755SOL    HW137724   0.242   1.551   4.313 -1.2899  0.9815  0.6450
 8755SOL    HW237725   0.383   1.533   4.343 -1.6305  1.3410 -2.8114
 8756SOL     OW37726   4.285   4.357  15.605  0.4299  0.0567 -0.0874
 8756SOL    HW137727   4.198   4.394  15.587 -0.1971 -0.2669  2.3608
 8756SOL    HW237728   4.280   4.313  15.690 -1.4622 -1.3277 -0.9191
 8757SOL     OW37729   2.273   1.213  15.905  0.4322  0.2553  0.2057
 8757SOL    HW137730   2.281   1.202  15.811  1.0355 -2.0635  0.5223
 8757SOL    HW237731   2.362   1.246  15.921  1.4378 -2.1689 -0.3888
 8758SOL     OW37732   2.514   0.115   8.245 -0.0690  0.1460  0.4939
 8758SOL    HW137733   2.570   0.065   8.184  0.1884 -1.3110  1.9249
 8758SOL    HW237734   2.520   0.204   8.211  0.6963 -1.2457 -3.0431
 8759SOL     OW37735   0.175   0.180  15.198  0.0066  0.4565  0.4067
 8759SOL    HW137736   0.262   0.189  15.237  0.0534 -1.9800  0.8915
 8759SOL    HW237737   0.184   0.100  15.147  2.5659  2.1628 -1.7715
 8760SOL     OW37738   3.293   2.042  17.107  0.6199 -0.4721  0.6451
 8760SOL    HW137739   3.243   2.012  17.032  0.0764  1.2108  0.3267
 8760SOL    HW237740   3.378   2.041  17.063 -1.0313 -1.2987 -2.5412
 8761SOL     OW37741   3.911   1.263   1.837 -0.1811 -0.4068  0.3665
 8761SOL    HW137742   3.816   1.268   1.846  0.0160  2.5097  0.9506
 8761SOL    HW237743   3.925   1.352   1.871  1.2891 -0.3338 -0.4212
 8762SOL     OW37744   4.442   4.150  14.873 -0.2346  0.2218  0.2215
 8762SOL    HW137745   4.486   4.159  14.958  1.1508  0.0896 -0.4695
 8762SOL    HW237746   4.461   4.057  14.858 -0.4880  0.4152 -1.2914
 8763SOL     OW37747   0.448   2.589  14.154 -0.0735  0.4327  0.5601
 8763SOL    HW137748   0.482   2.666  14.198  0.1080  1.6202 -1.6688
 8763SOL    HW237749   0.482   2.598  14.065  0.1936  1.2895  0.7534
 8764SOL     OW37750   1.700   3.147   4.989 -0.4353  0.0398 -0.5132
 8764SOL    HW137751   1.781   3.105   5.019  1.9805  3.1164 -2.7560
 8764SOL    HW237752   1.687   3.216   5.054  1.1322  0.4859 -0.6723
 8765SOL     OW37753   4.469   4.562  15.523 -0.2593  1.0026 -0.2635
 8765SOL    HW137754   4.506   4.562  15.434  2.2281 -1.4735  0.7986
 8765SOL    HW237755   4.386   4.514  15.520  0.3712 -0.1326  0.9545
 8766SOL     OW37756   0.280   2.871   2.062 -0.4798  0.6134 -0.3436
 8766SOL    HW137757   0.330   2.799   2.024  1.8352  2.4613 -0.7710
 8766SOL    HW237758   0.217   2.886   1.990 -0.3425  1.0621 -0.3696
 8767SOL     OW37759   0.522   2.559   2.852  0.2026 -0.3099 -0.1752
 8767SOL    HW137760   0.488   2.480   2.894  1.6004 -0.7146  0.1738
 8767SOL    HW237761   0.492   2.629   2.910  2.5324 -0.4067  1.1148
 8768SOL     OW37762   3.149   4.020   5.862 -0.4024 -0.0516  0.7254
 8768SOL    HW137763   3.189   4.092   5.911 -0.9490 -0.2649  1.4856
 8768SOL    HW237764   3.175   4.040   5.772  0.2000  0.8714  1.1060
 8769SOL     OW37765   3.914   3.441   4.683  0.1866 -0.1082 -0.2538
 8769SOL    HW137766   3.954   3.380   4.745  1.8717  1.5716  0.3575
 8769SOL    HW237767   3.983   3.455   4.618 -0.1678 -2.8759 -1.2075
 8770SOL     OW37768   1.857   0.470  14.613 -0.2019 -0.0827 -0.0786
 8770SOL    HW137769   1.939   0.501  14.573  1.0157  0.5209  2.8831
 8770SOL    HW237770   1.856   0.501  14.704 -2.4948  0.0971 -0.1612
 8771SOL     OW37771   0.180   4.125   6.398 -0.1561 -0.2813  0.2375
 8771SOL    HW137772   0.184   4.041   6.445  1.7483  0.5164  1.4779
 8771SOL    HW237773   0.171   4.096   6.307  2.5043 -1.9948  0.5358
 8772SOL     OW37774   2.889   1.723   5.861 -0.4214 -0.1815 -0.6324
 8772SOL    HW137775   2.901   1.750   5.952  1.7985 -1.9752 -0.4048
 8772SOL    HW237776   2.950   1.776   5.811 -1.2363  0.3619 -1.0452
 8773SOL     OW37777   0.174   0.171   7.518  0.9338  0.0761  0.5872
 8773SOL    HW137778   0.202   0.210   7.601  2.7072 -1.9914  0.9578
 8773SOL    HW237779   0.095   0.223   7.503 -0.1349 -2.0398 -1.1004
 8774SOL     OW37780   3.807   3.205   3.279  0.3382 -0.1677  0.2080
 8774SOL    HW137781   3.885   3.259   3.267 -0.9859  1.3708 -1.5293
 8774SOL    HW237782   3.803   3.169   3.190  1.5473 -0.7786  0.4012
 8775SOL     OW37783   0.452   2.051   1.440  0.2798 -0.5527  0.2512
 8775SOL    HW137784   0.439   1.963   1.403 -0.5895 -1.0075  1.6266
 8775SOL    HW237785   0.514   2.090   1.379 -0.4857 -2.2423 -1.5958
 8776SOL     OW37786   3.782   4.420   9.405 -0.4848 -0.6835  0.0070
 8776SOL    HW137787   3.843   4.472   9.458 -0.8274  0.1302 -0.3957
 8776SOL    HW237788   3.820   4.333   9.416 -0.3831 -0.4851  1.2072
 8777SOL     OW37789   4.493   4.458   7.843 -0.5894 -0.0623 -0.0632
 8777SOL    HW137790   4.489   4.533   7.783  0.5828 -1.1907 -1.5493
 8777SOL    HW237791   4.429   4.477   7.911 -1.4122 -1.3818 -0.4708
 8778SOL     OW37792   0.080   2.760   3.209  0.1261 -0.2637 -0.2277
 8778SOL    HW137793   0.163   2.796   3.241 -1.4203  1.5157  1.7432
 8778SOL    HW237794   0.031   2.767   3.291  1.0015 -0.1442  0.2828
 8779SOL     OW37795   1.296   1.551  10.562  0.3575  0.5072  0.3785
 8779SOL    HW137796   1.269   1.643  10.560  0.9202  0.6878  1.4498
 8779SOL    HW237797   1.370   1.566  10.502 -0.3357 -1.9677 -1.0588
 8780SOL     OW37798   1.655   0.233  12.548 -0.2259  0.0057  0.1365
 8780SOL    HW137799   1.600   0.270  12.479  1.4409  2.3866  0.0975
 8780SOL    HW237800   1.693   0.154  12.510  0.3545  1.1129 -1.5619
 8781SOL     OW37801   1.298   3.024   5.044 -0.3720 -0.1164 -0.5490
 8781SOL    HW137802   1.357   2.966   5.092 -1.4226 -1.8057 -1.3207
 8781SOL    HW237803   1.351   3.092   5.002  0.8800  0.1693  1.5108
 8782SOL     OW37804   0.561   4.482   5.503 -0.4230  0.4688  0.0180
 8782SOL    HW137805   0.577   4.573   5.476  0.1082 -0.0352 -1.3226
 8782SOL    HW237806   0.518   4.442   5.428  0.6951  0.1921 -0.4623
 8783SOL     OW37807   4.429   2.520  12.752 -0.1835  0.3743  0.5606
 8783SOL    HW137808   4.370   2.450  12.782 -0.7114  0.2311 -0.8190
 8783SOL    HW237809   4.511   2.507  12.799  0.0568  1.3889  0.4170
 8784SOL     OW37810   2.474   0.296  13.799 -0.6666 -0.0719 -0.0408
 8784SOL    HW137811   2.541   0.248  13.846  2.8292  2.3933 -2.4969
 8784SOL    HW237812   2.515   0.306  13.713 -2.6411  0.0836 -0.9829
 8785SOL     OW37813   2.688   0.872   4.813  0.8291 -0.0435  0.1750
 8785SOL    HW137814   2.595   0.853   4.813  0.5744  1.2083  1.3796
 8785SOL    HW237815   2.705   0.862   4.907  1.5384 -2.3187 -0.2048
 8786SOL     OW37816   4.119   4.418  16.201  0.0170  0.1809  0.1330
 8786SOL    HW137817   4.107   4.462  16.116  2.4986 -1.0013 -0.8312
 8786SOL    HW237818   4.046   4.356  16.199  0.1775 -0.0400  1.2731
 8787SOL     OW37819   3.384   3.579  17.248 -0.2968  0.6178  0.3558
 8787SOL    HW137820   3.417   3.612  17.331 -1.4045  2.1429  0.2005
 8787SOL    HW237821   3.429   3.495  17.238 -1.6874 -0.1558  0.6569
 8788SOL     OW37822   3.998   2.219  14.559  0.7191 -0.5679  0.4380
 8788SOL    HW137823   3.970   2.179  14.641 -0.6940 -1.1863 -0.3255
 8788SOL    HW237824   4.008   2.139  14.507  0.0469  0.7318 -1.7187
 8789SOL     OW37825   1.696   1.939   4.990  0.5355 -0.1023 -0.8521
 8789SOL    HW137826   1.718   1.881   4.918  2.4406 -0.2689 -0.1534
 8789SOL    HW237827   1.651   2.003   4.936  1.5669  0.0735 -1.4916
 8790SOL     OW37828   4.011   2.667   9.486  0.6229  0.0318 -0.1293
 8790SOL    HW137829   3.933   2.613   9.491 -1.2340  2.8175  0.9261
 8790SOL    HW237830   4.083   2.605   9.501 -2.1107 -3.1868 -0.4539
 8791SOL     OW37831   4.184   1.539  10.765  1.0043  0.0468 -0.2971
 8791SOL    HW137832   4.132   1.495  10.697  1.0898 -0.7037  0.1329
 8791SOL    HW237833   4.243   1.478  10.808  1.3996  2.4573  2.5774
 8792SOL     OW37834   4.684   0.222  11.447  0.4420 -0.0719  0.1525
 8792SOL    HW137835   4.629   0.245  11.373 -1.4627 -2.4602  0.8151
 8792SOL    HW237836   4.644   0.275  11.516 -0.2564 -0.1938 -0.1626
 8793SOL     OW37837   1.586   3.594   4.112 -0.3058 -0.9616 -0.5975
 8793SOL    HW137838   1.551   3.514   4.073 -0.4767 -1.1023 -0.1512
 8793SOL    HW237839   1.556   3.596   4.203  1.2692 -1.0949 -0.0691
 8794SOL     OW37840   1.145   0.091   4.615 -0.1150  0.1278  0.9716
 8794SOL    HW137841   1.106   0.153   4.676  1.3045  0.8915  1.0757
 8794SOL    HW237842   1.187   0.156   4.559 -2.2286  1.5574  1.0516
 8795SOL     OW37843   3.313   2.783  15.695  0.5380  0.3333 -0.2632
 8795SOL    HW137844   3.320   2.720  15.624 -1.4687  0.4873 -0.6055
 8795SOL    HW237845   3.236   2.742  15.735 -0.3956  1.2495 -1.1133
 8796SOL     OW37846   3.774   0.534  17.299  0.3522  0.3920  0.0714
 8796SOL    HW137847   3.868   0.547  17.293  0.3971 -0.2724 -0.6859
 8796SOL    HW237848   3.781   0.498  17.387 -0.5262  0.9444  0.3763
 8797SOL     OW37849   3.260   3.160  14.875 -0.0319  0.2080  0.5096
 8797SOL    HW137850   3.227   3.075  14.905 -0.7205  0.3520  0.1739
 8797SOL    HW237851   3.353   3.141  14.870 -0.0944 -0.9148  3.3651
 8798SOL     OW37852   0.264   1.035   5.049 -0.3995  0.3909 -0.2859
 8798SOL    HW137853   0.336   1.098   5.054  1.0395 -1.2700 -0.3502
 8798SOL    HW237854   0.267   1.020   4.954  0.9218  0.3962 -0.2470
 8799SOL     OW37855   3.617   4.474  13.265  0.0960  0.7709  0.3705
 8799SOL    HW137856   3.540   4.531  13.269 -1.2987 -0.9925 -1.3501
 8799SOL    HW237857   3.591   4.397  13.315 -1.9285  0.6707 -0.8526
 8800SOL     OW37858   1.163   3.489  16.566 -0.0951 -0.0087 -0.8775
 8800SOL    HW137859   1.103   3.445  16.625 -0.7602 -1.3600 -2.5554
 8800SOL    HW237860   1.130   3.463  16.480  2.0883 -1.1470 -1.3956
 8801SOL     OW37861   2.285   2.063   1.203 -0.3353 -0.2963 -0.5473
 8801SOL    HW137862   2.284   2.146   1.157  1.2838  0.4179  0.7147
 8801SOL    HW237863   2.322   2.082   1.289 -2.3760  1.0853  0.0352
 8802SOL     OW37864   2.088   4.605   5.018 -0.4261 -0.3841 -0.4090
 8802SOL    HW137865   2.044   4.553   4.951 -0.1233  1.0783 -1.7658
 8802SOL    HW237866   2.032   4.609   5.095 -0.6969  1.0382 -0.6843
 8803SOL     OW37867   3.168   2.100   4.110  0.5603 -0.1981  0.4857
 8803SOL    HW137868   3.095   2.092   4.049  1.3884 -1.8073 -0.2721
 8803SOL    HW237869   3.170   2.013   4.149 -0.3474  0.7265  2.5822
 8804SOL     OW37870   2.183   2.817  12.372 -0.4318  0.0079 -0.4344
 8804SOL    HW137871   2.177   2.884  12.304  0.5186 -0.3683 -0.8830
 8804SOL    HW237872   2.277   2.816  12.388 -0.1409  0.1601 -2.1544
 8805SOL     OW37873   0.543   0.052   9.680 -0.3037 -0.0300  0.2583
 8805SOL    HW137874   0.568   0.049   9.588 -4.4102 -0.6651 -0.8518
 8805SOL    HW237875   0.632   0.070   9.712  0.0068 -0.4128 -0.4049
 8806SOL     OW37876   0.316   2.191  11.445 -0.8801 -0.2439  0.2842
 8806SOL    HW137877   0.270   2.218  11.524 -1.3103 -0.1934  0.0192
 8806SOL    HW237878   0.309   2.277  11.403 -0.8384 -1.2335 -1.7736
 8807SOL     OW37879   3.578   0.649  15.951 -0.6727 -1.0172 -0.1528
 8807SOL    HW137880   3.488   0.659  15.920 -0.9363  1.5601  1.4662
 8807SOL    HW237881   3.618   0.609  15.874 -0.0160  2.5790 -1.6790
 8808SOL     OW37882   4.054   3.038  10.696  0.8839 -0.0037  0.4858
 8808SOL    HW137883   4.092   3.093  10.627  0.7317  0.4494  0.7616
 8808SOL    HW237884   4.066   2.957  10.647 -0.9849 -0.8160  1.4000
 8809SOL     OW37885   0.525   2.554   6.891  0.1011  0.1315 -0.5296
 8809SOL    HW137886   0.483   2.510   6.817 -1.3188  1.4809 -0.5226
 8809SOL    HW237887   0.476   2.636   6.901  1.3817  0.6722  1.2927
 8810SOL     OW37888   4.364   2.633   2.536 -0.5339 -0.1147  0.3250
 8810SOL    HW137889   4.364   2.719   2.494 -3.0299 -0.6323 -0.7182
 8810SOL    HW237890   4.359   2.568   2.466  1.1847 -0.0267  0.1097
 8811SOL     OW37891   0.257   4.190  10.828  0.5048 -0.1346 -0.3645
 8811SOL    HW137892   0.200   4.260  10.859  4.0047  1.2045  3.0347
 8811SOL    HW237893   0.194   4.118  10.834  0.2315  0.2070  0.8549
 8812SOL     OW37894   0.613   3.760  11.023  0.0753  0.4727  0.4340
 8812SOL    HW137895   0.587   3.736  11.112  0.3846 -1.4949 -0.0063
 8812SOL    HW237896   0.596   3.677  10.977  1.5990 -0.0641  0.8497
 8813SOL     OW37897   2.092   1.607   1.205 -0.0253  0.1949 -0.0729
 8813SOL    HW137898   2.057   1.586   1.119  2.4125  2.0327 -1.4850
 8813SOL    HW237899   2.183   1.623   1.180  0.6152  1.6803  3.1974
 8814SOL     OW37900   0.432   0.274   9.168  0.1616  0.1216 -0.1884
 8814SOL    HW137901   0.409   0.365   9.187 -0.4549 -0.2798  1.0063
 8814SOL    HW237902   0.412   0.227   9.249  0.5455  0.0011 -0.1648
 8815SOL     OW37903   1.811   1.582   6.907  0.7152 -0.0335  0.1075
 8815SOL    HW137904   1.789   1.515   6.971  2.9879 -3.0620 -2.2758
 8815SOL    HW237905   1.758   1.655   6.937  0.8388 -0.3622  1.1244
 8816SOL     OW37906   3.205   2.635   2.581 -0.4057 -0.2156  0.1280
 8816SOL    HW137907   3.112   2.641   2.605 -0.3075 -2.0916  1.0051
 8816SOL    HW237908   3.204   2.668   2.491  0.6755  2.4208  1.0856
 8817SOL     OW37909   0.829   1.189   4.270  0.1724 -0.1647  0.4089
 8817SOL    HW137910   0.854   1.171   4.361 -1.8966 -2.2220  0.5458
 8817SOL    HW237911   0.741   1.152   4.269  0.6861 -1.3862  0.4229
 8818SOL     OW37912   0.244   1.145   7.721  0.4276 -0.1233  0.1612
 8818SOL    HW137913   0.184   1.220   7.733 -0.0388 -0.1119 -2.2529
 8818SOL    HW237914   0.327   1.170   7.761 -0.0475  0.0140  1.0730
 8819SOL     OW37915   0.433   4.461  14.711 -0.2868  0.5886 -0.0853
 8819SOL    HW137916   0.349   4.499  14.683 -1.5884 -1.3530  1.2238
 8819SOL    HW237917   0.435   4.374  14.672 -0.1436  1.5312 -2.2249
 8820SOL     OW37918   4.434   2.764   4.050 -0.4802 -0.0351  0.5953
 8820SOL    HW137919   4.494   2.696   4.081 -0.8690 -0.9199 -0.5828
 8820SOL    HW237920   4.440   2.740   3.957  3.7481  0.6014  0.7174
 8821SOL     OW37921   3.718   2.393   1.283  0.1594  0.0148 -0.4234
 8821SOL    HW137922   3.775   2.423   1.354 -0.5663 -2.5501  1.2452
 8821SOL    HW237923   3.630   2.425   1.303 -1.2808 -3.7473 -0.7390
 8822SOL     OW37924   1.090   2.377   6.644 -0.1482 -0.2855  0.7378
 8822SOL    HW137925   1.001   2.404   6.666  0.0872  1.6661 -0.6683
 8822SOL    HW237926   1.137   2.412   6.720 -2.2930  0.0972  1.8938
 8823SOL     OW37927   0.346   1.566   6.208 -0.0629  0.1569  0.0208
 8823SOL    HW137928   0.427   1.616   6.201  0.6073 -1.2288 -2.3537
 8823SOL    HW237929   0.308   1.585   6.122 -1.3665  0.5039  0.6824
 8824SOL     OW37930   3.554   2.713  10.763 -0.0797  0.0051  0.6023
 8824SOL    HW137931   3.593   2.629  10.739  0.8998  1.0326 -1.3872
 8824SOL    HW237932   3.594   2.763  10.693 -0.4232  0.5902  0.8286
 8825SOL     OW37933   3.273   0.341   6.744 -0.7960  1.0159  0.4786
 8825SOL    HW137934   3.290   0.382   6.659 -3.7992 -0.7534 -0.9545
 8825SOL    HW237935   3.299   0.412   6.803 -0.4489  1.1265  0.1944
 8826SOL     OW37936   1.908   0.900  16.412 -0.0138 -0.2706 -0.2028
 8826SOL    HW137937   1.972   0.844  16.368 -0.6779 -0.2089 -1.2243
 8826SOL    HW237938   1.834   0.844  16.390  1.2298 -1.8228 -0.5003
 8827SOL     OW37939   1.802   2.339   8.718  0.1911 -0.5211 -0.7138
 8827SOL    HW137940   1.759   2.339   8.633  1.0251  0.0023 -1.1386
 8827SOL    HW237941   1.740   2.402   8.757  0.4364 -0.6089 -0.1780
 8828SOL     OW37942   0.414   0.612   2.500 -0.3237  0.0430  0.0418
 8828SOL    HW137943   0.412   0.518   2.520 -2.1310 -0.3415 -2.0236
 8828SOL    HW237944   0.418   0.604   2.405  1.9957  2.2367 -0.0383
 8829SOL     OW37945   4.203   3.698   8.346  0.1579 -0.2521  0.6748
 8829SOL    HW137946   4.277   3.690   8.406  3.2414  0.4959 -3.0195
 8829SOL    HW237947   4.241   3.737   8.267 -1.5639  1.2652  0.5907
 8830SOL     OW37948   0.598   1.363   5.593 -0.9737  0.5843 -0.1263
 8830SOL    HW137949   0.609   1.455   5.616  1.3994 -0.2906  2.1444
 8830SOL    HW237950   0.652   1.328   5.663 -1.5238 -0.8670 -0.4210
 8831SOL     OW37951   0.040   3.782   9.176  0.5114 -0.3525 -0.1134
 8831SOL    HW137952   4.715   3.729   9.113  2.3198 -0.1220 -1.6953
 8831SOL    HW237953   0.121   3.788   9.126  0.5069  0.2593 -0.0468
 8832SOL     OW37954   4.130   1.312   0.263  0.1419 -0.5875  0.0445
 8832SOL    HW137955   4.135   1.279   0.353  0.9729 -2.2281 -0.5969
 8832SOL    HW237956   4.216   1.351   0.248  0.1493  0.1656  2.0698
 8833SOL     OW37957   3.424   2.206   5.807 -0.8798  0.3501 -0.1521
 8833SOL    HW137958   3.511   2.238   5.827 -0.7947 -0.8395  1.3611
 8833SOL    HW237959   3.373   2.286   5.817 -1.8916 -0.2564 -0.4084
 8834SOL     OW37960   4.384   0.614  15.527  0.5123 -0.1400  0.7517
 8834SOL    HW137961   4.460   0.561  15.502 -0.3551 -0.2148 -1.7383
 8834SOL    HW237962   4.421   0.699  15.506 -0.4758 -0.0310 -0.5995
 8835SOL     OW37963   0.107   3.637   8.243 -0.0761 -0.0655 -0.2601
 8835SOL    HW137964   0.152   3.625   8.327  0.2680  0.8341 -0.3099
 8835SOL    HW237965   0.087   3.548   8.214 -0.3996 -0.4042  0.9884
 8836SOL     OW37966   3.072   1.009   6.716  0.4280 -0.2858  0.0279
 8836SOL    HW137967   3.120   0.942   6.667 -0.5870 -2.3930  1.8681
 8836SOL    HW237968   3.108   1.089   6.680 -0.0573  0.1118  0.4250
 8837SOL     OW37969   0.907   4.109   2.228  0.1870  0.4160  0.2328
 8837SOL    HW137970   0.851   4.173   2.185 -1.3776 -0.3479  1.1392
 8837SOL    HW237971   0.988   4.159   2.234 -0.5629  1.5669  0.8473
 8838SOL     OW37972   3.030   0.634  12.945 -0.5163  0.0008 -0.3595
 8838SOL    HW137973   3.091   0.669  12.880 -0.0561  3.2341  1.8045
 8838SOL    HW237974   2.950   0.624  12.894 -2.0781 -1.4154  2.3446
 8839SOL     OW37975   0.509   4.200   2.779  0.0407  0.3753 -0.2467
 8839SOL    HW137976   0.517   4.159   2.865  0.6312 -2.0005 -1.4297
 8839SOL    HW237977   0.415   4.185   2.765 -0.0569  1.3810 -0.6753
 8840SOL     OW37978   3.728   1.487   5.180  0.0506 -0.7615 -0.2099
 8840SOL    HW137979   3.693   1.534   5.256  0.9966 -0.3605 -0.0117
 8840SOL    HW237980   3.681   1.404   5.180 -0.5921 -0.4118  3.1149
 8841SOL     OW37981   0.961   2.671  11.393  0.1222 -0.0795 -0.0798
 8841SOL    HW137982   0.965   2.587  11.439 -1.6897 -0.1141  0.0033
 8841SOL    HW237983   0.946   2.656  11.300 -1.4467 -0.8553  0.2909
 8842SOL     OW37984   1.535   2.774  15.541  0.0421 -0.3672  0.1817
 8842SOL    HW137985   1.534   2.755  15.635 -0.6928 -0.3747  0.1715
 8842SOL    HW237986   1.453   2.820  15.522  0.1890 -0.0075  0.4144
 8843SOL     OW37987   3.574   3.342   6.688  0.2466  0.6408 -0.2734
 8843SOL    HW137988   3.558   3.423   6.735  1.9639  0.2323  1.0418
 8843SOL    HW237989   3.655   3.368   6.645  1.0646 -1.4262  0.0021
 8844SOL     OW37990   2.902   1.378   6.113  0.0658 -0.0199  0.3361
 8844SOL    HW137991   2.963   1.446   6.142  1.4887 -1.3533  0.4695
 8844SOL    HW237992   2.829   1.433   6.083 -2.6176 -3.6099  0.3027
 8845SOL     OW37993   0.252   1.470   2.529 -0.0654 -0.3898 -0.0996
 8845SOL    HW137994   0.227   1.378   2.540 -1.4346 -0.1252 -1.0479
 8845SOL    HW237995   0.273   1.503   2.616 -2.8564  0.8696  0.0934
 8846SOL     OW37996   4.592   3.917   5.629  0.7871 -0.5392 -0.1327
 8846SOL    HW137997   4.590   3.870   5.546 -0.2729  0.2851 -0.5705
 8846SOL    HW237998   4.513   3.880   5.669  0.4105 -0.3288 -0.6875
 8847SOL     OW37999   0.748   3.321   5.197 -0.4001  0.2424 -0.2049
 8847SOL    HW138000   0.784   3.409   5.190  0.9666 -0.0986  2.2881
 8847SOL    HW238001   0.654   3.330   5.217  0.1607  0.9015  2.2122
 8848SOL     OW38002   0.148   2.531   7.652 -0.3969 -0.2976 -0.4694
 8848SOL    HW138003   0.119   2.511   7.563 -0.7464 -1.4814 -0.1001
 8848SOL    HW238004   0.071   2.514   7.706  0.0735 -0.4618  0.1567
 8849SOL     OW38005   2.969   1.445  14.753  0.4585  0.0724  0.1287
 8849SOL    HW138006   3.049   1.409  14.792  1.3751  0.0573 -1.7584
 8849SOL    HW238007   2.941   1.361  14.715  0.5380 -0.7770  1.9436
 8850SOL     OW38008   2.288   1.911   7.706 -0.0591  0.3957  0.0966
 8850SOL    HW138009   2.318   2.001   7.719 -3.9482  1.9242 -1.5375
 8850SOL    HW238010   2.273   1.884   7.797 -0.1098  1.3610  0.3719
 8851SOL     OW38011   3.894   3.936   7.139 -0.1702  0.3714 -0.6371
 8851SOL    HW138012   3.932   3.947   7.227 -1.7593 -1.6277  0.2987
 8851SOL    HW238013   3.977   3.938   7.092  1.1094  0.8722  1.6048
 8852SOL     OW38014   1.112   1.572  15.341 -0.1389 -0.0598  0.6123
 8852SOL    HW138015   1.064   1.491  15.323 -1.9476  0.5807  2.5975
 8852SOL    HW238016   1.123   1.602  15.251 -0.5348  0.6340  0.8041
 8853SOL     OW38017   1.349   1.725  14.069  0.0977  0.2622 -0.4486
 8853SOL    HW138018   1.257   1.746  14.083  0.6256  1.9769  0.4618
 8853SOL    HW238019   1.357   1.650  14.128  1.1359  1.1606  0.5544
 8854SOL     OW38020   2.579   1.185   2.616  0.5174  0.0228  0.2549
 8854SOL    HW138021   2.573   1.096   2.582  1.6120  0.9174 -2.2553
 8854SOL    HW238022   2.609   1.165   2.704 -0.7073  0.7180  0.8387
 8855SOL     OW38023   2.735   0.699   7.262 -0.2907 -0.2995 -0.6228
 8855SOL    HW138024   2.723   0.605   7.276  1.6094 -0.3567  0.7584
 8855SOL    HW238025   2.830   0.712   7.265 -0.3245  0.3489 -2.5349
 8856SOL     OW38026   0.843   2.988   8.606 -0.2109  0.0354  0.0409
 8856SOL    HW138027   0.748   2.981   8.603 -0.2979  0.8140  0.9661
 8856SOL    HW238028   0.860   2.973   8.699 -0.2547  2.2328  0.3966
 8857SOL     OW38029   4.352   2.437   7.791 -0.0164 -0.5110 -0.7273
 8857SOL    HW138030   4.390   2.524   7.791  0.7910 -0.8550 -2.2295
 8857SOL    HW238031   4.274   2.450   7.846 -0.0413  0.8335 -1.0884
 8858SOL     OW38032   0.351   3.721   0.371 -0.1215  0.2626 -0.5003
 8858SOL    HW138033   0.380   3.787   0.308  1.3376  1.2766  1.2329
 8858SOL    HW238034   0.399   3.643   0.345  0.6740  1.0831 -1.4871
 8859SOL     OW38035   2.935   0.842   5.673 -0.3918 -0.2590  0.0237
 8859SOL    HW138036   3.020   0.879   5.648 -2.0860  1.8183 -2.5454
 8859SOL    HW238037   2.868   0.906   5.654 -0.6049 -0.8101 -1.0491
 8860SOL     OW38038   0.534   1.222   9.045 -0.2396  0.0052  0.1506
 8860SOL    HW138039   0.608   1.163   9.029 -0.4688  0.3729 -2.3268
 8860SOL    HW238040   0.529   1.262   8.958  1.0001 -0.3751 -0.0947
 8861SOL     OW38041   4.515   3.899   8.398  0.6159  0.6923  0.1075
 8861SOL    HW138042   4.553   3.905   8.486  1.3927  1.5385 -0.2825
 8861SOL    HW238043   4.480   3.810   8.392  0.8907  0.6053 -0.2443
 8862SOL     OW38044   1.531   4.436   0.818  0.1252 -0.1061  0.2535
 8862SOL    HW138045   1.517   4.530   0.822 -0.0097 -0.2094  2.1099
 8862SOL    HW238046   1.626   4.427   0.805  0.2843 -0.8274  1.9286
 8863SOL     OW38047   1.173   0.165   3.797  0.2323 -0.8588 -0.6846
 8863SOL    HW138048   1.159   0.234   3.732  2.1021 -2.3227 -2.6457
 8863SOL    HW238049   1.237   0.208   3.854 -1.5786  1.5661 -0.4985
 8864SOL     OW38050   1.927   3.315  11.515  0.4839 -0.2568  0.0065
 8864SOL    HW138051   2.021   3.329  11.504  0.6966 -0.7924  1.0903
 8864SOL    HW238052   1.909   3.367  11.593  1.0290  0.0220 -0.0599
 8865SOL     OW38053   1.158   1.462   4.195 -0.0359  0.1070 -0.3910
 8865SOL    HW138054   1.181   1.369   4.203  1.8504  0.5090 -1.0479
 8865SOL    HW238055   1.242   1.508   4.189  0.9651 -1.5684  0.7175
 8866SOL     OW38056   0.521   2.875   6.382  0.4776  0.1971 -0.5568
 8866SOL    HW138057   0.551   2.804   6.439 -0.0733 -0.7187 -1.4141
 8866SOL    HW238058   0.606   2.905   6.352  0.4995  2.2038  1.4643
 8867SOL     OW38059   3.723   0.880   4.412  0.3357 -0.0099  0.0909
 8867SOL    HW138060   3.762   0.967   4.417  2.5255 -1.0375  0.6209
 8867SOL    HW238061   3.705   0.867   4.505 -0.4372 -0.2742 -0.0923
 8868SOL     OW38062   0.271   2.280   8.451  0.1376 -0.0909  0.2500
 8868SOL    HW138063   0.280   2.375   8.457 -0.7218 -0.1740  2.7304
 8868SOL    HW238064   0.223   2.272   8.368 -1.2142 -1.8042  1.1976
 8869SOL     OW38065   1.678   0.436   3.321 -0.3498  0.2707 -0.0760
 8869SOL    HW138066   1.617   0.396   3.260  2.9298 -1.9108 -1.9505
 8869SOL    HW238067   1.766   0.437   3.281 -0.0275  1.0143  0.6462
 8870SOL     OW38068   1.973   2.622   2.925  0.0439 -0.4371 -0.1728
 8870SOL    HW138069   2.027   2.582   2.857 -0.2975 -0.2984 -0.5238
 8870SOL    HW238070   2.030   2.695   2.952  1.2967 -1.3459 -0.3704
 8871SOL     OW38071   4.111   3.818   4.528  0.1748 -0.1986 -0.5557
 8871SOL    HW138072   4.091   3.727   4.549 -0.3863  0.1213  0.3194
 8871SOL    HW238073   4.110   3.859   4.614  0.6630  0.2420 -0.7547
 8872SOL     OW38074   3.105   3.634   0.138  0.4527  0.2763 -0.1543
 8872SOL    HW138075   3.057   3.562   0.099  0.2850  0.2215  0.1519
 8872SOL    HW238076   3.039   3.703   0.145 -1.3266 -1.5300  0.9187
 8873SOL     OW38077   3.656   2.907   7.343 -0.1054  0.5526  0.3528
 8873SOL    HW138078   3.730   2.957   7.309 -0.0866  0.9340  0.9471
 8873SOL    HW238079   3.583   2.923   7.284  0.4416 -1.2953 -0.8185
 8874SOL     OW38080   1.892   1.055   2.112  0.0350 -0.4873 -0.4870
 8874SOL    HW138081   1.886   0.976   2.058 -1.2469 -2.3145  2.3163
 8874SOL    HW238082   1.808   1.101   2.109 -0.3655 -1.0802  1.6916
 8875SOL     OW38083   1.797   3.018   4.482 -0.8201 -0.2362  0.3619
 8875SOL    HW138084   1.845   2.957   4.537 -3.9710 -1.7736  1.4232
 8875SOL    HW238085   1.723   2.965   4.453 -0.3934 -1.5376  1.6808
 8876SOL     OW38086   0.902   0.238  14.175 -0.0004 -0.3591 -0.2479
 8876SOL    HW138087   0.870   0.281  14.254 -0.1896  1.1530 -1.1516
 8876SOL    HW238088   0.866   0.152  14.195 -0.6701  0.3308  1.4651
 8877SOL     OW38089   0.521   3.648   3.999 -0.0944  0.8957  0.1882
 8877SOL    HW138090   0.528   3.638   3.904 -0.2647  1.9222  0.0678
 8877SOL    HW238091   0.582   3.584   4.036 -1.5782 -0.6709 -0.0854
 8878SOL     OW38092   0.426   1.378   6.014 -0.3278  0.3915  0.1360
 8878SOL    HW138093   0.434   1.414   6.102  0.0955 -0.1856  0.3351
 8878SOL    HW238094   0.404   1.458   5.966 -1.7504  0.8963  1.6224
 8879SOL     OW38095   1.937   4.567  14.448 -0.3414 -0.5131 -0.4477
 8879SOL    HW138096   1.952   4.492  14.505 -0.9246 -0.0432  0.3172
 8879SOL    HW238097   1.845   4.561  14.422 -0.8614 -2.0984  1.7186
 8880SOL     OW38098   3.807   2.201   6.574  0.3848  0.1672 -0.2348
 8880SOL    HW138099   3.740   2.179   6.638 -0.1247  1.0512 -0.4622
 8880SOL    HW238100   3.793   2.295   6.569 -1.6549 -0.1409 -0.3349
 8881SOL     OW38101   3.263   2.379  12.753 -0.1840 -0.4200  0.2569
 8881SOL    HW138102   3.266   2.284  12.737  0.8971  0.0075 -2.0964
 8881SOL    HW238103   3.352   2.408  12.731 -0.0594 -1.4977 -0.6496
 8882SOL     OW38104   1.876   0.842  17.467  0.0951  0.2856  0.2122
 8882SOL    HW138105   1.945   0.806  17.522  0.1148 -1.2114 -0.8234
 8882SOL    HW238106   1.838   0.908  17.525 -0.1764  1.0480 -0.8353
 8883SOL     OW38107   4.556   2.045   0.893 -0.0956  0.7248  0.1555
 8883SOL    HW138108   4.494   1.983   0.931  0.7887  0.1073  0.5943
 8883SOL    HW238109   4.577   2.095   0.972  0.4050 -0.7646  0.9672
 8884SOL     OW38110   3.040   4.392   9.518  0.2325  0.3026  0.4966
 8884SOL    HW138111   3.096   4.450   9.466  3.0049 -2.1107  0.7773
 8884SOL    HW238112   2.965   4.382   9.459  0.4732  0.4055  0.1739
 8885SOL     OW38113   1.591   1.947   3.524  0.2581 -0.5614 -0.6516
 8885SOL    HW138114   1.672   1.896   3.526  0.1777 -0.6368  0.7173
 8885SOL    HW238115   1.552   1.935   3.610 -0.0929 -1.4215 -0.9297
 8886SOL     OW38116   0.499   1.752   3.660 -0.4688 -0.5355  0.1201
 8886SOL    HW138117   0.442   1.780   3.588  0.7053  1.0830 -0.1935
 8886SOL    HW238118   0.458   1.669   3.684 -1.0645 -0.3438 -0.2252
 8887SOL     OW38119   1.363   0.633   8.436  0.3159  0.1023 -0.6383
 8887SOL    HW138120   1.383   0.540   8.446 -2.7089 -0.5430 -0.7331
 8887SOL    HW238121   1.441   0.674   8.398  0.2769  1.6627  0.9803
 8888SOL     OW38122   2.991   0.827   7.586  0.2890 -0.8279  0.4131
 8888SOL    HW138123   3.041   0.787   7.657 -1.4402 -1.1473  1.4589
 8888SOL    HW238124   2.944   0.755   7.543  0.7125 -0.3243 -0.8972
 8889SOL     OW38125   1.614   1.808   2.316 -0.0139 -0.2825 -0.0289
 8889SOL    HW138126   1.664   1.774   2.389  1.0663 -1.3799 -1.2874
 8889SOL    HW238127   1.574   1.732   2.272 -0.5167  0.3905 -0.7360
 8890SOL     OW38128   3.171   3.533  16.690 -0.4781 -0.5046  0.0372
 8890SOL    HW138129   3.097   3.473  16.694  0.7080 -1.9577  0.1068
 8890SOL    HW238130   3.218   3.478  16.627  0.9668  2.0495 -1.1239
 8891SOL     OW38131   3.768   4.190   3.679 -0.1130 -0.1425  0.2125
 8891SOL    HW138132   3.783   4.131   3.752 -2.4903  1.5510  2.0799
 8891SOL    HW238133   3.768   4.277   3.720  0.2181 -0.4271  0.8078
 8892SOL     OW38134   1.415   4.370  10.955 -0.1158 -0.2045  0.3111
 8892SOL    HW138135   1.446   4.373  11.045 -1.6861  1.5460  0.8113
 8892SOL    HW238136   1.398   4.277  10.945 -1.2754  0.0751 -0.4131
 8893SOL     OW38137   2.672   3.312  11.579 -0.0716  0.2354 -0.0905
 8893SOL    HW138138   2.730   3.269  11.516 -0.4138  0.5631 -0.6290
 8893SOL    HW238139   2.725   3.372  11.631  0.7859 -0.6876  0.1167
 8894SOL     OW38140   3.220   1.798   7.719 -0.0299 -0.0974 -0.2492
 8894SOL    HW138141   3.181   1.765   7.638  0.8745 -0.1140 -0.6779
 8894SOL    HW238142   3.144   1.811   7.774  0.8587 -0.1582  0.9889
 8895SOL     OW38143   1.315   2.749   5.227  0.3398  0.5295 -0.2977
 8895SOL    HW138144   1.313   2.655   5.248  1.2861  0.7437  0.7041
 8895SOL    HW238145   1.284   2.747   5.136 -1.3525  0.7583  0.2669
 8896SOL     OW38146   1.230   3.883  13.071  0.3646  0.5093  0.0032
 8896SOL    HW138147   1.317   3.923  13.068  0.3773  0.4201 -0.8032
 8896SOL    HW238148   1.175   3.958  13.093  1.2180  0.8264  1.0501
 8897SOL     OW38149   1.852   3.428   4.956  0.4494  0.1670  0.0179
 8897SOL    HW138150   1.812   3.492   5.015 -0.3694 -0.9444  0.6454
 8897SOL    HW238151   1.773   3.407   4.906 -0.4876  2.4245  0.5337
 8898SOL     OW38152   0.366   0.666   6.860 -0.4489 -0.2531 -0.1951
 8898SOL    HW138153   0.409   0.617   6.930  1.2684 -0.7563 -1.5930
 8898SOL    HW238154   0.437   0.705   6.808  0.5306 -1.3531  0.3062
 8899SOL     OW38155   2.564   3.631   7.070 -0.2647  0.0101 -0.3811
 8899SOL    HW138156   2.650   3.654   7.033 -0.2409 -1.2640 -1.1265
 8899SOL    HW238157   2.583   3.673   7.154  0.3739 -0.7172 -0.1600
 8900SOL     OW38158   1.463   4.549   3.746  0.3105  0.1718 -0.0461
 8900SOL    HW138159   1.550   4.521   3.718  2.1213  2.8615  2.8711
 8900SOL    HW238160   1.425   4.483   3.804 -1.7032  1.1837 -0.2143
 8901SOL     OW38161   2.142   4.178   3.867 -0.3591  0.2397  0.2781
 8901SOL    HW138162   2.200   4.156   3.794 -2.3554 -1.9082 -0.6845
 8901SOL    HW238163   2.146   4.094   3.911 -1.4476 -0.0055 -0.0745
 8902SOL     OW38164   3.704   2.742  14.570  0.6383 -0.3192 -0.4269
 8902SOL    HW138165   3.677   2.752  14.661  1.9987  0.5668 -0.1239
 8902SOL    HW238166   3.697   2.646  14.563  0.1622 -0.2029 -1.7076
 8903SOL     OW38167   3.390   3.552   8.623  0.7836 -0.5031 -0.4360
 8903SOL    HW138168   3.313   3.580   8.673 -0.0525 -0.5655 -1.7083
 8903SOL    HW238169   3.364   3.463   8.599 -1.2718 -0.5844  1.9460
 8904SOL     OW38170   0.860   2.261   3.717 -0.2894 -0.5356 -0.6822
 8904SOL    HW138171   0.897   2.263   3.805  1.0199  1.8899 -1.2819
 8904SOL    HW238172   0.941   2.250   3.668  1.1076 -0.1943  1.5440
 8905SOL     OW38173   1.892   4.129   2.567  0.7834 -0.4086  0.1699
 8905SOL    HW138174   1.839   4.057   2.533  0.1064  0.4037 -0.4909
 8905SOL    HW238175   1.934   4.160   2.486 -0.1452 -1.7000 -0.8014
 8906SOL     OW38176   2.318   3.061  11.836  0.7349  0.1332 -0.2474
 8906SOL    HW138177   2.256   2.990  11.824 -1.1656  1.4933  1.4298
 8906SOL    HW238178   2.393   3.021  11.880  1.0340  0.8252 -0.1308
 8907SOL     OW38179   1.464   0.237   1.798 -0.1446  0.9431  0.2256
 8907SOL    HW138180   1.410   0.205   1.726  1.3540 -0.3606 -0.2988
 8907SOL    HW238181   1.398   0.284   1.850  0.5044  3.8242 -1.5452
 8908SOL     OW38182   4.213   4.389   6.444  0.1522  0.2140  0.5894
 8908SOL    HW138183   4.138   4.331   6.430 -0.3367  0.5858  1.7091
 8908SOL    HW238184   4.277   4.325   6.475  0.7751 -0.2205 -1.5295
 8909SOL     OW38185   2.798   3.985   6.815 -0.0577  0.1975  0.4527
 8909SOL    HW138186   2.823   4.070   6.853  1.5209 -0.3840  0.7077
 8909SOL    HW238187   2.728   3.959   6.875 -1.0607  1.4670 -0.1636
 8910SOL     OW38188   2.311   2.036   5.784 -0.5587 -0.0567  0.2017
 8910SOL    HW138189   2.365   2.009   5.858 -0.9019  1.6699  1.0663
 8910SOL    HW238190   2.242   1.972   5.799  0.6336 -0.5192  3.7096
 8911SOL     OW38191   2.441   0.089  10.716 -0.0731 -0.0615 -0.5645
 8911SOL    HW138192   2.422   0.107  10.808  1.4687  1.5343 -0.5663
 8911SOL    HW238193   2.531   0.121  10.709 -0.0561 -0.0493 -0.2856
 8912SOL     OW38194   0.511   2.436  16.944 -0.6107  0.2867  0.2181
 8912SOL    HW138195   0.419   2.462  16.951 -0.4646  0.8623  0.0172
 8912SOL    HW238196   0.491   2.343  16.940  0.5498  0.1143 -1.5621
 8913SOL     OW38197   1.115   2.014  14.307 -0.1862  0.2117 -0.4390
 8913SOL    HW138198   1.028   2.053  14.302 -0.5884 -0.5052  1.1799
 8913SOL    HW238199   1.105   1.937  14.251 -1.1125 -0.3892  0.5574
 8914SOL     OW38200   3.552   2.377  12.959  0.1414  0.9204  0.1969
 8914SOL    HW138201   3.509   2.428  12.891 -0.2644  2.4221  1.5861
 8914SOL    HW238202   3.646   2.387  12.941  0.1951  0.6588  0.3270
 8915SOL     OW38203   1.159   1.061   0.329 -0.0115  0.1930  0.0830
 8915SOL    HW138204   1.136   1.148   0.295  0.6187 -0.1832 -1.2870
 8915SOL    HW238205   1.091   1.058   0.396  0.1526 -2.6434  0.0979
 8916SOL     OW38206   1.423   3.276   8.483  0.0123  0.0197 -0.0018
 8916SOL    HW138207   1.425   3.196   8.536 -0.0396  0.4296  0.6132
 8916SOL    HW238208   1.334   3.267   8.449 -0.8592  2.0655  1.8414
 8917SOL     OW38209   2.728   0.269   5.243  0.2653 -0.0756 -0.5274
 8917SOL    HW138210   2.683   0.196   5.286  0.3115  1.2631  1.8072
 8917SOL    HW238211   2.764   0.233   5.162 -0.8199 -0.6531 -0.7471
 8918SOL     OW38212   1.817   1.146   8.819 -0.6725 -0.1469  0.3772
 8918SOL    HW138213   1.841   1.235   8.845 -0.4206 -0.1349  0.0978
 8918SOL    HW238214   1.896   1.104   8.853  0.0619  1.2807  0.4261
 8919SOL     OW38215   2.633   4.409   5.977  0.5992  0.2263 -0.3734
 8919SOL    HW138216   2.656   4.429   6.068 -0.3820  0.3657 -0.1545
 8919SOL    HW238217   2.623   4.315   5.995  2.4835 -0.1693 -1.4767
 8920SOL     OW38218   4.550   2.158   5.200  0.1765  0.5114  0.6870
 8920SOL    HW138219   4.618   2.141   5.134  1.5154  0.3509  2.1119
 8920SOL    HW238220   4.478   2.097   5.183  0.1811 -0.0218  2.5978
 8921SOL     OW38221   4.076   4.458   3.479  0.0543  0.0369 -0.1391
 8921SOL    HW138222   4.140   4.387   3.480  0.7128  0.6469  0.1650
 8921SOL    HW238223   4.107   4.514   3.408  1.9819  0.6683  1.2246
 8922SOL     OW38224   4.334   4.347   4.446 -0.5395 -0.6162  0.0560
 8922SOL    HW138225   4.382   4.279   4.398 -1.3063 -0.2047 -1.2970
 8922SOL    HW238226   4.408   4.382   4.496  1.9594 -1.3950 -3.1038
 8923SOL     OW38227   1.698   3.930   2.485 -0.5392  0.2644  0.5782
 8923SOL    HW138228   1.719   3.865   2.418 -0.9264  0.9336 -0.1845
 8923SOL    HW238229   1.639   3.880   2.541 -0.0995 -1.3544 -0.4073
 8924SOL     OW38230   2.993   4.359  11.460 -0.0311  0.1944 -0.5504
 8924SOL    HW138231   2.937   4.331  11.388 -0.2425 -0.3972 -0.1621
 8924SOL    HW238232   3.059   4.417  11.422 -0.9847  0.1022 -2.3404
 8925SOL     OW38233   0.093   2.015   6.980 -0.1732  0.2042  0.2425
 8925SOL    HW138234   0.073   2.078   6.911 -2.4722 -1.6040 -0.7248
 8925SOL    HW238235   0.062   2.068   7.053 -1.2707  0.9820 -0.7789
 8926SOL     OW38236   0.644   4.498   3.019  0.0440  0.2495 -0.0107
 8926SOL    HW138237   0.557   4.497   2.980  1.6467  2.2169 -3.7098
 8926SOL    HW238238   0.621   4.524   3.108 -2.0674  1.7950 -1.0115
 8927SOL     OW38239   3.346   3.596   0.343  0.1302  0.3560 -0.0682
 8927SOL    HW138240   3.326   3.567   0.431 -1.9291 -0.7651 -0.9075
 8927SOL    HW238241   3.389   3.681   0.355  1.0944  0.0721 -1.4141
 8928SOL     OW38242   3.509   1.790   0.568 -0.1421 -0.3561 -0.2830
 8928SOL    HW138243   3.522   1.716   0.508  0.2415  0.2376 -0.9336
 8928SOL    HW238244   3.492   1.747   0.652 -0.4030 -0.6049 -0.4641
 8929SOL     OW38245   3.525   3.406   8.215  0.1621 -0.0036 -0.8521
 8929SOL    HW138246   3.471   3.483   8.231  1.2240  0.3726  0.9572
 8929SOL    HW238247   3.498   3.381   8.127 -1.8198 -1.6988  0.2467
 8930SOL     OW38248   4.292   2.934   9.369 -0.5952  0.3050  0.4423
 8930SOL    HW138249   4.384   2.949   9.389 -0.5651  3.0872 -1.8910
 8930SOL    HW238250   4.292   2.839   9.357 -0.7694  0.1033  2.0348
 8931SOL     OW38251   2.696   0.675  14.684  0.4366 -0.0233 -0.0476
 8931SOL    HW138252   2.619   0.687  14.628  2.2084  2.2211 -2.0239
 8931SOL    HW238253   2.678   0.585  14.710  1.1342  0.1195  0.9531
 8932SOL     OW38254   3.498   3.671   6.305 -0.2633 -0.2888  0.6196
 8932SOL    HW138255   3.482   3.623   6.224 -0.1855  0.9027 -0.0984
 8932SOL    HW238256   3.568   3.615   6.339 -0.9304 -2.4423 -1.5488
 8933SOL     OW38257   0.717   0.050  15.803  0.2930 -0.7657 -1.5294
 8933SOL    HW138258   0.792   0.072  15.858 -0.6121  0.1598 -0.6743
 8933SOL    HW238259   0.703   0.133  15.759 -1.6371  0.2234  0.9611
 8934SOL     OW38260   0.050   4.164   7.778  0.0929 -0.2496 -0.3331
 8934SOL    HW138261   4.694   4.178   7.726 -1.9202  0.1410  2.8182
 8934SOL    HW238262   0.013   4.124   7.857  2.0671 -1.4870 -0.0276
 8935SOL     OW38263   1.190   1.096   8.601 -0.0951 -0.1991 -0.4034
 8935SOL    HW138264   1.180   1.043   8.680 -1.7910  1.5990  0.5784
 8935SOL    HW238265   1.235   1.034   8.544 -1.8313 -0.5290 -1.4088
 8936SOL     OW38266   3.281   2.078   7.176 -0.6859 -0.5701 -0.3163
 8936SOL    HW138267   3.188   2.095   7.187 -0.2490  1.0966  0.9811
 8936SOL    HW238268   3.335   2.128   7.238 -0.3886 -0.9035 -0.3039
 8937SOL     OW38269   0.557   0.535   3.016  0.1329 -0.0092  0.3850
 8937SOL    HW138270   0.540   0.620   3.056  0.8935 -0.0798  0.8466
 8937SOL    HW238271   0.489   0.478   3.052 -0.5930 -0.1847 -1.2525
 8938SOL     OW38272   0.704   2.080   9.417  0.2597  0.2691  1.0052
 8938SOL    HW138273   0.699   2.151   9.481  1.4565 -0.0471  1.4477
 8938SOL    HW238274   0.798   2.060   9.417 -0.5310 -3.5236  1.1946
 8939SOL     OW38275   1.748   1.413  10.385 -0.1577 -0.0114 -0.0637
 8939SOL    HW138276   1.706   1.398  10.469 -1.5476  0.2454 -0.7118
 8939SOL    HW238277   1.784   1.498  10.410 -0.8742  0.2990 -0.1106
 8940SOL     OW38278   3.697   1.661   6.968 -0.3284 -0.0219  0.1779
 8940SOL    HW138279   3.719   1.752   6.984 -1.8109  0.2298  0.7905
 8940SOL    HW238280   3.604   1.661   6.946  0.1336 -1.6233 -1.7592
 8941SOL     OW38281   3.563   0.462   7.044  0.6183 -0.5831 -0.5550
 8941SOL    HW138282   3.546   0.540   7.097  0.0377 -0.4511 -0.9352
 8941SOL    HW238283   3.598   0.503   6.965 -3.0479  0.9126 -1.4137
 8942SOL     OW38284   2.897   1.145   8.683 -0.6438  0.1796 -0.4531
 8942SOL    HW138285   2.840   1.221   8.698  0.8676  1.2797 -0.3262
 8942SOL    HW238286   2.980   1.176   8.648 -0.5467  1.9779  1.3663
 8943SOL     OW38287   2.600   0.970   8.348  0.1128 -0.2010  0.1362
 8943SOL    HW138288   2.664   1.033   8.380  2.0444 -1.4277 -1.2846
 8943SOL    HW238289   2.570   0.940   8.434 -1.0983 -3.0618 -1.2590
 8944SOL     OW38290   0.506   0.801   1.089 -0.1500  0.6183  0.2599
 8944SOL    HW138291   0.525   0.721   1.137 -1.9008  0.5894  0.9205
 8944SOL    HW238292   0.518   0.873   1.151 -0.3897  0.7459  0.1596
 8945SOL     OW38293   0.259   4.315   3.150  0.4567  0.0520 -0.3924
 8945SOL    HW138294   0.319   4.245   3.175 -0.4581 -0.6702 -0.1938
 8945SOL    HW238295   0.181   4.266   3.124  0.0155  0.2306  0.5983
 8946SOL     OW38296   3.843   2.545   3.561 -0.0342 -0.0737 -0.0442
 8946SOL    HW138297   3.900   2.561   3.486 -0.5552 -0.0510 -0.4313
 8946SOL    HW238298   3.755   2.552   3.525 -1.5329 -0.1210  3.5244
 8947SOL     OW38299   3.541   4.194   7.344 -0.1894 -0.4426 -0.4650
 8947SOL    HW138300   3.465   4.229   7.391 -0.7348  0.3338 -1.9275
 8947SOL    HW238301   3.502   4.153   7.267 -1.4790 -0.8409  0.3974
 8948SOL     OW38302   3.706   2.310   0.208 -0.1768  0.3255  0.2932
 8948SOL    HW138303   3.668   2.228   0.176 -1.3512  0.6075  0.9421
 8948SOL    HW238304   3.762   2.320   0.132  0.4462  0.9033  0.8320
 8949SOL     OW38305   1.874   1.778   5.486  0.7042 -0.5689  0.6769
 8949SOL    HW138306   1.779   1.768   5.492  0.4147  1.4180 -0.2408
 8949SOL    HW238307   1.888   1.802   5.394  0.3168 -0.1816  0.7201
 8950SOL     OW38308   2.943   0.666  11.363  0.3229 -0.5974 -0.0482
 8950SOL    HW138309   2.937   0.609  11.286 -0.5985 -0.2725 -0.2050
 8950SOL    HW238310   2.984   0.604  11.425  1.5695  0.7708  0.4932
 8951SOL     OW38311   4.164   0.448   1.820  0.1083 -0.2519 -0.1383
 8951SOL    HW138312   4.222   0.377   1.792 -0.6961 -1.6324  1.6735
 8951SOL    HW238313   4.208   0.507   1.760 -1.9215  1.0189 -0.3653
 8952SOL     OW38314   2.792   4.008   3.835  0.0962  0.0013  0.3226
 8952SOL    HW138315   2.710   4.056   3.838  0.4733  0.7392 -1.1341
 8952SOL    HW238316   2.835   4.041   3.756  0.3800  0.0375  0.4946
 8953SOL     OW38317   0.349   2.957   4.285 -0.4341 -0.0945 -0.1335
 8953SOL    HW138318   0.327   2.880   4.338  0.1220  0.2887  0.6445
 8953SOL    HW238319   0.367   3.025   4.349  3.7554 -0.0745 -1.3085
 8954SOL     OW38320   3.892   3.133   3.923  0.1179 -0.4579 -0.1328
 8954SOL    HW138321   3.807   3.176   3.913  1.4831  1.9944 -1.2436
 8954SOL    HW238322   3.903   3.113   4.016 -0.2205 -1.2913 -0.2753
 8955SOL     OW38323   0.760   1.288   5.798 -0.0653 -0.2150  0.2121
 8955SOL    HW138324   0.745   1.363   5.855  1.6167  2.8126 -3.3458
 8955SOL    HW238325   0.767   1.218   5.863 -1.2178  0.6917  1.3225
 8956SOL     OW38326   1.844   1.005   9.450 -0.4732  0.0603  0.0673
 8956SOL    HW138327   1.921   1.020   9.505 -0.1723 -3.1901  0.5588
 8956SOL    HW238328   1.859   1.063   9.376  1.8676 -0.8018 -0.1424
 8957SOL     OW38329   1.651   3.794  10.909 -0.3709  0.5745 -0.8275
 8957SOL    HW138330   1.648   3.880  10.868  1.3640  1.4286  0.8878
 8957SOL    HW238331   1.743   3.784  10.935 -0.2716  0.8112 -1.0886
 8958SOL     OW38332   1.530   0.270   5.165  0.1410  0.9790 -0.0300
 8958SOL    HW138333   1.597   0.336   5.181 -0.2811  0.9362  1.9899
 8958SOL    HW238334   1.476   0.297   5.240 -1.3329 -1.4349 -0.2274
 8959SOL     OW38335   4.626   0.377   8.658  0.0467  0.5154 -0.5098
 8959SOL    HW138336   4.660   0.401   8.572 -0.5003  2.9464 -0.0369
 8959SOL    HW238337   4.618   0.464   8.697  0.9233 -0.8514  2.7370
 8960SOL     OW38338   0.974   3.686   9.022 -0.1848  0.7429  0.1863
 8960SOL    HW138339   0.900   3.717   8.971 -0.3265 -0.7968 -0.5169
 8960SOL    HW238340   1.031   3.763   9.019  1.2636 -0.2277  2.3816
 8961SOL     OW38341   1.609   3.490   5.527  0.1376 -0.2595  0.1911
 8961SOL    HW138342   1.692   3.495   5.481  0.1274  0.4250  0.2465
 8961SOL    HW238343   1.640   3.539   5.603  1.3549 -1.4835  0.4775
 8962SOL     OW38344   4.673   0.323  15.236 -0.2774  0.3285 -0.5571
 8962SOL    HW138345   4.619   0.276  15.172 -1.2696 -3.3110  2.9462
 8962SOL    HW238346   0.024   0.264  15.248  0.0332  0.5338 -1.4585
 8963SOL     OW38347   4.554   1.259   5.296 -0.4967 -0.2694 -0.1254
 8963SOL    HW138348   4.627   1.211   5.257  0.0038  0.3022  0.0968
 8963SOL    HW238349   4.597   1.337   5.332 -0.2130 -1.1735  1.4565
 8964SOL     OW38350   3.760   4.383   2.219  0.3754  0.4178  0.0091
 8964SOL    HW138351   3.665   4.377   2.222  0.2489  2.2866  0.1452
 8964SOL    HW238352   3.792   4.301   2.182 -1.1632 -1.2245  2.4012
 8965SOL     OW38353   0.135   3.958   8.451 -0.1242  0.0659 -0.3356
 8965SOL    HW138354   0.050   3.971   8.493 -0.0795  1.5572 -0.7308
 8965SOL    HW238355   0.184   4.017   8.508  0.7878 -1.5668  0.5732
 8966SOL     OW38356   0.212   1.534   7.914 -0.1969 -0.3185 -0.0924
 8966SOL    HW138357   0.160   1.492   7.846  0.8788  0.6643 -1.5337
 8966SOL    HW238358   0.141   1.551   7.976  1.0290  1.7458  0.7751
 8967SOL     OW38359   1.802   2.569  14.259 -0.3552  0.0801  0.4228
 8967SOL    HW138360   1.791   2.512  14.335  1.0114 -1.8129 -0.7925
 8967SOL    HW238361   1.879   2.539  14.210  0.2087  1.8152  0.2618
 8968SOL     OW38362   0.680   3.983   5.551  0.6596  0.2580 -0.1986
 8968SOL    HW138363   0.748   3.918   5.533  0.3538  0.0352 -0.5468
 8968SOL    HW238364   0.619   3.940   5.612  2.8356  0.2667  1.9720
 8969SOL     OW38365   1.957   0.731   2.256  0.6473  0.5551  0.0724
 8969SOL    HW138366   1.949   0.813   2.304  1.5461  0.4889  0.3313
 8969SOL    HW238367   2.015   0.676   2.309 -2.1931 -1.1425  1.4652
 8970SOL     OW38368   1.822   4.156   4.220  0.4569 -0.2820 -0.0146
 8970SOL    HW138369   1.857   4.208   4.292  0.6632  0.1481 -0.4286
 8970SOL    HW238370   1.758   4.215   4.179  0.4198  0.3595  0.9771
 8971SOL     OW38371   3.209   2.559   5.631  0.1931 -0.0842 -0.4710
 8971SOL    HW138372   3.240   2.522   5.549 -2.5583 -1.5418 -0.8466
 8971SOL    HW238373   3.117   2.536   5.619 -0.1095  1.4067 -0.9799
 8972SOL     OW38374   0.005   3.911   7.220 -0.2590  0.1505 -0.0977
 8972SOL    HW138375   0.049   3.943   7.299 -1.7947  0.8119  0.4902
 8972SOL    HW238376   0.062   3.937   7.148  0.7001 -3.5553 -0.6622
 8973SOL     OW38377   4.561   3.242   2.744 -0.1480  0.4627  0.4156
 8973SOL    HW138378   4.474   3.203   2.750 -0.2613  0.8009  1.0437
 8973SOL    HW238379   4.546   3.277   2.657  1.3113 -1.4066 -0.5770
 8974SOL     OW38380   1.510   2.941   6.436  0.2424  0.3564  0.5184
 8974SOL    HW138381   1.418   2.964   6.423 -0.0360 -0.6392  0.7316
 8974SOL    HW238382   1.525   2.930   6.530  1.8271 -1.2669  0.0798
 8975SOL     OW38383   2.494   3.675   9.514  0.1706 -0.2890 -0.0962
 8975SOL    HW138384   2.499   3.586   9.478 -1.9463 -0.9147  1.1960
 8975SOL    HW238385   2.417   3.699   9.462  1.1784 -0.8667 -1.8758
 8976SOL     OW38386   0.140   0.032  12.682 -0.1594 -0.1122 -0.7568
 8976SOL    HW138387   0.094   4.676  12.657 -0.7749 -0.0242  0.1008
 8976SOL    HW238388   0.144   0.072  12.595 -0.1560  0.6532 -0.4105
 8977SOL     OW38389   3.313   0.205   0.825 -0.4394  0.1779 -0.0174
 8977SOL    HW138390   3.263   0.187   0.746  0.5296  0.2961 -0.6543
 8977SOL    HW238391   3.310   0.301   0.833 -0.5997 -0.0835  2.9612
 8978SOL     OW38392   2.039   0.662  16.342 -0.2687  0.7395  0.4207
 8978SOL    HW138393   2.087   0.650  16.424  0.1146 -0.8885 -0.0539
 8978SOL    HW238394   2.117   0.641  16.289  0.2212  2.8128  0.2856
 8979SOL     OW38395   1.114   3.252   7.951  0.0764 -0.0939 -0.7138
 8979SOL    HW138396   1.188   3.254   8.011  0.0549 -0.2977 -0.6795
 8979SOL    HW238397   1.152   3.291   7.872 -2.8005  1.5478 -1.3006
 8980SOL     OW38398   4.365   3.141  13.273 -0.2959 -0.8624 -0.4574
 8980SOL    HW138399   4.444   3.129  13.220 -1.4058 -2.9588 -1.6586
 8980SOL    HW238400   4.296   3.113  13.213 -0.0182 -1.8712 -0.3138
 8981SOL     OW38401   1.396   4.142   4.729  0.3774  0.2447  0.0542
 8981SOL    HW138402   1.378   4.093   4.809 -0.4023 -0.4724 -0.5660
 8981SOL    HW238403   1.319   4.199   4.735  1.3393  1.4113  1.3971
 8982SOL     OW38404   3.628   2.721   5.843  0.5000 -0.5737 -0.0351
 8982SOL    HW138405   3.687   2.696   5.772  3.6858 -0.8886  2.7047
 8982SOL    HW238406   3.682   2.794   5.874 -0.2236 -0.5725  1.1924
 8983SOL     OW38407   0.650   1.917  15.906  0.2948 -0.8281 -0.3233
 8983SOL    HW138408   0.623   1.899  15.996  2.5084  1.2970  0.7616
 8983SOL    HW238409   0.573   1.959  15.868 -1.4890 -2.5607  1.4034
 8984SOL     OW38410   2.331   3.338   1.791 -0.3065 -0.0511  0.5301
 8984SOL    HW138411   2.235   3.339   1.792 -0.3305 -1.5179 -2.7454
 8984SOL    HW238412   2.340   3.373   1.880 -0.0853  1.5221 -0.1033
 8985SOL     OW38413   1.679   4.118  11.751 -0.1612  0.5458 -0.3242
 8985SOL    HW138414   1.620   4.043  11.748  1.0981 -0.4572  0.2469
 8985SOL    HW238415   1.636   4.174  11.686 -2.2149  0.5590  1.0466
 8986SOL     OW38416   2.437   2.957  10.855  0.2435  0.3026 -0.2963
 8986SOL    HW138417   2.404   2.914  10.776  1.1359  1.9134 -1.5650
 8986SOL    HW238418   2.514   3.005  10.825 -0.5571  0.9085 -1.3789
 8987SOL     OW38419   1.586   4.088   9.717  0.0370  0.2855  0.3242
 8987SOL    HW138420   1.500   4.062   9.684  0.1318  1.0628 -0.5370
 8987SOL    HW238421   1.583   4.075   9.812  0.6111 -1.3669  0.1152
 8988SOL     OW38422   0.119   1.166   6.952  0.1518  0.1234 -0.0664
 8988SOL    HW138423   0.047   1.227   6.969  0.0070  0.4309 -1.7812
 8988SOL    HW238424   0.156   1.168   7.040 -1.2959 -0.3657  0.5390
 8989SOL     OW38425   0.093   3.117   7.208 -0.3218 -0.0667  0.0308
 8989SOL    HW138426   0.112   3.163   7.126  3.6863 -4.2885 -1.4494
 8989SOL    HW238427   0.119   3.185   7.270 -0.5727  0.5919 -0.5895
 8990SOL     OW38428   1.453   4.175   0.798 -0.2743 -0.4008  0.6155
 8990SOL    HW138429   1.485   4.262   0.822  1.0828 -1.0571  1.1896
 8990SOL    HW238430   1.436   4.205   0.709  2.1551  2.8987  1.2630
 8991SOL     OW38431   0.367   3.058   0.610  0.1323  0.2629 -0.1788
 8991SOL    HW138432   0.460   3.046   0.628 -0.0569  1.4396  1.5589
 8991SOL    HW238433   0.368   3.104   0.526  0.7890  2.5967  1.0783
 8992SOL     OW38434   1.884   3.054   5.216  0.7269 -0.5226 -0.5221
 8992SOL    HW138435   1.862   2.966   5.244 -1.1387 -0.2918 -1.3047
 8992SOL    HW238436   1.974   3.043   5.185  1.3709 -0.9664  1.4894
 8993SOL     OW38437   2.299   2.794   6.593  0.2217  0.4612  1.1918
 8993SOL    HW138438   2.245   2.812   6.670  0.2121 -1.2954  1.5808
 8993SOL    HW238439   2.262   2.714   6.557 -0.7720  0.9226  1.1971
 8994SOL     OW38440   0.105   1.907   4.861  1.0135 -0.4910 -0.0722
 8994SOL    HW138441   0.148   1.975   4.913  0.9022  0.5251 -1.3258
 8994SOL    HW238442   0.013   1.927   4.882  1.6802  1.2587  1.1187
 8995SOL     OW38443   0.976   3.388  16.391  0.6396 -0.6989  0.2068
 8995SOL    HW138444   1.009   3.298  16.384  0.1706 -0.9032  0.6144
 8995SOL    HW238445   0.920   3.377  16.468  2.3137 -1.1567  1.3540
 8996SOL     OW38446   0.586   1.372   0.222  0.2194 -0.2395  0.4994
 8996SOL    HW138447   0.606   1.360   0.314 -0.4463 -3.9321  0.1691
 8996SOL    HW238448   0.511   1.431   0.227  0.6762  0.2969  0.9766
 8997SOL     OW38449   1.327   0.928   8.147 -0.3797  0.2319  0.2600
 8997SOL    HW138450   1.294   0.931   8.237 -0.0618  2.3306  0.3206
 8997SOL    HW238451   1.406   0.982   8.134  0.3922 -0.3215  2.6084
 8998SOL     OW38452   1.941   3.907   9.448  0.2746 -0.4561 -0.2349
 8998SOL    HW138453   1.847   3.893   9.433  0.5546 -1.1392 -1.3508
 8998SOL    HW238454   1.983   3.893   9.363 -1.9431 -1.9947 -1.0715
 8999SOL     OW38455   4.615   2.411   7.684  0.0893  0.0706 -0.0368
 8999SOL    HW138456   4.523   2.410   7.710 -0.5156  0.5858 -2.1732
 8999SOL    HW238457   4.645   2.328   7.721 -1.6249 -1.5592 -2.2949
 9000SOL     OW38458   1.588   3.230   8.035 -0.2815 -0.4932  0.0433
 9000SOL    HW138459   1.578   3.254   7.942 -0.3924 -1.6287 -0.2296
 9000SOL    HW238460   1.565   3.138   8.020 -1.3872 -0.1984 -0.1124
 9001SOL     OW38461   4.663   2.863   1.409  0.1802  0.6537  0.4407
 9001SOL    HW138462   4.569   2.854   1.395  0.5695 -2.8000  0.1552
 9001SOL    HW238463   4.699   2.809   1.339 -1.0982 -2.2102  2.0148
 9002SOL     OW38464   4.508   2.004   2.856  0.5510  0.3838  0.1569
 9002SOL    HW138465   4.531   1.928   2.803  0.9730  0.6790 -0.0803
 9002SOL    HW238466   4.443   2.050   2.803 -0.7239  0.6236  1.9510
 9003SOL     OW38467   3.311   0.952   5.019 -0.1958  0.2545  0.2112
 9003SOL    HW138468   3.305   0.930   4.926  2.8563 -0.6103  0.2233
 9003SOL    HW238469   3.357   1.035   5.008  1.8070 -0.7920  0.7214
 9004SOL     OW38470   4.145   1.904   9.663  0.2280 -0.0144 -0.2182
 9004SOL    HW138471   4.148   1.931   9.755 -1.2654  0.3356 -0.2699
 9004SOL    HW238472   4.113   1.814   9.664  0.0186  0.0467 -1.5026
 9005SOL     OW38473   0.175   0.818   3.504 -0.1586 -0.3582  0.2414
 9005SOL    HW138474   0.236   0.809   3.431  2.0292 -1.5262  2.2206
 9005SOL    HW238475   0.241   0.793   3.568  0.1819 -1.3283 -0.4864
 9006SOL     OW38476   1.246   0.989   3.926  0.2895  0.0409 -0.1877
 9006SOL    HW138477   1.185   0.962   3.995  0.8955  2.6420  1.3901
 9006SOL    HW238478   1.287   1.065   3.968  2.0301 -0.9122 -0.1551
 9007SOL     OW38479   0.988   3.395   6.129 -0.4885  0.0876  0.1411
 9007SOL    HW138480   1.011   3.415   6.039  0.2269  1.3463  0.6071
 9007SOL    HW238481   0.905   3.440   6.147 -1.7645 -1.8498 -0.7973
 9008SOL     OW38482   4.427   3.730   3.109  0.0932 -0.3395  0.7425
 9008SOL    HW138483   4.340   3.723   3.070  0.0994  1.7800  0.3182
 9008SOL    HW238484   4.484   3.711   3.034 -0.9347  1.1446 -0.4125
 9009SOL     OW38485   4.684   2.551  14.158 -0.4573  0.1804 -0.2605
 9009SOL    HW138486   4.617   2.619  14.152 -1.0340 -0.4397 -0.8784
 9009SOL    HW238487   4.717   2.547  14.068  0.5731  2.5559  0.0194
 9010SOL     OW38488   4.314   2.720   8.871 -0.2954  0.3405 -0.0516
 9010SOL    HW138489   4.241   2.658   8.870 -0.5405  0.5896  2.1959
 9010SOL    HW238490   4.297   2.770   8.951  1.1395  0.6434  0.0525
 9011SOL     OW38491   3.904   1.372   8.085  0.3453  0.2628  0.1333
 9011SOL    HW138492   3.903   1.443   8.021  1.8221  0.2860  0.1325
 9011SOL    HW238493   3.948   1.417   8.157 -0.3354  0.2686  0.5400
 9012SOL     OW38494   4.203   0.047   3.827  0.2048  0.0475 -0.4262
 9012SOL    HW138495   4.250   4.706   3.880  1.4738  2.5125  1.4356
 9012SOL    HW238496   4.252   0.050   3.746 -2.8908  0.6127 -2.2744
 9013SOL     OW38497   0.264   0.988  13.822 -0.2588  0.5764 -0.2741
 9013SOL    HW138498   0.339   1.008  13.879  0.4646 -1.4547 -0.5229
 9013SOL    HW238499   0.195   0.995  13.888 -0.0814 -3.1576  0.2772
 9014SOL     OW38500   1.681   4.415   5.564 -0.5665  0.3208  0.7556
 9014SOL    HW138501   1.617   4.478   5.534 -2.5315 -2.3081 -0.5786
 9014SOL    HW238502   1.750   4.472   5.598  0.0223  0.8134 -1.3150
 9015SOL     OW38503   4.368   2.152   4.833  0.7074  0.1692  0.2723
 9015SOL    HW138504   4.423   2.223   4.799 -1.4150  1.8213  0.2813
 9015SOL    HW238505   4.292   2.163   4.775  0.2946 -2.1947  0.3590
 9016SOL     OW38506   0.498   4.181  10.715 -0.3225  0.7050  0.0838
 9016SOL    HW138507   0.506   4.088  10.736 -2.0143  0.9650  1.8982
 9016SOL    HW238508   0.413   4.191  10.758 -0.0991  0.2601  0.6377
 9017SOL     OW38509   2.134   3.745   4.553  0.4219 -0.4920 -0.1954
 9017SOL    HW138510   2.152   3.761   4.460 -1.8043  0.0366 -0.5374
 9017SOL    HW238511   2.073   3.671   4.551  0.0125 -0.0966 -3.3538
 9018SOL     OW38512   1.035   3.940   5.715 -0.7718 -0.0109  0.2547
 9018SOL    HW138513   1.129   3.953   5.702 -1.6203  4.5349 -1.5983
 9018SOL    HW238514   0.993   3.990   5.644 -3.0619 -2.0365  0.2068
 9019SOL     OW38515   4.195   4.082   3.304  0.4009 -0.2201  0.1615
 9019SOL    HW138516   4.285   4.070   3.274 -0.6653  0.0015 -3.1092
 9019SOL    HW238517   4.146   4.063   3.224 -0.8114 -1.4365  1.1892
 9020SOL     OW38518   0.347   1.927   3.499 -0.3285 -0.8470 -0.2180
 9020SOL    HW138519   0.252   1.933   3.484 -0.5577 -2.1231  0.6987
 9020SOL    HW238520   0.371   2.017   3.518 -3.1977 -0.3441  1.0068
 9021SOL     OW38521   3.141   0.392   1.349 -0.5286 -0.2100 -0.8750
 9021SOL    HW138522   3.136   0.346   1.265 -0.3666 -1.4468 -0.2060
 9021SOL    HW238523   3.090   0.336   1.407 -0.9421 -0.8783 -1.8913
 9022SOL     OW38524   1.975   1.327  13.755  0.0122 -0.2622 -0.3188
 9022SOL    HW138525   2.013   1.241  13.736 -1.4117 -1.0213  0.2773
 9022SOL    HW238526   2.060   1.367  13.773 -0.9276  1.0383  1.2057
 9023SOL     OW38527   3.194   4.223   2.402 -0.5608 -0.4548  0.1497
 9023SOL    HW138528   3.194   4.274   2.321  0.9467 -1.4794 -0.4838
 9023SOL    HW238529   3.228   4.289   2.462 -1.2210 -0.5122  0.5820
 9024SOL     OW38530   0.724   4.642   0.647  0.1500  0.3543  0.3108
 9024SOL    HW138531   0.726   4.553   0.680 -1.9772 -0.9394 -3.0574
 9024SOL    HW238532   0.667   4.625   0.572  2.4918 -1.0183 -1.1538
 9025SOL     OW38533   0.973   4.370  10.583 -0.3138  0.3534  0.5976
 9025SOL    HW138534   0.981   4.355  10.489 -3.7681  3.9969 -0.3126
 9025SOL    HW238535   1.000   4.461  10.595 -2.1364  0.7866  1.4786
 9026SOL     OW38536   2.798   0.345   3.469  0.1153  0.3688 -0.2893
 9026SOL    HW138537   2.865   0.411   3.449  0.2943 -0.5491 -2.7021
 9026SOL    HW238538   2.713   0.382   3.446 -1.1052 -1.1971  1.6962
 9027SOL     OW38539   3.759   3.096  14.330 -0.5919 -0.0389  0.0468
 9027SOL    HW138540   3.767   3.042  14.251 -2.5339  2.2367 -1.7242
 9027SOL    HW238541   3.705   3.164  14.289 -0.3125  0.0134 -0.2414
 9028SOL     OW38542   3.723   0.685   2.601 -0.0054 -0.0983  0.1101
 9028SOL    HW138543   3.757   0.749   2.538 -0.8412 -1.4165 -1.6973
 9028SOL    HW238544   3.656   0.644   2.547  0.0936  0.4647 -0.4332
 9029SOL     OW38545   2.541   4.342   5.163 -0.6121  0.2273  0.7705
 9029SOL    HW138546   2.480   4.331   5.090  0.9487  5.2372 -1.2959
 9029SOL    HW238547   2.576   4.253   5.168  1.5144  0.9610 -1.2008
 9030SOL     OW38548   3.192   0.409  13.064 -0.4788  0.0861  0.3960
 9030SOL    HW138549   3.264   0.394  13.126  0.2379 -0.7110 -0.6207
 9030SOL    HW238550   3.227   0.376  12.981 -0.1207  1.0138  0.1815
 9031SOL     OW38551   2.870   2.941   3.068  0.6897 -0.2646 -0.9221
 9031SOL    HW138552   2.797   3.000   3.087 -0.4975 -1.7355 -0.9145
 9031SOL    HW238553   2.945   3.000   3.072  0.7917 -0.4024 -0.8011
 9032SOL     OW38554   1.616   3.783   3.356  0.5078  0.5275 -0.2118
 9032SOL    HW138555   1.651   3.812   3.440 -0.4837  0.9121  0.0701
 9032SOL    HW238556   1.545   3.726   3.386 -0.3131  1.5360 -0.2382
 9033SOL     OW38557   2.934   2.584  16.728 -0.1986  0.0442  0.2378
 9033SOL    HW138558   2.951   2.501  16.683 -1.2558 -0.8935  1.5890
 9033SOL    HW238559   2.984   2.569  16.809  1.7725  0.9884 -0.7942
 9034SOL     OW38560   2.617   0.855   7.702  0.4513  0.2219  0.3761
 9034SOL    HW138561   2.696   0.812   7.669  1.0567  2.4198 -1.0585
 9034SOL    HW238562   2.626   0.849   7.797  1.8038 -0.3429  0.2062
 9035SOL     OW38563   4.423   0.630   5.715 -0.1365  0.2227  0.2188
 9035SOL    HW138564   4.453   0.573   5.786 -3.0892 -1.3054  0.2555
 9035SOL    HW238565   4.488   0.700   5.715  1.8344 -1.6304  0.0521
 9036SOL     OW38566   1.922   0.368   2.482  0.2401 -0.4244 -0.2679
 9036SOL    HW138567   1.839   0.401   2.447  1.0658  2.1788  0.2554
 9036SOL    HW238568   1.971   0.361   2.400  0.8139 -1.2292  0.1428
 9037SOL     OW38569   3.576   1.457   8.940  0.5014  0.2856  0.0417
 9037SOL    HW138570   3.640   1.407   8.889 -1.5700 -1.2592 -1.0068
 9037SOL    HW238571   3.632   1.527   8.975 -0.4072  0.7365  0.5878
 9038SOL     OW38572   3.948   0.178   4.965 -0.9327  0.1220  0.5475
 9038SOL    HW138573   4.008   0.136   4.904 -2.2786 -0.0118 -0.6778
 9038SOL    HW238574   3.958   0.135   5.050  3.4842  2.1889  1.0461
 9039SOL     OW38575   2.055   0.613   1.783  0.6020 -0.3454 -0.5120
 9039SOL    HW138576   2.065   0.557   1.860  0.3149 -1.5890 -1.3776
 9039SOL    HW238577   1.975   0.565   1.762 -0.0545  0.5186  0.0007
 9040SOL     OW38578   2.236   1.893   5.397  0.4348 -0.5091  0.1435
 9040SOL    HW138579   2.326   1.902   5.365  0.2460 -0.3059 -0.3403
 9040SOL    HW238580   2.220   1.980   5.435 -0.1060 -0.8504  0.6973
 9041SOL     OW38581   3.098   1.782   6.715  0.1879 -0.0963  0.1662
 9041SOL    HW138582   3.077   1.833   6.637  0.1788  0.8041  0.7483
 9041SOL    HW238583   3.140   1.847   6.772  0.1753 -0.6392  0.7996
 9042SOL     OW38584   1.318   2.286  11.519 -0.5983  0.6962  0.0628
 9042SOL    HW138585   1.376   2.360  11.504 -0.4910  0.1188 -2.3398
 9042SOL    HW238586   1.319   2.240  11.435 -0.0321 -0.4123  0.6782
 9043SOL     OW38587   2.348   0.098  10.972 -0.0329 -0.4441  0.0883
 9043SOL    HW138588   2.367   0.184  11.010 -1.6440  1.2399 -2.8762
 9043SOL    HW238589   2.391   0.041  11.035 -0.6943  0.4153  1.3224
 9044SOL     OW38590   2.216   3.642  10.975 -0.5077  0.6057 -0.4197
 9044SOL    HW138591   2.149   3.634  11.043 -0.9529 -0.8101 -1.0168
 9044SOL    HW238592   2.276   3.571  10.998  0.4761  1.0812 -1.4894
 9045SOL     OW38593   1.266   0.763   2.470 -0.1079  0.5643  0.2125
 9045SOL    HW138594   1.225   0.682   2.442 -0.5626  0.9418 -0.2214
 9045SOL    HW238595   1.195   0.802   2.523  1.7819  0.2536  2.9873
 9046SOL     OW38596   1.659   0.284   8.987 -0.5504 -0.4865 -0.2998
 9046SOL    HW138597   1.584   0.263   8.932 -0.0624  0.4033 -1.3141
 9046SOL    HW238598   1.638   0.243   9.071  2.9201  2.3972  1.9949
 9047SOL     OW38599   0.207   2.312   6.447  0.1257 -0.5234  1.0965
 9047SOL    HW138600   0.122   2.334   6.411  0.0196  0.0052  1.6734
 9047SOL    HW238601   0.247   2.266   6.373  2.2417 -1.7293  2.9782
 9048SOL     OW38602   3.437   0.855   0.151  0.1285 -0.1256  0.4473
 9048SOL    HW138603   3.515   0.819   0.108 -0.3294  1.1190 -1.4388
 9048SOL    HW238604   3.382   0.840   0.073  0.6822  1.6769 -0.2906
 9049SOL     OW38605   0.757   3.021   5.683  0.6225 -0.1324  0.3130
 9049SOL    HW138606   0.797   3.108   5.677 -0.3753  0.1590 -2.2047
 9049SOL    HW238607   0.755   3.000   5.776 -1.0875 -0.2907  0.2279
 9050SOL     OW38608   4.191   3.148   4.828 -0.0347  0.0569  0.0612
 9050SOL    HW138609   4.150   3.225   4.867  0.7917  0.1342  0.7573
 9050SOL    HW238610   4.121   3.117   4.770 -0.7974  1.8362  0.0358
 9051SOL     OW38611   1.055   1.078   6.637  0.4127 -0.4363  0.3003
 9051SOL    HW138612   1.130   1.135   6.624 -1.6416  2.2831  0.5310
 9051SOL    HW238613   1.060   1.037   6.550 -3.9174 -1.0111  0.3129
 9052SOL     OW38614   1.570   1.403   1.236  0.2873  0.2590  0.0374
 9052SOL    HW138615   1.570   1.473   1.170  0.7869 -0.5659 -0.8285
 9052SOL    HW238616   1.662   1.376   1.230 -0.1657 -0.6684 -2.6022
 9053SOL     OW38617   3.712   2.466   5.235 -0.0230  0.3766 -0.4032
 9053SOL    HW138618   3.712   2.390   5.175  0.6167  1.6753 -2.0419
 9053SOL    HW238619   3.678   2.426   5.315  0.2524  3.1425  1.0654
 9054SOL     OW38620   3.097   2.418   6.216 -0.3147  0.3464 -0.4159
 9054SOL    HW138621   3.106   2.332   6.256 -2.8841 -0.8563 -2.4189
 9054SOL    HW238622   3.033   2.403   6.146 -0.2685  0.9389 -0.5860
 9055SOL     OW38623   3.619   3.232   3.959  0.4367  0.0218 -0.4739
 9055SOL    HW138624   3.670   3.286   4.020 -0.7551  0.3804  0.2228
 9055SOL    HW238625   3.548   3.207   4.019 -0.4658  2.0667 -0.6958
 9056SOL     OW38626   3.515   4.203   9.380 -0.1256 -0.3861 -0.3595
 9056SOL    HW138627   3.540   4.174   9.467 -1.2676 -0.6906 -0.1278
 9056SOL    HW238628   3.556   4.289   9.378 -1.1484  0.0581 -2.5101
 9057SOL     OW38629   2.948   4.583   7.276 -0.0513 -0.0360 -0.4307
 9057SOL    HW138630   3.002   4.652   7.238  0.3313  0.4412  0.9928
 9057SOL    HW238631   3.010   4.533   7.329 -1.0753 -0.8881 -0.0491
 9058SOL     OW38632   3.669   2.080  12.754  0.7182 -0.1341  0.3651
 9058SOL    HW138633   3.678   2.036  12.839  1.0259 -2.1280 -0.7171
 9058SOL    HW238634   3.724   2.159  12.757  1.6418 -0.6765 -2.5723
 9059SOL     OW38635   3.123   2.059   5.230 -0.2695 -0.0398 -0.1723
 9059SOL    HW138636   3.168   2.062   5.146 -1.1008  1.0177 -0.5672
 9059SOL    HW238637   3.179   2.001   5.283 -0.0329 -0.5808 -1.0152
 9060SOL     OW38638   1.157   3.502   9.717  0.1028  0.0643  0.5871
 9060SOL    HW138639   1.141   3.555   9.639  1.0088 -2.2953 -1.2128
 9060SOL    HW238640   1.071   3.461   9.714 -0.0937  0.4428  1.1419
 9061SOL     OW38641   0.827   3.080   9.083 -0.1404 -0.7658  0.5982
 9061SOL    HW138642   0.811   2.994   9.123  2.1879 -0.0798  3.0152
 9061SOL    HW238643   0.894   3.113   9.143  0.0114  0.7152 -0.3911
 9062SOL     OW38644   2.993   4.517  17.581  0.3355  0.3680 -0.4946
 9062SOL    HW138645   3.046   4.514  17.661 -0.9311 -1.2997  0.2897
 9062SOL    HW238646   3.039   4.579  17.524 -0.3926  1.1774 -0.2020
 9063SOL     OW38647   2.315   0.893   2.362 -0.3577  0.0500  0.3060
 9063SOL    HW138648   2.249   0.960   2.344 -1.0402 -0.4010  1.0990
 9063SOL    HW238649   2.268   0.811   2.375 -0.8975  0.0455 -1.7425
 9064SOL     OW38650   3.587   2.650  15.086 -0.1682 -0.7928 -0.0793
 9064SOL    HW138651   3.512   2.601  15.118  1.1705 -1.9436  1.2387
 9064SOL    HW238652   3.656   2.584  15.085  1.0346  0.4654 -0.7205
 9065SOL     OW38653   2.906   3.809   4.026  0.1107 -0.2461 -0.1690
 9065SOL    HW138654   2.909   3.732   3.970 -0.8645 -0.3998 -0.0088
 9065SOL    HW238655   2.854   3.874   3.979  1.1624  1.2863  0.7782
 9066SOL     OW38656   4.675   2.528  13.629 -0.5575 -0.5552 -0.7074
 9066SOL    HW138657   4.669   2.510  13.535 -1.6714  1.0462 -0.9511
 9066SOL    HW238658   4.631   2.613  13.637  1.4170  0.4393 -0.3070
 9067SOL     OW38659   0.543   2.273   2.755  0.0667 -0.0202  0.0120
 9067SOL    HW138660   0.594   2.196   2.780  0.9354  0.4427 -0.3691
 9067SOL    HW238661   0.470   2.225   2.716  0.5086  0.4558 -1.3875
 9068SOL     OW38662   4.392   2.640   8.335  0.1757  0.0618 -0.2628
 9068SOL    HW138663   4.464   2.661   8.276  1.7432 -1.1782  1.1745
 9068SOL    HW238664   4.431   2.634   8.422 -1.2770  0.6762  0.4323
 9069SOL     OW38665   2.932   0.504   8.163  0.4213  0.1279  0.5359
 9069SOL    HW138666   3.008   0.562   8.169 -0.2295  0.8398  2.0266
 9069SOL    HW238667   2.889   0.538   8.242 -1.2161 -0.0921 -0.2640
 9070SOL     OW38668   0.338   1.567   4.096  0.4124 -0.2541  0.3435
 9070SOL    HW138669   0.265   1.627   4.083  0.7381  1.0550  4.6241
 9070SOL    HW238670   0.412   1.624   4.076  0.2208  0.8968  2.9316
 9071SOL     OW38671   0.290   0.319   2.274  0.1264 -0.1797 -0.3025
 9071SOL    HW138672   0.220   0.342   2.335  0.0922  1.4058 -0.9410
 9071SOL    HW238673   0.364   0.320   2.334 -0.8577 -1.2325  0.9256
 9072SOL     OW38674   4.149   0.630   1.163  0.4362 -0.4017 -0.4584
 9072SOL    HW138675   4.223   0.578   1.194  0.7535  1.1507  1.4142
 9072SOL    HW238676   4.163   0.625   1.069  0.3561 -1.6041 -0.4034
 9073SOL     OW38677   1.534   2.808  13.224  0.0612  0.0793 -0.1135
 9073SOL    HW138678   1.444   2.795  13.193 -0.2365  0.6260  0.5155
 9073SOL    HW238679   1.578   2.772  13.147  0.8631  2.2628 -0.6489
 9074SOL     OW38680   1.654   0.406   4.358 -0.4584  0.1457  0.2277
 9074SOL    HW138681   1.609   0.409   4.274  1.2320  0.2814 -0.6848
 9074SOL    HW238682   1.663   0.311   4.364  0.4892  0.3805  2.7493
 9075SOL     OW38683   2.234   3.341   4.876 -0.2127  0.3680  0.2521
 9075SOL    HW138684   2.208   3.399   4.948  0.6125 -0.2283  1.0342
 9075SOL    HW238685   2.159   3.282   4.876  0.8579 -1.0011  3.8611
 9076SOL     OW38686   4.079   0.745   1.398  0.8087 -0.2062  0.4309
 9076SOL    HW138687   4.100   0.707   1.313 -3.1605 -1.6489  0.1261
 9076SOL    HW238688   3.992   0.707   1.410 -0.3874  1.9905 -1.2680
 9077SOL     OW38689   0.320   4.309   1.518  0.0202 -0.0590  0.6403
 9077SOL    HW138690   0.308   4.222   1.555 -0.6269  0.9706  2.8515
 9077SOL    HW238691   0.238   4.324   1.470  0.6235 -1.3687 -0.7880
 9078SOL     OW38692   0.830   3.920  12.137  0.9736  0.3863 -0.1302
 9078SOL    HW138693   0.828   3.933  12.232 -1.2092  0.4595 -0.1764
 9078SOL    HW238694   0.832   3.825  12.127  0.5461  0.4947 -1.2384
 9079SOL     OW38695   0.482   3.141   4.917 -0.4479 -0.1503  0.1029
 9079SOL    HW138696   0.447   3.147   5.006 -0.0951 -1.9164  0.3557
 9079SOL    HW238697   0.568   3.185   4.917  0.0451 -1.1160 -0.4323
 9080SOL     OW38698   3.012   3.407   5.109 -0.1782  0.1748 -0.8911
 9080SOL    HW138699   2.946   3.348   5.074 -0.2144 -0.8760  0.9476
 9080SOL    HW238700   3.032   3.376   5.198  0.0694 -1.3976 -1.5006
 9081SOL     OW38701   0.781   0.395   4.154  0.5681 -0.1165  0.2720
 9081SOL    HW138702   0.737   0.441   4.083 -1.6243  0.9830  2.3351
 9081SOL    HW238703   0.860   0.358   4.115  1.0029  1.1355 -0.0273
 9082SOL     OW38704   1.442   2.310   7.830 -0.0666 -0.2999 -0.1221
 9082SOL    HW138705   1.352   2.343   7.833  0.8983  2.4038 -0.3893
 9082SOL    HW238706   1.485   2.379   7.779  1.2236 -2.2466 -1.6621
 9083SOL     OW38707   4.421   1.024   2.411 -0.1695 -0.1440  0.0209
 9083SOL    HW138708   4.444   0.958   2.345 -4.9119 -1.6632 -0.0783
 9083SOL    HW238709   4.414   1.098   2.349 -0.2445  0.6659  1.0040
 9084SOL     OW38710   2.208   2.005  11.825 -0.6549  0.5335  0.1529
 9084SOL    HW138711   2.146   1.999  11.898  1.7840 -3.0213  1.8914
 9084SOL    HW238712   2.169   2.065  11.761 -1.7372 -0.8684 -0.5102
 9085SOL     OW38713   1.465   3.925   7.864 -0.2777 -0.0312 -0.0018
 9085SOL    HW138714   1.555   3.957   7.866 -0.3691  0.1889  0.6063
 9085SOL    HW238715   1.411   3.995   7.902  2.3078 -0.2417  4.0961
 9086SOL     OW38716   4.467   1.075   7.892  0.5548 -0.2662 -0.2429
 9086SOL    HW138717   4.465   1.142   7.825  1.0018 -0.5558 -0.5468
 9086SOL    HW238718   4.373   1.063   7.909  0.3664  1.0676 -0.3945
 9087SOL     OW38719   0.244   4.005  16.067  0.3196  0.1623 -0.3822
 9087SOL    HW138720   0.156   4.016  16.031  0.0068 -0.5832  0.1367
 9087SOL    HW238721   0.293   4.046  15.996  1.8967 -0.6594  0.2427
 9088SOL     OW38722   2.839   0.403   2.381  0.2385  0.2299 -0.9327
 9088SOL    HW138723   2.765   0.397   2.321  0.1897 -0.2597 -0.8223
 9088SOL    HW238724   2.906   0.342   2.347  0.4416  1.0850 -2.0977
 9089SOL     OW38725   0.026   0.040  15.909  0.0128 -0.1321  0.4851
 9089SOL    HW138726   4.698   4.687  15.881  1.1827 -0.0552 -1.8143
 9089SOL    HW238727   4.681   0.086  15.958 -0.5939 -1.6355  1.0614
 9090SOL     OW38728   0.688   2.963   3.723 -0.2383 -0.1754 -0.4815
 9090SOL    HW138729   0.754   3.003   3.666  1.1749 -1.1420  0.4618
 9090SOL    HW238730   0.604   2.995   3.688  0.0807  0.2693 -0.8488
 9091SOL     OW38731   1.533   2.664   6.890 -0.2084  0.4192  0.0246
 9091SOL    HW138732   1.549   2.592   6.952  2.8198 -1.4076 -2.8724
 9091SOL    HW238733   1.492   2.735   6.940  1.9866 -0.2071  2.7174
 9092SOL     OW38734   0.777   0.442   4.634 -0.4741  0.0246  0.0183
 9092SOL    HW138735   0.828   0.493   4.571  1.9492 -1.5795  0.6904
 9092SOL    HW238736   0.772   0.504   4.707 -0.8532  1.7110 -1.4255
 9093SOL     OW38737   1.451   3.874  15.185  0.1777 -0.4416  0.0573
 9093SOL    HW138738   1.519   3.840  15.128  0.0226 -0.3325 -0.1913
 9093SOL    HW238739   1.374   3.866  15.128  0.3780  1.4475 -0.4545
 9094SOL     OW38740   1.581   3.243   9.549  0.4529 -0.8542  0.2284
 9094SOL    HW138741   1.619   3.290   9.623 -0.2405  2.5509 -1.5525
 9094SOL    HW238742   1.488   3.250   9.571  0.0282 -0.6042 -1.6304
 9095SOL     OW38743   2.872   3.360   3.509  0.3041  0.4902  0.1800
 9095SOL    HW138744   2.952   3.309   3.526  0.8430  1.9229  1.9309
 9095SOL    HW238745   2.891   3.441   3.462 -1.9460  1.6318  1.2620
 9096SOL     OW38746   1.440   4.410   7.189  0.5496  0.4934 -0.3770
 9096SOL    HW138747   1.401   4.437   7.105 -1.3581  1.5530  0.8488
 9096SOL    HW238748   1.469   4.494   7.225 -2.1583  1.8182 -1.2823
 9097SOL     OW38749   3.952   4.460   0.783 -0.2030  0.0044 -0.3059
 9097SOL    HW138750   3.994   4.516   0.847  1.0150 -0.6353 -0.5368
 9097SOL    HW238751   3.987   4.377   0.817 -2.1299  0.1203  1.9060
 9098SOL     OW38752   0.674   4.412   1.431 -0.1490  0.0635 -0.0229
 9098SOL    HW138753   0.748   4.461   1.465  1.0054 -1.7471  0.0337
 9098SOL    HW238754   0.677   4.335   1.487  1.5207 -1.0143 -1.5872
 9099SOL     OW38755   0.617   0.782   6.376 -0.0680 -0.1929  0.1423
 9099SOL    HW138756   0.659   0.830   6.448 -0.1369  1.0928 -0.6732
 9099SOL    HW238757   0.580   0.709   6.426 -0.7060 -0.3076 -0.4891
 9100SOL     OW38758   3.910   2.124   3.637  0.5111 -0.6964 -0.5741
 9100SOL    HW138759   3.947   2.074   3.710 -0.6601  0.5529  0.8765
 9100SOL    HW238760   3.986   2.116   3.580 -0.3635  0.6264 -1.9218
 9101SOL     OW38761   0.331   0.405   4.064 -0.2683 -0.5958 -0.3340
 9101SOL    HW138762   0.284   0.326   4.035  0.5126 -1.8323  1.7718
 9101SOL    HW238763   0.377   0.374   4.142  1.4812  1.0157 -0.7367
 9102SOL     OW38764   3.923   4.201   0.141  0.2962  0.1514 -0.5917
 9102SOL    HW138765   3.904   4.108   0.127  1.7066 -0.0966 -0.9512
 9102SOL    HW238766   3.866   4.236   0.209  0.6676  1.4910 -0.9729
 9103SOL     OW38767   2.801   2.887   3.741  0.3150 -0.3060  0.5341
 9103SOL    HW138768   2.853   2.807   3.735  1.5963  0.3890  2.2772
 9103SOL    HW238769   2.727   2.863   3.687  0.2274 -1.8577  1.3532
 9104SOL     OW38770   4.468   1.072   3.215  0.0585 -0.6175  0.4965
 9104SOL    HW138771   4.380   1.049   3.187  0.5926 -1.4818 -0.4490
 9104SOL    HW238772   4.477   1.032   3.302  1.3472 -0.5192  0.4148
 9105SOL     OW38773   4.336   0.254   4.658 -0.4266 -0.0467 -0.1375
 9105SOL    HW138774   4.275   0.256   4.585 -1.0584 -0.5228  0.3736
 9105SOL    HW238775   4.419   0.265   4.612  1.5019 -1.2109  3.0217
 9106SOL     OW38776   3.646   0.053   7.436 -0.2131 -1.1624  0.4616
 9106SOL    HW138777   3.694   4.699   7.465  0.3162 -2.1703 -3.0222
 9106SOL    HW238778   3.586   0.009   7.375 -1.8068 -0.1179  1.2892
 9107SOL     OW38779   2.039   3.966  11.126 -0.2042  0.2857 -0.0122
 9107SOL    HW138780   2.005   4.046  11.085 -0.4092 -0.0455 -0.4823
 9107SOL    HW238781   2.130   3.978  11.098 -0.3978 -1.6085 -1.3978
 9108SOL     OW38782   2.187   1.672  13.790 -0.8643 -0.3942  0.0555
 9108SOL    HW138783   2.094   1.688  13.772 -0.6141  0.1193 -0.7725
 9108SOL    HW238784   2.224   1.759  13.775 -0.3617 -1.0494 -2.5673
 9109SOL     OW38785   2.026   0.171   3.683  0.4851  0.2830  0.3234
 9109SOL    HW138786   2.106   0.124   3.707  1.1771  1.6315  0.6415
 9109SOL    HW238787   2.045   0.206   3.595  1.2834 -2.8958 -0.7591
 9110SOL     OW38788   0.985   3.980   0.770  0.0711 -0.2820  0.2847
 9110SOL    HW138789   0.900   3.979   0.725 -1.0520  1.8874  2.2835
 9110SOL    HW238790   0.955   4.028   0.848 -1.0441 -0.2611 -0.1545
 9111SOL     OW38791   4.433   1.089  12.274 -0.0400  0.1254  0.2450
 9111SOL    HW138792   4.412   1.168  12.323 -1.0383 -0.4853  0.7990
 9111SOL    HW238793   4.343   1.062  12.256  0.8022 -2.4270 -0.1368
 9112SOL     OW38794   1.659   1.220   5.964  0.2385 -0.2253 -0.2223
 9112SOL    HW138795   1.621   1.137   5.993 -0.1051 -0.3908 -1.1392
 9112SOL    HW238796   1.612   1.235   5.882  0.4263 -0.6799 -0.4131
 9113SOL     OW38797   0.470   0.254   3.104  0.0143 -0.4157  0.1836
 9113SOL    HW138798   0.434   0.168   3.086  0.6382 -0.6177 -0.1132
 9113SOL    HW238799   0.554   0.237   3.060  0.4135 -1.5948  1.4188
 9114SOL     OW38800   3.963   2.608   5.059 -0.1512  0.4795 -0.0210
 9114SOL    HW138801   3.946   2.644   4.972  0.2918 -1.6608 -0.9804
 9114SOL    HW238802   4.045   2.652   5.083 -1.1993  2.0426  0.6787
 9115SOL     OW38803   1.389   1.283   4.602  0.4309 -0.2674  0.1735
 9115SOL    HW138804   1.459   1.346   4.592  2.8894 -2.8368  1.2019
 9115SOL    HW238805   1.314   1.342   4.614  0.8263 -0.4775  3.7270
 9116SOL     OW38806   3.535   0.141  16.233 -0.1389 -0.3799 -0.0437
 9116SOL    HW138807   3.467   0.134  16.165 -0.9871  1.1195  0.6484
 9116SOL    HW238808   3.487   0.192  16.299  0.6875 -2.0887  1.8478
 9117SOL     OW38809   2.743   1.415  16.006  0.1442 -0.5611  0.0833
 9117SOL    HW138810   2.726   1.491  16.062  0.1613 -0.7875  0.3964
 9117SOL    HW238811   2.837   1.430  15.994  0.4675 -1.9226  0.9653
 9118SOL     OW38812   3.819   1.327   7.321 -0.9763 -0.1944 -0.2392
 9118SOL    HW138813   3.738   1.377   7.310 -1.1782 -0.0440  2.0019
 9118SOL    HW238814   3.878   1.400   7.302 -0.7430 -0.6419 -1.2172
 9119SOL     OW38815   0.757   0.111   6.476 -0.3980 -0.6547  0.7358
 9119SOL    HW138816   0.761   0.019   6.449  0.1904  0.1957 -2.0246
 9119SOL    HW238817   0.773   0.091   6.568  0.3370  1.3751  1.0506
 9120SOL     OW38818   2.368   3.443   2.061  0.3336  0.1528  0.4409
 9120SOL    HW138819   2.463   3.441   2.046  0.1973  1.4412 -0.6327
 9120SOL    HW238820   2.355   3.358   2.102  2.2764 -1.0344 -1.4096
 9121SOL     OW38821   3.087   1.170   4.314  0.3473  0.0692  0.7657
 9121SOL    HW138822   2.995   1.147   4.302  0.6141 -1.0114  0.8278
 9121SOL    HW238823   3.082   1.256   4.272  1.3644  0.3236  1.1631
 9122SOL     OW38824   4.392   3.061   0.707 -0.5768 -0.0385  0.5402
 9122SOL    HW138825   4.368   3.018   0.789 -0.3369  0.4707  0.8812
 9122SOL    HW238826   4.308   3.075   0.663  1.3082  0.4510 -2.9604
 9123SOL     OW38827   2.067   1.079   8.232 -0.3837  0.2457 -0.0379
 9123SOL    HW138828   2.113   1.097   8.149  2.1258  1.9519  1.7051
 9123SOL    HW238829   2.102   1.146   8.291  1.1581  0.4756 -1.1855
 9124SOL     OW38830   4.467   3.181   7.102  0.7300  0.4567 -0.8310
 9124SOL    HW138831   4.509   3.267   7.098 -0.3949  1.1463  1.9971
 9124SOL    HW238832   4.513   3.137   7.031 -0.8444 -1.5064 -0.6174
 9125SOL     OW38833   1.804   2.070   3.735 -0.2294 -0.3118  0.2048
 9125SOL    HW138834   1.761   2.144   3.776 -1.6068 -1.7700  1.3951
 9125SOL    HW238835   1.855   2.118   3.671  0.3763  0.0630  0.9667
 9126SOL     OW38836   4.097   1.559   4.682  0.5556  0.2749  0.0183
 9126SOL    HW138837   4.072   1.538   4.772 -1.4147 -2.7477 -1.2418
 9126SOL    HW238838   4.187   1.578   4.706  0.1872  0.2793  1.3946
 9127SOL     OW38839   0.718   4.349   4.266 -0.1031 -0.1949  0.3259
 9127SOL    HW138840   0.777   4.310   4.202 -1.5733 -1.2372 -0.3820
 9127SOL    HW238841   0.764   4.423   4.307 -0.5844 -0.7693  1.9045
 9128SOL     OW38842   1.491   3.885   6.731 -0.4482  0.6048  0.0567
 9128SOL    HW138843   1.510   3.837   6.812  0.5760  0.3764 -0.3174
 9128SOL    HW238844   1.544   3.841   6.665 -1.2921 -0.5767  0.1706
 9129SOL     OW38845   0.766   3.546   7.443 -0.2566  0.0958  0.2394
 9129SOL    HW138846   0.718   3.540   7.361 -1.3391  0.0618  0.8743
 9129SOL    HW238847   0.856   3.530   7.415 -0.1770 -0.3832  0.7755
 9130SOL     OW38848   0.226   0.243   8.258 -0.0854  0.2069 -0.4261
 9130SOL    HW138849   0.160   0.203   8.315  1.1159 -0.5307  0.4736
 9130SOL    HW238850   0.188   0.223   8.173 -1.0358 -0.4127  0.1411
 9131SOL     OW38851   3.243   2.241   4.593 -0.0796  0.1902 -0.1270
 9131SOL    HW138852   3.226   2.156   4.634 -1.0801  0.6303  0.3750
 9131SOL    HW238853   3.245   2.222   4.500  0.3130  0.0799 -0.0963
 9132SOL     OW38854   3.106   3.239   8.341 -0.3936 -0.1141  0.3989
 9132SOL    HW138855   3.068   3.275   8.260 -0.9544 -0.0416  0.6929
 9132SOL    HW238856   3.028   3.202   8.382 -0.5579  0.8668  0.9679
 9133SOL     OW38857   2.324   2.132  16.816  0.0279  0.0556  0.5281
 9133SOL    HW138858   2.323   2.199  16.748  0.1190 -1.6540 -1.1490
 9133SOL    HW238859   2.242   2.156  16.861  0.7638 -2.6751  3.3010
 9134SOL     OW38860   3.871   1.833   3.483 -0.0391  0.4896 -0.1061
 9134SOL    HW138861   3.879   1.848   3.577  0.9713 -0.3118 -0.0635
 9134SOL    HW238862   3.961   1.839   3.451  0.4704 -1.3065  0.9856
 9135SOL     OW38863   4.112   2.907  10.473 -0.1692 -0.1832 -0.3116
 9135SOL    HW138864   4.075   2.934  10.389 -0.5565 -1.4181 -0.5373
 9135SOL    HW238865   4.108   2.812  10.460  0.6722 -0.0165 -1.8192
 9136SOL     OW38866   2.748   1.199   6.876 -0.0390  0.4768 -0.5115
 9136SOL    HW138867   2.815   1.132   6.886 -1.2616 -0.6700 -0.0429
 9136SOL    HW238868   2.670   1.144   6.888 -1.3598  2.2068 -1.0642
 9137SOL     OW38869   2.440   0.498  15.034  0.0913 -0.9368  0.2265
 9137SOL    HW138870   2.407   0.412  15.060  1.9088 -0.2275  4.9784
 9137SOL    HW238871   2.530   0.491  15.065 -0.1865 -1.5243  0.9012
 9138SOL     OW38872   4.268   3.450   1.324 -0.3479  0.2649 -0.4127
 9138SOL    HW138873   4.353   3.492   1.337 -1.1121  2.1314 -1.3784
 9138SOL    HW238874   4.210   3.517   1.361  0.3977  0.4173  0.4562
 9139SOL     OW38875   0.453   3.667   2.472  0.3021 -0.0704 -0.5579
 9139SOL    HW138876   0.446   3.748   2.421 -3.2858 -0.0943 -0.1065
 9139SOL    HW238877   0.371   3.629   2.441  0.7920 -0.4180 -1.4198
 9140SOL     OW38878   1.700   4.109   4.865  0.3373 -0.1065 -0.5656
 9140SOL    HW138879   1.628   4.121   4.803 -1.7456 -2.6001  1.3025
 9140SOL    HW238880   1.720   4.200   4.884 -0.7075 -0.1514  0.7825
 9141SOL     OW38881   4.473   1.644   5.051  0.3301 -0.0934 -0.2789
 9141SOL    HW138882   4.427   1.583   5.109  0.8028 -1.0476 -0.9101
 9141SOL    HW238883   4.565   1.631   5.074  0.2499  2.7182  1.6612
 9142SOL     OW38884   2.933   0.226  14.235 -0.2991 -0.2875 -0.5445
 9142SOL    HW138885   2.971   0.272  14.161  1.2840 -0.6084  0.0796
 9142SOL    HW238886   2.859   0.178  14.198 -0.0510 -1.3520  0.3454
 9143SOL     OW38887   4.333   3.118   2.741 -0.3356  0.1657  0.2640
 9143SOL    HW138888   4.300   3.079   2.822 -0.7501  0.7058  0.3545
 9143SOL    HW238889   4.253   3.096   2.693  0.2655 -0.1703 -0.5879
 9144SOL     OW38890   4.436   3.522   9.101 -0.5851 -0.2130  0.3961
 9144SOL    HW138891   4.396   3.440   9.073 -0.3251 -0.0140 -0.5560
 9144SOL    HW238892   4.368   3.589   9.097 -0.8540 -0.5085 -0.1343
 9145SOL     OW38893   3.627   3.568   7.863  0.4403 -0.3982 -0.2177
 9145SOL    HW138894   3.702   3.510   7.878  2.6546  2.9327  1.7485
 9145SOL    HW238895   3.676   3.647   7.885 -0.0507 -0.2425  0.3232
 9146SOL     OW38896   1.668   1.586   5.888 -0.7313 -0.5460 -0.1272
 9146SOL    HW138897   1.580   1.548   5.893 -1.2517  0.8435  1.2531
 9146SOL    HW238898   1.652   1.650   5.819 -1.4698 -0.5902  0.0011
 9147SOL     OW38899   0.856   0.898   9.327  0.3946 -0.4177  0.3124
 9147SOL    HW138900   0.934   0.933   9.285 -1.1371  1.3089 -1.0770
 9147SOL    HW238901   0.818   0.846   9.257 -0.5371 -0.8230  1.1067
 9148SOL     OW38902   0.197   4.401   6.433  0.3376  0.2478 -0.2260
 9148SOL    HW138903   0.192   4.305   6.436  1.8138  0.1145 -1.8816
 9148SOL    HW238904   0.291   4.420   6.443 -0.1288  0.7145  3.3575
 9149SOL     OW38905   1.526   2.856  15.845  0.3490  0.2076 -0.1300
 9149SOL    HW138906   1.559   2.944  15.863  0.4483 -0.4361  2.8051
 9149SOL    HW238907   1.444   2.897  15.819  1.0431  0.2901 -2.1547
 9150SOL     OW38908   1.507   4.226   3.329 -0.2415  0.1050 -0.6182
 9150SOL    HW138909   1.457   4.146   3.341 -0.0735  0.0280 -0.4339
 9150SOL    HW238910   1.590   4.216   3.376  0.2634 -0.4118 -1.6102
 9151SOL     OW38911   0.517   4.584  13.037 -0.1564  0.3729 -0.1066
 9151SOL    HW138912   0.486   4.603  12.948 -1.2070  0.8359  0.3583
 9151SOL    HW238913   0.454   4.517  13.065  0.3152 -0.0649 -0.0932
 9152SOL     OW38914   0.625   1.956  14.666 -0.4284  0.4503  0.8970
 9152SOL    HW138915   0.607   2.020  14.598  0.5162 -1.0764 -0.7797
 9152SOL    HW238916   0.534   1.936  14.691 -0.6594  0.4062  0.0342
 9153SOL     OW38917   4.451   3.317   1.057 -0.5045  0.7790  0.4243
 9153SOL    HW138918   4.375   3.368   1.029 -0.1963 -0.8855 -3.3544
 9153SOL    HW238919   4.528   3.367   1.030 -0.3099  1.4248  2.1915
 9154SOL     OW38920   1.491   0.667   5.389 -0.2433 -0.4818  0.8465
 9154SOL    HW138921   1.506   0.762   5.386 -1.1704 -0.3705 -0.2184
 9154SOL    HW238922   1.568   0.636   5.436  2.5035  2.3597 -1.8008
 9155SOL     OW38923   0.971   1.224   4.946 -0.3275  0.8386  0.1072
 9155SOL    HW138924   1.021   1.285   5.001  1.3722 -0.8271  0.4208
 9155SOL    HW238925   0.984   1.140   4.990  0.2829  0.3850 -0.9326
 9156SOL     OW38926   4.449   4.027   2.896 -0.2522 -0.3297  0.0367
 9156SOL    HW138927   4.413   4.112   2.921  0.2460  0.3491 -1.5759
 9156SOL    HW238928   4.497   4.053   2.818 -0.2492  1.1772  0.5493
 9157SOL     OW38929   1.941   2.259   2.859 -0.8318  0.0807 -0.2277
 9157SOL    HW138930   1.978   2.344   2.838 -0.6445  0.2721  0.8822
 9157SOL    HW238931   1.997   2.202   2.806  0.5796  1.9357 -0.7318
 9158SOL     OW38932   0.712   0.037   6.976 -0.0483  0.3440 -0.5752
 9158SOL    HW138933   0.692   0.015   7.067  1.1557  0.7732 -0.2039
 9158SOL    HW238934   0.621   0.029   6.947  0.1361 -0.9788 -0.7960
 9159SOL     OW38935   3.065   2.544  12.701  0.0768  0.1350  0.1258
 9159SOL    HW138936   3.117   2.621  12.723  0.2699 -0.0522  0.3338
 9159SOL    HW238937   3.134   2.481  12.722 -1.1148 -0.2073  2.9936
 9160SOL     OW38938   2.413   1.398   2.714  0.5086 -0.1871  0.6222
 9160SOL    HW138939   2.448   1.467   2.771  1.5217  0.9511 -1.3661
 9160SOL    HW238940   2.486   1.337   2.708  2.0687  1.4971  2.8384
 9161SOL     OW38941   2.271   1.326  12.029  0.2008 -0.2719  0.5254
 9161SOL    HW138942   2.326   1.404  12.026 -0.8838  0.6288  3.9881
 9161SOL    HW238943   2.301   1.280  11.950  0.9297  1.2563 -0.0780
 9162SOL     OW38944   2.954   3.737  13.427  0.1283  0.2240 -0.1989
 9162SOL    HW138945   2.909   3.713  13.507 -1.0403 -0.1937 -0.9769
 9162SOL    HW238946   3.032   3.777  13.465 -0.1345  1.9299 -1.4272
 9163SOL     OW38947   1.231   0.488   1.419  0.1212 -0.0021  0.2783
 9163SOL    HW138948   1.177   0.553   1.376  0.6644 -1.2616 -2.2862
 9163SOL    HW238949   1.188   0.484   1.505 -0.5808 -2.7048 -0.1881
 9164SOL     OW38950   3.309   2.399   0.366 -0.1941  0.1623 -0.0041
 9164SOL    HW138951   3.241   2.416   0.431  0.4190  2.8187 -0.0593
 9164SOL    HW238952   3.382   2.421   0.423  2.4714 -0.2558 -3.2526
 9165SOL     OW38953   3.810   1.450   2.045  0.6964 -0.8474  0.9657
 9165SOL    HW138954   3.730   1.404   2.070  1.9137 -1.5880  3.4632
 9165SOL    HW238955   3.783   1.542   2.041 -0.9955 -1.4348 -0.9449
 9166SOL     OW38956   0.160   1.948   5.220 -0.4501 -0.1600 -0.0316
 9166SOL    HW138957   0.179   2.002   5.297 -0.3205 -1.0459  0.5632
 9166SOL    HW238958   0.123   1.870   5.262 -0.4245 -0.4900 -0.6111
 9167SOL     OW38959   1.706   2.483  17.373  0.0564 -0.0004 -1.5797
 9167SOL    HW138960   1.733   2.394  17.396  2.9191  1.1261 -0.5709
 9167SOL    HW238961   1.610   2.482  17.372  0.0733 -2.2240  0.0043
 9168SOL     OW38962   0.267   1.621  12.103 -0.1051  0.4523  0.0873
 9168SOL    HW138963   0.225   1.569  12.035 -0.8183 -0.3446  1.1363
 9168SOL    HW238964   0.317   1.551  12.144  0.2969 -0.5215 -2.1257
 9169SOL     OW38965   2.145   0.446   4.542 -0.1075  0.0308 -0.6870
 9169SOL    HW138966   2.229   0.482   4.568 -0.1954 -1.3176  1.4652
 9169SOL    HW238967   2.088   0.473   4.615  0.3762  1.6091 -0.8925
 9170SOL     OW38968   4.643   0.730   2.698 -0.1606  0.3089  0.4146
 9170SOL    HW138969   0.006   0.767   2.683 -1.2708  2.2836 -1.1510
 9170SOL    HW238970   4.613   0.698   2.613  0.2321 -0.8332  0.7074
 9171SOL     OW38971   2.055   1.545   0.441 -0.1198  0.2428  0.2958
 9171SOL    HW138972   2.055   1.582   0.352  1.5274  1.4203  0.7912
 9171SOL    HW238973   2.004   1.617   0.477  0.6281  0.3823  1.0587
 9172SOL     OW38974   0.849   3.567   3.521  0.2613  0.0498  0.6211
 9172SOL    HW138975   0.901   3.562   3.441  2.0171  1.5757  1.6619
 9172SOL    HW238976   0.761   3.585   3.488  0.3103 -0.7490  0.0522
 9173SOL     OW38977   2.541   1.133   7.158 -0.5329 -0.2839  0.1441
 9173SOL    HW138978   2.494   1.211   7.187 -0.2003  0.6071 -1.7213
 9173SOL    HW238979   2.465   1.078   7.138 -0.8762  0.6580 -1.0973
 9174SOL     OW38980   1.301   3.773   2.130  0.1863  0.1683 -0.4878
 9174SOL    HW138981   1.348   3.856   2.139 -2.2452  1.6537 -1.2314
 9174SOL    HW238982   1.210   3.804   2.130  0.1187 -0.0294 -2.6422
 9175SOL     OW38983   2.476   2.512   2.147  0.8890  0.7457 -0.5063
 9175SOL    HW138984   2.539   2.484   2.213  0.2049 -1.3382 -0.7478
 9175SOL    HW238985   2.397   2.504   2.200  0.7131  1.1973 -0.6947
 9176SOL     OW38986   0.531   3.625   6.963 -1.1408 -0.6899  0.8344
 9176SOL    HW138987   0.465   3.694   6.972 -0.9646 -0.4142 -0.0406
 9176SOL    HW238988   0.557   3.632   7.055 -0.1330 -2.5151  0.6680
 9177SOL     OW38989   1.816   2.178  10.818 -0.3859 -0.1593 -0.2401
 9177SOL    HW138990   1.756   2.236  10.864 -0.0862 -2.0483  2.4977
 9177SOL    HW238991   1.781   2.095  10.850  1.9010 -0.3814  1.6476
 9178SOL     OW38992   2.592   1.720  15.330  0.7228  0.0928  0.1455
 9178SOL    HW138993   2.572   1.806  15.367 -0.5137 -0.4145  0.6375
 9178SOL    HW238994   2.508   1.689  15.298  0.4041  2.5580 -1.3369
 9179SOL     OW38995   3.898   0.375   1.550 -0.1043 -0.3814  0.4935
 9179SOL    HW138996   3.893   0.465   1.582  0.9216 -0.0581 -0.2721
 9179SOL    HW238997   3.841   0.338   1.618 -3.4489  1.0311 -1.5397
 9180SOL     OW38998   3.225   3.276   2.797 -0.4950 -0.2433  0.1806
 9180SOL    HW138999   3.289   3.225   2.848  0.7614  0.7639 -0.3923
 9180SOL    HW239000   3.278   3.322   2.733 -1.8112  0.2512 -0.5463
 9181SOL     OW39001   3.447   1.571   3.051 -0.0931  0.3800 -0.1651
 9181SOL    HW139002   3.483   1.511   3.116 -0.3388 -0.8515 -1.1610
 9181SOL    HW239003   3.472   1.521   2.974 -1.6357  0.4836 -0.7348
 9182SOL     OW39004   0.045   3.016   1.601  0.5976  0.3712 -0.4536
 9182SOL    HW139005   0.002   2.963   1.534 -0.0594 -1.3282  1.2788
 9182SOL    HW239006   0.121   2.959   1.614  0.1516  0.0010  0.5590
 9183SOL     OW39007   3.088   0.245   4.777  0.3715  0.2822  0.5378
 9183SOL    HW139008   3.131   0.204   4.702  1.5497  0.2042  1.2595
 9183SOL    HW239009   3.126   0.202   4.853 -0.6301 -1.2403  0.1721
 9184SOL     OW39010   2.838   1.802   4.059 -0.3498  0.7785  0.0926
 9184SOL    HW139011   2.860   1.764   4.144 -3.3768 -0.4367  0.3625
 9184SOL    HW239012   2.913   1.860   4.045  0.5063 -0.4619 -0.4190
 9185SOL     OW39013   2.372   1.934  12.612 -0.2581 -0.5075 -0.0941
 9185SOL    HW139014   2.339   1.859  12.662 -2.7485 -0.1534 -1.2055
 9185SOL    HW239015   2.296   1.992  12.620 -0.6408 -0.9098 -0.8813
 9186SOL     OW39016   4.337   4.150   5.147  0.2084 -0.0083  0.1268
 9186SOL    HW139017   4.365   4.161   5.238  0.7010  2.8963 -0.3805
 9186SOL    HW239018   4.354   4.237   5.111  3.5650 -1.0710 -0.8248
 9187SOL     OW39019   2.522   3.703   0.459  0.2724 -0.0139  0.5162
 9187SOL    HW139020   2.546   3.750   0.539 -0.7722  2.3017 -0.5212
 9187SOL    HW239021   2.589   3.636   0.474 -0.6828 -1.1393 -0.1516
 9188SOL     OW39022   2.460   0.466   5.957 -0.5240 -0.1456  0.2338
 9188SOL    HW139023   2.424   0.452   5.870 -1.6981  3.1541  0.2148
 9188SOL    HW239024   2.383   0.442   6.008 -0.3918  0.7034  0.8454
 9189SOL     OW39025   4.183   1.769  10.566 -0.4253  0.3972 -0.1268
 9189SOL    HW139026   4.159   1.712  10.493  2.0870 -0.7288 -0.0961
 9189SOL    HW239027   4.097   1.798  10.597 -0.0992  1.9248 -0.6559
 9190SOL     OW39028   0.144   2.465   7.044 -0.4080 -0.7272 -0.4639
 9190SOL    HW139029   0.073   2.528   7.056  0.5787 -0.1628  2.1906
 9190SOL    HW239030   0.222   2.514   7.068 -0.3587 -1.7271  1.4559
 9191SOL     OW39031   1.304   4.202   7.422 -0.7684 -0.4849  0.1354
 9191SOL    HW139032   1.302   4.251   7.504 -0.7100 -1.2003  0.5610
 9191SOL    HW239033   1.330   4.271   7.361  0.3263 -1.5996 -0.6604
 9192SOL     OW39034   0.090   2.383  15.746 -0.0438  0.6004 -0.3068
 9192SOL    HW139035   0.010   2.334  15.725  0.8801 -0.8643 -0.4497
 9192SOL    HW239036   0.111   2.346  15.832 -0.2464 -0.8947 -0.9015
 9193SOL     OW39037   3.430   0.160   8.630  0.8628 -0.2545  0.1476
 9193SOL    HW139038   3.349   0.210   8.640  1.1661  0.0153  1.2730
 9193SOL    HW239039   3.389   0.077   8.651 -0.2714  0.2282 -0.1938
 9194SOL     OW39040   4.009   1.505  13.021  0.6465 -0.3884 -0.3579
 9194SOL    HW139041   3.954   1.539  12.951  0.8010  2.3866  0.8712
 9194SOL    HW239042   4.019   1.416  12.988 -1.8847 -1.0800  0.7233
 9195SOL     OW39043   2.690   3.860  15.100  0.6900  0.3361 -0.4990
 9195SOL    HW139044   2.728   3.924  15.039  0.2075  1.0921 -0.0049
 9195SOL    HW239045   2.629   3.814  15.043  0.5537  0.8333 -0.7568
 9196SOL     OW39046   4.435   2.439   3.063 -0.1539  0.1021 -0.1103
 9196SOL    HW139047   4.519   2.432   3.016 -0.8968 -0.6405 -1.3295
 9196SOL    HW239048   4.426   2.351   3.099 -2.0368  1.0049  1.6325
 9197SOL     OW39049   4.658   2.033   6.002  0.2472 -1.1886 -0.1856
 9197SOL    HW139050   4.671   2.118   6.045  1.3695  0.2465 -3.2787
 9197SOL    HW239051   4.703   2.050   5.919  2.0116 -1.0067  0.8172
 9198SOL     OW39052   3.168   2.286   2.903  1.0226 -0.2394  0.1520
 9198SOL    HW139053   3.218   2.354   2.947  0.1453 -0.8456  2.1025
 9198SOL    HW239054   3.216   2.207   2.928  0.5090 -1.1016 -1.6122
 9199SOL     OW39055   1.027   2.514  15.228  0.3497  0.1651  0.0698
 9199SOL    HW139056   1.036   2.424  15.195  0.0943  0.0058  0.4307
 9199SOL    HW239057   0.961   2.548  15.168 -2.2251 -2.2969  1.5215
 9200SOL     OW39058   1.273   2.679   5.630 -0.2990  0.0724  0.5527
 9200SOL    HW139059   1.357   2.675   5.583 -0.7523  1.2333 -0.3651
 9200SOL    HW239060   1.210   2.639   5.570 -0.2000  1.3436 -0.3993
 9201SOL     OW39061   4.151   1.816  16.685 -0.1046  0.2110  0.3123
 9201SOL    HW139062   4.185   1.738  16.641 -0.5157  0.7260 -0.9239
 9201SOL    HW239063   4.188   1.810  16.773 -2.9282 -2.4382  1.3175
 9202SOL     OW39064   4.242   3.228  12.839  0.6342 -0.0996  0.1512
 9202SOL    HW139065   4.259   3.305  12.784 -2.1365  0.7766  0.5090
 9202SOL    HW239066   4.266   3.267  12.922  1.0892  1.4277 -0.7038
 9203SOL     OW39067   3.138   4.451  11.847 -0.0057  0.3495 -0.0292
 9203SOL    HW139068   3.131   4.361  11.880  0.7883  0.0930 -0.5513
 9203SOL    HW239069   3.083   4.501  11.907  0.3854  0.6564  0.0788
 9204SOL     OW39070   1.592   3.477   0.734  0.3381  0.8144  0.2922
 9204SOL    HW139071   1.639   3.395   0.721 -0.6824  0.3622 -0.5328
 9204SOL    HW239072   1.666   3.536   0.745  1.5109 -0.3436 -1.3851
 9205SOL     OW39073   2.180   4.084  11.394  0.5054 -0.0249  0.0339
 9205SOL    HW139074   2.168   4.023  11.321  1.8102  0.6610 -0.7600
 9205SOL    HW239075   2.276   4.087  11.401  0.5732 -1.2395 -0.4250
 9206SOL     OW39076   0.412   4.237   5.545 -0.6404 -0.9638 -0.6107
 9206SOL    HW139077   0.399   4.189   5.627 -3.7022  1.9265  0.5711
 9206SOL    HW239078   0.466   4.310   5.575 -0.0893 -1.3676 -0.6189
 9207SOL     OW39079   2.394   4.377  17.329 -0.1954  0.5016  0.6239
 9207SOL    HW139080   2.314   4.344  17.289 -0.3305 -1.1371  2.2676
 9207SOL    HW239081   2.379   4.354  17.420 -0.3370  0.0882  0.4968
 9208SOL     OW39082   0.360   3.361   6.723  0.3384  0.3855 -0.3257
 9208SOL    HW139083   0.381   3.448   6.689 -1.3938  0.3552 -1.4663
 9208SOL    HW239084   0.326   3.311   6.649  3.9943  0.4875 -2.0852
 9209SOL     OW39085   1.993   4.486   2.057 -0.0791  0.0173  0.2682
 9209SOL    HW139086   1.914   4.438   2.032 -1.8556  2.3330  1.4832
 9209SOL    HW239087   1.994   4.545   1.982 -1.1083 -1.2808 -0.7593
 9210SOL     OW39088   0.586   4.133  13.405 -0.2534 -0.0594  0.1249
 9210SOL    HW139089   0.503   4.168  13.440 -1.1938 -3.0269  0.8124
 9210SOL    HW239090   0.554   4.086  13.328  0.4460  2.6705 -1.8494
 9211SOL     OW39091   4.608   2.141   2.596  0.0196  0.0492  0.5223
 9211SOL    HW139092   4.528   2.151   2.648  0.3029  2.6601  0.4547
 9211SOL    HW239093   4.575   2.071   2.539 -0.2418  1.3675 -0.9679
 9212SOL     OW39094   2.576   1.222   3.520 -0.5091  0.1935  0.1367
 9212SOL    HW139095   2.633   1.272   3.461  0.5906  1.2612  2.1032
 9212SOL    HW239096   2.490   1.243   3.482 -0.8503  0.3973  1.0178
 9213SOL     OW39097   3.635   1.331   1.721  0.1022  0.5530  0.7454
 9213SOL    HW139098   3.660   1.423   1.718  2.7449 -0.2726 -2.0391
 9213SOL    HW239099   3.555   1.338   1.773 -0.7375  2.6566 -0.8320
 9214SOL     OW39100   1.056   1.100  12.253 -0.1480  0.1280  0.3135
 9214SOL    HW139101   1.056   1.021  12.307  0.2713  0.1677  0.3775
 9214SOL    HW239102   1.122   1.079  12.186  0.5876  0.1666  1.0198
 9215SOL     OW39103   4.088   4.042   5.355  0.0064 -0.3094  0.2169
 9215SOL    HW139104   4.003   4.036   5.312 -1.4027  0.4972  2.9351
 9215SOL    HW239105   4.053   4.018   5.440  2.2596  0.5298  1.3951
 9216SOL     OW39106   0.742   0.620   8.726 -0.0121  0.4504  0.1051
 9216SOL    HW139107   0.745   0.573   8.809 -0.0623 -1.5230 -0.9925
 9216SOL    HW239108   0.711   0.551   8.667 -3.3715  1.6046  0.5267
 9217SOL     OW39109   3.271   0.047   2.905 -0.1173  0.2690 -0.1786
 9217SOL    HW139110   3.244   0.134   2.935 -0.6924  1.1330 -3.1111
 9217SOL    HW239111   3.326   0.026   2.980 -0.8908  1.4600  0.7336
 9218SOL     OW39112   3.765   3.230   2.290  0.0700  0.5820  0.7178
 9218SOL    HW139113   3.788   3.142   2.319  0.2865  0.3658 -0.1099
 9218SOL    HW239114   3.851   3.268   2.271  0.4684 -1.7665 -2.0654
 9219SOL     OW39115   2.017   1.383   4.029  0.1929  0.3962  0.0614
 9219SOL    HW139116   2.016   1.477   4.008  2.7339  0.4402  0.1319
 9219SOL    HW239117   1.976   1.379   4.115  0.4997 -1.8899  0.1001
 9220SOL     OW39118   2.318   0.149   4.675 -0.3920 -0.5085  0.9458
 9220SOL    HW139119   2.284   0.153   4.586 -0.4092 -1.6519  0.9016
 9220SOL    HW239120   2.391   0.087   4.663  0.1292  0.2648  0.1037
 9221SOL     OW39121   0.832   2.913   6.782  0.4114 -0.2659 -0.5050
 9221SOL    HW139122   0.792   2.863   6.711  1.2612 -0.2363 -1.0131
 9221SOL    HW239123   0.853   2.992   6.732 -0.1006  0.6103  0.6715
 9222SOL     OW39124   3.511   4.472  15.039  0.3482 -0.4345  0.6442
 9222SOL    HW139125   3.423   4.502  15.018  0.5628  0.7091  1.3580
 9222SOL    HW239126   3.502   4.380  15.017  0.3172 -0.3192  0.1733
 9223SOL     OW39127   2.682   4.707  10.027  0.8948 -0.3063 -0.8029
 9223SOL    HW139128   2.663   0.006   9.936  1.2997 -0.0194 -0.8188
 9223SOL    HW239129   2.687   4.612  10.033 -2.5001 -0.3404  1.2994
 9224SOL     OW39130   1.880   4.056   8.729  0.1237 -0.0471  0.3455
 9224SOL    HW139131   1.894   3.988   8.663 -2.9098  0.0215 -0.3843
 9224SOL    HW239132   1.908   4.005   8.805  0.8292 -0.3922 -0.1518
 9225SOL     OW39133   2.482   3.282   4.561  0.1210  0.8741  0.2885
 9225SOL    HW139134   2.500   3.191   4.539 -1.3645  0.6111  0.1138
 9225SOL    HW239135   2.414   3.301   4.496 -1.3243 -0.2263  1.4629
 9226SOL     OW39136   4.179   3.061   3.057  0.5457  0.5818  0.5726
 9226SOL    HW139137   4.086   3.036   3.056  1.4734 -2.8660  0.1053
 9226SOL    HW239138   4.226   2.978   3.050 -1.5599 -0.8178  2.8206
 9227SOL     OW39139   0.265   3.708   5.486  0.2436  0.0795  0.5419
 9227SOL    HW139140   0.242   3.670   5.401  0.0189  2.1718 -0.3435
 9227SOL    HW239141   0.233   3.796   5.467  2.1679  0.1958 -2.1253
 9228SOL     OW39142   1.939   1.261   7.544 -0.5524  0.3439  0.6165
 9228SOL    HW139143   1.999   1.322   7.501 -0.2583  1.5898  2.7668
 9228SOL    HW239144   1.951   1.178   7.498  0.5798  0.5124  0.6094
 9229SOL     OW39145   4.178   1.855  13.355 -0.3288 -0.4880 -0.6617
 9229SOL    HW139146   4.203   1.803  13.431 -2.5300  1.7410  1.6021
 9229SOL    HW239147   4.099   1.806  13.335 -1.5162  1.0097  0.3846
 9230SOL     OW39148   4.647   0.155   4.780  0.0472  0.4115  0.5291
 9230SOL    HW139149   4.579   0.202   4.733  1.0927 -2.7866 -4.1853
 9230SOL    HW239150   0.001   0.188   4.735 -0.1857  1.8397  1.1942
 9231SOL     OW39151   4.186   0.548   3.228 -0.4570  0.3226  0.2082
 9231SOL    HW139152   4.095   0.521   3.220 -0.2339 -0.0984 -0.9187
 9231SOL    HW239153   4.164   0.640   3.240 -2.1779  0.1838 -1.9095
 9232SOL     OW39154   2.900   1.175  14.599 -0.5430  0.6817 -0.3169
 9232SOL    HW139155   2.887   1.084  14.573  2.2743  0.3769 -0.6820
 9232SOL    HW239156   2.839   1.219  14.540 -0.9239 -1.3802 -1.4520
 9233SOL     OW39157   2.722   2.645   5.620 -0.0005 -0.2784 -0.2330
 9233SOL    HW139158   2.762   2.661   5.535  0.6456  0.4088  0.2022
 9233SOL    HW239159   2.632   2.676   5.615  0.3947  0.9662  0.3407
 9234SOL     OW39160   3.045   2.887   9.729 -0.1340 -0.5233 -0.0331
 9234SOL    HW139161   3.021   2.805   9.772 -1.6687 -0.3162 -0.5125
 9234SOL    HW239162   2.978   2.896   9.662 -2.4879 -0.7625  2.3092
 9235SOL     OW39163   1.866   2.914  11.232 -0.0437  0.2673  0.1240
 9235SOL    HW139164   1.865   2.908  11.137  1.1491  1.7201  0.0202
 9235SOL    HW239165   1.826   3.000  11.250 -0.5709  0.0704 -0.1120
 9236SOL     OW39166   4.428   4.528  16.223 -0.0052  0.6671  0.3611
 9236SOL    HW139167   4.348   4.575  16.199 -0.7041 -0.7006 -0.0113
 9236SOL    HW239168   4.470   4.497  16.143 -0.0811  0.3784  0.4314
 9237SOL     OW39169   0.430   1.897   2.852  0.1268 -0.2985  0.0073
 9237SOL    HW139170   0.493   1.968   2.840 -0.2064  0.0312  0.2207
 9237SOL    HW239171   0.464   1.857   2.932 -0.0630 -0.1275  0.1737
 9238SOL     OW39172   3.874   1.803  16.777 -0.7931  0.6956 -0.4687
 9238SOL    HW139173   3.970   1.803  16.776 -0.7860  0.6235  0.1026
 9238SOL    HW239174   3.847   1.771  16.691  0.0496 -1.5872  0.1379
 9239SOL     OW39175   2.460   4.697   7.312  0.3095  0.3957 -0.2887
 9239SOL    HW139176   2.552   4.671   7.308  0.1809 -0.0025 -0.6567
 9239SOL    HW239177   2.447   4.703   7.406 -2.4884  1.0862 -0.7095
 9240SOL     OW39178   2.496   0.957   4.224 -0.1099 -0.1171 -0.0820
 9240SOL    HW139179   2.465   1.030   4.171  0.3221 -1.0451 -1.6280
 9240SOL    HW239180   2.493   0.984   4.315  0.9359 -0.2243 -0.0097
 9241SOL     OW39181   4.352   4.476   0.045 -0.1326 -0.5314 -0.0954
 9241SOL    HW139182   4.270   4.475   0.094  0.3226  0.1935  0.6777
 9241SOL    HW239183   4.406   4.527   0.105  1.7814 -0.8269 -1.5405
 9242SOL     OW39184   3.878   1.686   4.557 -0.2299  0.1006 -0.1240
 9242SOL    HW139185   3.911   1.737   4.483  0.3786  1.5868  1.1921
 9242SOL    HW239186   3.954   1.657   4.607  2.3873  1.0963 -3.5486
 9243SOL     OW39187   3.738   2.760   3.293 -0.5890 -0.7441 -0.1217
 9243SOL    HW139188   3.828   2.792   3.293 -0.4959 -1.0072  0.5657
 9243SOL    HW239189   3.751   2.678   3.245  2.7201  0.8731 -1.9734
 9244SOL     OW39190   2.960   1.836   2.312 -0.2893 -0.1094  0.3099
 9244SOL    HW139191   2.918   1.753   2.334 -2.0330  0.8100  0.4381
 9244SOL    HW239192   2.899   1.883   2.255 -1.0059 -2.2271 -0.6692
 9245SOL     OW39193   1.483   4.363   6.233  0.1185 -0.2597 -0.2072
 9245SOL    HW139194   1.433   4.413   6.298 -1.8320 -1.3347 -0.8792
 9245SOL    HW239195   1.411   4.325   6.182 -0.8517  0.3110  0.7339
 9246SOL     OW39196   3.860   3.422   6.603 -0.8143 -0.1605 -0.8520
 9246SOL    HW139197   3.917   3.380   6.668  1.3446  1.0682 -1.9498
 9246SOL    HW239198   3.927   3.463   6.549 -0.3025 -0.8549 -0.7540
 9247SOL     OW39199   3.686   1.857   7.852 -0.1440  0.1492 -0.5711
 9247SOL    HW139200   3.653   1.776   7.815  2.2632 -0.6670 -0.9177
 9247SOL    HW239201   3.607   1.911   7.863 -0.4251  0.2010 -2.9327
 9248SOL     OW39202   1.803   0.106   2.708 -0.5610  0.1314  0.0738
 9248SOL    HW139203   1.891   0.136   2.732  0.7265 -1.3089 -2.7669
 9248SOL    HW239204   1.758   0.142   2.784 -0.0423 -0.6983  0.7714
 9249SOL     OW39205   2.017   2.172  14.878  0.1299  0.0520  0.4260
 9249SOL    HW139206   1.950   2.237  14.860  2.0346  1.5909 -1.0808
 9249SOL    HW239207   1.973   2.128  14.950 -2.5410  0.4585 -0.9751
 9250SOL     OW39208   4.452   3.946   6.408 -0.1832  0.5069  0.5108
 9250SOL    HW139209   4.383   3.902   6.358 -0.0062  0.9825 -0.1596
 9250SOL    HW239210   4.535   3.932   6.361  0.0122  0.3629  0.8987
 9251SOL     OW39211   0.357   2.582   7.117  0.4600  0.0922 -0.1252
 9251SOL    HW139212   0.352   2.677   7.112 -1.6593 -0.0590 -1.0066
 9251SOL    HW239213   0.426   2.564   7.053  0.3502  1.9992 -0.7490
 9252SOL     OW39214   1.451   0.566  12.800  0.1533  0.1615  0.0949
 9252SOL    HW139215   1.482   0.575  12.710 -1.2802 -1.5832 -0.5872
 9252SOL    HW239216   1.425   0.475  12.814 -1.9437  0.5435 -1.2426
 9253SOL     OW39217   1.937   4.379   6.335  0.2190 -1.0711  0.6157
 9253SOL    HW139218   1.864   4.386   6.274  0.7493 -0.9340 -0.0085
 9253SOL    HW239219   2.011   4.404   6.279 -1.7665  2.0010 -0.6146
 9254SOL     OW39220   1.900   1.253   6.583 -0.0494  0.1491  0.3883
 9254SOL    HW139221   1.959   1.258   6.658  1.9374 -1.5315 -1.0581
 9254SOL    HW239222   1.867   1.343   6.575  4.7929  1.9584  0.7008
 9255SOL     OW39223   0.249   2.073   5.450 -0.1849  0.5800  0.1424
 9255SOL    HW139224   0.198   2.114   5.520 -2.6028 -0.9842 -0.7319
 9255SOL    HW239225   0.339   2.086   5.482  1.1570 -2.2022 -2.5196
 9256SOL     OW39226   3.175   1.988   6.889 -0.3420 -0.0238  0.7450
 9256SOL    HW139227   3.144   2.063   6.838  1.4559  0.7197  0.7505
 9256SOL    HW239228   3.202   2.025   6.974  1.7071 -0.6319  0.3355
 9257SOL     OW39229   1.212   1.004  17.425  0.6972  0.0132  0.0401
 9257SOL    HW139230   1.212   0.977  17.517  0.3771  1.9762  0.6058
 9257SOL    HW239231   1.121   1.026  17.410  0.7389 -0.0801 -0.3594
 9258SOL     OW39232   2.412   2.460   5.696 -0.3685 -0.3104 -0.0743
 9258SOL    HW139233   2.340   2.520   5.720 -1.3661 -1.3705 -0.4006
 9258SOL    HW239234   2.408   2.469   5.601 -0.0648 -0.4086 -0.0951
 9259SOL     OW39235   1.356   2.981  11.091  0.4496  0.2152 -0.5916
 9259SOL    HW139236   1.392   3.036  11.161  0.3168 -2.0539  1.2458
 9259SOL    HW239237   1.389   2.893  11.110  1.8023  0.8204 -0.1434
 9260SOL     OW39238   1.999   1.718  13.442 -0.4311  0.1306 -0.1800
 9260SOL    HW139239   1.966   1.748  13.527 -1.9235 -0.3704 -0.5918
 9260SOL    HW239240   2.032   1.799  13.402  2.5989 -0.4535  1.0986
 9261SOL     OW39241   0.734   0.291   6.164  0.4913  0.7088  0.0662
 9261SOL    HW139242   0.710   0.198   6.169 -1.9057  1.4525  2.5894
 9261SOL    HW239243   0.742   0.313   6.257  1.1872  1.8953 -0.2777
 9262SOL     OW39244   0.021   2.850   2.275 -0.1552  0.3190 -0.2035
 9262SOL    HW139245   0.030   2.876   2.367 -1.9220 -2.2860  0.7238
 9262SOL    HW239246   0.062   2.927   2.237  2.4732 -1.7817 -1.5828
 9263SOL     OW39247   3.266   1.347   8.393 -0.0906 -0.3220  0.5107
 9263SOL    HW139248   3.195   1.288   8.416 -1.1723  0.0172 -1.9268
 9263SOL    HW239249   3.250   1.417   8.456 -1.1278 -0.7398  0.7111
 9264SOL     OW39250   0.015   2.176   4.937  0.0800 -0.3924  0.0192
 9264SOL    HW139251   0.005   2.257   4.887  1.6640  0.4644  1.0732
 9264SOL    HW239252   4.706   2.119   4.868  3.6610 -1.5315 -0.7093
 9265SOL     OW39253   3.335   0.972   7.628  0.1176 -0.3174 -0.5446
 9265SOL    HW139254   3.377   0.900   7.581  2.4794  0.7436 -0.0819
 9265SOL    HW239255   3.408   0.992   7.687 -0.0361  0.7225 -0.7148
 9266SOL     OW39256   0.768   1.241   7.846  0.4106 -0.4961 -0.0469
 9266SOL    HW139257   0.755   1.185   7.923  0.2324 -0.5005 -0.0783
 9266SOL    HW239258   0.836   1.305   7.865  0.3000 -0.2877 -0.3474
 9267SOL     OW39259   0.366   0.034  14.451  0.1146  0.4285 -0.2280
 9267SOL    HW139260   0.321   0.005  14.530 -1.4788  1.1603 -0.8667
 9267SOL    HW239261   0.304   0.001  14.385 -0.4345  0.6317  0.1807
 9268SOL     OW39262   0.864   2.943   3.334 -0.6087  0.0253 -0.4073
 9268SOL    HW139263   0.866   2.878   3.404 -0.2096  1.1959  0.6495
 9268SOL    HW239264   0.916   2.894   3.270 -0.2759  1.5682 -1.3255
 9269SOL     OW39265   1.833   0.639   1.518 -0.1347  0.5290 -0.0346
 9269SOL    HW139266   1.890   0.614   1.446  2.2363  3.1276  0.9343
 9269SOL    HW239267   1.848   0.566   1.578 -1.3241  0.5562  0.3119
 9270SOL     OW39268   3.306   1.498   4.540 -0.0595 -0.1244 -0.2121
 9270SOL    HW139269   3.381   1.471   4.488 -0.7114  0.4357 -1.4559
 9270SOL    HW239270   3.334   1.467   4.625  0.8767  2.5186  0.4367
 9271SOL     OW39271   2.154   4.508   2.290  0.3458 -0.0422  0.3656
 9271SOL    HW139272   2.235   4.476   2.252  0.7937  0.4140  0.9309
 9271SOL    HW239273   2.095   4.497   2.216  0.7219 -3.1530  0.5558
 9272SOL     OW39274   3.390   2.305  16.997 -0.2933 -0.6679 -0.0505
 9272SOL    HW139275   3.344   2.266  17.071  0.3920  0.9103  1.2219
 9272SOL    HW239276   3.479   2.306  17.030  0.1503  1.1226 -1.2608
 9273SOL     OW39277   2.336   4.622   5.131 -0.6724 -0.0770 -0.5525
 9273SOL    HW139278   2.259   4.584   5.087 -1.1985  0.3404  0.0043
 9273SOL    HW239279   2.404   4.633   5.064  0.4566 -0.4835  0.5393
 9274SOL     OW39280   4.173   2.554   7.351 -0.1891 -0.6304  0.1433
 9274SOL    HW139281   4.180   2.649   7.349  3.7181 -0.8986  1.3471
 9274SOL    HW239282   4.092   2.542   7.302 -0.0737 -1.4018  0.1326
 9275SOL     OW39283   0.018   2.664   2.663 -0.3991 -0.3147 -0.0556
 9275SOL    HW139284   0.109   2.635   2.652  0.1543  0.7225  1.6810
 9275SOL    HW239285   4.695   2.582   2.650  2.9040 -1.9504 -1.4694
 9276SOL     OW39286   3.885   2.344   0.024 -0.1117  0.2732 -0.5365
 9276SOL    HW139287   3.901   2.280  17.649  0.7477 -0.0697 -0.0190
 9276SOL    HW239288   3.899   2.427  17.674 -0.5690  0.5290 -0.1994
 9277SOL     OW39289   3.502   1.909  15.957 -0.0044 -0.2667 -0.2062
 9277SOL    HW139290   3.470   1.968  15.889  1.1059  0.1444 -0.3680
 9277SOL    HW239291   3.503   1.829  15.904 -0.4140  0.2562 -1.0061
 9278SOL     OW39292   4.351   0.092   6.217 -0.0001 -0.2104 -0.4473
 9278SOL    HW139293   4.376   0.154   6.148 -1.6153 -2.8793 -3.4346
 9278SOL    HW239294   4.271   0.055   6.178 -0.0587 -0.3109 -0.2292
 9279SOL     OW39295   1.311   0.175   8.291 -0.0814  0.2906  0.2718
 9279SOL    HW139296   1.399   0.211   8.276  0.8028 -2.0938 -0.2694
 9279SOL    HW239297   1.268   0.259   8.304 -2.2395 -0.8287  0.3434
 9280SOL     OW39298   0.110   4.617   6.027  0.1272 -0.5195  0.0719
 9280SOL    HW139299   0.076   4.530   6.009  2.5506 -2.0153  2.5883
 9280SOL    HW239300   0.068   4.648   6.108  0.2017  2.2048 -0.9479
 9281SOL     OW39301   1.508   0.097   4.407 -0.1130  0.0917  0.8643
 9281SOL    HW139302   1.526   0.116   4.499 -2.6598 -0.5557  1.4912
 9281SOL    HW239303   1.600   0.106   4.379 -0.3961 -0.1994 -0.1512
 9282SOL     OW39304   3.046   0.899   3.283 -0.0047 -0.0570  0.3979
 9282SOL    HW139305   3.127   0.895   3.232 -0.4099 -2.6874 -0.0194
 9282SOL    HW239306   3.008   0.812   3.270  1.5958 -0.4278 -1.9713
 9283SOL     OW39307   4.589   3.310   4.207 -0.4891  0.2146 -0.3052
 9283SOL    HW139308   4.646   3.234   4.198 -0.8383 -0.1774  0.8364
 9283SOL    HW239309   4.554   3.315   4.296  2.7176 -0.6737  0.9902
 9284SOL     OW39310   2.379   3.161   2.547  0.4557 -0.2370  0.1304
 9284SOL    HW139311   2.329   3.088   2.511  1.3333 -0.6983 -0.1438
 9284SOL    HW239312   2.404   3.126   2.633 -0.3472  0.6726  0.7443
 9285SOL     OW39313   3.805   0.168  13.679 -0.7162  0.1126  0.2033
 9285SOL    HW139314   3.738   0.186  13.613 -0.2147  0.3099 -0.2481
 9285SOL    HW239315   3.833   0.078  13.659 -0.2277  0.0413  1.1670
 9286SOL     OW39316   2.881   2.577   4.550  0.0729  0.1719 -0.0451
 9286SOL    HW139317   2.915   2.615   4.469 -0.3842  0.7513  0.0393
 9286SOL    HW239318   2.852   2.487   4.530  0.9136 -0.2307  0.5387
 9287SOL     OW39319   1.556   4.497   4.926  0.8481 -0.0580 -0.3868
 9287SOL    HW139320   1.614   4.550   4.981  0.0364  0.7809 -0.3508
 9287SOL    HW239321   1.513   4.444   4.993 -1.5050  1.5455 -0.6419
 9288SOL     OW39322   0.187   2.039  16.509 -0.3882 -0.1998  0.1747
 9288SOL    HW139323   0.118   2.065  16.448 -0.5092 -1.5448 -0.2694
 9288SOL    HW239324   0.242   1.988  16.449 -1.6818 -0.7924 -0.5016
 9289SOL     OW39325   3.369   3.228  16.903  0.4421  0.0494 -0.2406
 9289SOL    HW139326   3.417   3.154  16.939 -0.4814 -1.8734 -3.0234
 9289SOL    HW239327   3.281   3.192  16.892  0.0339  0.8310  0.3869
 9290SOL     OW39328   1.079   4.226   9.009 -0.7788  0.1189 -0.6600
 9290SOL    HW139329   0.999   4.195   9.051 -1.0956  1.1719 -0.4643
 9290SOL    HW239330   1.088   4.180   8.926  0.3556  1.4388 -1.2672
 9291SOL     OW39331   4.702   4.264   2.251  0.6073 -0.0069  0.2707
 9291SOL    HW139332   4.624   4.313   2.278  0.4013  0.2600 -0.8212
 9291SOL    HW239333   0.036   4.341   2.248  1.1741 -0.3582  2.0266
 9292SOL     OW39334   1.022   0.428  16.587 -0.3167 -0.0108  0.0706
 9292SOL    HW139335   1.014   0.436  16.682  0.4284  1.3236  0.0163
 9292SOL    HW239336   0.980   0.511  16.566 -0.8058 -0.2261  0.1898
 9293SOL     OW39337   2.633   0.405  14.378 -0.4917 -0.4902 -0.0910
 9293SOL    HW139338   2.562   0.341  14.384 -1.1016  0.3075  1.1285
 9293SOL    HW239339   2.654   0.400  14.284  2.9327 -3.7287  0.8477
 9294SOL     OW39340   1.230   3.643   1.438  0.0818  0.0840  0.6637
 9294SOL    HW139341   1.321   3.643   1.470  0.6183  1.0800 -0.8595
 9294SOL    HW239342   1.181   3.650   1.520  0.8566 -0.4266  1.1736
 9295SOL     OW39343   1.187   1.433  17.572  0.3755 -0.2452 -0.5607
 9295SOL    HW139344   1.111   1.425  17.629  0.8700  2.6168  0.5052
 9295SOL    HW239345   1.258   1.397  17.625  1.3266 -0.3960 -1.9307
 9296SOL     OW39346   3.603   2.486   0.698  0.0115  0.1599  0.4645
 9296SOL    HW139347   3.631   2.408   0.651 -1.3472 -0.1178  0.1061
 9296SOL    HW239348   3.667   2.546   0.659 -0.5779 -0.6878 -1.7598
 9297SOL     OW39349   1.821   0.716  11.616 -0.0709 -0.0180 -0.2282
 9297SOL    HW139350   1.875   0.794  11.634  1.0510 -0.8269 -0.0898
 9297SOL    HW239351   1.818   0.731  11.522  1.3118 -1.8577 -0.5662
 9298SOL     OW39352   4.299   3.687   3.492  0.1680  0.5830 -0.0505
 9298SOL    HW139353   4.298   3.620   3.560 -1.3466 -0.9442 -1.5982
 9298SOL    HW239354   4.290   3.768   3.542  1.2414  1.3970 -1.1875
 9299SOL     OW39355   4.239   0.140   8.666 -0.3488  0.1471  0.4831
 9299SOL    HW139356   4.163   0.118   8.721 -2.3835  0.3338 -2.2459
 9299SOL    HW239357   4.307   0.096   8.716  0.2780  0.3328 -0.1995
 9300SOL     OW39358   1.741   0.634   3.056 -0.3492 -0.1404 -0.2929
 9300SOL    HW139359   1.816   0.605   3.005 -0.8305 -1.2776 -0.3647
 9300SOL    HW239360   1.674   0.609   2.992 -0.2821  0.6309 -0.6627
 9301SOL     OW39361   4.177   4.395   6.028  0.1257  0.5070 -0.4715
 9301SOL    HW139362   4.108   4.454   6.055 -0.2107  0.4740 -1.2676
 9301SOL    HW239363   4.242   4.449   5.983  2.6206 -1.0501  1.2063
 9302SOL     OW39364   0.636   3.654   6.464  0.4429 -0.1422  0.4327
 9302SOL    HW139365   0.631   3.584   6.399  0.2245  1.2506 -1.0476
 9302SOL    HW239366   0.611   3.732   6.415  0.3304  0.9008  2.1591
 9303SOL     OW39367   3.373   2.314  14.627 -0.0262 -0.5551  0.4031
 9303SOL    HW139368   3.458   2.296  14.666 -0.1373 -1.5021  0.2039
 9303SOL    HW239369   3.340   2.391  14.673 -0.0621 -0.0139 -0.5219
 9304SOL     OW39370   0.997   1.943   1.548  0.3088 -0.2245  0.3294
 9304SOL    HW139371   0.914   1.989   1.562  0.6534 -0.3031  2.6018
 9304SOL    HW239372   1.026   1.989   1.469 -1.2270 -1.0050 -0.6839
 9305SOL     OW39373   0.365   1.533  16.683 -0.1406 -0.6375 -0.3150
 9305SOL    HW139374   0.453   1.530  16.647  1.1500 -1.4941  2.8974
 9305SOL    HW239375   0.321   1.522  16.599  1.9520 -0.6156 -1.4038
 9306SOL     OW39376   3.356   4.004   8.429 -0.2256  0.7108  0.5345
 9306SOL    HW139377   3.388   3.915   8.416 -1.8722  0.3442 -0.9314
 9306SOL    HW239378   3.439   4.049   8.411  0.0606 -0.1625 -0.3308
 9307SOL     OW39379   2.659   1.818   5.795 -0.1433 -0.1414  0.7637
 9307SOL    HW139380   2.693   1.897   5.752  0.6955  1.2803  4.0362
 9307SOL    HW239381   2.736   1.764   5.812 -0.1960 -0.4877 -0.1193
 9308SOL     OW39382   0.716   0.741  14.767 -0.0105 -0.4008  0.1148
 9308SOL    HW139383   0.627   0.747  14.800  0.2727  1.9583  0.4361
 9308SOL    HW239384   0.736   0.831  14.741  1.7220 -0.6182  0.6794
 9309SOL     OW39385   4.375   2.132   7.248  0.3650  0.3758 -0.1828
 9309SOL    HW139386   4.406   2.215   7.283 -0.0129  1.3168 -2.0744
 9309SOL    HW239387   4.294   2.122   7.298  0.3073 -1.9144 -0.7410
 9310SOL     OW39388   1.574   4.420  12.665 -0.3693 -0.1874 -0.5537
 9310SOL    HW139389   1.620   4.339  12.687 -0.5688 -0.0472  0.3672
 9310SOL    HW239390   1.505   4.420  12.731 -1.3615  1.0316 -1.6029
 9311SOL     OW39391   0.769   0.577  10.795  0.1955  0.0831 -0.0558
 9311SOL    HW139392   0.833   0.542  10.735  1.0728  0.4057  0.6938
 9311SOL    HW239393   0.715   0.499  10.807  1.7994 -0.8708  0.9739
 9312SOL     OW39394   0.860   1.589   5.262 -0.2293  0.2943 -0.0581
 9312SOL    HW139395   0.785   1.615   5.315  1.1248  1.4363  1.3164
 9312SOL    HW239396   0.885   1.667   5.214  1.0107 -0.8377 -1.2580
 9313SOL     OW39397   3.052   4.213   6.208  0.3421 -0.0571 -0.0932
 9313SOL    HW139398   3.119   4.207   6.140  2.3347  2.8703  1.6560
 9313SOL    HW239399   3.006   4.286   6.166  0.9404  0.4904  0.2117
 9314SOL     OW39400   2.135   2.300   6.634  0.0075  0.1489 -0.2503
 9314SOL    HW139401   2.144   2.370   6.698 -1.7990 -0.2372  0.4335
 9314SOL    HW239402   2.226   2.286   6.609 -0.4011  0.1052 -1.6974
 9315SOL     OW39403   2.098   0.580   9.559 -0.4913  0.1465  0.2072
 9315SOL    HW139404   2.134   0.596   9.471  0.9433 -0.1523  0.7383
 9315SOL    HW239405   2.022   0.525   9.539 -0.9217  1.1461 -0.8893
 9316SOL     OW39406   4.006   3.949   3.442 -0.2478 -0.1171  0.3451
 9316SOL    HW139407   4.077   3.996   3.399 -2.1630  0.2414 -2.4630
 9316SOL    HW239408   4.039   3.976   3.527 -1.4284  0.8437  0.4993
 9317SOL     OW39409   3.106   1.504   6.712  0.2387  0.3966  0.4971
 9317SOL    HW139410   3.056   1.479   6.790 -0.1652  0.9775  0.4277
 9317SOL    HW239411   3.119   1.599   6.724 -1.4040  0.7250 -0.3210
 9318SOL     OW39412   0.706   1.792   3.346 -0.3996  0.0883  0.8726
 9318SOL    HW139413   0.701   1.866   3.406  1.3329  1.5046 -0.7536
 9318SOL    HW239414   0.713   1.722   3.411  1.1561  0.0353  0.6588
 9319SOL     OW39415   2.977   0.349   6.679 -0.7870 -0.0793 -0.3847
 9319SOL    HW139416   2.930   0.393   6.749  0.1944 -1.8550  1.3857
 9319SOL    HW239417   3.064   0.334   6.715  0.2330  0.9001 -2.4432
 9320SOL     OW39418   3.706   3.921  10.945 -0.2718 -0.0773  0.2599
 9320SOL    HW139419   3.752   3.838  10.957  1.0809  0.6233 -0.1723
 9320SOL    HW239420   3.633   3.892  10.889 -0.9631  0.3011  0.9589
 9321SOL     OW39421   3.472   2.508   3.911 -0.2430  0.3034  0.5536
 9321SOL    HW139422   3.551   2.454   3.916  0.5246  1.5653  1.7805
 9321SOL    HW239423   3.409   2.449   3.953  1.8658 -0.1659  3.0562
 9322SOL     OW39424   4.045   1.985   1.286 -0.2220  0.2001 -0.1060
 9322SOL    HW139425   4.054   1.901   1.241 -0.1648  0.3304 -0.3400
 9322SOL    HW239426   3.952   2.005   1.295 -0.1970 -0.7002  2.0662
 9323SOL     OW39427   2.150   1.133  11.856  0.4437  0.2786  0.1268
 9323SOL    HW139428   2.177   1.046  11.825 -2.9546 -0.6619 -0.1903
 9323SOL    HW239429   2.088   1.123  11.928 -1.1411 -0.0055 -1.2824
 9324SOL     OW39430   0.280   2.994   9.990  0.3593  0.4742 -0.1587
 9324SOL    HW139431   0.188   2.992  10.016  0.4350 -0.7915  0.0335
 9324SOL    HW239432   0.291   2.932   9.918  0.5614 -0.3748  0.5976
 9325SOL     OW39433   4.705   4.205   3.965  0.2046 -0.0377  0.0177
 9325SOL    HW139434   4.680   4.113   3.973 -2.6231  0.4282 -3.5604
 9325SOL    HW239435   0.071   4.191   3.998  0.4341  0.7732 -0.2574
 9326SOL     OW39436   1.960   4.014   5.975 -0.1962  0.6451  0.1585
 9326SOL    HW139437   1.905   3.936   5.967 -0.3669  0.7374  0.4575
 9326SOL    HW239438   1.904   4.082   6.011  0.4530 -0.2498  2.8278
 9327SOL     OW39439   3.617   1.905   5.367 -0.6424  0.0078 -0.5875
 9327SOL    HW139440   3.547   1.870   5.311 -0.0617  1.1932 -2.0482
 9327SOL    HW239441   3.578   1.989   5.390  1.8467  1.1907 -0.6684
 9328SOL     OW39442   3.140   2.499   2.213  0.0992 -0.0524  0.3606
 9328SOL    HW139443   3.170   2.457   2.133  0.1848 -0.3230  0.5335
 9328SOL    HW239444   3.150   2.428   2.276 -0.5438  1.1342  1.8047
 9329SOL     OW39445   1.811   2.284   2.226  0.4119 -0.5359  0.4304
 9329SOL    HW139446   1.751   2.210   2.241 -0.6900 -0.3464 -3.0675
 9329SOL    HW239447   1.835   2.287   2.319 -0.5958 -1.6176  0.7287
 9330SOL     OW39448   2.929   4.648   6.253 -0.1948  0.2743 -0.7842
 9330SOL    HW139449   2.910   4.647   6.347  1.1286 -1.3826 -0.5467
 9330SOL    HW239450   2.945   0.018   6.241  3.0807 -0.0445  1.2189
 9331SOL     OW39451   1.826   3.073   6.026  0.3620  0.2065  0.2775
 9331SOL    HW139452   1.862   3.035   6.106 -0.0585  0.4894  0.6023
 9331SOL    HW239453   1.778   3.148   6.064  0.7486  0.7994 -0.4069
 9332SOL     OW39454   2.391   0.961  10.323  0.7117 -0.0260  0.7755
 9332SOL    HW139455   2.340   0.881  10.336  0.1070  0.3190  0.5347
 9332SOL    HW239456   2.402   0.979  10.416 -3.0543  1.4104  0.9822
 9333SOL     OW39457   3.323   3.669   4.208  0.1199  0.2094 -0.2395
 9333SOL    HW139458   3.233   3.701   4.220 -0.2909 -1.4185  1.0312
 9333SOL    HW239459   3.312   3.634   4.119  1.0315 -1.7885  0.4249
 9334SOL     OW39460   4.504   3.688   6.848  0.4747  0.2503 -0.1877
 9334SOL    HW139461   4.510   3.777   6.880  0.9133 -1.1661  3.6494
 9334SOL    HW239462   4.486   3.697   6.754 -2.2791 -2.4562  0.0490
 9335SOL     OW39463   0.097   0.557   7.115 -0.2063  0.0480  0.2750
 9335SOL    HW139464   0.090   0.466   7.143 -1.0603  0.1758  0.4858
 9335SOL    HW239465   0.084   0.549   7.020 -1.8668 -0.9143  0.5840
 9336SOL     OW39466   0.165   2.799   9.097  0.1739 -0.6584  0.2030
 9336SOL    HW139467   0.122   2.800   9.182 -1.0273 -1.0427 -0.4120
 9336SOL    HW239468   0.215   2.881   9.095 -1.0311 -0.0022 -3.5770
 9337SOL     OW39469   4.305   2.733   6.294 -0.0007  0.0313 -0.1075
 9337SOL    HW139470   4.281   2.760   6.205  0.2403  0.9617  0.1204
 9337SOL    HW239471   4.340   2.817   6.323 -0.4108  0.1877 -0.0668
 9338SOL     OW39472   1.838   1.805   8.137  0.2296 -0.2975 -0.0555
 9338SOL    HW139473   1.901   1.760   8.194 -0.9114 -2.3290 -0.4285
 9338SOL    HW239474   1.888   1.805   8.056  1.9611  0.8412  0.9922
 9339SOL     OW39475   2.186   3.274   7.154 -0.1301 -0.4367 -0.2413
 9339SOL    HW139476   2.156   3.277   7.245 -1.6512 -0.7566 -0.7314
 9339SOL    HW239477   2.231   3.189   7.146  2.1007  0.7496 -0.2328
 9340SOL     OW39478   2.987   2.450   5.534  0.6122 -0.1918  0.7170
 9340SOL    HW139479   2.976   2.417   5.444  1.2287  0.3271  0.4488
 9340SOL    HW239480   2.955   2.536   5.507  2.6626 -0.1963 -1.7171
 9341SOL     OW39481   0.468   1.057  13.998 -0.0297  0.2169 -0.3486
 9341SOL    HW139482   0.447   1.042  14.090  0.4010  1.4422 -0.0642
 9341SOL    HW239483   0.560   1.032  13.994  0.0411 -0.0422  2.8671
 9342SOL     OW39484   0.277   0.485   8.510  0.7429  0.3909  0.0754
 9342SOL    HW139485   0.341   0.535   8.560  0.6046  0.8194 -0.1739
 9342SOL    HW239486   0.295   0.515   8.420  2.0222 -1.0296 -0.1370
 9343SOL     OW39487   0.342   0.947  12.943 -0.0741 -0.3833 -0.0844
 9343SOL    HW139488   0.255   0.987  12.938 -0.9947 -2.3404  0.3647
 9343SOL    HW239489   0.332   0.904  13.028 -0.9136 -0.1168 -0.0442
 9344SOL     OW39490   1.986   2.659  11.455  0.4354 -0.2684 -0.4161
 9344SOL    HW139491   2.035   2.728  11.411  1.8538 -0.9040  0.1941
 9344SOL    HW239492   2.017   2.596  11.390  0.5154 -1.0284  0.3675
 9345SOL     OW39493   1.950   2.425   7.432  0.0551 -0.2684 -0.3272
 9345SOL    HW139494   1.871   2.389   7.390 -0.1338 -1.2994  0.9287
 9345SOL    HW239495   1.959   2.374   7.512  1.9128  1.9657  0.8869
 9346SOL     OW39496   4.023   2.227  10.505  0.0078 -0.2363  0.6437
 9346SOL    HW139497   4.072   2.174  10.442  0.8885  1.1871  0.1399
 9346SOL    HW239498   4.085   2.234  10.578  0.7403 -0.2427  0.0177
 9347SOL     OW39499   3.375   1.474   6.675  0.1892 -0.5449 -0.0084
 9347SOL    HW139500   3.362   1.569   6.669 -0.2543 -0.5551  0.7389
 9347SOL    HW239501   3.287   1.440   6.693  0.2810 -1.0379 -0.5192
 9348SOL     OW39502   1.451   1.154   7.102 -0.4798 -0.4908 -0.0264
 9348SOL    HW139503   1.371   1.204   7.083  0.5358  0.2349 -2.3835
 9348SOL    HW239504   1.480   1.122   7.016 -0.9057  0.5268 -0.5540
 9349SOL     OW39505   1.314   2.057  16.002  0.3937 -0.3291  0.5133
 9349SOL    HW139506   1.407   2.067  16.019 -0.0679  3.1588  0.9375
 9349SOL    HW239507   1.291   2.132  16.057  1.7266 -0.2428  0.9551
 9350SOL     OW39508   1.283   4.668   2.671  0.2679 -0.0333 -0.0563
 9350SOL    HW139509   1.348   4.617   2.624 -0.1170 -0.5319 -0.0482
 9350SOL    HW239510   1.274   4.627   2.757  0.0015 -0.7246 -0.4196
 9351SOL     OW39511   2.622   3.450   3.455 -0.1089 -0.4994 -0.2436
 9351SOL    HW139512   2.696   3.389   3.462  0.9599  0.8725  0.4630
 9351SOL    HW239513   2.658   3.504   3.385 -0.3355  1.2662  0.9904
 9352SOL     OW39514   1.197   0.386   3.283 -0.3011  0.1171  0.5139
 9352SOL    HW139515   1.222   0.468   3.240 -0.3190  1.5739  3.2832
 9352SOL    HW239516   1.278   0.358   3.325  0.1026  0.0832 -0.2725
 9353SOL     OW39517   0.197   4.469  10.243  0.1048 -0.0646 -0.4299
 9353SOL    HW139518   0.140   4.528  10.194  1.0175 -0.2990 -1.7873
 9353SOL    HW239519   0.132   4.408  10.278 -0.8386  0.9943 -0.3292
 9354SOL     OW39520   1.725   3.792   2.241  0.6616  0.4915  0.2731
 9354SOL    HW139521   1.781   3.714   2.234 -0.2840 -0.0263 -1.7314
 9354SOL    HW239522   1.667   3.775   2.166  3.4572  1.0266 -2.0336
 9355SOL     OW39523   2.628   1.913   8.429 -0.5759  0.6489  0.6305
 9355SOL    HW139524   2.716   1.945   8.408 -1.4633  2.1816 -0.7467
 9355SOL    HW239525   2.661   1.859   8.501 -0.1869  1.7653  1.2919
 9356SOL     OW39526   2.714   2.342  14.207 -0.0421 -0.4677  0.0534
 9356SOL    HW139527   2.652   2.301  14.267 -0.5070  3.0264  1.9980
 9356SOL    HW239528   2.737   2.267  14.153  1.8205  0.5272 -0.5375
 9357SOL     OW39529   3.059   4.561   2.854 -0.3738  0.8447 -0.1155
 9357SOL    HW139530   3.149   4.538   2.874 -0.5161  0.4863  0.1181
 9357SOL    HW239531   3.034   4.626   2.920 -0.5476  1.2433 -0.5719
 9358SOL     OW39532   3.476   1.939  17.318  0.1708  1.1184 -0.4512
 9358SOL    HW139533   3.471   1.844  17.311  3.9692  0.9931 -1.2046
 9358SOL    HW239534   3.406   1.966  17.258 -1.6101 -1.6534  0.3971
 9359SOL     OW39535   3.512   2.026   6.551 -0.2649  0.3826  0.5243
 9359SOL    HW139536   3.539   1.989   6.467 -0.2763 -0.2754  0.8168
 9359SOL    HW239537   3.458   2.098   6.518  1.0046  0.0428 -2.3152
 9360SOL     OW39538   2.696   2.436   6.412  0.3308  0.4592 -0.3177
 9360SOL    HW139539   2.771   2.457   6.468 -0.5490 -0.0988  1.0628
 9360SOL    HW239540   2.645   2.515   6.430  1.5340  1.2559 -0.3529
 9361SOL     OW39541   1.628   2.368   2.492  0.3393 -0.0965 -0.0615
 9361SOL    HW139542   1.721   2.354   2.510  0.6674  1.6632 -0.3647
 9361SOL    HW239543   1.625   2.462   2.478  0.6123 -0.1984 -0.8232
 9362SOL     OW39544   1.181   3.199   8.380 -0.7080  0.9871  0.3616
 9362SOL    HW139545   1.199   3.115   8.337  1.9288  0.1451  3.0593
 9362SOL    HW239546   1.098   3.222   8.340  0.4161  2.2231 -1.2747
 9363SOL     OW39547   3.508   1.397   5.668 -0.5099  0.3852 -0.0081
 9363SOL    HW139548   3.479   1.315   5.708  0.2181 -0.2460 -0.7813
 9363SOL    HW239549   3.525   1.378   5.576 -0.7327 -1.5999  0.3639
 9364SOL     OW39550   3.464   4.103   9.135 -0.1593  0.5989  0.2011
 9364SOL    HW139551   3.387   4.158   9.125  0.3914  1.0189 -1.6520
 9364SOL    HW239552   3.461   4.090   9.230 -1.7721 -2.9087 -0.3203
 9365SOL     OW39553   2.407   2.856   2.852 -0.3609  0.2784 -0.1229
 9365SOL    HW139554   2.384   2.805   2.931 -1.6846 -0.9077 -1.2658
 9365SOL    HW239555   2.324   2.862   2.805  1.1755  0.1939 -2.8070
 9366SOL     OW39556   2.282   2.398   5.011 -0.0170 -0.7465  0.0410
 9366SOL    HW139557   2.341   2.405   4.936  0.1495  0.5531  0.2985
 9366SOL    HW239558   2.307   2.473   5.065  1.2320 -0.1223 -1.3908
 9367SOL     OW39559   1.571   4.679  12.747  0.3263 -0.3148 -0.4621
 9367SOL    HW139560   1.663   4.704  12.752  0.3769 -0.5255 -0.3661
 9367SOL    HW239561   1.574   4.602  12.690  1.3101 -0.9413  0.4444
 9368SOL     OW39562   2.977   0.446   6.378  0.1004  0.6846  0.0139
 9368SOL    HW139563   2.937   0.432   6.464  0.5861 -2.4705 -0.2719
 9368SOL    HW239564   2.958   0.539   6.368 -0.1738  0.6811  0.4799
 9369SOL     OW39565   0.725   0.964   2.863 -0.3245  0.0328  0.3879
 9369SOL    HW139566   0.762   0.899   2.803  0.6398  0.9514 -0.0027
 9369SOL    HW239567   0.633   0.935   2.862 -0.0263 -0.9125  0.0193
 9370SOL     OW39568   3.846   0.338  17.503  0.7512 -0.1994 -0.1988
 9370SOL    HW139569   3.764   0.348  17.551  0.3422  0.5801 -1.0516
 9370SOL    HW239570   3.860   0.244  17.514  1.0712  0.0076  1.0980
 9371SOL     OW39571   2.453   4.637  11.437 -0.3130 -0.3075  0.0091
 9371SOL    HW139572   2.463   4.716  11.490  0.6434 -0.3362 -0.1219
 9371SOL    HW239573   2.448   4.680  11.352  0.9909 -0.0415  0.0567
 9372SOL     OW39574   1.584   3.276   7.777 -0.1545 -0.1140  0.1433
 9372SOL    HW139575   1.627   3.361   7.787  1.0614 -0.6411 -0.5700
 9372SOL    HW239576   1.658   3.220   7.754  0.5911  0.8187  0.2501
 9373SOL     OW39577   2.297   1.329   4.259 -0.2009  0.5706  0.2397
 9373SOL    HW139578   2.270   1.407   4.209 -1.3955 -0.4897 -0.7913
 9373SOL    HW239579   2.361   1.292   4.198 -0.3509  2.7046 -1.2085
 9374SOL     OW39580   3.782   3.422  16.705 -0.0467  0.0745 -0.0730
 9374SOL    HW139581   3.737   3.339  16.690 -2.2989  1.5550 -1.4376
 9374SOL    HW239582   3.849   3.394  16.768 -0.4806  1.6844  1.1241
 9375SOL     OW39583   0.601   1.489  15.088  0.5879  0.2002 -0.2050
 9375SOL    HW139584   0.648   1.509  15.007  3.3124 -0.2093  1.3021
 9375SOL    HW239585   0.637   1.403  15.110 -1.9008 -0.8810 -0.2926
 9376SOL     OW39586   4.239   0.876  16.231  0.5640 -0.6913 -0.3531
 9376SOL    HW139587   4.250   0.909  16.320  0.2206 -0.7031 -0.3081
 9376SOL    HW239588   4.203   0.953  16.187 -0.5645 -1.1201 -0.1884
 9377SOL     OW39589   4.599   0.944  16.903  0.5722 -0.4768 -0.2873
 9377SOL    HW139590   4.686   0.908  16.920 -0.5676 -3.4565 -0.9395
 9377SOL    HW239591   4.627   1.028  16.867  1.8397 -0.5371  0.5624
 9378SOL     OW39592   3.766   4.649   2.860 -0.0011  0.0216 -0.4228
 9378SOL    HW139593   3.674   4.651   2.836 -1.1084 -3.3144  3.4405
 9378SOL    HW239594   3.799   4.593   2.790  3.5173  1.6881 -0.1004
 9379SOL     OW39595   0.078   2.169  10.879  0.1066  1.2218  0.1061
 9379SOL    HW139596   4.723   2.138  10.833  1.0461  1.1234 -1.4117
 9379SOL    HW239597   0.144   2.102  10.863  1.0496  1.8165  1.5566
 9380SOL     OW39598   1.087   0.099   2.198 -0.2618 -0.3805 -0.1296
 9380SOL    HW139599   1.024   0.057   2.258  1.6008 -0.9637  1.4024
 9380SOL    HW239600   1.023   0.126   2.132  2.5626 -0.1043 -2.7050
 9381SOL     OW39601   0.621   4.517   5.087  0.3810 -0.2318 -0.0807
 9381SOL    HW139602   0.610   4.590   5.026 -1.8619 -2.4382 -2.3105
 9381SOL    HW239603   0.673   4.459   5.032 -1.6268 -1.7922 -0.3404
 9382SOL     OW39604   0.062   0.402  10.744 -0.1272 -0.4166 -0.4317
 9382SOL    HW139605   0.043   0.385  10.836 -0.2270 -1.8804 -0.7177
 9382SOL    HW239606   0.132   0.341  10.720  1.3693  1.0514  0.2028
 9383SOL     OW39607   4.087   1.596   7.496  0.0431  0.3667 -0.4048
 9383SOL    HW139608   4.045   1.563   7.417 -1.4953  1.1562  0.0826
 9383SOL    HW239609   4.153   1.656   7.462  1.0747  0.3894  1.5922
 9384SOL     OW39610   1.785   4.016  12.737  0.0410  0.3274 -0.5512
 9384SOL    HW139611   1.806   3.932  12.696 -1.0041 -0.9115  1.4962
 9384SOL    HW239612   1.783   3.982  12.826  0.8515  0.8514 -0.3346
 9385SOL     OW39613   1.754   1.168   6.931 -0.0706  0.4801 -0.9398
 9385SOL    HW139614   1.675   1.159   6.879 -0.3762  1.7870 -0.6791
 9385SOL    HW239615   1.821   1.119   6.883  0.7325 -0.7693  1.4159
 9386SOL     OW39616   0.958   2.259   3.427 -0.5112 -0.3049  0.1630
 9386SOL    HW139617   1.050   2.238   3.444 -0.4121 -0.5384 -0.6705
 9386SOL    HW239618   0.958   2.345   3.384 -1.1578 -0.7023 -0.6357
 9387SOL     OW39619   3.310   1.969   3.796  0.3569 -0.1723 -0.3321
 9387SOL    HW139620   3.390   2.018   3.812 -0.3778  1.1004 -0.5200
 9387SOL    HW239621   3.274   2.025   3.727 -2.8825 -0.3262  1.2191
 9388SOL     OW39622   3.614   4.400  12.972  0.0047  0.0867  0.1657
 9388SOL    HW139623   3.546   4.397  12.904  1.5161 -1.4637 -1.2727
 9388SOL    HW239624   3.557   4.429  13.043 -0.1734 -0.3106  0.1858
 9389SOL     OW39625   2.329   0.075   2.261 -0.1264  0.4318  0.1199
 9389SOL    HW139626   2.331   0.021   2.340 -1.7241 -1.7700 -1.3607
 9389SOL    HW239627   2.414   0.054   2.225  0.6895  0.3924  2.0546
 9390SOL     OW39628   4.209   2.570   3.021 -0.3350  0.3900 -0.2468
 9390SOL    HW139629   4.164   2.493   3.055  0.9712  0.2368  1.1697
 9390SOL    HW239630   4.287   2.519   2.998 -0.9854  0.0015 -1.5430
 9391SOL     OW39631   1.326   3.113   7.543 -0.1342  0.2689  0.0139
 9391SOL    HW139632   1.324   3.208   7.548 -0.5271  0.1619  1.7105
 9391SOL    HW239633   1.363   3.100   7.455 -0.4667 -1.2806  0.1106
 9392SOL     OW39634   0.286   1.002  12.328 -0.3093 -0.3689  0.0041
 9392SOL    HW139635   0.224   1.019  12.399  0.4844  0.0006  0.6148
 9392SOL    HW239636   0.344   0.942  12.376  0.7547 -1.0411 -2.0920
 9393SOL     OW39637   3.950   0.123   9.512  0.3563  0.0242 -0.1866
 9393SOL    HW139638   3.924   0.094   9.600 -0.3410  0.7411 -0.1548
 9393SOL    HW239639   4.023   0.066   9.487  0.5188  0.3240 -0.4004
 9394SOL     OW39640   3.438   0.756   6.018  0.1638 -0.5119  0.7933
 9394SOL    HW139641   3.391   0.701   6.080 -2.0528  0.0695 -0.3851
 9394SOL    HW239642   3.493   0.691   5.973  0.5635  1.4861 -1.6392
 9395SOL     OW39643   1.539   3.343   3.936 -0.7681 -0.0445  0.7214
 9395SOL    HW139644   1.478   3.375   3.869  0.1092 -0.5678 -0.3327
 9395SOL    HW239645   1.623   3.339   3.891 -0.4977 -2.3274  1.4397
 9396SOL     OW39646   1.829   1.390  16.859  0.4836 -1.0941 -0.6016
 9396SOL    HW139647   1.874   1.405  16.776 -1.7665  0.3267 -1.5656
 9396SOL    HW239648   1.861   1.458  16.919 -0.3370 -1.2737  0.0341
 9397SOL     OW39649   0.283   1.193   4.038 -0.3880  0.1501 -0.1460
 9397SOL    HW139650   0.374   1.223   4.036  0.1498 -1.5440 -0.9592
 9397SOL    HW239651   0.259   1.182   4.131 -1.1275 -1.2008 -0.4865
 9398SOL     OW39652   3.568   0.643   6.468 -0.2299 -0.3250 -0.2493
 9398SOL    HW139653   3.554   0.721   6.415 -2.3908  0.9592  2.2072
 9398SOL    HW239654   3.630   0.604   6.406 -0.6447 -0.2447 -0.7208
 9399SOL     OW39655   1.424   1.492  16.036  0.4675  0.8167  0.3997
 9399SOL    HW139656   1.442   1.403  16.005  2.0778  1.1665  0.3236
 9399SOL    HW239657   1.456   1.486  16.126 -1.3633 -1.0165  0.9332
 9400SOL     OW39658   0.792   0.482   2.383  0.0763 -0.2171  0.0904
 9400SOL    HW139659   0.868   0.429   2.408 -1.5138 -1.1440  2.9577
 9400SOL    HW239660   0.805   0.557   2.441 -0.4976 -1.0405  1.2911
 9401SOL     OW39661   3.205   2.344   3.703  0.1157  0.2124  0.6165
 9401SOL    HW139662   3.258   2.413   3.664 -0.4885  2.5378  3.9172
 9401SOL    HW239663   3.250   2.268   3.664  1.0962  1.1056  0.0079
 9402SOL     OW39664   0.861   1.927  11.063 -0.1115 -0.1528  0.6129
 9402SOL    HW139665   0.943   1.957  11.026  0.0838 -1.0895  0.2787
 9402SOL    HW239666   0.817   2.008  11.089  0.7558  0.1786  1.0363
 9403SOL     OW39667   0.345   4.056   1.638 -0.7197  0.9451  0.2918
 9403SOL    HW139668   0.420   4.018   1.593 -0.2844 -0.5926  2.3150
 9403SOL    HW239669   0.325   3.992   1.706 -1.5915 -1.0155 -1.8194
 9404SOL     OW39670   4.508   4.156   3.416  0.5430  0.3043  0.9795
 9404SOL    HW139671   4.548   4.235   3.380 -1.6373  0.7169 -0.5184
 9404SOL    HW239672   4.487   4.100   3.342 -1.0072  1.2156  0.7166
 9405SOL     OW39673   3.307   0.045   4.001 -0.5369  0.0009  0.3446
 9405SOL    HW139674   3.356   0.111   4.050 -1.4733  1.3522 -0.5508
 9405SOL    HW239675   3.369   4.703   3.970 -0.1188 -0.2016  1.5934
 9406SOL     OW39676   1.660   3.901   6.163  0.3683 -0.4548  0.0047
 9406SOL    HW139677   1.698   3.815   6.180  2.2949  1.0114  2.9770
 9406SOL    HW239678   1.600   3.914   6.236  1.1156 -0.1513  0.5644
 9407SOL     OW39679   3.415   0.286   4.948 -0.0169  0.1409 -0.1383
 9407SOL    HW139680   3.371   0.371   4.938  2.2143  1.3959  0.6004
 9407SOL    HW239681   3.343   0.235   4.984 -1.1336  2.5347  1.0261
 9408SOL     OW39682   3.564   4.032   7.593  0.4939  0.2957  0.1385
 9408SOL    HW139683   3.652   4.000   7.612  0.0958 -0.8415  0.0353
 9408SOL    HW239684   3.568   4.063   7.503 -1.9006 -0.8144 -0.3594
 9409SOL     OW39685   2.222   4.251   7.610  0.7021  0.2614  0.2429
 9409SOL    HW139686   2.251   4.314   7.544  3.4836 -1.4096 -0.1353
 9409SOL    HW239687   2.299   4.262   7.666  0.5716 -0.4773  0.5648
 9410SOL     OW39688   0.907   1.152  12.021  0.2126  0.6316  0.1301
 9410SOL    HW139689   0.973   1.155  12.091  1.1616 -1.9451 -0.6630
 9410SOL    HW239690   0.944   1.087  11.961  0.3349  2.8080 -2.1617
 9411SOL     OW39691   1.181   2.357   0.825  0.2078 -0.1089  0.5591
 9411SOL    HW139692   1.194   2.275   0.777 -1.1002  0.1372 -0.2238
 9411SOL    HW239693   1.223   2.337   0.908  0.3232 -1.4871  0.1717
 9412SOL     OW39694   4.219   2.704   5.147  0.5321  0.0201 -0.1511
 9412SOL    HW139695   4.299   2.676   5.102  0.1684  1.1597 -1.5058
 9412SOL    HW239696   4.213   2.791   5.108  3.3033 -0.1685 -1.0576
 9413SOL     OW39697   2.472   1.881   5.279  0.3473 -0.2739 -0.0918
 9413SOL    HW139698   2.486   1.903   5.187 -0.0631  0.2545 -0.0336
 9413SOL    HW239699   2.485   1.786   5.281 -0.3037 -0.3876 -1.3461
 9414SOL     OW39700   2.902   3.410   8.687 -0.0839 -0.8447 -0.0815
 9414SOL    HW139701   2.849   3.415   8.607 -1.1141 -1.6086  0.5425
 9414SOL    HW239702   2.954   3.488   8.670  0.2376 -1.1664 -0.5624
 9415SOL     OW39703   3.552   1.094   3.461 -0.0395 -0.2511 -0.3241
 9415SOL    HW139704   3.498   1.137   3.394 -0.3205 -1.3514 -0.8126
 9415SOL    HW239705   3.511   1.007   3.465 -2.1749  0.7680  0.2297
 9416SOL     OW39706   1.480   0.310  12.356  0.3147  0.0304 -0.2979
 9416SOL    HW139707   1.459   0.242  12.292 -0.6059  1.5956 -1.6446
 9416SOL    HW239708   1.435   0.385  12.318 -0.5734 -0.6101 -0.5034
 9417SOL     OW39709   4.175   0.615   2.722 -0.3691 -0.5963 -0.2610
 9417SOL    HW139710   4.125   0.574   2.651 -0.5404  1.3989 -1.2770
 9417SOL    HW239711   4.204   0.534   2.764  1.1515  0.2192  0.2735
 9418SOL     OW39712   4.542   0.921   5.722 -0.2878 -0.2958 -0.1828
 9418SOL    HW139713   4.577   1.007   5.697  0.3771 -0.0580  1.5723
 9418SOL    HW239714   4.613   0.863   5.696 -1.2415 -1.6188  0.1617
 9419SOL     OW39715   3.697   1.031   5.916  0.0396  0.5615 -0.7727
 9419SOL    HW139716   3.671   1.028   5.824 -1.4158  1.8130 -0.4027
 9419SOL    HW239717   3.654   1.113   5.939 -0.3456  0.5788 -1.5499
 9420SOL     OW39718   1.046   4.367  13.390  0.4428 -0.2702 -0.2156
 9420SOL    HW139719   1.028   4.285  13.346 -1.0681  0.3024 -0.6818
 9420SOL    HW239720   1.048   4.431  13.318  0.3449 -0.5138 -0.4333
 9421SOL     OW39721   1.261   0.675   8.078  0.2762 -0.5989  0.2260
 9421SOL    HW139722   1.289   0.766   8.093 -2.9995  0.3719  0.6311
 9421SOL    HW239723   1.226   0.679   7.989  1.9810  0.3535 -0.3984
 9422SOL     OW39724   1.716   2.480   1.278  1.0110 -0.1144 -0.2917
 9422SOL    HW139725   1.621   2.491   1.276  0.8672 -1.1975  0.7785
 9422SOL    HW239726   1.726   2.518   1.365 -0.8496 -0.3819  0.0536
 9423SOL     OW39727   2.780   4.072   4.189 -0.1193  0.0227 -0.6576
 9423SOL    HW139728   2.778   4.149   4.132 -3.5132  0.0133 -0.5270
 9423SOL    HW239729   2.686   4.059   4.189 -0.0869 -0.1552  0.5125
 9424SOL     OW39730   0.011   2.841   0.829  0.2974 -0.5758  0.4564
 9424SOL    HW139731   4.698   2.899   0.896 -0.1700 -2.4002  1.7802
 9424SOL    HW239732   0.105   2.851   0.843  0.0569  1.5609  0.6832
 9425SOL     OW39733   0.534   3.695   5.250 -0.3417 -0.3812 -0.4571
 9425SOL    HW139734   0.466   3.652   5.199 -1.6763 -0.1773  1.1724
 9425SOL    HW239735   0.510   3.787   5.242  0.7486 -0.0100  0.4987
 9426SOL     OW39736   1.422   1.689   8.203  0.2905 -0.4434  0.0796
 9426SOL    HW139737   1.464   1.611   8.167 -0.5034 -1.6272  1.7755
 9426SOL    HW239738   1.402   1.666   8.293 -1.0422 -0.2692 -0.1702
 9427SOL     OW39739   3.388   0.221  12.959 -0.2842  0.3267 -0.5860
 9427SOL    HW139740   3.329   0.157  12.999  0.2632 -0.2021 -0.6444
 9427SOL    HW239741   3.401   0.269  13.041  0.1486 -0.4918 -0.1811
 9428SOL     OW39742   1.898   3.905  11.337 -0.4787 -0.3467 -0.2941
 9428SOL    HW139743   1.822   3.964  11.343 -1.1877 -1.3885  1.0654
 9428SOL    HW239744   1.947   3.942  11.263 -0.0803 -1.2609 -0.4898
 9429SOL     OW39745   3.917   2.119   6.163 -0.1728  0.1507  0.0377
 9429SOL    HW139746   3.941   2.178   6.235 -1.9749  0.1382  0.6514
 9429SOL    HW239747   3.993   2.062   6.164 -0.0052  0.4271  3.3033
 9430SOL     OW39748   0.536   1.408   9.778 -0.2725  0.6322  0.0947
 9430SOL    HW139749   0.489   1.355   9.842 -0.7045 -0.7162 -1.3545
 9430SOL    HW239750   0.506   1.494   9.807 -1.4120 -0.1115  1.1247
 9431SOL     OW39751   3.512   4.361   8.043  0.1524 -0.0236  0.4537
 9431SOL    HW139752   3.537   4.293   7.981  0.5288  1.1632 -0.6957
 9431SOL    HW239753   3.423   4.367   8.009  0.3590 -0.0278 -0.0782
 9432SOL     OW39754   3.538   0.849   6.276 -0.8104 -1.0011  0.2930
 9432SOL    HW139755   3.453   0.892   6.287 -0.0654  0.8595 -1.0672
 9432SOL    HW239756   3.550   0.853   6.181  1.4855 -0.2500  0.6182
 9433SOL     OW39757   1.772   3.352   3.781 -0.0751  0.1114  0.0792
 9433SOL    HW139758   1.735   3.335   3.695  1.7756  1.8700 -1.0779
 9433SOL    HW239759   1.862   3.372   3.755 -0.1133  0.9719  0.5920
 9434SOL     OW39760   3.944   1.169   5.281  0.5275  0.0692 -0.0532
 9434SOL    HW139761   3.856   1.137   5.261  0.4462 -0.4328  1.0817
 9434SOL    HW239762   3.975   1.099   5.338  3.2693  0.3392 -1.2507
 9435SOL     OW39763   0.932   1.936   0.784 -0.0291 -0.1988  0.6561
 9435SOL    HW139764   0.871   2.010   0.783  0.3514  0.1315  1.8579
 9435SOL    HW239765   0.962   1.926   0.694  1.7439  1.6900  1.0455
 9436SOL     OW39766   2.070   4.004   4.158  0.0971 -0.1459 -0.0332
 9436SOL    HW139767   1.976   4.018   4.169  0.0859 -0.3811  0.1801
 9436SOL    HW239768   2.095   3.932   4.216  0.1537 -0.4452 -0.4339
 9437SOL     OW39769   4.682   2.543  16.888 -0.5052  0.0762  0.1791
 9437SOL    HW139770   4.681   2.611  16.954  0.7799 -0.3769  0.6583
 9437SOL    HW239771   4.588   2.524  16.892 -0.6186  0.1040 -2.3130
 9438SOL     OW39772   2.650   1.354   7.679 -0.0784 -0.0759 -0.2653
 9438SOL    HW139773   2.692   1.361   7.593 -0.7621 -0.0375 -0.5929
 9438SOL    HW239774   2.605   1.270   7.671 -0.1228 -0.1837  1.1705
 9439SOL     OW39775   3.502   0.650   0.853 -0.0013 -0.2951  0.6405
 9439SOL    HW139776   3.494   0.560   0.885 -0.1436 -0.2067  0.8541
 9439SOL    HW239777   3.528   0.699   0.932 -0.7990 -2.2632  2.1117
 9440SOL     OW39778   1.777   2.199  14.013  0.7266 -0.1822 -0.2739
 9440SOL    HW139779   1.848   2.172  13.955  1.3837 -2.5464  1.6391
 9440SOL    HW239780   1.703   2.143  13.991 -0.8862  2.2639 -1.0919
 9441SOL     OW39781   0.832   3.446  16.627 -0.0179  0.0274 -0.2494
 9441SOL    HW139782   0.812   3.499  16.704  0.9417  0.0448 -0.0082
 9441SOL    HW239783   0.768   3.482  16.566 -1.0033 -0.5014  0.4856
 9442SOL     OW39784   4.300   1.117  12.585 -0.4372 -0.2236 -0.0322
 9442SOL    HW139785   4.324   1.174  12.659  1.8861 -0.7709 -0.3607
 9442SOL    HW239786   4.272   1.180  12.519 -3.9985 -1.6155  0.1783
 9443SOL     OW39787   3.930   3.755   3.630 -0.3221 -0.4815 -0.1074
 9443SOL    HW139788   3.954   3.818   3.562  3.1659 -0.3199  1.2610
 9443SOL    HW239789   3.835   3.761   3.636 -0.3005  1.0535 -1.2497
 9444SOL     OW39790   4.151   1.486   3.541  0.0700  0.1570  0.3229
 9444SOL    HW139791   4.237   1.479   3.500 -0.5240 -1.5378 -0.6745
 9444SOL    HW239792   4.127   1.394   3.557 -1.8880  0.8092  1.1554
 9445SOL     OW39793   3.926   0.504   1.310  0.7749  0.0039 -0.6177
 9445SOL    HW139794   4.001   0.464   1.266  2.2049 -0.3661  2.2172
 9445SOL    HW239795   3.925   0.448   1.387  0.0496 -0.2963 -0.8439
 9446SOL     OW39796   0.736   1.500   5.038 -0.4037 -0.3789  0.1729
 9446SOL    HW139797   0.822   1.500   5.080  0.2476 -0.4223 -1.1696
 9446SOL    HW239798   0.693   1.561   5.098 -0.2984  0.0875 -0.2237
 9447SOL     OW39799   0.375   1.517  16.389  0.2030  0.3793  0.6232
 9447SOL    HW139800   0.416   1.433  16.367  1.8352  1.0028  1.2858
 9447SOL    HW239801   0.433   1.586  16.357 -1.8578  0.4715 -2.7712
 9448SOL     OW39802   0.567   1.462   4.276  0.4627  0.4644  0.6536
 9448SOL    HW139803   0.644   1.518   4.284  1.4458 -0.7128 -0.5860
 9448SOL    HW239804   0.590   1.432   4.188 -0.8147  1.0661  0.1027
 9449SOL     OW39805   1.510   3.547   2.831 -0.0359 -0.3907  0.5633
 9449SOL    HW139806   1.458   3.474   2.797  1.0489 -0.7293 -0.3595
 9449SOL    HW239807   1.482   3.550   2.922  0.0762  2.2177  0.4953
 9450SOL     OW39808   2.935   0.072  16.178  0.1725  0.1958 -0.6072
 9450SOL    HW139809   3.004   0.134  16.201  0.7977 -1.2511  1.3969
 9450SOL    HW239810   2.859   0.129  16.187  0.7485  0.7289  0.8527
 9451SOL     OW39811   1.373   1.056   7.795  0.0949 -0.4892  0.0396
 9451SOL    HW139812   1.304   1.034   7.857 -0.2567  3.0985  0.8925
 9451SOL    HW239813   1.325   1.126   7.752  1.5873  0.3621 -0.2307
 9452SOL     OW39814   2.963   3.232   1.272 -0.1273  0.5363 -0.2121
 9452SOL    HW139815   2.914   3.238   1.189 -0.5993  3.5621  0.2846
 9452SOL    HW239816   3.027   3.167   1.243 -0.3688 -0.3153  1.2088
 9453SOL     OW39817   3.201   3.906  12.654  0.1100  0.3124 -0.3005
 9453SOL    HW139818   3.207   3.926  12.560 -1.6683  0.1354 -0.4521
 9453SOL    HW239819   3.286   3.937  12.685  1.3819 -2.1973 -1.2404
 9454SOL     OW39820   0.626   3.504   8.327  0.1105 -0.0383  0.0466
 9454SOL    HW139821   0.650   3.475   8.415  1.3205 -1.1983 -0.6848
 9454SOL    HW239822   0.584   3.588   8.347  0.6118  0.3014 -0.3355
 9455SOL     OW39823   4.569   0.510   9.872  0.2432  0.5709 -0.2903
 9455SOL    HW139824   4.510   0.522   9.946 -0.1639  0.3014 -0.5740
 9455SOL    HW239825   4.590   0.417   9.885  0.2805  0.7822  1.1326
 9456SOL     OW39826   1.100   3.461   4.791  0.4040 -0.6239  0.4415
 9456SOL    HW139827   1.087   3.372   4.823 -0.3400 -0.2227  1.2486
 9456SOL    HW239828   1.038   3.510   4.845  0.0908 -2.1323  1.4519
 9457SOL     OW39829   1.377   1.919   5.545 -0.3800  0.1588  0.7439
 9457SOL    HW139830   1.390   1.989   5.609  1.9495  0.4240 -0.0388
 9457SOL    HW239831   1.304   1.873   5.588  0.1518 -1.0705  0.3305
 9458SOL     OW39832   2.517   4.108  11.306  0.1454  0.4873  0.0048
 9458SOL    HW139833   2.556   4.182  11.353  1.9309 -0.2387 -0.3309
 9458SOL    HW239834   2.514   4.138  11.216 -1.0751  1.7677  0.4742
 9459SOL     OW39835   1.869   3.636   6.015 -0.0982 -0.0518 -1.0034
 9459SOL    HW139836   1.927   3.629   6.091 -1.5052 -3.0903 -0.2309
 9459SOL    HW239837   1.831   3.548   6.012 -1.0253  0.2953  0.5164
 9460SOL     OW39838   3.047   2.838  16.914 -0.3292  0.1313  0.4450
 9460SOL    HW139839   3.108   2.779  16.957 -0.4054  0.0320  0.4169
 9460SOL    HW239840   2.980   2.876  16.971 -1.8317 -0.7225 -0.7488
 9461SOL     OW39841   2.803   3.380   8.945 -0.5976  0.5427  0.5065
 9461SOL    HW139842   2.862   3.432   8.999  1.9534 -0.3916 -1.3597
 9461SOL    HW239843   2.813   3.414   8.856 -1.5261 -1.0571 -0.1990
 9462SOL     OW39844   0.541   4.476   2.169 -0.2451  0.4033 -0.2453
 9462SOL    HW139845   0.480   4.423   2.118 -1.2069 -0.6946  2.0723
 9462SOL    HW239846   0.607   4.512   2.109 -0.8456 -0.2676 -1.3184
 9463SOL     OW39847   4.284   4.078  17.614 -0.0090 -0.9278  0.1979
 9463SOL    HW139848   4.201   4.115  17.641 -0.2382  0.1185 -1.8996
 9463SOL    HW239849   4.325   4.065   0.005 -0.6208 -2.6915  0.2190
 9464SOL     OW39850   1.489   1.861   3.786 -0.4378  0.3850  0.0353
 9464SOL    HW139851   1.493   1.789   3.849 -1.0345  0.7531  0.4963
 9464SOL    HW239852   1.424   1.823   3.726 -0.0407 -1.5274  0.8451
 9465SOL     OW39853   2.847   4.358  11.200  0.0443  0.4205  0.2639
 9465SOL    HW139854   2.831   4.375  11.108  0.1252  2.5441  0.6386
 9465SOL    HW239855   2.761   4.347  11.242 -0.0540 -1.4393 -0.4383
 9466SOL     OW39856   3.924   2.504   8.708  0.1026 -0.1335 -0.8486
 9466SOL    HW139857   3.986   2.523   8.637 -1.1068  2.3281 -1.2482
 9466SOL    HW239858   3.990   2.483   8.774 -1.7542 -1.2240  0.6406
 9467SOL     OW39859   2.680   2.441   8.940 -0.0919  0.1169  0.5719
 9467SOL    HW139860   2.634   2.502   8.998  0.1499  0.3427  0.5271
 9467SOL    HW239861   2.762   2.439   8.990  0.7145  0.2167 -0.7632
 9468SOL     OW39862   4.258   3.715   6.323 -0.4169  0.3138 -0.5178
 9468SOL    HW139863   4.234   3.793   6.273 -0.0095  1.7649  1.5845
 9468SOL    HW239864   4.293   3.658   6.254  0.6606 -1.3233  1.4125
 9469SOL     OW39865   0.466   1.997   4.254  0.1851  0.6835  0.2298
 9469SOL    HW139866   0.393   2.050   4.288 -0.5872 -0.5878  0.5528
 9469SOL    HW239867   0.533   2.031   4.314  1.9883 -1.4515 -0.5869
 9470SOL     OW39868   3.294   0.531   8.107  0.1776  0.4445  0.2764
 9470SOL    HW139869   3.216   0.569   8.147 -0.1875 -0.4300  0.4028
 9470SOL    HW239870   3.352   0.535   8.183 -0.6037  0.4710  0.8724
 9471SOL     OW39871   3.979   3.488   7.335  0.5878 -0.2062  0.0895
 9471SOL    HW139872   3.933   3.571   7.343 -0.4321 -0.7831  0.1317
 9471SOL    HW239873   4.000   3.474   7.427  1.0776  1.5773  0.2470
 9472SOL     OW39874   2.752   1.202   8.404 -0.6516 -0.2466  0.3595
 9472SOL    HW139875   2.669   1.225   8.446  0.7796  1.9968  1.9504
 9472SOL    HW239876   2.739   1.256   8.326  3.6878 -0.1386 -0.3007
 9473SOL     OW39877   1.745   2.552   1.527 -0.2622  0.3484 -0.2222
 9473SOL    HW139878   1.745   2.635   1.575  1.3672 -0.9095  1.9580
 9473SOL    HW239879   1.704   2.499   1.595 -0.9252 -0.9569 -1.6291
 9474SOL     OW39880   3.164   1.233   8.653 -0.1350  0.5180 -0.0424
 9474SOL    HW139881   3.204   1.166   8.597 -2.2796 -0.1395 -0.7576
 9474SOL    HW239882   3.212   1.225   8.736  0.3660  0.9826 -0.2887
 9475SOL     OW39883   0.874   2.134  12.095  0.4526  0.4992  0.0543
 9475SOL    HW139884   0.795   2.080  12.094 -0.0429  1.2436 -0.7415
 9475SOL    HW239885   0.923   2.079  12.157 -1.0228 -0.4245  0.4273
 9476SOL     OW39886   3.821   2.135   0.705 -0.2243 -0.1958  0.2307
 9476SOL    HW139887   3.864   2.055   0.734  3.4963  1.8766  0.4864
 9476SOL    HW239888   3.757   2.096   0.646 -0.0620 -0.2682  0.1030
 9477SOL     OW39889   2.712   0.478   4.393 -0.5243  0.3357  0.0542
 9477SOL    HW139890   2.637   0.500   4.338 -1.0501 -0.7509  0.3439
 9477SOL    HW239891   2.787   0.506   4.341 -0.3291  1.3755  0.8766
 9478SOL     OW39892   2.472   1.697   7.966 -0.0125  0.5798 -0.3432
 9478SOL    HW139893   2.393   1.744   7.991 -0.8440 -1.3413  0.6136
 9478SOL    HW239894   2.526   1.704   8.045 -3.0534  3.3080  1.4744
 9479SOL     OW39895   1.682   0.621   1.228  0.1300  0.1143  0.1544
 9479SOL    HW139896   1.619   0.603   1.158  2.0162 -0.4213 -1.4159
 9479SOL    HW239897   1.693   0.532   1.261  1.1653 -0.7851 -2.5352
 9480SOL     OW39898   2.099   1.043   2.948  0.5026 -0.3147  0.3791
 9480SOL    HW139899   2.161   1.003   2.887 -1.7630 -0.9704 -1.5304
 9480SOL    HW239900   2.018   1.046   2.896  1.3531  0.9028 -0.8758
 9481SOL     OW39901   4.054   3.567   8.535  0.3026  0.0326  0.5625
 9481SOL    HW139902   4.051   3.625   8.611  4.4207 -1.0639  1.5499
 9481SOL    HW239903   4.138   3.599   8.502  0.3651 -0.4710  0.2277
 9482SOL     OW39904   1.191   1.433  10.755  0.3828 -0.1604 -0.1120
 9482SOL    HW139905   1.226   1.490  10.686  1.3752  2.0807  2.2365
 9482SOL    HW239906   1.277   1.401  10.782  0.2855 -0.7713 -0.5124
 9483SOL     OW39907   3.338   3.277   1.041  0.0067  0.3945 -0.2016
 9483SOL    HW139908   3.347   3.185   1.014 -0.3663 -0.2463  1.8710
 9483SOL    HW239909   3.349   3.262   1.135  1.1905  2.0229 -0.0787
 9484SOL     OW39910   3.431   0.692   5.728  0.7720  0.1115  0.2549
 9484SOL    HW139911   3.393   0.771   5.768 -0.1610 -0.5307  0.6464
 9484SOL    HW239912   3.393   0.702   5.641 -0.4399 -2.0329  0.5456
 9485SOL     OW39913   0.460   3.193   6.898  0.2282  0.0415 -1.0970
 9485SOL    HW139914   0.423   3.272   6.938  0.3233 -0.1552 -0.6287
 9485SOL    HW239915   0.439   3.219   6.808  2.0654  0.7315 -1.3275
 9486SOL     OW39916   0.296   1.338  13.024  0.0144 -0.3403 -0.2165
 9486SOL    HW139917   0.391   1.335  13.009  0.2535  1.4154  0.9519
 9486SOL    HW239918   0.285   1.315  13.116 -2.3257  0.7702 -0.2121
 9487SOL     OW39919   1.724   3.003   1.928  0.1079  0.3670  0.5737
 9487SOL    HW139920   1.764   2.944   1.992 -1.2706 -0.7414  0.3826
 9487SOL    HW239921   1.794   3.067   1.914  1.1714 -0.8883  0.1592
 9488SOL     OW39922   2.993   2.386   5.002  0.2416  0.5536  0.5739
 9488SOL    HW139923   3.013   2.400   4.910  0.6822 -2.4091  0.2095
 9488SOL    HW239924   2.991   2.476   5.034  1.2997  0.5037  0.7624
 9489SOL     OW39925   2.935   4.309   5.295  0.1836 -0.4888  0.1907
 9489SOL    HW139926   2.872   4.325   5.366  0.0203 -0.2673 -0.0029
 9489SOL    HW239927   2.955   4.401   5.277 -0.8946 -0.1113  0.8591
 9490SOL     OW39928   1.695   0.959   7.192 -0.2639  0.2150 -0.5643
 9490SOL    HW139929   1.663   0.956   7.102  1.1597 -2.1011 -1.0081
 9490SOL    HW239930   1.735   0.873   7.207 -2.2734 -0.5823  0.2008
 9491SOL     OW39931   4.643   3.433   3.662 -0.1906  0.3633 -0.0848
 9491SOL    HW139932   4.673   3.355   3.709  1.3607  1.3891  0.6228
 9491SOL    HW239933   4.722   3.460   3.616  0.1889 -1.9356 -0.8104
 9492SOL     OW39934   0.320   0.156   7.247  0.1535 -1.0007 -0.1739
 9492SOL    HW139935   0.312   0.176   7.340  0.7707 -1.3259 -0.0498
 9492SOL    HW239936   0.249   0.215   7.222  0.9788  0.5103  1.0898
 9493SOL     OW39937   4.442   1.661  10.565  0.4637 -0.3880  0.1001
 9493SOL    HW139938   4.417   1.597  10.498 -3.2812  0.2807  0.8563
 9493SOL    HW239939   4.353   1.687  10.589  0.9047 -0.5708  1.9478
 9494SOL     OW39940   0.503   1.895   8.908 -0.3384 -0.2051  0.4172
 9494SOL    HW139941   0.507   1.953   8.832  0.0160  1.0305  1.3633
 9494SOL    HW239942   0.586   1.919   8.951  0.4034 -0.3491 -0.9327
 9495SOL     OW39943   4.516   4.644  16.665 -0.4564  0.1414  0.9023
 9495SOL    HW139944   4.538   4.581  16.596  2.2116  2.7906 -0.6421
 9495SOL    HW239945   4.436   4.675  16.623 -0.6304 -2.1864 -0.4870
 9496SOL     OW39946   0.967   4.262   4.169  0.2076 -0.0654 -0.0685
 9496SOL    HW139947   1.045   4.240   4.220 -0.4786  0.2611  1.1214
 9496SOL    HW239948   0.967   4.207   4.091 -2.9872  1.4388 -1.1266
 9497SOL     OW39949   4.505   1.232  15.881 -0.1920  0.1508 -0.8190
 9497SOL    HW139950   4.445   1.229  15.955  0.1075 -0.3916 -0.5950
 9497SOL    HW239951   4.444   1.249  15.810  0.0648  2.4296 -0.4748
 9498SOL     OW39952   0.220   2.200  13.334  0.0461 -0.2203 -0.4231
 9498SOL    HW139953   0.302   2.162  13.304 -0.8742 -0.5494 -2.5285
 9498SOL    HW239954   0.189   2.243  13.255 -2.6465 -1.5836 -0.1341
 9499SOL     OW39955   1.642   4.605   5.943 -0.4118 -0.2348 -1.0147
 9499SOL    HW139956   1.627   4.689   5.900 -3.2799  0.3200  1.0963
 9499SOL    HW239957   1.552   4.597   5.976  0.3566 -0.9241  0.9024
 9500SOL     OW39958   0.280   3.864  11.053  0.7075  0.0082  0.1882
 9500SOL    HW139959   0.325   3.793  11.099  0.6376 -0.0232  0.2077
 9500SOL    HW239960   0.359   3.911  11.027 -1.7250  2.4777 -2.7937
 9501SOL     OW39961   4.039   3.602   6.494  0.9001 -0.3176  0.4869
 9501SOL    HW139962   4.034   3.679   6.551 -1.7409 -2.1712  2.7561
 9501SOL    HW239963   4.122   3.624   6.453  1.0571 -1.9055 -0.0368
 9502SOL     OW39964   2.676   0.457   6.135  0.0694  0.0424 -0.2512
 9502SOL    HW139965   2.762   0.472   6.097  0.0879 -1.1962 -0.7024
 9502SOL    HW239966   2.623   0.457   6.055  1.6522 -1.1476 -1.2854
 9503SOL     OW39967   4.364   1.471  10.386  0.6548  0.2069  0.0339
 9503SOL    HW139968   4.369   1.428  10.300 -0.2485  0.1427  0.0132
 9503SOL    HW239969   4.344   1.393  10.438 -0.9445  1.1201  0.7927
 9504SOL     OW39970   2.065   2.240   6.122  0.3967  0.0951  0.1681
 9504SOL    HW139971   2.132   2.181   6.089 -0.5318 -1.0633  0.3544
 9504SOL    HW239972   2.097   2.313   6.069 -0.7292  0.4095 -0.0765
 9505SOL     OW39973   1.937   0.471   9.820 -0.1180  0.5698  0.0702
 9505SOL    HW139974   1.946   0.482   9.915 -2.3760  2.9997  0.0077
 9505SOL    HW239975   1.915   0.378   9.820 -1.2608  0.8272 -2.6049
 9506SOL     OW39976   3.345   4.147  15.363 -0.4033 -0.5715  0.0301
 9506SOL    HW139977   3.384   4.081  15.305  1.0045  1.1732 -1.0262
 9506SOL    HW239978   3.272   4.098  15.400  0.3351 -1.8045 -0.1747
 9507SOL     OW39979   1.135   2.020  15.302  0.2066 -0.1613 -0.0322
 9507SOL    HW139980   1.195   2.061  15.364 -0.0527 -1.7616  1.2713
 9507SOL    HW239981   1.083   2.096  15.278  1.2837  0.6873  0.3518
 9508SOL     OW39982   0.487   1.056   3.099  0.2414  0.1212  0.0639
 9508SOL    HW139983   0.531   1.135   3.130  0.4608  0.4716 -1.1515
 9508SOL    HW239984   0.397   1.084   3.116 -0.6523 -2.1978 -0.7669
 9509SOL     OW39985   4.614   4.093   1.243 -0.3032 -0.4742 -0.5684
 9509SOL    HW139986   4.594   4.177   1.284  1.1680 -0.8069  0.8653
 9509SOL    HW239987   4.691   4.109   1.189  0.6881 -0.6105  0.7907
 9510SOL     OW39988   1.393   1.680   6.373  0.1341 -0.1253 -0.1332
 9510SOL    HW139989   1.303   1.708   6.389 -0.0243 -0.6791 -0.0320
 9510SOL    HW239990   1.443   1.758   6.352  0.6094  0.1041  1.8373
 9511SOL     OW39991   4.139   3.628  16.211  0.3300 -0.5180  0.1501
 9511SOL    HW139992   4.112   3.536  16.214 -0.7882 -0.2419 -1.1384
 9511SOL    HW239993   4.076   3.667  16.271 -0.5333 -0.4386 -0.8040
 9512SOL     OW39994   4.212   2.207   1.205 -0.4696  0.1528 -0.0726
 9512SOL    HW139995   4.134   2.152   1.191  1.3758 -2.8211  1.1788
 9512SOL    HW239996   4.205   2.270   1.134 -0.9115  0.4780  0.2550
 9513SOL     OW39997   0.357   3.191   2.030 -0.0094  0.1322 -0.1593
 9513SOL    HW139998   0.323   3.209   1.942 -0.5793  0.1831  0.0733
 9513SOL    HW239999   0.424   3.125   2.009  1.4163  0.5605  3.0439
 9514SOL     OW40000   1.563   3.295   3.541  0.1402 -0.4875  0.1061
 9514SOL    HW140001   1.470   3.312   3.527  0.3502  1.5120  1.2677
 9514SOL    HW240002   1.598   3.342   3.466  0.1135 -0.5437  0.0579
 9515SOL     OW40003   4.407   2.105   4.353  0.0413 -0.0906 -0.0930
 9515SOL    HW140004   4.338   2.168   4.374 -1.2950 -1.2489 -0.9402
 9515SOL    HW240005   4.388   2.068   4.266 -0.6210 -0.9246  0.4165
 9516SOL     OW40006   0.920   3.289  12.839 -0.2972 -0.6353  0.3529
 9516SOL    HW140007   0.983   3.343  12.887  0.1005 -1.1561  0.4078
 9516SOL    HW240008   0.967   3.206  12.834  1.8664  0.5341  1.3580
 9517SOL     OW40009   2.885   2.321   8.327 -0.2556 -0.0991  0.1700
 9517SOL    HW140010   2.854   2.395   8.379 -0.9385 -1.5850  1.8928
 9517SOL    HW240011   2.810   2.262   8.334  0.9052 -1.5915  0.1005
 9518SOL     OW40012   3.560   0.900   6.628  0.9345  0.7002 -0.1670
 9518SOL    HW140013   3.569   0.810   6.598 -1.2435  0.0088  1.3115
 9518SOL    HW240014   3.483   0.938   6.587  0.0924  0.1289  0.8717
 9519SOL     OW40015   3.428   1.296  15.958 -0.4240 -0.3935  0.7561
 9519SOL    HW140016   3.444   1.208  15.992 -1.1371  0.1256  2.4239
 9519SOL    HW240017   3.340   1.286  15.923 -0.7727 -1.2411  1.8760
 9520SOL     OW40018   2.765   3.559   2.631  0.4395  0.0839 -0.7295
 9520SOL    HW140019   2.735   3.468   2.626 -0.5658  0.4375 -1.0204
 9520SOL    HW240020   2.824   3.554   2.706  0.0022  1.9028 -0.2797
 9521SOL     OW40021   2.460   4.090   7.011 -0.6089  0.6691 -0.2397
 9521SOL    HW140022   2.512   4.015   6.983  0.1595  0.6856  1.1489
 9521SOL    HW240023   2.531   4.139   7.053  1.0202 -0.3925 -1.7700
 9522SOL     OW40024   2.504   0.638   8.770  0.0018 -0.1949 -0.1678
 9522SOL    HW140025   2.446   0.581   8.719  0.8744 -0.8016 -0.4723
 9522SOL    HW240026   2.544   0.571   8.826 -0.0436 -1.7624 -2.0424
 9523SOL     OW40027   4.192   1.061   5.110  0.0823  0.5039 -0.4511
 9523SOL    HW140028   4.141   1.079   5.032  1.4271 -0.1045 -1.4721
 9523SOL    HW240029   4.129   1.070   5.182 -0.3252 -1.6248 -0.5514
 9524SOL     OW40030   0.764   3.940   2.735 -0.3226 -0.0271 -0.7717
 9524SOL    HW140031   0.839   3.998   2.724 -1.4433  1.3831 -0.8665
 9524SOL    HW240032   0.754   3.900   2.648  0.1086 -2.3031  0.2335
 9525SOL     OW40033   4.563   3.404  10.019 -0.0139  0.0617 -0.0788
 9525SOL    HW140034   4.557   3.498  10.000 -0.2937  0.1511  0.4769
 9525SOL    HW240035   4.652   3.380   9.992  0.4436  1.3174  0.3210
 9526SOL     OW40036   0.548   0.897   1.371  0.5006 -0.2059  0.4884
 9526SOL    HW140037   0.589   0.979   1.400 -1.5849  0.4157  1.6482
 9526SOL    HW240038   0.594   0.830   1.421 -0.3340 -0.5164  0.8399
 9527SOL     OW40039   1.777   1.522   9.526  0.0845 -0.3364  0.6037
 9527SOL    HW140040   1.747   1.515   9.435 -2.2223  0.5375  1.2909
 9527SOL    HW240041   1.847   1.457   9.531  1.3085  1.0606  1.6270
 9528SOL     OW40042   2.307   2.365   4.287  0.1754  0.0279  0.0078
 9528SOL    HW140043   2.237   2.323   4.336  1.1367 -2.0067 -0.3762
 9528SOL    HW240044   2.373   2.364   4.357 -0.5039  0.2956  0.6522
 9529SOL     OW40045   4.704   4.584  16.898  0.0408  0.0350  0.6118
 9529SOL    HW140046   4.617   4.545  16.908  0.4559 -0.2563  3.1835
 9529SOL    HW240047   4.691   4.628  16.814 -0.2675 -0.9760  0.1288
 9530SOL     OW40048   2.308   2.061  10.381 -0.3848 -0.0746  0.3038
 9530SOL    HW140049   2.388   2.113  10.392  0.5143 -1.6065  1.0973
 9530SOL    HW240050   2.240   2.125  10.361  1.8827  2.0620 -0.5456
 9531SOL     OW40051   2.541   1.024   5.856  0.1562  0.4910  0.0680
 9531SOL    HW140052   2.515   0.997   5.944 -0.6622 -1.2663 -0.7296
 9531SOL    HW240053   2.519   0.948   5.803 -0.6492  0.8953 -0.1845
 9532SOL     OW40054   2.815   1.854   5.023 -0.5632  0.0342 -0.1590
 9532SOL    HW140055   2.895   1.808   4.998 -1.4997 -1.4665 -0.3900
 9532SOL    HW240056   2.802   1.830   5.115 -1.4817  1.3149  0.0440
 9533SOL     OW40057   1.626   1.241  17.038 -0.0538  0.2889 -0.7031
 9533SOL    HW140058   1.543   1.285  17.022  0.0719  0.0089 -2.1301
 9533SOL    HW240059   1.685   1.308  17.003 -0.7111  2.4943  2.4408
 9534SOL     OW40060   0.794   2.995   8.076 -0.2606 -0.1483  0.0431
 9534SOL    HW140061   0.828   2.912   8.043 -0.3036  0.9264 -2.7124
 9534SOL    HW240062   0.751   2.979   8.160  0.9346 -1.2613  0.4325
 9535SOL     OW40063   0.537   2.392   8.579 -0.1916  0.3514 -0.2271
 9535SOL    HW140064   0.605   2.369   8.515  0.1323  0.9877 -0.1079
 9535SOL    HW240065   0.574   2.366   8.663  1.2253  1.5125 -0.4878
 9536SOL     OW40066   3.643   4.232   4.090 -0.4034 -0.3909  0.1291
 9536SOL    HW140067   3.632   4.301   4.155  0.4356 -0.1341  0.0086
 9536SOL    HW240068   3.703   4.166   4.126  0.7846 -0.9818 -2.9464
 9537SOL     OW40069   1.347   3.321   4.141  0.2812 -0.3073 -0.0778
 9537SOL    HW140070   1.292   3.391   4.107 -1.1617 -0.6963  1.4076
 9537SOL    HW240071   1.409   3.311   4.070 -1.0713 -0.4781 -1.2307
 9538SOL     OW40072   1.072   0.628   1.219 -0.1474  0.0666  0.4080
 9538SOL    HW140073   0.985   0.667   1.227 -0.1705  0.2835 -0.9232
 9538SOL    HW240074   1.060   0.581   1.137 -1.7206  1.3989 -0.1093
 9539SOL     OW40075   4.452   1.505  16.213  0.3599 -0.7640  0.3045
 9539SOL    HW140076   4.420   1.426  16.257 -1.2664  1.2102  2.6735
 9539SOL    HW240077   4.547   1.492  16.203  0.3999 -1.2249  1.2656
 9540SOL     OW40078   0.557   1.905   4.981  0.2625  0.5095 -0.1944
 9540SOL    HW140079   0.480   1.850   4.968  0.4722 -0.0188  0.7723
 9540SOL    HW240080   0.594   1.896   4.893  2.5017  1.7218  0.6306
 9541SOL     OW40081   3.706   2.831   5.420 -0.3727  0.4152 -0.1509
 9541SOL    HW140082   3.675   2.820   5.331  0.3310  0.6347 -0.4276
 9541SOL    HW240083   3.639   2.783   5.468  0.0002 -0.3716 -0.4116
 9542SOL     OW40084   3.022   3.398  10.918 -0.0964 -0.3847  0.6830
 9542SOL    HW140085   2.979   3.313  10.926  0.4346 -0.8943 -1.9614
 9542SOL    HW240086   2.953   3.456  10.950 -2.2913 -2.5643 -0.0982
 9543SOL     OW40087   4.338   0.311   4.214  0.1843 -0.3871  0.0823
 9543SOL    HW140088   4.368   0.378   4.153 -0.8919  0.1947  0.1889
 9543SOL    HW240089   4.354   0.228   4.169  0.6885 -0.2556  0.0213
 9544SOL     OW40090   3.387   2.738   8.191 -0.0825  0.2079  0.3882
 9544SOL    HW140091   3.363   2.677   8.122  1.1734 -1.6078  1.5551
 9544SOL    HW240092   3.310   2.747   8.248  0.6108 -0.1174  1.3759
 9545SOL     OW40093   2.476   1.270   8.430  0.0163 -0.0685  0.5346
 9545SOL    HW140094   2.394   1.275   8.479 -0.2321  0.1055  0.1013
 9545SOL    HW240095   2.450   1.253   8.339  0.1294  1.5693  0.2046
 9546SOL     OW40096   4.077   1.834   9.077 -0.1264  0.4040 -0.0925
 9546SOL    HW140097   4.153   1.809   9.025 -0.4334  1.0694 -0.8558
 9546SOL    HW240098   4.002   1.848   9.020  0.4041  2.8611 -0.1948
 9547SOL     OW40099   2.334   3.931   6.066 -0.1496 -0.6888  0.2252
 9547SOL    HW140100   2.295   4.018   6.071  0.2554 -0.4803 -0.3129
 9547SOL    HW240101   2.392   3.928   6.142 -2.0365  1.8236  1.7679
 9548SOL     OW40102   2.908   4.427   0.720 -0.0651  0.3307 -0.4912
 9548SOL    HW140103   2.967   4.501   0.708  0.6629 -0.2157 -0.2372
 9548SOL    HW240104   2.862   4.466   0.795  0.1207  1.0297 -0.7437
 9549SOL     OW40105   4.447   3.343   7.933  0.8248  0.1093  0.3015
 9549SOL    HW140106   4.456   3.253   7.903 -0.2501  0.7988 -2.0801
 9549SOL    HW240107   4.443   3.324   8.027 -2.2539 -1.5800 -0.1748
 9550SOL     OW40108   3.873   0.011  16.432  0.3738  0.0525 -0.3371
 9550SOL    HW140109   3.803   4.695  16.379  0.0211 -0.6824  0.6839
 9550SOL    HW240110   3.826   0.082  16.477  0.6882 -0.1167  0.2546
 9551SOL     OW40111   2.805   2.233   1.999 -0.0219 -0.5157  0.0350
 9551SOL    HW140112   2.855   2.233   2.080  2.0486  0.7152 -1.2346
 9551SOL    HW240113   2.737   2.167   2.016  0.0225 -0.8555 -1.0673
 9552SOL     OW40114   0.478   3.618   3.415  0.0587 -0.2578  0.5198
 9552SOL    HW140115   0.540   3.658   3.353 -1.8073  1.8838  0.0242
 9552SOL    HW240116   0.484   3.531   3.375 -1.0333 -0.1626  0.1442
 9553SOL     OW40117   1.563   2.775  11.307  0.1544  0.1146 -0.0770
 9553SOL    HW140118   1.584   2.867  11.289 -0.7942  0.4883  0.7094
 9553SOL    HW240119   1.542   2.746  11.218  0.8994  2.1851 -0.9290
 9554SOL     OW40120   2.056   0.780  15.576  0.1337  0.2650 -0.9143
 9554SOL    HW140121   2.049   0.875  15.570 -3.0930  0.0478 -0.5754
 9554SOL    HW240122   2.035   0.774  15.669 -0.1783  0.6206 -0.9636
 9555SOL     OW40123   1.852   4.346   1.662 -0.3658 -0.3486  0.2255
 9555SOL    HW140124   1.908   4.288   1.712  0.6301  0.0649 -0.4180
 9555SOL    HW240125   1.765   4.332   1.699  0.0379 -2.0958  0.4833
 9556SOL     OW40126   1.197   2.014   8.778  0.5465  0.7288 -0.5526
 9556SOL    HW140127   1.239   1.984   8.859 -0.6826  2.5125  0.7707
 9556SOL    HW240128   1.244   2.087   8.737  0.6438  0.9647 -0.0373
 9557SOL     OW40129   1.599   4.656   8.129  0.0805 -0.2015  0.0299
 9557SOL    HW140130   1.529   4.631   8.068 -0.2080  1.4703 -0.3174
 9557SOL    HW240131   1.623   0.024   8.113 -2.8183  0.8126  1.4392
 9558SOL     OW40132   1.971   1.107  16.204 -0.8323 -0.1718 -0.0343
 9558SOL    HW140133   1.954   1.054  16.282 -1.6189  0.7021  0.3934
 9558SOL    HW240134   2.060   1.081  16.183 -1.3960 -1.3133 -1.0192
 9559SOL     OW40135   4.076   2.619  13.041  0.2875 -0.1392  0.6001
 9559SOL    HW140136   4.052   2.692  12.983 -1.8168 -0.0522  1.6025
 9559SOL    HW240137   4.069   2.543  12.984 -0.1833  0.6080 -0.3399
 9560SOL     OW40138   3.578   2.252  13.381  0.0173 -0.0494 -0.1906
 9560SOL    HW140139   3.514   2.283  13.445 -1.2837 -1.8201 -0.6411
 9560SOL    HW240140   3.577   2.327  13.322  0.2397 -2.2443 -2.9843
 9561SOL     OW40141   4.534   3.613   5.474  0.1366 -0.5431 -0.2540
 9561SOL    HW140142   4.580   3.685   5.431 -0.4109  0.1247  0.2802
 9561SOL    HW240143   4.496   3.567   5.399 -1.4624  0.9864 -0.3870
 9562SOL     OW40144   2.150   2.512   3.362  0.4466 -0.2867  0.3852
 9562SOL    HW140145   2.070   2.562   3.378  0.5589  0.1569 -0.4373
 9562SOL    HW240146   2.116   2.422   3.360 -0.8406  0.1869  0.7822
 9563SOL     OW40147   3.415   0.839   1.434  0.3109  0.2902  0.5017
 9563SOL    HW140148   3.431   0.907   1.499 -3.1840  1.8835 -0.3063
 9563SOL    HW240149   3.319   0.838   1.428  0.4321  0.4519 -1.5533
 9564SOL     OW40150   3.501   2.668   5.231  0.3625 -0.5996 -0.7323
 9564SOL    HW140151   3.407   2.649   5.241 -0.0802  0.7388 -2.4029
 9564SOL    HW240152   3.545   2.583   5.239 -0.1708 -0.7809  0.2940
 9565SOL     OW40153   0.093   2.392   1.590  0.6834 -0.0385 -0.2351
 9565SOL    HW140154   0.181   2.406   1.554  0.0886  3.2735 -0.4505
 9565SOL    HW240155   0.114   2.329   1.659 -0.1300  0.3503  0.3724
   4.72322   4.72322  17.69472
